 Entering Gaussian System, Link 0=/usr/local/Cluster-Apps/gaussian/g09/g09
 Initial command:
 /usr/local/Cluster-Apps/gaussian/g09/l1.exe "/home/ke291/rds/hpc-work/26Jun1158AT3NMR/Gau-19450.inp" -scrdir="/home/ke291/rds/hpc-work/26Jun1158AT3NMR/"
 Entering Link 1 = /usr/local/Cluster-Apps/gaussian/g09/l1.exe PID=     19457.
  
 Copyright (c) 1988,1990,1992,1993,1995,1998,2003,2009,2013,
            Gaussian, Inc.  All Rights Reserved.
  
 This is part of the Gaussian(R) 09 program.  It is based on
 the Gaussian(R) 03 system (copyright 2003, Gaussian, Inc.),
 the Gaussian(R) 98 system (copyright 1998, Gaussian, Inc.),
 the Gaussian(R) 94 system (copyright 1995, Gaussian, Inc.),
 the Gaussian 92(TM) system (copyright 1992, Gaussian, Inc.),
 the Gaussian 90(TM) system (copyright 1990, Gaussian, Inc.),
 the Gaussian 88(TM) system (copyright 1988, Gaussian, Inc.),
 the Gaussian 86(TM) system (copyright 1986, Carnegie Mellon
 University), and the Gaussian 82(TM) system (copyright 1983,
 Carnegie Mellon University). Gaussian is a federally registered
 trademark of Gaussian, Inc.
  
 This software contains proprietary and confidential information,
 including trade secrets, belonging to Gaussian, Inc.
  
 This software is provided under written license and may be
 used, copied, transmitted, or stored only in accord with that
 written license.
  
 The following legend is applicable only to US Government
 contracts under FAR:
  
                    RESTRICTED RIGHTS LEGEND
  
 Use, reproduction and disclosure by the US Government is
 subject to restrictions as set forth in subparagraphs (a)
 and (c) of the Commercial Computer Software - Restricted
 Rights clause in FAR 52.227-19.
  
 Gaussian, Inc.
 340 Quinnipiac St., Bldg. 40, Wallingford CT 06492
  
  
 ---------------------------------------------------------------
 Warning -- This program may not be used in any manner that
 competes with the business of Gaussian, Inc. or will provide
 assistance to any competitor of Gaussian, Inc.  The licensee
 of this program is prohibited from giving any competitor of
 Gaussian, Inc. access to this program.  By using this program,
 the user acknowledges that Gaussian, Inc. is engaged in the
 business of creating and licensing software in the field of
 computational chemistry and represents and warrants to the
 licensee that it is not a competitor of Gaussian, Inc. and that
 it will not use this program in any manner prohibited above.
 ---------------------------------------------------------------
  

 Cite this work as:
 Gaussian 09, Revision D.01,
 M. J. Frisch, G. W. Trucks, H. B. Schlegel, G. E. Scuseria, 
 M. A. Robb, J. R. Cheeseman, G. Scalmani, V. Barone, B. Mennucci, 
 G. A. Petersson, H. Nakatsuji, M. Caricato, X. Li, H. P. Hratchian, 
 A. F. Izmaylov, J. Bloino, G. Zheng, J. L. Sonnenberg, M. Hada, 
 M. Ehara, K. Toyota, R. Fukuda, J. Hasegawa, M. Ishida, T. Nakajima, 
 Y. Honda, O. Kitao, H. Nakai, T. Vreven, J. A. Montgomery, Jr., 
 J. E. Peralta, F. Ogliaro, M. Bearpark, J. J. Heyd, E. Brothers, 
 K. N. Kudin, V. N. Staroverov, T. Keith, R. Kobayashi, J. Normand, 
 K. Raghavachari, A. Rendell, J. C. Burant, S. S. Iyengar, J. Tomasi, 
 M. Cossi, N. Rega, J. M. Millam, M. Klene, J. E. Knox, J. B. Cross, 
 V. Bakken, C. Adamo, J. Jaramillo, R. Gomperts, R. E. Stratmann, 
 O. Yazyev, A. J. Austin, R. Cammi, C. Pomelli, J. W. Ochterski, 
 R. L. Martin, K. Morokuma, V. G. Zakrzewski, G. A. Voth, 
 P. Salvador, J. J. Dannenberg, S. Dapprich, A. D. Daniels, 
 O. Farkas, J. B. Foresman, J. V. Ortiz, J. Cioslowski, 
 and D. J. Fox, Gaussian, Inc., Wallingford CT, 2013.
 
 ******************************************
 Gaussian 09:  ES64L-G09RevD.01 24-Apr-2013
                26-Jun-2019 
 ******************************************
 %nprocshared=4
 Will use up to    4 processors via shared memory.
 %mem=6000MB
 %chk=AT3_2ginp005.chk
 --------------------------------------------------------
 # m062x/def2tzvp int=ultrafine scrf=(solvent=chloroform)
 --------------------------------------------------------
 1/38=1/1;
 2/12=2,17=6,18=5,40=1/2;
 3/5=44,7=101,11=2,16=1,25=1,30=1,70=2201,72=7,74=-55,75=-5/1,2,3;
 4//1;
 5/5=2,38=5,53=7/2;
 6/7=2,8=2,9=2,10=2,28=1/1;
 99/5=1,9=1/99;
 ------------
 AT3_2ginp005
 ------------
 Symbolic Z-matrix:
 Charge =  0 Multiplicity = 1
 C                     1.63356   3.11673  -0.4549 
 C                     2.5044    1.99506   0.12346 
 C                     2.15951   0.56966  -0.35219 
 C                     3.22074  -0.47306   0.09772 
 C                     2.91489  -1.86194  -0.4961 
 O                     1.7913   -2.49322   0.09967 
 N                     0.79279   0.12685   0.04478 
 C                    -0.2566    0.33913  -0.97352 
 C                    -4.16585  -0.47108   0.71278 
 C                    -3.38218  -1.52776   0.24564 
 C                    -2.13482  -1.23675  -0.29139 
 C                    -1.62248   0.05844  -0.3983 
 C                    -2.44723   1.07165   0.0942 
 C                    -3.70401   0.84374   0.64125 
 H                    -5.14354  -0.6743    1.13682 
 H                    -3.71861  -2.55689   0.29228 
 H                    -4.29296   1.68013   0.99908 
 F                    -1.37004  -2.25495  -0.74543 
 F                    -1.99395   2.34836   0.03025 
 H                     1.98964   4.09283  -0.10988 
 H                     1.66334   3.12257  -1.55039 
 H                     0.5876    3.02615  -0.14707 
 H                     3.5548    2.18922  -0.12918 
 H                     2.44779   2.02929   1.21918 
 H                     4.17485  -0.14884  -0.34342 
 H                     3.77618  -2.52291  -0.33705 
 H                     2.78547  -1.76415  -1.58915 
 H                     1.12358  -1.77787   0.16603 
 H                    -0.25184   1.35283  -1.38976 
 H                    -0.06552  -0.35443  -1.798 
 H                     2.17326   0.56887  -1.45112 
 C                     3.4002   -0.56362   1.62093 
 H                     2.46824  -0.8606    2.10976 
 H                     4.15171  -1.32087   1.86821 
 H                     3.73247   0.3837    2.05417 
 H                     0.51866   0.59111   0.90768 
 
                          Input orientation:                          
 ---------------------------------------------------------------------
 Center     Atomic      Atomic             Coordinates (Angstroms)
 Number     Number       Type             X           Y           Z
 ---------------------------------------------------------------------
      1          6           0        1.633559    3.116731   -0.454897
      2          6           0        2.504403    1.995063    0.123459
      3          6           0        2.159514    0.569663   -0.352186
      4          6           0        3.220745   -0.473063    0.097718
      5          6           0        2.914887   -1.861938   -0.496100
      6          8           0        1.791298   -2.493217    0.099668
      7          7           0        0.792790    0.126847    0.044780
      8          6           0       -0.256600    0.339133   -0.973517
      9          6           0       -4.165846   -0.471080    0.712784
     10          6           0       -3.382178   -1.527761    0.245642
     11          6           0       -2.134815   -1.236748   -0.291386
     12          6           0       -1.622478    0.058435   -0.398298
     13          6           0       -2.447226    1.071646    0.094198
     14          6           0       -3.704010    0.843735    0.641249
     15          1           0       -5.143537   -0.674297    1.136825
     16          1           0       -3.718614   -2.556886    0.292277
     17          1           0       -4.292957    1.680134    0.999075
     18          9           0       -1.370040   -2.254946   -0.745426
     19          9           0       -1.993954    2.348363    0.030251
     20          1           0        1.989643    4.092829   -0.109881
     21          1           0        1.663335    3.122570   -1.550390
     22          1           0        0.587599    3.026151   -0.147066
     23          1           0        3.554803    2.189221   -0.129175
     24          1           0        2.447786    2.029294    1.219182
     25          1           0        4.174850   -0.148839   -0.343416
     26          1           0        3.776182   -2.522908   -0.337047
     27          1           0        2.785471   -1.764145   -1.589145
     28          1           0        1.123582   -1.777867    0.166031
     29          1           0       -0.251841    1.352832   -1.389763
     30          1           0       -0.065518   -0.354431   -1.798001
     31          1           0        2.173259    0.568871   -1.451115
     32          6           0        3.400199   -0.563620    1.620929
     33          1           0        2.468242   -0.860599    2.109757
     34          1           0        4.151707   -1.320870    1.868213
     35          1           0        3.732465    0.383702    2.054170
     36          1           0        0.518658    0.591109    0.907677
 ---------------------------------------------------------------------
                    Distance matrix (angstroms):
                    1          2          3          4          5
     1  C    0.000000
     2  C    1.533298   0.000000
     3  C    2.602832   1.541737   0.000000
     4  C    3.963731   2.570108   1.554317   0.000000
     5  C    5.141074   3.927952   2.550291   1.541150   0.000000
     6  O    5.639498   4.544639   3.117850   2.474741   1.419826
     7  N    3.145787   2.534964   1.490504   2.501532   2.958228
     8  C    3.399517   3.401264   2.505355   3.728154   3.889855
     9  C    6.918740   7.135922   6.498268   7.412155   7.316602
    10  C    6.871658   6.861272   5.955412   6.688263   6.349400
    11  C    5.760222   5.669131   4.659193   5.423711   5.092373
    12  C    4.467455   4.588453   3.816667   4.897482   4.927989
    13  C    4.597465   5.037081   4.655459   5.874694   6.140572
    14  C    5.904040   6.335460   5.953398   7.069768   7.240444
    15  H    7.926822   8.163540   7.556398   8.430982   8.307535
    16  H    7.835429   7.711983   6.689023   7.248095   6.716236
    17  H    6.269086   6.860757   6.685315   7.867936   8.169139
    18  F    6.161244   5.816257   4.537709   4.996129   4.310130
    19  F    3.739600   4.513172   4.534460   5.929425   6.488482
    20  H    1.094806   2.172567   3.535572   4.733506   6.038584
    21  H    1.095913   2.186421   2.863428   4.250925   5.246259
    22  H    1.094074   2.193277   2.923581   4.386100   5.425081
    23  H    2.158135   1.097662   2.149310   2.692737   4.117768
    24  H    2.155928   1.097719   2.163983   2.849024   4.278091
    25  H    4.139388   2.757659   2.139603   1.100017   2.132024
    26  H    6.034091   4.716095   3.489676   2.167809   1.097273
    27  H    5.141631   4.140490   2.714507   2.168378   1.105016
    28  H    4.960113   4.017895   2.617747   2.470885   1.911612
    29  H    2.745915   3.209234   2.739444   4.195872   4.600168
    30  H    4.091425   3.977012   2.809822   3.795701   3.584737
    31  H    2.788426   2.150108   1.099015   2.140499   2.714940
    32  C    4.579853   3.097051   2.591681   1.536417   2.530409
    33  H    4.805549   3.478720   2.863935   2.182830   2.827130
    34  H    5.606265   4.093066   3.531730   2.172584   2.722582
    35  H    4.262660   2.798619   2.880852   2.196271   3.495026
    36  H    3.078698   2.555243   2.068846   3.014925   3.705394
                    6          7          8          9         10
     6  O    0.000000
     7  N    2.804419   0.000000
     8  C    3.656203   1.477570   0.000000
     9  C    6.320800   5.039029   4.333851   0.000000
    10  C    5.264814   4.495379   3.839385   1.396042   0.000000
    11  C    4.140773   3.247040   2.544876   2.391588   1.388885
    12  C    4.291010   2.456526   1.508407   2.825528   2.455040
    13  C    5.538354   3.375321   2.544687   2.390880   2.766584
    14  C    6.451897   4.592485   3.840147   1.395403   2.425711
    15  H    7.244039   6.088873   5.418739   1.084891   2.150580
    16  H    5.513645   5.255135   4.687718   2.174265   1.083726
    17  H    7.432627   5.402611   4.688452   2.173900   3.418738
    18  F    3.281008   3.312883   2.832141   3.622856   2.357904
    19  F    6.146043   3.563886   2.839534   3.623841   4.122851
    20  H    6.592363   4.145527   4.458891   7.706886   7.782923
    21  H    5.854582   3.503823   3.430227   7.212186   7.092849
    22  H    5.654484   2.912880   2.935261   5.963657   6.054045
    23  H    5.008747   3.451429   4.320015   8.209416   7.878969
    24  H    4.705039   2.781643   3.870178   7.088613   6.898471
    25  H    3.372499   3.415410   4.502543   8.413478   7.704355
    26  H    2.032576   4.008444   4.985951   8.269701   7.250653
    27  H    2.090936   3.196301   3.749263   7.435839   6.439116
    28  H    0.980803   1.937024   2.772212   5.475827   4.513398
    29  H    4.602707   2.156897   1.095842   4.802790   4.557562
    30  H    3.409299   2.089058   1.094220   4.809401   4.068589
    31  H    3.453579   2.082974   2.486985   6.778511   6.175575
    32  C    2.937029   3.124031   4.573652   7.620914   6.987247
    33  H    2.676593   2.836603   4.286105   6.790757   6.176362
    34  H    3.173906   4.086945   5.501292   8.440311   7.709407
    35  H    3.983073   3.570058   5.008145   8.056878   7.585685
    36  H    3.433010   1.017487   2.050221   4.807370   4.488254
                   11         12         13         14         15
    11  C    0.000000
    12  C    1.396932   0.000000
    13  C    2.361135   1.396194   0.000000
    14  C    2.767777   2.455632   1.389501   0.000000
    15  H    3.377654   3.910416   3.377200   2.149943   0.000000
    16  H    2.142859   3.422073   3.849923   3.418511   2.507550
    17  H    3.851112   3.422575   2.143778   1.083726   2.507151
    18  F    1.351947   2.352861   3.596041   4.119722   4.503399
    19  F    3.602265   2.359114   1.356300   2.358287   4.503427
    20  H    6.741549   5.422816   5.371685   6.598370   8.669603
    21  H    5.917321   4.638190   4.879310   6.229347   8.244442
    22  H    5.060106   3.708759   3.617798   4.878759   6.941730
    23  H    6.643443   5.605079   6.109273   7.422550   9.244653
    24  H    5.826584   4.802872   5.113103   6.291594   8.058807
    25  H    6.402978   5.801292   6.747813   8.001950   9.449844
    26  H    6.049477   5.984364   7.199833   8.261030   9.227733
    27  H    5.115813   4.916292   6.185182   7.340917   8.455049
    28  H    3.334545   3.351316   4.568977   5.514007   6.437165
    29  H    3.384959   2.130050   2.664755   4.037531   5.866991
    30  H    2.707464   2.133952   3.359560   4.541384   5.873823
    31  H    4.812975   3.971975   4.897924   6.244664   7.859924
    32  C    5.894610   5.448992   6.260781   7.308229   8.558156
    33  H    5.205296   4.885586   5.653130   6.569472   7.675968
    34  H    6.647654   6.354586   7.239971   8.240343   9.346365
    35  H    6.523225   5.898798   6.519458   7.583478   8.985783
    36  H    3.437984   2.563938   3.112737   4.238600   5.806394
                   16         17         18         19         20
    16  H    0.000000
    17  H    4.333794   0.000000
    18  F    2.585304   5.203036   0.000000
    19  F    5.206206   2.582744   4.709713   0.000000
    20  H    8.772949   6.820700   7.210106   4.351074   0.000000
    21  H    8.038471   6.637606   6.226316   4.058766   1.767186
    22  H    7.064474   5.190879   5.663954   2.674931   1.762076
    23  H    8.695157   7.944775   6.662167   5.553328   2.464512
    24  H    7.740587   6.753368   6.065492   4.609167   2.496894
    25  H    8.277051   8.766480   5.945007   6.665567   4.777177
    26  H    7.521248   9.195748   5.169350   7.560335   6.856479
    27  H    6.816987   8.286500   4.268609   6.509844   6.093087
    28  H    4.906085   6.480018   2.697500   5.173320   5.940645
    29  H    5.489414   4.705772   3.831658   2.458146   3.764297
    30  H    4.750282   5.462081   2.534097   3.790312   5.181849
    31  H    6.893761   7.003591   4.585511   4.767253   3.775037
    32  C    7.511053   8.037772   5.587074   6.332992   5.164096
    33  H    6.667669   7.307719   4.982839   5.876476   5.449064
    34  H    8.121161   9.004098   6.180073   7.389893   6.155933
    35  H    8.201823   8.197644   6.390286   6.383417   4.634454
    36  H    5.314420   4.934163   3.794728   3.189206   3.932081
                   21         22         23         24         25
    21  H    0.000000
    22  H    1.770825   0.000000
    23  H    2.543353   3.083030   0.000000
    24  H    3.079147   2.514091   1.751893   0.000000
    25  H    4.297279   4.794527   2.428350   3.188844   0.000000
    26  H    6.148800   6.402750   4.721904   4.990894   2.407318
    27  H    5.014048   5.464171   4.283980   4.731904   2.468082
    28  H    5.220318   4.843955   4.662164   4.166187   3.496213
    29  H    2.612599   2.246987   4.096238   3.814732   4.790141
    30  H    3.890987   3.818440   4.728834   4.593717   4.487628
    31  H    2.606004   3.202044   2.506337   3.055926   2.397597
    32  C    5.163522   4.891112   3.265716   2.791361   2.151924
    33  H    5.469021   4.872052   3.936348   3.024074   3.071998
    34  H    6.133759   5.971667   4.082474   3.814209   2.503097
    35  H    4.977504   4.660275   2.838742   2.248461   2.495541
    36  H    3.709538   2.654556   3.584299   2.426303   3.934526
                   26         27         28         29         30
    26  H    0.000000
    27  H    1.767761   0.000000
    28  H    2.800796   2.417169   0.000000
    29  H    5.688105   4.356669   3.756802   0.000000
    30  H    4.647078   3.187327   2.701398   1.765254   0.000000
    31  H    3.656447   2.415951   3.037131   2.549406   2.446413
    32  C    2.795325   3.481914   2.962112   5.106315   4.872785
    33  H    3.234320   3.820851   2.535264   4.954268   4.684732
    34  H    2.539505   3.743851   3.503685   6.095435   5.670989
    35  H    3.764068   4.334027   3.878623   5.354865   5.459738
    36  H    4.675244   4.113366   2.554999   2.540103   2.925064
                   31         32         33         34         35
    31  H    0.000000
    32  C    3.496480   0.000000
    33  H    3.848403   1.093478   0.000000
    34  H    4.301548   1.095144   1.761887   0.000000
    35  H    3.840890   1.093397   1.774721   1.765194   0.000000
    36  H    2.881336   3.185185   2.711702   4.216318   3.418482
                   36
    36  H    0.000000
 Stoichiometry    C13H19F2NO
 Framework group  C1[X(C13H19F2NO)]
 Deg. of freedom   102
 Full point group                 C1      NOp   1
 Largest Abelian subgroup         C1      NOp   1
 Largest concise Abelian subgroup C1      NOp   1
                         Standard orientation:                         
 ---------------------------------------------------------------------
 Center     Atomic      Atomic             Coordinates (Angstroms)
 Number     Number       Type             X           Y           Z
 ---------------------------------------------------------------------
      1          6           0        1.633559    3.116731   -0.454897
      2          6           0        2.504403    1.995063    0.123459
      3          6           0        2.159514    0.569663   -0.352186
      4          6           0        3.220745   -0.473063    0.097718
      5          6           0        2.914887   -1.861938   -0.496100
      6          8           0        1.791298   -2.493217    0.099668
      7          7           0        0.792790    0.126847    0.044780
      8          6           0       -0.256600    0.339133   -0.973517
      9          6           0       -4.165846   -0.471080    0.712784
     10          6           0       -3.382178   -1.527761    0.245642
     11          6           0       -2.134815   -1.236748   -0.291386
     12          6           0       -1.622478    0.058435   -0.398298
     13          6           0       -2.447226    1.071646    0.094198
     14          6           0       -3.704010    0.843735    0.641249
     15          1           0       -5.143537   -0.674297    1.136825
     16          1           0       -3.718614   -2.556886    0.292277
     17          1           0       -4.292957    1.680134    0.999075
     18          9           0       -1.370040   -2.254946   -0.745426
     19          9           0       -1.993954    2.348363    0.030251
     20          1           0        1.989643    4.092829   -0.109881
     21          1           0        1.663335    3.122570   -1.550390
     22          1           0        0.587599    3.026151   -0.147066
     23          1           0        3.554803    2.189221   -0.129175
     24          1           0        2.447786    2.029294    1.219182
     25          1           0        4.174850   -0.148839   -0.343416
     26          1           0        3.776182   -2.522908   -0.337047
     27          1           0        2.785471   -1.764145   -1.589145
     28          1           0        1.123582   -1.777867    0.166031
     29          1           0       -0.251841    1.352832   -1.389763
     30          1           0       -0.065518   -0.354431   -1.798001
     31          1           0        2.173259    0.568871   -1.451115
     32          6           0        3.400199   -0.563620    1.620929
     33          1           0        2.468242   -0.860599    2.109757
     34          1           0        4.151707   -1.320870    1.868213
     35          1           0        3.732465    0.383702    2.054170
     36          1           0        0.518658    0.591109    0.907677
 ---------------------------------------------------------------------
 Rotational constants (GHZ):      0.6582097      0.3080810      0.2299348
 Standard basis: def2TZVP (5D, 7F)
 There are   726 symmetry adapted cartesian basis functions of A   symmetry.
 There are   641 symmetry adapted basis functions of A   symmetry.
   641 basis functions,  1019 primitive gaussians,   726 cartesian basis functions
    65 alpha electrons       65 beta electrons
       nuclear repulsion energy      1289.1411353865 Hartrees.
 NAtoms=   36 NActive=   36 NUniq=   36 SFac= 1.00D+00 NAtFMM=   60 NAOKFM=F Big=F
 Integral buffers will be    131072 words long.
 Raffenetti 2 integral format.
 Two-electron integral symmetry is turned on.
 ------------------------------------------------------------------------------
 Polarizable Continuum Model (PCM)
 =================================
 Model                : PCM (using non-symmetric T matrix).
 Atomic radii         : UFF (Universal Force Field).
 Polarization charges : Total charges.
 Charge compensation  : None.
 Solution method      : On-the-fly selection.
 Cavity type          : Scaled VdW (van der Waals Surface) (Alpha=1.100).
 Cavity algorithm     : GePol (No added spheres)
                        Default sphere list used, NSphG=   36.
                        Lebedev-Laikov grids with approx.  5.0 points / Ang**2.
                        Smoothing algorithm: Karplus/York (Gamma=1.0000).
                        Polarization charges: spherical gaussians, with
                                              point-specific exponents (IZeta= 3).
                        Self-potential: point-specific (ISelfS= 7).
                        Self-field    : sphere-specific E.n sum rule (ISelfD= 2).
 Solvent              : Chloroform, Eps=   4.711300 Eps(inf)=   2.090627
 ------------------------------------------------------------------------------
 One-electron integrals computed using PRISM.
   1 Symmetry operations used in ECPInt.
 ECPInt:  NShTT=   34716 NPrTT=  103716 LenC2=   31364 LenP2D=   68241.
 LDataN:  DoStor=T MaxTD1= 6 Len=  172
 NBasis=   641 RedAO= T EigKep=  1.13D-05  NBF=   641
 NBsUse=   641 1.00D-06 EigRej= -1.00D+00 NBFU=   641
 ExpMin= 9.52D-02 ExpMax= 3.55D+04 ExpMxC= 1.21D+03 IAcc=3 IRadAn=         5 AccDes= 0.00D+00
 Harris functional with IExCor= 1009 and IRadAn=       5 diagonalized for initial guess.
 HarFok:  IExCor= 1009 AccDes= 0.00D+00 IRadAn=         5 IDoV= 1 UseB2=F ITyADJ=14
 ICtDFT=  3500011 ScaDFX=  1.000000  1.000000  1.000000  1.000000
 FoFCou: FMM=F IPFlag=           0 FMFlag=      100000 FMFlg1=           0
         NFxFlg=           0 DoJE=T BraDBF=F KetDBF=T FulRan=T
         wScrn=  0.000000 ICntrl=     500 IOpCl=  0 I1Cent=   200000004 NGrid=           0
         NMat0=    1 NMatS0=      1 NMatT0=    0 NMatD0=    1 NMtDS0=    0 NMtDT0=    0
 Petite list used in FoFCou.
 Requested convergence on RMS density matrix=1.00D-08 within 128 cycles.
 Requested convergence on MAX density matrix=1.00D-06.
 Requested convergence on             energy=1.00D-06.
 No special actions if energy rises.
 Inv3:  Mode=1 IEnd=    18169563.
 Iteration    1 A*A^-1 deviation from unit magnitude is 7.33D-15 for   2459.
 Iteration    1 A*A^-1 deviation from orthogonality  is 3.30D-15 for   2452   1153.
 Iteration    1 A^-1*A deviation from unit magnitude is 7.33D-15 for   2459.
 Iteration    1 A^-1*A deviation from orthogonality  is 5.53D-12 for   2088   2054.
 Error on total polarization charges =  0.01263
 SCF Done:  E(RM062X) =  -836.460978034     A.U. after   12 cycles
            NFock= 12  Conv=0.89D-08     -V/T= 2.0052

 **********************************************************************

            Population analysis using the SCF density.

 **********************************************************************

 Orbital symmetries:
       Occupied  (A) (A) (A) (A) (A) (A) (A) (A) (A) (A) (A) (A)
                 (A) (A) (A) (A) (A) (A) (A) (A) (A) (A) (A) (A)
                 (A) (A) (A) (A) (A) (A) (A) (A) (A) (A) (A) (A)
                 (A) (A) (A) (A) (A) (A) (A) (A) (A) (A) (A) (A)
                 (A) (A) (A) (A) (A) (A) (A) (A) (A) (A) (A) (A)
                 (A) (A) (A) (A) (A)
       Virtual   (A) (A) (A) (A) (A) (A) (A) (A) (A) (A) (A) (A)
                 (A) (A) (A) (A) (A) (A) (A) (A) (A) (A) (A) (A)
                 (A) (A) (A) (A) (A) (A) (A) (A) (A) (A) (A) (A)
                 (A) (A) (A) (A) (A) (A) (A) (A) (A) (A) (A) (A)
                 (A) (A) (A) (A) (A) (A) (A) (A) (A) (A) (A) (A)
                 (A) (A) (A) (A) (A) (A) (A) (A) (A) (A) (A) (A)
                 (A) (A) (A) (A) (A) (A) (A) (A) (A) (A) (A) (A)
                 (A) (A) (A) (A) (A) (A) (A) (A) (A) (A) (A) (A)
                 (A) (A) (A) (A) (A) (A) (A) (A) (A) (A) (A) (A)
                 (A) (A) (A) (A) (A) (A) (A) (A) (A) (A) (A) (A)
                 (A) (A) (A) (A) (A) (A) (A) (A) (A) (A) (A) (A)
                 (A) (A) (A) (A) (A) (A) (A) (A) (A) (A) (A) (A)
                 (A) (A) (A) (A) (A) (A) (A) (A) (A) (A) (A) (A)
                 (A) (A) (A) (A) (A) (A) (A) (A) (A) (A) (A) (A)
                 (A) (A) (A) (A) (A) (A) (A) (A) (A) (A) (A) (A)
                 (A) (A) (A) (A) (A) (A) (A) (A) (A) (A) (A) (A)
                 (A) (A) (A) (A) (A) (A) (A) (A) (A) (A) (A) (A)
                 (A) (A) (A) (A) (A) (A) (A) (A) (A) (A) (A) (A)
                 (A) (A) (A) (A) (A) (A) (A) (A) (A) (A) (A) (A)
                 (A) (A) (A) (A) (A) (A) (A) (A) (A) (A) (A) (A)
                 (A) (A) (A) (A) (A) (A) (A) (A) (A) (A) (A) (A)
                 (A) (A) (A) (A) (A) (A) (A) (A) (A) (A) (A) (A)
                 (A) (A) (A) (A) (A) (A) (A) (A) (A) (A) (A) (A)
                 (A) (A) (A) (A) (A) (A) (A) (A) (A) (A) (A) (A)
                 (A) (A) (A) (A) (A) (A) (A) (A) (A) (A) (A) (A)
                 (A) (A) (A) (A) (A) (A) (A) (A) (A) (A) (A) (A)
                 (A) (A) (A) (A) (A) (A) (A) (A) (A) (A) (A) (A)
                 (A) (A) (A) (A) (A) (A) (A) (A) (A) (A) (A) (A)
                 (A) (A) (A) (A) (A) (A) (A) (A) (A) (A) (A) (A)
                 (A) (A) (A) (A) (A) (A) (A) (A) (A) (A) (A) (A)
                 (A) (A) (A) (A) (A) (A) (A) (A) (A) (A) (A) (A)
                 (A) (A) (A) (A) (A) (A) (A) (A) (A) (A) (A) (A)
                 (A) (A) (A) (A) (A) (A) (A) (A) (A) (A) (A) (A)
                 (A) (A) (A) (A) (A) (A) (A) (A) (A) (A) (A) (A)
                 (A) (A) (A) (A) (A) (A) (A) (A) (A) (A) (A) (A)
                 (A) (A) (A) (A) (A) (A) (A) (A) (A) (A) (A) (A)
                 (A) (A) (A) (A) (A) (A) (A) (A) (A) (A) (A) (A)
                 (A) (A) (A) (A) (A) (A) (A) (A) (A) (A) (A) (A)
                 (A) (A) (A) (A) (A) (A) (A) (A) (A) (A) (A) (A)
                 (A) (A) (A) (A) (A) (A) (A) (A) (A) (A) (A) (A)
                 (A) (A) (A) (A) (A) (A) (A) (A) (A) (A) (A) (A)
                 (A) (A) (A) (A) (A) (A) (A) (A) (A) (A) (A) (A)
                 (A) (A) (A) (A) (A) (A) (A) (A) (A) (A) (A) (A)
                 (A) (A) (A) (A) (A) (A) (A) (A) (A) (A) (A) (A)
                 (A) (A) (A) (A) (A) (A) (A) (A) (A) (A) (A) (A)
                 (A) (A) (A) (A) (A) (A) (A) (A) (A) (A) (A) (A)
                 (A) (A) (A) (A) (A) (A) (A) (A) (A) (A) (A) (A)
                 (A) (A) (A) (A) (A) (A) (A) (A) (A) (A) (A) (A)
 The electronic state is 1-A.
 Alpha  occ. eigenvalues --  -25.27123 -25.26810 -19.59958 -14.75032 -10.64586
 Alpha  occ. eigenvalues --  -10.64470 -10.58199 -10.57237 -10.57179 -10.57039
 Alpha  occ. eigenvalues --  -10.56770 -10.55932 -10.55866 -10.53749 -10.53561
 Alpha  occ. eigenvalues --  -10.52635 -10.51968  -1.38340  -1.38127  -1.12231
 Alpha  occ. eigenvalues --   -1.02717  -0.98454  -0.90715  -0.87350  -0.86245
 Alpha  occ. eigenvalues --   -0.85480  -0.78942  -0.76438  -0.74647  -0.72926
 Alpha  occ. eigenvalues --   -0.70708  -0.68576  -0.65540  -0.64127  -0.62709
 Alpha  occ. eigenvalues --   -0.58795  -0.58115  -0.57548  -0.57409  -0.56471
 Alpha  occ. eigenvalues --   -0.55578  -0.54652  -0.53627  -0.52872  -0.51973
 Alpha  occ. eigenvalues --   -0.49507  -0.49342  -0.48251  -0.47752  -0.46711
 Alpha  occ. eigenvalues --   -0.46470  -0.44786  -0.44122  -0.43863  -0.43220
 Alpha  occ. eigenvalues --   -0.42803  -0.42026  -0.40902  -0.39121  -0.38085
 Alpha  occ. eigenvalues --   -0.37681  -0.33172  -0.32146  -0.31475  -0.30017
 Alpha virt. eigenvalues --    0.00087   0.01658   0.05822   0.07353   0.07772
 Alpha virt. eigenvalues --    0.08785   0.09127   0.10648   0.11704   0.11752
 Alpha virt. eigenvalues --    0.12263   0.12582   0.13078   0.13775   0.14840
 Alpha virt. eigenvalues --    0.15172   0.15644   0.16111   0.16522   0.16766
 Alpha virt. eigenvalues --    0.17877   0.18041   0.18833   0.19299   0.19693
 Alpha virt. eigenvalues --    0.20085   0.20944   0.21342   0.21794   0.22250
 Alpha virt. eigenvalues --    0.23263   0.23579   0.24019   0.24523   0.24698
 Alpha virt. eigenvalues --    0.26109   0.26906   0.27251   0.27410   0.28727
 Alpha virt. eigenvalues --    0.29476   0.29688   0.30482   0.30967   0.32180
 Alpha virt. eigenvalues --    0.33285   0.33552   0.33867   0.34457   0.35006
 Alpha virt. eigenvalues --    0.35422   0.36800   0.37139   0.37354   0.37485
 Alpha virt. eigenvalues --    0.38735   0.39157   0.39524   0.39683   0.40216
 Alpha virt. eigenvalues --    0.41394   0.42521   0.42968   0.43084   0.43532
 Alpha virt. eigenvalues --    0.43652   0.44181   0.44189   0.44814   0.45519
 Alpha virt. eigenvalues --    0.46289   0.46403   0.46911   0.47825   0.48073
 Alpha virt. eigenvalues --    0.48223   0.48337   0.49000   0.49433   0.50311
 Alpha virt. eigenvalues --    0.50772   0.51097   0.51790   0.51889   0.52436
 Alpha virt. eigenvalues --    0.53005   0.53136   0.53479   0.54386   0.54724
 Alpha virt. eigenvalues --    0.55342   0.56316   0.56705   0.57599   0.58246
 Alpha virt. eigenvalues --    0.58895   0.59169   0.60581   0.60771   0.62285
 Alpha virt. eigenvalues --    0.63081   0.63668   0.66190   0.66981   0.68219
 Alpha virt. eigenvalues --    0.68420   0.69121   0.69816   0.69948   0.70334
 Alpha virt. eigenvalues --    0.72239   0.73185   0.74146   0.74267   0.75370
 Alpha virt. eigenvalues --    0.77002   0.78028   0.78671   0.79422   0.79988
 Alpha virt. eigenvalues --    0.80238   0.81823   0.82304   0.84108   0.85212
 Alpha virt. eigenvalues --    0.86517   0.86953   0.87453   0.88099   0.89616
 Alpha virt. eigenvalues --    0.90423   0.91059   0.91301   0.91968   0.92729
 Alpha virt. eigenvalues --    0.93734   0.95241   0.95919   0.96642   0.97634
 Alpha virt. eigenvalues --    0.98991   0.99083   1.00883   1.01279   1.02517
 Alpha virt. eigenvalues --    1.03471   1.04405   1.04756   1.05598   1.07941
 Alpha virt. eigenvalues --    1.08427   1.09457   1.10245   1.10583   1.11656
 Alpha virt. eigenvalues --    1.11805   1.13453   1.13635   1.16294   1.16718
 Alpha virt. eigenvalues --    1.17523   1.18431   1.19234   1.20138   1.20466
 Alpha virt. eigenvalues --    1.21622   1.22545   1.23473   1.24304   1.24612
 Alpha virt. eigenvalues --    1.25801   1.27057   1.29167   1.30257   1.31809
 Alpha virt. eigenvalues --    1.32115   1.32963   1.33829   1.34657   1.36475
 Alpha virt. eigenvalues --    1.37354   1.38978   1.39826   1.40452   1.41492
 Alpha virt. eigenvalues --    1.44030   1.44557   1.47799   1.48291   1.48893
 Alpha virt. eigenvalues --    1.50711   1.51759   1.52895   1.53400   1.53925
 Alpha virt. eigenvalues --    1.54788   1.55674   1.56994   1.58120   1.58379
 Alpha virt. eigenvalues --    1.59312   1.59853   1.60627   1.60994   1.62146
 Alpha virt. eigenvalues --    1.62858   1.64735   1.65051   1.65205   1.65825
 Alpha virt. eigenvalues --    1.66209   1.67058   1.67500   1.68160   1.69968
 Alpha virt. eigenvalues --    1.70654   1.71098   1.71537   1.71943   1.72454
 Alpha virt. eigenvalues --    1.73160   1.74741   1.75562   1.78896   1.79772
 Alpha virt. eigenvalues --    1.80140   1.82072   1.83090   1.85099   1.86117
 Alpha virt. eigenvalues --    1.87383   1.88893   1.89321   1.90824   1.91604
 Alpha virt. eigenvalues --    1.91709   1.92281   1.93396   1.93577   1.95985
 Alpha virt. eigenvalues --    1.96342   1.98244   1.99287   2.00944   2.01632
 Alpha virt. eigenvalues --    2.02671   2.02956   2.05567   2.07170   2.08019
 Alpha virt. eigenvalues --    2.09237   2.10315   2.10839   2.11842   2.12288
 Alpha virt. eigenvalues --    2.13486   2.13955   2.15645   2.16539   2.17315
 Alpha virt. eigenvalues --    2.18714   2.19228   2.19622   2.20709   2.20975
 Alpha virt. eigenvalues --    2.23009   2.24104   2.25994   2.27594   2.28443
 Alpha virt. eigenvalues --    2.29096   2.29731   2.30874   2.31292   2.32650
 Alpha virt. eigenvalues --    2.34063   2.34353   2.35763   2.36261   2.37518
 Alpha virt. eigenvalues --    2.37646   2.38911   2.39601   2.41571   2.41754
 Alpha virt. eigenvalues --    2.42945   2.44020   2.44596   2.45289   2.48414
 Alpha virt. eigenvalues --    2.48991   2.49310   2.50212   2.52102   2.52373
 Alpha virt. eigenvalues --    2.52846   2.53774   2.55529   2.55837   2.56546
 Alpha virt. eigenvalues --    2.56776   2.58784   2.59012   2.59609   2.60455
 Alpha virt. eigenvalues --    2.61208   2.62139   2.62240   2.63101   2.63572
 Alpha virt. eigenvalues --    2.63963   2.65195   2.65728   2.66045   2.67190
 Alpha virt. eigenvalues --    2.67615   2.68211   2.68848   2.70805   2.71558
 Alpha virt. eigenvalues --    2.71880   2.72731   2.74395   2.75354   2.75673
 Alpha virt. eigenvalues --    2.76633   2.77086   2.77652   2.78358   2.80106
 Alpha virt. eigenvalues --    2.80769   2.81337   2.82166   2.83017   2.84367
 Alpha virt. eigenvalues --    2.86045   2.86607   2.88477   2.88805   2.89562
 Alpha virt. eigenvalues --    2.90472   2.90802   2.92644   2.93193   2.94341
 Alpha virt. eigenvalues --    2.96100   2.96816   2.97598   2.98351   2.99576
 Alpha virt. eigenvalues --    3.00304   3.01660   3.02342   3.03773   3.04689
 Alpha virt. eigenvalues --    3.05847   3.06725   3.07828   3.08344   3.09295
 Alpha virt. eigenvalues --    3.10095   3.10583   3.11224   3.12556   3.13594
 Alpha virt. eigenvalues --    3.13899   3.15012   3.15649   3.16183   3.17059
 Alpha virt. eigenvalues --    3.17978   3.18274   3.19355   3.20469   3.20797
 Alpha virt. eigenvalues --    3.22306   3.22753   3.24360   3.24486   3.25515
 Alpha virt. eigenvalues --    3.26119   3.27223   3.27836   3.28483   3.28634
 Alpha virt. eigenvalues --    3.30653   3.31133   3.32121   3.32366   3.33521
 Alpha virt. eigenvalues --    3.34711   3.35245   3.36243   3.36986   3.37900
 Alpha virt. eigenvalues --    3.38922   3.39772   3.40274   3.40955   3.42170
 Alpha virt. eigenvalues --    3.42901   3.43658   3.45012   3.45859   3.46221
 Alpha virt. eigenvalues --    3.47468   3.47957   3.48801   3.50054   3.51089
 Alpha virt. eigenvalues --    3.51623   3.51991   3.53525   3.54258   3.55620
 Alpha virt. eigenvalues --    3.56115   3.56939   3.57596   3.58025   3.60072
 Alpha virt. eigenvalues --    3.61449   3.61950   3.62507   3.63145   3.63589
 Alpha virt. eigenvalues --    3.65742   3.66351   3.68302   3.69576   3.69942
 Alpha virt. eigenvalues --    3.72031   3.72505   3.75372   3.76833   3.78552
 Alpha virt. eigenvalues --    3.80085   3.82824   3.84386   3.86220   3.87698
 Alpha virt. eigenvalues --    3.88219   3.88589   3.90321   3.90797   3.93070
 Alpha virt. eigenvalues --    3.93175   3.96619   3.98887   4.00750   4.02337
 Alpha virt. eigenvalues --    4.02946   4.03226   4.04368   4.06016   4.07016
 Alpha virt. eigenvalues --    4.07683   4.09142   4.11253   4.12473   4.12959
 Alpha virt. eigenvalues --    4.14537   4.16026   4.17312   4.17533   4.18353
 Alpha virt. eigenvalues --    4.19963   4.20677   4.20993   4.21294   4.24992
 Alpha virt. eigenvalues --    4.26681   4.28118   4.30433   4.33116   4.33944
 Alpha virt. eigenvalues --    4.35157   4.36466   4.38044   4.41379   4.42906
 Alpha virt. eigenvalues --    4.43256   4.45657   4.46425   4.46809   4.49535
 Alpha virt. eigenvalues --    4.53036   4.54075   4.55772   4.57846   4.60231
 Alpha virt. eigenvalues --    4.61911   4.64013   4.65270   4.66244   4.68300
 Alpha virt. eigenvalues --    4.72210   4.74457   4.77983   4.80630   4.85651
 Alpha virt. eigenvalues --    4.87754   4.89220   4.94197   4.95453   4.99623
 Alpha virt. eigenvalues --    5.01515   5.08182   5.08887   5.09541   5.11527
 Alpha virt. eigenvalues --    5.15653   5.19440   5.25957   5.29835   5.30044
 Alpha virt. eigenvalues --    5.32157   5.35722   5.36866   5.41467   5.43516
 Alpha virt. eigenvalues --    5.50398   5.53055   5.55267   5.62666   5.68274
 Alpha virt. eigenvalues --    5.73314   5.79220   5.87865   5.94902   6.26836
 Alpha virt. eigenvalues --    6.51536   6.74872   6.78366   6.89992   6.90503
 Alpha virt. eigenvalues --    6.91074   6.92283   6.99157   6.99673   7.00709
 Alpha virt. eigenvalues --    7.08264   7.09975   7.19039   7.21666   7.24548
 Alpha virt. eigenvalues --    7.36248   7.39453   7.53788   7.56101   8.35756
 Alpha virt. eigenvalues --    8.37021   8.54724   8.55771   8.74117   8.75669
 Alpha virt. eigenvalues --    8.96838   8.97440   9.00859   9.02942  22.22492
 Alpha virt. eigenvalues --   22.47644  22.50137  22.55778  22.60470  22.64657
 Alpha virt. eigenvalues --   22.74060  22.74936  22.76270  22.77966  22.93306
 Alpha virt. eigenvalues --   23.02726  23.47886  32.61990  44.10306  57.50315
 Alpha virt. eigenvalues --   57.56642
          Condensed to atoms (all electrons):
               1          2          3          4          5          6
     1  C    5.114817   0.209883  -0.037438   0.005117  -0.000187  -0.000013
     2  C    0.209883   5.290477   0.169032  -0.042521   0.010075   0.000529
     3  C   -0.037438   0.169032   5.544895   0.160538  -0.030282  -0.016061
     4  C    0.005117  -0.042521   0.160538   5.389973   0.289131  -0.030376
     5  C   -0.000187   0.010075  -0.030282   0.289131   4.888946   0.225142
     6  O   -0.000013   0.000529  -0.016061  -0.030376   0.225142   8.143680
     7  N    0.001185  -0.020708   0.101785  -0.060700   0.019326  -0.051978
     8  C    0.016512  -0.009904  -0.056297   0.005574  -0.001539   0.016608
     9  C    0.000008   0.000029  -0.000037   0.000016  -0.000015  -0.000016
    10  C    0.000011  -0.000062  -0.000067  -0.000079   0.000141   0.000329
    11  C   -0.000419  -0.000445   0.001508  -0.000735   0.000626   0.002937
    12  C   -0.004249  -0.000940   0.017895   0.000296  -0.001173  -0.005452
    13  C    0.001509   0.002389  -0.005511   0.001120  -0.000351  -0.000114
    14  C   -0.000054  -0.000039  -0.000077  -0.000020   0.000013   0.000006
    15  H    0.000000   0.000000   0.000000   0.000000   0.000000   0.000000
    16  H    0.000000   0.000000   0.000000   0.000000   0.000001   0.000011
    17  H   -0.000003  -0.000002   0.000002   0.000000   0.000000   0.000000
    18  F    0.000001  -0.000022  -0.000201   0.000102   0.000112  -0.001435
    19  F   -0.005951   0.000842  -0.000267  -0.000007   0.000001   0.000000
    20  H    0.419775  -0.044960   0.011581  -0.000487   0.000025   0.000000
    21  H    0.427385  -0.065958   0.009221   0.000302  -0.000063   0.000001
    22  H    0.405379  -0.021886  -0.029569  -0.000309  -0.000031   0.000011
    23  H   -0.031226   0.441836  -0.077510   0.007140   0.000394   0.000050
    24  H   -0.036990   0.406035  -0.010364  -0.019277  -0.000983  -0.000073
    25  H   -0.000701  -0.008469  -0.058156   0.451790  -0.040800   0.006406
    26  H    0.000052  -0.001379   0.012860  -0.041047   0.427218  -0.038864
    27  H   -0.000261   0.003230  -0.001269  -0.078406   0.427977  -0.047873
    28  H   -0.000051   0.000802  -0.006492  -0.002195  -0.050870   0.314364
    29  H   -0.005541  -0.008356   0.028952  -0.002491   0.000271  -0.000198
    30  H    0.000208   0.002023  -0.004684   0.000865  -0.000972  -0.000793
    31  H   -0.009644  -0.029084   0.460968  -0.036833  -0.013965  -0.000455
    32  C    0.000224   0.010096  -0.037898   0.215533  -0.050965  -0.000257
    33  H   -0.000311  -0.002875  -0.006717  -0.030382  -0.014585   0.008325
    34  H    0.000040  -0.000729   0.011262  -0.044018  -0.001116  -0.000460
    35  H    0.000624   0.005464  -0.010314  -0.047026   0.007574   0.000868
    36  H   -0.003578   0.002837  -0.044564   0.003998  -0.001837   0.001138
               7          8          9         10         11         12
     1  C    0.001185   0.016512   0.000008   0.000011  -0.000419  -0.004249
     2  C   -0.020708  -0.009904   0.000029  -0.000062  -0.000445  -0.000940
     3  C    0.101785  -0.056297  -0.000037  -0.000067   0.001508   0.017895
     4  C   -0.060700   0.005574   0.000016  -0.000079  -0.000735   0.000296
     5  C    0.019326  -0.001539  -0.000015   0.000141   0.000626  -0.001173
     6  O   -0.051978   0.016608  -0.000016   0.000329   0.002937  -0.005452
     7  N    7.138034   0.132348   0.000314  -0.000477   0.000426  -0.027333
     8  C    0.132348   5.328727  -0.005506   0.015272  -0.051590   0.160250
     9  C    0.000314  -0.005506   5.050272   0.392811   0.000302  -0.109930
    10  C   -0.000477   0.015272   0.392811   5.106760   0.484060   0.039783
    11  C    0.000426  -0.051590   0.000302   0.484060   4.839043   0.245838
    12  C   -0.027333   0.160250  -0.109930   0.039783   0.245838   5.756597
    13  C    0.012466  -0.074688   0.008515  -0.123761   0.057329   0.160361
    14  C    0.000252   0.004320   0.416974  -0.003687  -0.085827   0.036739
    15  H   -0.000002   0.000073   0.406464  -0.027061   0.003581  -0.001347
    16  H    0.000025  -0.000207  -0.035003   0.415449  -0.042460   0.014834
    17  H    0.000002  -0.000383  -0.031822   0.004520  -0.001041   0.014442
    18  F   -0.001403   0.016187   0.010126  -0.054783   0.259612  -0.085149
    19  F   -0.002025   0.014927   0.008082  -0.000305   0.004497  -0.081497
    20  H   -0.000122  -0.000432   0.000000   0.000000   0.000005   0.000095
    21  H   -0.001588  -0.004366   0.000000   0.000000   0.000024   0.000814
    22  H    0.011271   0.009200  -0.000009   0.000011  -0.000399  -0.007187
    23  H    0.009161   0.000967   0.000000   0.000000  -0.000008  -0.000131
    24  H   -0.014765  -0.002246  -0.000001   0.000000   0.000039   0.000836
    25  H    0.006235  -0.000463   0.000000  -0.000001  -0.000001   0.000114
    26  H   -0.000272   0.000818   0.000000   0.000003   0.000054  -0.000132
    27  H   -0.002403  -0.006967   0.000003  -0.000043  -0.000545   0.001330
    28  H    0.033495  -0.005156   0.000101  -0.000882  -0.001342  -0.000556
    29  H   -0.073176   0.420551  -0.000579   0.000443   0.008668  -0.017979
    30  H   -0.039672   0.434367  -0.000005  -0.000707  -0.015411  -0.029998
    31  H   -0.051138  -0.023202   0.000001  -0.000005   0.000027   0.002701
    32  C   -0.007264  -0.001051  -0.000001  -0.000001  -0.000080  -0.000035
    33  H    0.008632  -0.000563   0.000005  -0.000023   0.000082   0.000465
    34  H   -0.000198   0.000066   0.000000   0.000000   0.000002  -0.000005
    35  H   -0.000397  -0.000296   0.000000   0.000000  -0.000008   0.000031
    36  H    0.362376  -0.028317   0.000014  -0.000140   0.001257  -0.011507
              13         14         15         16         17         18
     1  C    0.001509  -0.000054   0.000000   0.000000  -0.000003   0.000001
     2  C    0.002389  -0.000039   0.000000   0.000000  -0.000002  -0.000022
     3  C   -0.005511  -0.000077   0.000000   0.000000   0.000002  -0.000201
     4  C    0.001120  -0.000020   0.000000   0.000000   0.000000   0.000102
     5  C   -0.000351   0.000013   0.000000   0.000001   0.000000   0.000112
     6  O   -0.000114   0.000006   0.000000   0.000011   0.000000  -0.001435
     7  N    0.012466   0.000252  -0.000002   0.000025   0.000002  -0.001403
     8  C   -0.074688   0.004320   0.000073  -0.000207  -0.000383   0.016187
     9  C    0.008515   0.416974   0.406464  -0.035003  -0.031822   0.010126
    10  C   -0.123761  -0.003687  -0.027061   0.415449   0.004520  -0.054783
    11  C    0.057329  -0.085827   0.003581  -0.042460  -0.001041   0.259612
    12  C    0.160361   0.036739  -0.001347   0.014834   0.014442  -0.085149
    13  C    4.978626   0.487875   0.003814  -0.001712  -0.040437   0.008588
    14  C    0.487875   5.046594  -0.027518   0.005125   0.410937  -0.001392
    15  H    0.003814  -0.027518   0.475785  -0.003439  -0.003335  -0.000098
    16  H   -0.001712   0.005125  -0.003439   0.471766  -0.000128   0.001576
    17  H   -0.040437   0.410937  -0.003335  -0.000128   0.471248   0.000009
    18  F    0.008588  -0.001392  -0.000098   0.001576   0.000009   9.047353
    19  F    0.240964  -0.041297  -0.000117   0.000012   0.001693  -0.000033
    20  H   -0.000051   0.000000   0.000000   0.000000   0.000000   0.000000
    21  H   -0.000023   0.000005   0.000000   0.000000   0.000000   0.000000
    22  H    0.002121   0.000114   0.000000   0.000000  -0.000002   0.000000
    23  H    0.000041   0.000001   0.000000   0.000000   0.000000   0.000000
    24  H   -0.000230  -0.000001   0.000000   0.000000   0.000000   0.000000
    25  H    0.000008   0.000000   0.000000   0.000000   0.000000  -0.000001
    26  H   -0.000005   0.000000   0.000000   0.000000   0.000000  -0.000001
    27  H    0.000135  -0.000003   0.000000   0.000000   0.000000   0.000055
    28  H    0.000735  -0.000073   0.000000  -0.000007  -0.000001   0.004196
    29  H   -0.038312  -0.001319   0.000001   0.000012   0.000010   0.000578
    30  H    0.010306  -0.000098   0.000003  -0.000010   0.000004   0.002457
    31  H   -0.000093  -0.000003   0.000000   0.000000   0.000000   0.000003
    32  C   -0.000050   0.000004   0.000000   0.000000   0.000000   0.000016
    33  H    0.000036  -0.000012   0.000000   0.000000   0.000000  -0.000029
    34  H    0.000000   0.000000   0.000000   0.000000   0.000000   0.000000
    35  H    0.000012   0.000000   0.000000   0.000000   0.000000   0.000000
    36  H    0.005166   0.000107   0.000000   0.000002   0.000006  -0.000052
              19         20         21         22         23         24
     1  C   -0.005951   0.419775   0.427385   0.405379  -0.031226  -0.036990
     2  C    0.000842  -0.044960  -0.065958  -0.021886   0.441836   0.406035
     3  C   -0.000267   0.011581   0.009221  -0.029569  -0.077510  -0.010364
     4  C   -0.000007  -0.000487   0.000302  -0.000309   0.007140  -0.019277
     5  C    0.000001   0.000025  -0.000063  -0.000031   0.000394  -0.000983
     6  O    0.000000   0.000000   0.000001   0.000011   0.000050  -0.000073
     7  N   -0.002025  -0.000122  -0.001588   0.011271   0.009161  -0.014765
     8  C    0.014927  -0.000432  -0.004366   0.009200   0.000967  -0.002246
     9  C    0.008082   0.000000   0.000000  -0.000009   0.000000  -0.000001
    10  C   -0.000305   0.000000   0.000000   0.000011   0.000000   0.000000
    11  C    0.004497   0.000005   0.000024  -0.000399  -0.000008   0.000039
    12  C   -0.081497   0.000095   0.000814  -0.007187  -0.000131   0.000836
    13  C    0.240964  -0.000051  -0.000023   0.002121   0.000041  -0.000230
    14  C   -0.041297   0.000000   0.000005   0.000114   0.000001  -0.000001
    15  H   -0.000117   0.000000   0.000000   0.000000   0.000000   0.000000
    16  H    0.000012   0.000000   0.000000   0.000000   0.000000   0.000000
    17  H    0.001693   0.000000   0.000000  -0.000002   0.000000   0.000000
    18  F   -0.000033   0.000000   0.000000   0.000000   0.000000   0.000000
    19  F    9.060782   0.000043   0.000097   0.007066  -0.000005  -0.000026
    20  H    0.000043   0.508172  -0.020787  -0.020710  -0.005532  -0.003886
    21  H    0.000097  -0.020787   0.525210  -0.032167  -0.003748   0.007499
    22  H    0.007066  -0.020710  -0.032167   0.538609   0.006801  -0.006174
    23  H   -0.000005  -0.005532  -0.003748   0.006801   0.538086  -0.028318
    24  H   -0.000026  -0.003886   0.007499  -0.006174  -0.028318   0.543141
    25  H    0.000000  -0.000004   0.000136  -0.000019   0.000386   0.001097
    26  H    0.000000   0.000000  -0.000001   0.000000   0.000068  -0.000013
    27  H    0.000000   0.000001   0.000025  -0.000004  -0.000156   0.000017
    28  H   -0.000003   0.000001  -0.000016  -0.000019  -0.000092   0.000003
    29  H    0.004579   0.000635  -0.000889  -0.015904  -0.000736   0.000764
    30  H    0.000758  -0.000012  -0.000054   0.000771   0.000085  -0.000070
    31  H    0.000011  -0.000135   0.002596   0.001077  -0.002504   0.006378
    32  C    0.000000   0.000016   0.000004  -0.000042  -0.005534   0.003374
    33  H   -0.000001   0.000003   0.000007  -0.000025   0.000083   0.000723
    34  H    0.000000  -0.000002   0.000000  -0.000001   0.000025   0.000064
    35  H    0.000000   0.000009  -0.000049   0.000023  -0.001213  -0.006905
    36  H    0.000856  -0.000099   0.000334   0.002642   0.000721   0.001722
              25         26         27         28         29         30
     1  C   -0.000701   0.000052  -0.000261  -0.000051  -0.005541   0.000208
     2  C   -0.008469  -0.001379   0.003230   0.000802  -0.008356   0.002023
     3  C   -0.058156   0.012860  -0.001269  -0.006492   0.028952  -0.004684
     4  C    0.451790  -0.041047  -0.078406  -0.002195  -0.002491   0.000865
     5  C   -0.040800   0.427218   0.427977  -0.050870   0.000271  -0.000972
     6  O    0.006406  -0.038864  -0.047873   0.314364  -0.000198  -0.000793
     7  N    0.006235  -0.000272  -0.002403   0.033495  -0.073176  -0.039672
     8  C   -0.000463   0.000818  -0.006967  -0.005156   0.420551   0.434367
     9  C    0.000000   0.000000   0.000003   0.000101  -0.000579  -0.000005
    10  C   -0.000001   0.000003  -0.000043  -0.000882   0.000443  -0.000707
    11  C   -0.000001   0.000054  -0.000545  -0.001342   0.008668  -0.015411
    12  C    0.000114  -0.000132   0.001330  -0.000556  -0.017979  -0.029998
    13  C    0.000008  -0.000005   0.000135   0.000735  -0.038312   0.010306
    14  C    0.000000   0.000000  -0.000003  -0.000073  -0.001319  -0.000098
    15  H    0.000000   0.000000   0.000000   0.000000   0.000001   0.000003
    16  H    0.000000   0.000000   0.000000  -0.000007   0.000012  -0.000010
    17  H    0.000000   0.000000   0.000000  -0.000001   0.000010   0.000004
    18  F   -0.000001  -0.000001   0.000055   0.004196   0.000578   0.002457
    19  F    0.000000   0.000000   0.000000  -0.000003   0.004579   0.000758
    20  H   -0.000004   0.000000   0.000001   0.000001   0.000635  -0.000012
    21  H    0.000136  -0.000001   0.000025  -0.000016  -0.000889  -0.000054
    22  H   -0.000019   0.000000  -0.000004  -0.000019  -0.015904   0.000771
    23  H    0.000386   0.000068  -0.000156  -0.000092  -0.000736   0.000085
    24  H    0.001097  -0.000013   0.000017   0.000003   0.000764  -0.000070
    25  H    0.546784  -0.002933   0.002459   0.000180  -0.000023   0.000029
    26  H   -0.002933   0.561463  -0.043013   0.005261  -0.000004  -0.000072
    27  H    0.002459  -0.043013   0.601848   0.004911  -0.000071   0.001009
    28  H    0.000180   0.005261   0.004911   0.353659   0.000616  -0.001860
    29  H   -0.000023  -0.000004  -0.000071   0.000616   0.531446  -0.021674
    30  H    0.000029  -0.000072   0.001009  -0.001860  -0.021674   0.464318
    31  H   -0.002765  -0.000570   0.003359   0.000540   0.001257  -0.000821
    32  C   -0.047874  -0.019939   0.014175  -0.003573   0.000140  -0.000057
    33  H    0.007540  -0.000250   0.000514   0.001364   0.000062   0.000000
    34  H   -0.003734   0.003335  -0.000043  -0.000139  -0.000002   0.000003
    35  H   -0.004162  -0.000372  -0.000155   0.000059  -0.000008   0.000011
    36  H   -0.000245   0.000036  -0.000131  -0.001445  -0.003505   0.004767
              31         32         33         34         35         36
     1  C   -0.009644   0.000224  -0.000311   0.000040   0.000624  -0.003578
     2  C   -0.029084   0.010096  -0.002875  -0.000729   0.005464   0.002837
     3  C    0.460968  -0.037898  -0.006717   0.011262  -0.010314  -0.044564
     4  C   -0.036833   0.215533  -0.030382  -0.044018  -0.047026   0.003998
     5  C   -0.013965  -0.050965  -0.014585  -0.001116   0.007574  -0.001837
     6  O   -0.000455  -0.000257   0.008325  -0.000460   0.000868   0.001138
     7  N   -0.051138  -0.007264   0.008632  -0.000198  -0.000397   0.362376
     8  C   -0.023202  -0.001051  -0.000563   0.000066  -0.000296  -0.028317
     9  C    0.000001  -0.000001   0.000005   0.000000   0.000000   0.000014
    10  C   -0.000005  -0.000001  -0.000023   0.000000   0.000000  -0.000140
    11  C    0.000027  -0.000080   0.000082   0.000002  -0.000008   0.001257
    12  C    0.002701  -0.000035   0.000465  -0.000005   0.000031  -0.011507
    13  C   -0.000093  -0.000050   0.000036   0.000000   0.000012   0.005166
    14  C   -0.000003   0.000004  -0.000012   0.000000   0.000000   0.000107
    15  H    0.000000   0.000000   0.000000   0.000000   0.000000   0.000000
    16  H    0.000000   0.000000   0.000000   0.000000   0.000000   0.000002
    17  H    0.000000   0.000000   0.000000   0.000000   0.000000   0.000006
    18  F    0.000003   0.000016  -0.000029   0.000000   0.000000  -0.000052
    19  F    0.000011   0.000000  -0.000001   0.000000   0.000000   0.000856
    20  H   -0.000135   0.000016   0.000003  -0.000002   0.000009  -0.000099
    21  H    0.002596   0.000004   0.000007   0.000000  -0.000049   0.000334
    22  H    0.001077  -0.000042  -0.000025  -0.000001   0.000023   0.002642
    23  H   -0.002504  -0.005534   0.000083   0.000025  -0.001213   0.000721
    24  H    0.006378   0.003374   0.000723   0.000064  -0.006905   0.001722
    25  H   -0.002765  -0.047874   0.007540  -0.003734  -0.004162  -0.000245
    26  H   -0.000570  -0.019939  -0.000250   0.003335  -0.000372   0.000036
    27  H    0.003359   0.014175   0.000514  -0.000043  -0.000155  -0.000131
    28  H    0.000540  -0.003573   0.001364  -0.000139   0.000059  -0.001445
    29  H    0.001257   0.000140   0.000062  -0.000002  -0.000008  -0.003505
    30  H   -0.000821  -0.000057   0.000000   0.000003   0.000011   0.004767
    31  H    0.493253   0.008092  -0.000159  -0.000281  -0.000103   0.005034
    32  C    0.008092   5.161766   0.405566   0.411925   0.424035   0.000078
    33  H   -0.000159   0.405566   0.520112  -0.021523  -0.027289  -0.002004
    34  H   -0.000281   0.411925  -0.021523   0.516305  -0.022367   0.000088
    35  H   -0.000103   0.424035  -0.027289  -0.022367   0.529463  -0.000116
    36  H    0.005034   0.000078  -0.002004   0.000088  -0.000116   0.452865
 Mulliken charges:
               1
     1  C   -0.466117
     2  C   -0.297240
     3  C   -0.096726
     4  C   -0.094586
     5  C   -0.087240
     6  O   -0.525986
     7  N   -0.481712
     8  C   -0.303593
     9  C   -0.111113
    10  C   -0.247510
    11  C    0.290395
    12  C   -0.068820
    13  C    0.303224
    14  C   -0.247642
    15  H    0.173195
    16  H    0.174154
    17  H    0.174281
    18  F   -0.206373
    19  F   -0.213674
    20  H    0.156861
    21  H    0.156046
    22  H    0.149360
    23  H    0.150868
    24  H    0.158631
    25  H    0.147188
    26  H    0.137697
    27  H    0.120296
    28  H    0.354487
    29  H    0.191782
    30  H    0.194987
    31  H    0.186466
    32  C   -0.480421
    33  H    0.153230
    34  H    0.151500
    35  H    0.152608
    36  H    0.251497
 Sum of Mulliken charges =   0.00000
 Mulliken charges with hydrogens summed into heavy atoms:
               1
     1  C   -0.003849
     2  C    0.012260
     3  C    0.089740
     4  C    0.052602
     5  C    0.170754
     6  O   -0.171500
     7  N   -0.230215
     8  C    0.083176
     9  C    0.062082
    10  C   -0.073356
    11  C    0.290395
    12  C   -0.068820
    13  C    0.303224
    14  C   -0.073362
    18  F   -0.206373
    19  F   -0.213674
    32  C   -0.023083
 Electronic spatial extent (au):  <R**2>=           4787.4390
 Charge=              0.0000 electrons
 Dipole moment (field-independent basis, Debye):
    X=             -1.5356    Y=              3.6434    Z=              0.0360  Tot=              3.9539
 Quadrupole moment (field-independent basis, Debye-Ang):
   XX=            -84.6882   YY=           -114.5459   ZZ=           -101.7767
   XY=              8.7454   XZ=             -6.5039   YZ=              0.8261
 Traceless Quadrupole moment (field-independent basis, Debye-Ang):
   XX=             15.6487   YY=            -14.2089   ZZ=             -1.4398
   XY=              8.7454   XZ=             -6.5039   YZ=              0.8261
 Octapole moment (field-independent basis, Debye-Ang**2):
  XXX=            -57.5956  YYY=             21.6110  ZZZ=            -10.5373  XYY=            -19.5412
  XXY=             -7.8156  XXZ=             17.9154  XZZ=             -0.7390  YZZ=              1.8936
  YYZ=              1.4778  XYZ=              3.3722
 Hexadecapole moment (field-independent basis, Debye-Ang**3):
 XXXX=          -3799.1212 YYYY=          -1815.8334 ZZZZ=           -430.6453 XXXY=             -3.3206
 XXXZ=           -137.6542 YYYX=             65.7463 YYYZ=             17.7738 ZZZX=              2.5266
 ZZZY=             16.5409 XXYY=           -938.5944 XXZZ=           -782.8017 YYZZ=           -359.4980
 XXYZ=              9.9016 YYXZ=            -17.3983 ZZXY=            -11.1449
 N-N= 1.289141135387D+03 E-N=-4.534371446744D+03  KE= 8.321494445903D+02
 1\1\GINC-CPU-E-855\SP\RM062X\def2TZVP\C13H19F2N1O1\KE291\26-Jun-2019\0
 \\# m062x/def2tzvp int=ultrafine scrf=(solvent=chloroform)\\AT3_2ginp0
 05\\0,1\C,0,1.633559,3.116731,-0.454897\C,0,2.504403,1.995063,0.123459
 \C,0,2.159514,0.569663,-0.352186\C,0,3.220745,-0.473063,0.097718\C,0,2
 .914887,-1.861938,-0.4961\O,0,1.791298,-2.493217,0.099668\N,0,0.79279,
 0.126847,0.04478\C,0,-0.2566,0.339133,-0.973517\C,0,-4.165846,-0.47108
 ,0.712784\C,0,-3.382178,-1.527761,0.245642\C,0,-2.134815,-1.236748,-0.
 291386\C,0,-1.622478,0.058435,-0.398298\C,0,-2.447226,1.071646,0.09419
 8\C,0,-3.70401,0.843735,0.641249\H,0,-5.143537,-0.674297,1.136825\H,0,
 -3.718614,-2.556886,0.292277\H,0,-4.292957,1.680134,0.999075\F,0,-1.37
 004,-2.254946,-0.745426\F,0,-1.993954,2.348363,0.030251\H,0,1.989643,4
 .092829,-0.109881\H,0,1.663335,3.12257,-1.55039\H,0,0.587599,3.026151,
 -0.147066\H,0,3.554803,2.189221,-0.129175\H,0,2.447786,2.029294,1.2191
 82\H,0,4.17485,-0.148839,-0.343416\H,0,3.776182,-2.522908,-0.337047\H,
 0,2.785471,-1.764145,-1.589145\H,0,1.123582,-1.777867,0.166031\H,0,-0.
 251841,1.352832,-1.389763\H,0,-0.065518,-0.354431,-1.798001\H,0,2.1732
 59,0.568871,-1.451115\C,0,3.400199,-0.56362,1.620929\H,0,2.468242,-0.8
 60599,2.109757\H,0,4.151707,-1.32087,1.868213\H,0,3.732465,0.383702,2.
 05417\H,0,0.518658,0.591109,0.907677\\Version=ES64L-G09RevD.01\State=1
 -A\HF=-836.460978\RMSD=8.854e-09\Dipole=-0.6041524,1.4334097,0.0141583
 \Quadrupole=11.6344216,-10.5639868,-1.0704348,6.5019792,-4.835493,0.61
 41606\PG=C01 [X(C13H19F2N1O1)]\\@


 THE VALUE OF PHILOSOPHY IS, IN FACT, TO BE SOUGHT LARGELY IN ITS
 VERY UNCERTAINTY.  THE MAN WHO HAS NO TINCTURE OF PHILOSOPHY GOES
 THROUGH LIFE IMPRISONED IN THE PREJUDICES DERIVED FROM COMMON SENSE,
 FROM THE HABITUAL BELIEFS OF HIS AGE OR HIS NATION, AND FROM
 CONVICTIONS WHICH HAVE GROWN UP IN HIS MIND WITHOUT THE CO-OPERATION
 OR CONSENT OF HIS DELIBERATE REASON.  TO SUCH A MAN THE WORLD TENDS
 TO BE DEFINITE, FINITE, OBVIOUS; COMMON OBJECTS ROUSE NO QUESTIONS,
 AND UNFAMILIAR POSSIBILITIES ARE CONTEMPTUOUSLY REJECTED.

                             -- BERTRAND RUSSELL
 Job cpu time:       0 days  1 hours 20 minutes 50.3 seconds.
 File lengths (MBytes):  RWF=    315 Int=      0 D2E=      0 Chk=     17 Scr=      1
 Normal termination of Gaussian 09 at Wed Jun 26 12:23:16 2019.
