 Entering Gaussian System, Link 0=/usr/local/Cluster-Apps/gaussian/g09/g09
 Initial command:
 /usr/local/Cluster-Apps/gaussian/g09/l1.exe "/home/ke291/rds/hpc-work/26Jun1158AT3NMR/Gau-37365.inp" -scrdir="/home/ke291/rds/hpc-work/26Jun1158AT3NMR/"
 Entering Link 1 = /usr/local/Cluster-Apps/gaussian/g09/l1.exe PID=     37392.
  
 Copyright (c) 1988,1990,1992,1993,1995,1998,2003,2009,2013,
            Gaussian, Inc.  All Rights Reserved.
  
 This is part of the Gaussian(R) 09 program.  It is based on
 the Gaussian(R) 03 system (copyright 2003, Gaussian, Inc.),
 the Gaussian(R) 98 system (copyright 1998, Gaussian, Inc.),
 the Gaussian(R) 94 system (copyright 1995, Gaussian, Inc.),
 the Gaussian 92(TM) system (copyright 1992, Gaussian, Inc.),
 the Gaussian 90(TM) system (copyright 1990, Gaussian, Inc.),
 the Gaussian 88(TM) system (copyright 1988, Gaussian, Inc.),
 the Gaussian 86(TM) system (copyright 1986, Carnegie Mellon
 University), and the Gaussian 82(TM) system (copyright 1983,
 Carnegie Mellon University). Gaussian is a federally registered
 trademark of Gaussian, Inc.
  
 This software contains proprietary and confidential information,
 including trade secrets, belonging to Gaussian, Inc.
  
 This software is provided under written license and may be
 used, copied, transmitted, or stored only in accord with that
 written license.
  
 The following legend is applicable only to US Government
 contracts under FAR:
  
                    RESTRICTED RIGHTS LEGEND
  
 Use, reproduction and disclosure by the US Government is
 subject to restrictions as set forth in subparagraphs (a)
 and (c) of the Commercial Computer Software - Restricted
 Rights clause in FAR 52.227-19.
  
 Gaussian, Inc.
 340 Quinnipiac St., Bldg. 40, Wallingford CT 06492
  
  
 ---------------------------------------------------------------
 Warning -- This program may not be used in any manner that
 competes with the business of Gaussian, Inc. or will provide
 assistance to any competitor of Gaussian, Inc.  The licensee
 of this program is prohibited from giving any competitor of
 Gaussian, Inc. access to this program.  By using this program,
 the user acknowledges that Gaussian, Inc. is engaged in the
 business of creating and licensing software in the field of
 computational chemistry and represents and warrants to the
 licensee that it is not a competitor of Gaussian, Inc. and that
 it will not use this program in any manner prohibited above.
 ---------------------------------------------------------------
  

 Cite this work as:
 Gaussian 09, Revision D.01,
 M. J. Frisch, G. W. Trucks, H. B. Schlegel, G. E. Scuseria, 
 M. A. Robb, J. R. Cheeseman, G. Scalmani, V. Barone, B. Mennucci, 
 G. A. Petersson, H. Nakatsuji, M. Caricato, X. Li, H. P. Hratchian, 
 A. F. Izmaylov, J. Bloino, G. Zheng, J. L. Sonnenberg, M. Hada, 
 M. Ehara, K. Toyota, R. Fukuda, J. Hasegawa, M. Ishida, T. Nakajima, 
 Y. Honda, O. Kitao, H. Nakai, T. Vreven, J. A. Montgomery, Jr., 
 J. E. Peralta, F. Ogliaro, M. Bearpark, J. J. Heyd, E. Brothers, 
 K. N. Kudin, V. N. Staroverov, T. Keith, R. Kobayashi, J. Normand, 
 K. Raghavachari, A. Rendell, J. C. Burant, S. S. Iyengar, J. Tomasi, 
 M. Cossi, N. Rega, J. M. Millam, M. Klene, J. E. Knox, J. B. Cross, 
 V. Bakken, C. Adamo, J. Jaramillo, R. Gomperts, R. E. Stratmann, 
 O. Yazyev, A. J. Austin, R. Cammi, C. Pomelli, J. W. Ochterski, 
 R. L. Martin, K. Morokuma, V. G. Zakrzewski, G. A. Voth, 
 P. Salvador, J. J. Dannenberg, S. Dapprich, A. D. Daniels, 
 O. Farkas, J. B. Foresman, J. V. Ortiz, J. Cioslowski, 
 and D. J. Fox, Gaussian, Inc., Wallingford CT, 2013.
 
 ******************************************
 Gaussian 09:  ES64L-G09RevD.01 24-Apr-2013
                26-Jun-2019 
 ******************************************
 %nprocshared=4
 Will use up to    4 processors via shared memory.
 %mem=6000MB
 %chk=AT3_1ginp007.chk
 --------------------------------------------------------
 # m062x/def2tzvp int=ultrafine scrf=(solvent=chloroform)
 --------------------------------------------------------
 1/38=1/1;
 2/12=2,17=6,18=5,40=1/2;
 3/5=44,7=101,11=2,16=1,25=1,30=1,70=2201,72=7,74=-55,75=-5/1,2,3;
 4//1;
 5/5=2,38=5,53=7/2;
 6/7=2,8=2,9=2,10=2,28=1/1;
 99/5=1,9=1/99;
 ------------
 AT3_1ginp007
 ------------
 Symbolic Z-matrix:
 Charge =  0 Multiplicity = 1
 C                     1.58705   3.06718   0.05474 
 C                     2.45211   1.91284  -0.4657 
 C                     2.1194    0.52308   0.11422 
 C                     3.13334  -0.5611   -0.35033 
 C                     2.66368  -1.98862  -0.00286 
 O                     1.55832  -2.42576  -0.77275 
 N                     0.71882   0.12193  -0.21132 
 C                    -0.24763   0.29169   0.89232 
 C                    -4.28522  -0.41453  -0.51615 
 C                    -3.47763  -1.49615  -0.15998 
 C                    -2.18915  -1.23796   0.28965 
 C                    -1.65735   0.04815   0.41341 
 C                    -2.50833   1.08767   0.03326 
 C                    -3.8063    0.89272  -0.42277 
 H                    -5.29491  -0.59231  -0.87099 
 H                    -3.82672  -2.51994  -0.22653 
 H                    -4.41298   1.74821  -0.69581 
 F                    -1.4003   -2.28005   0.63396 
 F                    -2.03895   2.35745   0.11708 
 H                     0.52562   2.9301   -0.173 
 H                     1.68406   3.17696   1.14076 
 H                     1.89806   4.0126   -0.40099 
 H                     2.36662   1.85247  -1.56053 
 H                     3.50216   2.1439   -0.26046 
 H                     3.20373  -0.51491  -1.44707 
 H                     2.45083  -2.04133   1.08163 
 H                     3.4855   -2.68976  -0.19281 
 H                     0.92353  -1.68125  -0.68453 
 H                    -0.00114  -0.44028   1.66697 
 H                    -0.19546   1.28652   1.35141 
 H                     2.18438   0.57626   1.21094 
 C                     4.53026  -0.32713   0.24781 
 H                     4.502    -0.38155   1.34315 
 H                     5.23028  -1.09258  -0.10258 
 H                     4.94826   0.64494  -0.02487 
 H                     0.39563   0.65076  -1.0185 
 
                          Input orientation:                          
 ---------------------------------------------------------------------
 Center     Atomic      Atomic             Coordinates (Angstroms)
 Number     Number       Type             X           Y           Z
 ---------------------------------------------------------------------
      1          6           0        1.587047    3.067182    0.054735
      2          6           0        2.452107    1.912841   -0.465704
      3          6           0        2.119397    0.523082    0.114218
      4          6           0        3.133337   -0.561100   -0.350329
      5          6           0        2.663684   -1.988615   -0.002862
      6          8           0        1.558322   -2.425755   -0.772751
      7          7           0        0.718817    0.121932   -0.211321
      8          6           0       -0.247627    0.291688    0.892318
      9          6           0       -4.285222   -0.414534   -0.516147
     10          6           0       -3.477628   -1.496145   -0.159979
     11          6           0       -2.189150   -1.237958    0.289651
     12          6           0       -1.657345    0.048149    0.413409
     13          6           0       -2.508325    1.087670    0.033259
     14          6           0       -3.806299    0.892724   -0.422767
     15          1           0       -5.294909   -0.592313   -0.870990
     16          1           0       -3.826719   -2.519944   -0.226532
     17          1           0       -4.412979    1.748214   -0.695810
     18          9           0       -1.400296   -2.280050    0.633961
     19          9           0       -2.038947    2.357451    0.117083
     20          1           0        0.525616    2.930104   -0.172996
     21          1           0        1.684056    3.176958    1.140756
     22          1           0        1.898059    4.012596   -0.400986
     23          1           0        2.366625    1.852470   -1.560525
     24          1           0        3.502164    2.143895   -0.260463
     25          1           0        3.203731   -0.514910   -1.447071
     26          1           0        2.450834   -2.041326    1.081631
     27          1           0        3.485503   -2.689764   -0.192805
     28          1           0        0.923533   -1.681245   -0.684528
     29          1           0       -0.001137   -0.440275    1.666970
     30          1           0       -0.195463    1.286517    1.351409
     31          1           0        2.184377    0.576255    1.210943
     32          6           0        4.530265   -0.327129    0.247806
     33          1           0        4.501996   -0.381554    1.343153
     34          1           0        5.230280   -1.092583   -0.102584
     35          1           0        4.948263    0.644936   -0.024867
     36          1           0        0.395625    0.650758   -1.018501
 ---------------------------------------------------------------------
                    Distance matrix (angstroms):
                    1          2          3          4          5
     1  C    0.000000
     2  C    1.533522   0.000000
     3  C    2.599881   1.542218   0.000000
     4  C    3.964785   2.568612   1.555419   0.000000
     5  C    5.169482   3.934507   2.572660   1.542435   0.000000
     6  O    5.554990   4.440332   3.130041   2.477105   1.416208
     7  N    3.082062   2.505266   1.492823   2.513118   2.877563
     8  C    3.430880   3.429420   2.502356   3.701667   3.804847
     9  C    6.850678   7.128171   6.503509   7.421859   7.143423
    10  C    6.820630   6.846635   5.956438   6.679476   6.163029
    11  C    5.731412   5.660332   4.657855   5.403386   4.919253
    12  C    4.446267   4.597555   3.818227   4.889286   4.795100
    13  C    4.548736   5.053292   4.662738   5.890156   6.017849
    14  C    5.834763   6.341146   5.961448   7.090656   7.095006
    15  H    7.849216   8.152074   7.562187   8.444370   8.126654
    16  H    7.784854   7.689632   6.688229   7.231513   6.515955
    17  H    6.188967   6.870914   6.695448   7.899315   8.032635
    18  F    6.152448   5.799190   4.529450   4.947468   4.123883
    19  F    3.695326   4.550482   4.544969   5.957259   6.404484
    20  H    1.094206   2.198151   2.901101   4.361211   5.366011
    21  H    1.095857   2.183714   2.878604   4.277479   5.380583
    22  H    1.094631   2.172586   3.534280   4.737845   6.062938
    23  H    2.166179   1.099811   2.152477   2.806732   4.155538
    24  H    2.149298   1.094591   2.163207   2.731503   4.224576
    25  H    4.207193   2.724334   2.165833   1.099969   2.132885
    26  H    5.281808   4.246138   2.760784   2.169652   1.106440
    27  H    6.066946   4.725077   3.504695   2.163341   1.096848
    28  H    4.851218   3.911761   2.631947   2.499930   1.894009
    29  H    4.174193   4.012961   2.799243   3.729480   3.505277
    30  H    2.833633   3.271668   2.733505   4.170193   4.553599
    31  H    2.810398   2.160853   1.099934   2.152132   2.877780
    32  C    4.496794   3.137723   2.559881   1.537503   2.511473
    33  H    4.695820   3.569069   2.829386   2.184799   2.788152
    34  H    5.531866   4.108853   3.512118   2.177389   2.720337
    35  H    4.143837   2.834204   2.834903   2.203271   3.486456
    36  H    2.900074   2.475390   2.066578   3.067592   3.625176
                    6          7          8          9         10
     6  O    0.000000
     7  N    2.740562   0.000000
     8  C    3.663114   1.476770   0.000000
     9  C    6.185294   5.041936   4.334132   0.000000
    10  C    5.157563   4.497884   3.838826   1.396047   0.000000
    11  C    4.072236   3.249084   2.544118   2.391831   1.388886
    12  C    4.227019   2.458023   1.508632   2.825577   2.455005
    13  C    5.434282   3.377412   2.546041   2.390780   2.766404
    14  C    6.317749   4.595161   3.841203   1.395353   2.425650
    15  H    7.094923   6.091815   5.419019   1.084890   2.150572
    16  H    5.413492   5.257532   4.686897   2.174133   1.083724
    17  H    7.285902   5.405077   4.689752   2.173955   3.418751
    18  F    3.279251   3.312802   2.830058   3.622940   2.357998
    19  F    6.050720   3.565201   2.842040   3.623621   4.122714
    20  H    5.487387   2.815071   2.948565   5.869286   5.968066
    21  H    5.921800   3.477497   3.481078   7.160756   7.083275
    22  H    6.458018   4.069871   4.485728   7.605636   7.700800
    23  H    4.424607   2.744155   3.909833   7.104724   6.879683
    24  H    4.992260   3.440606   4.338261   8.200873   7.872578
    25  H    2.610250   2.847357   4.246789   7.547259   6.874590
    26  H    2.093584   3.057988   3.572182   7.111526   6.081569
    27  H    2.029794   3.944684   4.899266   8.103418   7.064772
    28  H    0.982362   1.875441   2.783976   5.363211   4.436173
    29  H    3.510880   2.088633   1.093898   4.808331   4.066767
    30  H    4.622638   2.152740   1.096891   4.807023   4.560714
    31  H    3.652267   2.092154   2.469240   6.769063   6.183249
    32  C    3.778652   3.865176   4.860718   8.848959   8.103039
    33  H    4.161853   4.120962   4.818239   8.981831   8.196104
    34  H    3.963552   4.673347   5.737029   9.548590   8.717443
    35  H    4.634671   4.265737   5.288032   9.307045   8.694718
    36  H    3.298058   1.017669   2.047910   4.826752   4.510914
                   11         12         13         14         15
    11  C    0.000000
    12  C    1.397213   0.000000
    13  C    2.361388   1.396168   0.000000
    14  C    2.768125   2.455708   1.389496   0.000000
    15  H    3.377822   3.910466   3.377138   2.149930   0.000000
    16  H    2.142794   3.422106   3.849745   3.418366   2.507323
    17  H    3.851464   3.422588   2.143727   1.083733   2.507300
    18  F    1.351590   2.352707   3.595846   4.119711   4.503481
    19  F    3.602680   2.359302   1.356350   2.358049   4.503186
    20  H    4.995672   3.662629   3.555545   4.793620   6.839088
    21  H    5.934441   4.635023   4.813287   6.148685   8.182938
    22  H    6.689587   5.387112   5.306598   6.501829   8.553647
    23  H    5.807666   4.831596   5.185577   6.349850   8.071650
    24  H    6.643087   5.609527   6.109653   7.416563   9.232988
    25  H    5.711582   5.235311   6.114509   7.222960   8.518494
    26  H    4.775153   4.657205   5.956757   7.072735   8.118430
    27  H    5.877261   5.857691   7.088447   8.127575   9.052893
    28  H    3.291553   3.295027   4.467634   5.391210   6.315818
    29  H    2.705680   2.133776   3.360003   4.541271   5.872681
    30  H    3.387491   2.133190   2.669530   4.042389   5.871406
    31  H    4.823680   3.959013   4.865176   6.217504   7.851096
    32  C    6.780995   6.201191   7.182579   8.451983   9.892223
    33  H    6.827498   6.243921   7.281418   8.588948  10.046203
    34  H    7.431213   7.000493   8.041018   9.257630  10.565052
    35  H    7.388293   6.646977   7.469946   8.767102  10.352260
    36  H    3.458261   2.574527   3.119297   4.250837   5.826591
                   16         17         18         19         20
    16  H    0.000000
    17  H    4.333716   0.000000
    18  F    2.585638   5.203024   0.000000
    19  F    5.206072   2.582246   4.709719   0.000000
    20  H    6.974863   5.104892   5.613022   2.643683   0.000000
    21  H    8.043184   6.525957   6.288800   3.947182   1.768860
    22  H    8.687784   6.711449   7.179670   4.302083   1.762773
    23  H    7.697730   6.835322   6.006928   4.741143   2.544768
    24  H    8.687063   7.936975   6.663738   5.558062   3.079872
    25  H    7.411957   7.981253   5.351960   6.179216   4.545733
    26  H    6.430244   8.039393   3.884405   6.359066   5.476830
    27  H    7.314271   9.073846   4.972166   7.489323   6.351712
    28  H    4.845417   6.343475   2.738095   5.072468   4.656666
    29  H    4.748205   5.462286   2.531704   3.792373   3.875874
    30  H    5.492273   4.710808   3.832330   2.463512   2.354813
    31  H    6.912746   6.966656   4.619661   4.712288   3.194899
    32  C    8.652896   9.229251   6.255763   7.097789   5.179175
    33  H    8.740945   9.389891   6.240536   7.196480   5.392345
    34  H    9.169621  10.070476   6.776217   8.049388   6.190382
    35  H    9.330458   9.449880   7.020954   7.195412   4.980335
    36  H    5.339359   4.942794   3.813869   3.182686   2.434583
                   21         22         23         24         25
    21  H    0.000000
    22  H    1.766651   0.000000
    23  H    3.084978   2.496043   0.000000
    24  H    2.517171   2.466768   1.750582   0.000000
    25  H    4.757746   4.826736   2.513584   2.926832   0.000000
    26  H    5.274650   6.257291   4.706350   4.519136   3.048136
    27  H    6.280288   6.890932   4.873852   4.834161   2.526375
    28  H    5.245207   5.783591   3.916252   4.632587   2.672286
    29  H    4.025065   5.264166   4.612993   4.760888   4.469228
    30  H    2.674086   3.858138   3.919688   4.123794   4.757221
    31  H    2.649321   3.806407   3.056628   2.521724   3.048731
    32  C    4.601836   5.116899   3.563994   2.724204   2.160454
    33  H    4.543650   5.397320   4.240521   3.154226   3.080361
    34  H    5.687757   6.103736   4.358836   3.672343   2.499650
    35  H    4.292419   4.559204   3.237474   2.096088   2.532054
    36  H    3.564286   3.733710   2.371232   3.529117   3.070491
                   26         27         28         29         30
    26  H    0.000000
    27  H    1.764993   0.000000
    28  H    2.362546   2.796890   0.000000
    29  H    2.986327   4.547045   2.815060   0.000000
    30  H    4.260306   5.634263   3.768926   1.766112   0.000000
    31  H    2.634284   3.785541   3.206064   2.453113   2.487537
    32  C    2.820952   2.620632   3.963760   4.749782   5.114127
    33  H    2.651509   2.953008   4.313477   4.515143   4.984842
    34  H    3.166670   2.367145   4.385573   5.560985   6.100238
    35  H    3.831122   3.645284   4.695181   5.341962   5.363178
    36  H    3.985192   4.624739   2.414221   2.925667   2.523895
                   31         32         33         34         35
    31  H    0.000000
    32  C    2.692012   0.000000
    33  H    2.511222   1.097063   0.000000
    34  H    3.713206   1.094858   1.768082   0.000000
    35  H    3.028367   1.092695   1.767573   1.761972   0.000000
    36  H    2.859301   4.433401   4.848233   5.220348   4.659813
                   36
    36  H    0.000000
 Stoichiometry    C13H19F2NO
 Framework group  C1[X(C13H19F2NO)]
 Deg. of freedom   102
 Full point group                 C1      NOp   1
 Largest Abelian subgroup         C1      NOp   1
 Largest concise Abelian subgroup C1      NOp   1
                         Standard orientation:                         
 ---------------------------------------------------------------------
 Center     Atomic      Atomic             Coordinates (Angstroms)
 Number     Number       Type             X           Y           Z
 ---------------------------------------------------------------------
      1          6           0        1.587047    3.067182    0.054735
      2          6           0        2.452107    1.912841   -0.465704
      3          6           0        2.119397    0.523082    0.114218
      4          6           0        3.133337   -0.561100   -0.350329
      5          6           0        2.663684   -1.988615   -0.002862
      6          8           0        1.558322   -2.425755   -0.772751
      7          7           0        0.718817    0.121932   -0.211321
      8          6           0       -0.247627    0.291688    0.892318
      9          6           0       -4.285222   -0.414534   -0.516147
     10          6           0       -3.477628   -1.496145   -0.159979
     11          6           0       -2.189150   -1.237958    0.289651
     12          6           0       -1.657345    0.048149    0.413409
     13          6           0       -2.508325    1.087670    0.033259
     14          6           0       -3.806299    0.892724   -0.422767
     15          1           0       -5.294909   -0.592313   -0.870990
     16          1           0       -3.826719   -2.519944   -0.226532
     17          1           0       -4.412979    1.748214   -0.695810
     18          9           0       -1.400296   -2.280050    0.633961
     19          9           0       -2.038947    2.357451    0.117083
     20          1           0        0.525616    2.930104   -0.172996
     21          1           0        1.684056    3.176958    1.140756
     22          1           0        1.898059    4.012596   -0.400986
     23          1           0        2.366625    1.852470   -1.560525
     24          1           0        3.502164    2.143895   -0.260463
     25          1           0        3.203731   -0.514910   -1.447071
     26          1           0        2.450834   -2.041326    1.081631
     27          1           0        3.485503   -2.689764   -0.192805
     28          1           0        0.923533   -1.681245   -0.684528
     29          1           0       -0.001137   -0.440275    1.666970
     30          1           0       -0.195463    1.286517    1.351409
     31          1           0        2.184377    0.576255    1.210943
     32          6           0        4.530265   -0.327129    0.247806
     33          1           0        4.501996   -0.381554    1.343153
     34          1           0        5.230280   -1.092583   -0.102584
     35          1           0        4.948263    0.644936   -0.024867
     36          1           0        0.395625    0.650758   -1.018501
 ---------------------------------------------------------------------
 Rotational constants (GHZ):      0.7073994      0.2929472      0.2177654
 Standard basis: def2TZVP (5D, 7F)
 There are   726 symmetry adapted cartesian basis functions of A   symmetry.
 There are   641 symmetry adapted basis functions of A   symmetry.
   641 basis functions,  1019 primitive gaussians,   726 cartesian basis functions
    65 alpha electrons       65 beta electrons
       nuclear repulsion energy      1282.8812390149 Hartrees.
 NAtoms=   36 NActive=   36 NUniq=   36 SFac= 1.00D+00 NAtFMM=   60 NAOKFM=F Big=F
 Integral buffers will be    131072 words long.
 Raffenetti 2 integral format.
 Two-electron integral symmetry is turned on.
 ------------------------------------------------------------------------------
 Polarizable Continuum Model (PCM)
 =================================
 Model                : PCM (using non-symmetric T matrix).
 Atomic radii         : UFF (Universal Force Field).
 Polarization charges : Total charges.
 Charge compensation  : None.
 Solution method      : On-the-fly selection.
 Cavity type          : Scaled VdW (van der Waals Surface) (Alpha=1.100).
 Cavity algorithm     : GePol (No added spheres)
                        Default sphere list used, NSphG=   36.
                        Lebedev-Laikov grids with approx.  5.0 points / Ang**2.
                        Smoothing algorithm: Karplus/York (Gamma=1.0000).
                        Polarization charges: spherical gaussians, with
                                              point-specific exponents (IZeta= 3).
                        Self-potential: point-specific (ISelfS= 7).
                        Self-field    : sphere-specific E.n sum rule (ISelfD= 2).
 Solvent              : Chloroform, Eps=   4.711300 Eps(inf)=   2.090627
 ------------------------------------------------------------------------------
 One-electron integrals computed using PRISM.
   1 Symmetry operations used in ECPInt.
 ECPInt:  NShTT=   34716 NPrTT=  103716 LenC2=   31157 LenP2D=   67740.
 LDataN:  DoStor=T MaxTD1= 6 Len=  172
 NBasis=   641 RedAO= T EigKep=  1.13D-05  NBF=   641
 NBsUse=   641 1.00D-06 EigRej= -1.00D+00 NBFU=   641
 ExpMin= 9.52D-02 ExpMax= 3.55D+04 ExpMxC= 1.21D+03 IAcc=3 IRadAn=         5 AccDes= 0.00D+00
 Harris functional with IExCor= 1009 and IRadAn=       5 diagonalized for initial guess.
 HarFok:  IExCor= 1009 AccDes= 0.00D+00 IRadAn=         5 IDoV= 1 UseB2=F ITyADJ=14
 ICtDFT=  3500011 ScaDFX=  1.000000  1.000000  1.000000  1.000000
 FoFCou: FMM=F IPFlag=           0 FMFlag=      100000 FMFlg1=           0
         NFxFlg=           0 DoJE=T BraDBF=F KetDBF=T FulRan=T
         wScrn=  0.000000 ICntrl=     500 IOpCl=  0 I1Cent=   200000004 NGrid=           0
         NMat0=    1 NMatS0=      1 NMatT0=    0 NMatD0=    1 NMtDS0=    0 NMtDT0=    0
 Petite list used in FoFCou.
 Requested convergence on RMS density matrix=1.00D-08 within 128 cycles.
 Requested convergence on MAX density matrix=1.00D-06.
 Requested convergence on             energy=1.00D-06.
 No special actions if energy rises.
 Inv3:  Mode=1 IEnd=    18600300.
 Iteration    1 A*A^-1 deviation from unit magnitude is 4.88D-15 for    614.
 Iteration    1 A*A^-1 deviation from orthogonality  is 2.80D-15 for   2211    413.
 Iteration    1 A^-1*A deviation from unit magnitude is 5.22D-15 for   2490.
 Iteration    1 A^-1*A deviation from orthogonality  is 1.65D-12 for   1798   1779.
 Error on total polarization charges =  0.01274
 SCF Done:  E(RM062X) =  -836.460487450     A.U. after   12 cycles
            NFock= 12  Conv=0.77D-08     -V/T= 2.0052

 **********************************************************************

            Population analysis using the SCF density.

 **********************************************************************

 Orbital symmetries:
       Occupied  (A) (A) (A) (A) (A) (A) (A) (A) (A) (A) (A) (A)
                 (A) (A) (A) (A) (A) (A) (A) (A) (A) (A) (A) (A)
                 (A) (A) (A) (A) (A) (A) (A) (A) (A) (A) (A) (A)
                 (A) (A) (A) (A) (A) (A) (A) (A) (A) (A) (A) (A)
                 (A) (A) (A) (A) (A) (A) (A) (A) (A) (A) (A) (A)
                 (A) (A) (A) (A) (A)
       Virtual   (A) (A) (A) (A) (A) (A) (A) (A) (A) (A) (A) (A)
                 (A) (A) (A) (A) (A) (A) (A) (A) (A) (A) (A) (A)
                 (A) (A) (A) (A) (A) (A) (A) (A) (A) (A) (A) (A)
                 (A) (A) (A) (A) (A) (A) (A) (A) (A) (A) (A) (A)
                 (A) (A) (A) (A) (A) (A) (A) (A) (A) (A) (A) (A)
                 (A) (A) (A) (A) (A) (A) (A) (A) (A) (A) (A) (A)
                 (A) (A) (A) (A) (A) (A) (A) (A) (A) (A) (A) (A)
                 (A) (A) (A) (A) (A) (A) (A) (A) (A) (A) (A) (A)
                 (A) (A) (A) (A) (A) (A) (A) (A) (A) (A) (A) (A)
                 (A) (A) (A) (A) (A) (A) (A) (A) (A) (A) (A) (A)
                 (A) (A) (A) (A) (A) (A) (A) (A) (A) (A) (A) (A)
                 (A) (A) (A) (A) (A) (A) (A) (A) (A) (A) (A) (A)
                 (A) (A) (A) (A) (A) (A) (A) (A) (A) (A) (A) (A)
                 (A) (A) (A) (A) (A) (A) (A) (A) (A) (A) (A) (A)
                 (A) (A) (A) (A) (A) (A) (A) (A) (A) (A) (A) (A)
                 (A) (A) (A) (A) (A) (A) (A) (A) (A) (A) (A) (A)
                 (A) (A) (A) (A) (A) (A) (A) (A) (A) (A) (A) (A)
                 (A) (A) (A) (A) (A) (A) (A) (A) (A) (A) (A) (A)
                 (A) (A) (A) (A) (A) (A) (A) (A) (A) (A) (A) (A)
                 (A) (A) (A) (A) (A) (A) (A) (A) (A) (A) (A) (A)
                 (A) (A) (A) (A) (A) (A) (A) (A) (A) (A) (A) (A)
                 (A) (A) (A) (A) (A) (A) (A) (A) (A) (A) (A) (A)
                 (A) (A) (A) (A) (A) (A) (A) (A) (A) (A) (A) (A)
                 (A) (A) (A) (A) (A) (A) (A) (A) (A) (A) (A) (A)
                 (A) (A) (A) (A) (A) (A) (A) (A) (A) (A) (A) (A)
                 (A) (A) (A) (A) (A) (A) (A) (A) (A) (A) (A) (A)
                 (A) (A) (A) (A) (A) (A) (A) (A) (A) (A) (A) (A)
                 (A) (A) (A) (A) (A) (A) (A) (A) (A) (A) (A) (A)
                 (A) (A) (A) (A) (A) (A) (A) (A) (A) (A) (A) (A)
                 (A) (A) (A) (A) (A) (A) (A) (A) (A) (A) (A) (A)
                 (A) (A) (A) (A) (A) (A) (A) (A) (A) (A) (A) (A)
                 (A) (A) (A) (A) (A) (A) (A) (A) (A) (A) (A) (A)
                 (A) (A) (A) (A) (A) (A) (A) (A) (A) (A) (A) (A)
                 (A) (A) (A) (A) (A) (A) (A) (A) (A) (A) (A) (A)
                 (A) (A) (A) (A) (A) (A) (A) (A) (A) (A) (A) (A)
                 (A) (A) (A) (A) (A) (A) (A) (A) (A) (A) (A) (A)
                 (A) (A) (A) (A) (A) (A) (A) (A) (A) (A) (A) (A)
                 (A) (A) (A) (A) (A) (A) (A) (A) (A) (A) (A) (A)
                 (A) (A) (A) (A) (A) (A) (A) (A) (A) (A) (A) (A)
                 (A) (A) (A) (A) (A) (A) (A) (A) (A) (A) (A) (A)
                 (A) (A) (A) (A) (A) (A) (A) (A) (A) (A) (A) (A)
                 (A) (A) (A) (A) (A) (A) (A) (A) (A) (A) (A) (A)
                 (A) (A) (A) (A) (A) (A) (A) (A) (A) (A) (A) (A)
                 (A) (A) (A) (A) (A) (A) (A) (A) (A) (A) (A) (A)
                 (A) (A) (A) (A) (A) (A) (A) (A) (A) (A) (A) (A)
                 (A) (A) (A) (A) (A) (A) (A) (A) (A) (A) (A) (A)
                 (A) (A) (A) (A) (A) (A) (A) (A) (A) (A) (A) (A)
                 (A) (A) (A) (A) (A) (A) (A) (A) (A) (A) (A) (A)
 The electronic state is 1-A.
 Alpha  occ. eigenvalues --  -25.27129 -25.26796 -19.59707 -14.75109 -10.64600
 Alpha  occ. eigenvalues --  -10.64483 -10.58284 -10.57322 -10.57260 -10.57010
 Alpha  occ. eigenvalues --  -10.56777 -10.55937 -10.55870 -10.53743 -10.53633
 Alpha  occ. eigenvalues --  -10.52673 -10.52570  -1.38345  -1.38124  -1.12141
 Alpha  occ. eigenvalues --   -1.02829  -0.98470  -0.90844  -0.87612  -0.86249
 Alpha  occ. eigenvalues --   -0.85598  -0.79147  -0.75365  -0.74759  -0.72932
 Alpha  occ. eigenvalues --   -0.70741  -0.68482  -0.65830  -0.65066  -0.62743
 Alpha  occ. eigenvalues --   -0.58884  -0.58130  -0.57724  -0.57444  -0.57135
 Alpha  occ. eigenvalues --   -0.55082  -0.54429  -0.54252  -0.52766  -0.50144
 Alpha  occ. eigenvalues --   -0.49858  -0.49043  -0.48718  -0.48018  -0.47403
 Alpha  occ. eigenvalues --   -0.45242  -0.44873  -0.44629  -0.44534  -0.43741
 Alpha  occ. eigenvalues --   -0.42670  -0.41532  -0.40161  -0.39827  -0.38589
 Alpha  occ. eigenvalues --   -0.38075  -0.32974  -0.32154  -0.31473  -0.30092
 Alpha virt. eigenvalues --    0.00071   0.01649   0.06154   0.07334   0.07631
 Alpha virt. eigenvalues --    0.08757   0.09029   0.11246   0.11438   0.11683
 Alpha virt. eigenvalues --    0.12166   0.12561   0.13309   0.13689   0.14443
 Alpha virt. eigenvalues --    0.15043   0.15377   0.16175   0.16275   0.16959
 Alpha virt. eigenvalues --    0.17792   0.18190   0.18619   0.19162   0.19386
 Alpha virt. eigenvalues --    0.20475   0.20794   0.21692   0.22092   0.22740
 Alpha virt. eigenvalues --    0.23094   0.23480   0.24073   0.24120   0.24678
 Alpha virt. eigenvalues --    0.26761   0.26875   0.27567   0.27932   0.28365
 Alpha virt. eigenvalues --    0.28909   0.29646   0.30004   0.31312   0.31473
 Alpha virt. eigenvalues --    0.32837   0.33345   0.33893   0.34826   0.34831
 Alpha virt. eigenvalues --    0.35659   0.36560   0.37236   0.37430   0.37909
 Alpha virt. eigenvalues --    0.38387   0.39309   0.39643   0.40234   0.40556
 Alpha virt. eigenvalues --    0.41071   0.41861   0.42504   0.42969   0.43371
 Alpha virt. eigenvalues --    0.43408   0.44245   0.44522   0.45263   0.45579
 Alpha virt. eigenvalues --    0.46016   0.46180   0.46633   0.47438   0.47602
 Alpha virt. eigenvalues --    0.48259   0.48586   0.49134   0.49738   0.50230
 Alpha virt. eigenvalues --    0.50656   0.51021   0.51425   0.52184   0.52347
 Alpha virt. eigenvalues --    0.52901   0.52993   0.53229   0.53314   0.54481
 Alpha virt. eigenvalues --    0.55426   0.56190   0.57360   0.57713   0.58383
 Alpha virt. eigenvalues --    0.59230   0.60093   0.60416   0.61232   0.61803
 Alpha virt. eigenvalues --    0.63248   0.64226   0.65406   0.66647   0.67474
 Alpha virt. eigenvalues --    0.68511   0.69349   0.69489   0.70168   0.71449
 Alpha virt. eigenvalues --    0.72046   0.73259   0.74108   0.75010   0.75864
 Alpha virt. eigenvalues --    0.76660   0.77327   0.77920   0.78887   0.79470
 Alpha virt. eigenvalues --    0.80261   0.81710   0.82399   0.83045   0.84990
 Alpha virt. eigenvalues --    0.86519   0.87001   0.87448   0.88186   0.89331
 Alpha virt. eigenvalues --    0.89802   0.90293   0.91005   0.91990   0.92462
 Alpha virt. eigenvalues --    0.93472   0.94683   0.96037   0.97109   0.97162
 Alpha virt. eigenvalues --    0.98059   0.98889   0.99615   1.01152   1.01672
 Alpha virt. eigenvalues --    1.02464   1.04252   1.05013   1.06403   1.07360
 Alpha virt. eigenvalues --    1.07970   1.08431   1.09180   1.10346   1.10654
 Alpha virt. eigenvalues --    1.11847   1.12324   1.13588   1.14852   1.15677
 Alpha virt. eigenvalues --    1.17129   1.17636   1.17955   1.19075   1.20881
 Alpha virt. eigenvalues --    1.22112   1.23100   1.23675   1.23929   1.24609
 Alpha virt. eigenvalues --    1.25936   1.27966   1.29050   1.29340   1.31479
 Alpha virt. eigenvalues --    1.31710   1.33367   1.33639   1.33861   1.36475
 Alpha virt. eigenvalues --    1.37179   1.38378   1.39074   1.40811   1.42581
 Alpha virt. eigenvalues --    1.43138   1.44660   1.45231   1.48649   1.49206
 Alpha virt. eigenvalues --    1.49558   1.50406   1.52691   1.53561   1.55242
 Alpha virt. eigenvalues --    1.55551   1.55940   1.57443   1.58053   1.58500
 Alpha virt. eigenvalues --    1.58751   1.60061   1.61177   1.61513   1.61815
 Alpha virt. eigenvalues --    1.62503   1.62990   1.64510   1.64977   1.65500
 Alpha virt. eigenvalues --    1.66939   1.67602   1.68158   1.68912   1.69160
 Alpha virt. eigenvalues --    1.69660   1.70552   1.71511   1.71930   1.72694
 Alpha virt. eigenvalues --    1.73838   1.74170   1.75465   1.76077   1.78506
 Alpha virt. eigenvalues --    1.79464   1.81469   1.83592   1.85107   1.85841
 Alpha virt. eigenvalues --    1.86888   1.88996   1.89646   1.91599   1.91779
 Alpha virt. eigenvalues --    1.91863   1.92791   1.93235   1.93966   1.96478
 Alpha virt. eigenvalues --    1.97019   1.98128   1.99234   2.00468   2.00511
 Alpha virt. eigenvalues --    2.01757   2.02719   2.03968   2.04292   2.06829
 Alpha virt. eigenvalues --    2.08364   2.09408   2.10651   2.11336   2.11656
 Alpha virt. eigenvalues --    2.12483   2.12607   2.14925   2.15880   2.16803
 Alpha virt. eigenvalues --    2.17382   2.19680   2.20037   2.20815   2.21899
 Alpha virt. eigenvalues --    2.22715   2.24387   2.26485   2.27973   2.29101
 Alpha virt. eigenvalues --    2.29449   2.30018   2.30281   2.31524   2.31982
 Alpha virt. eigenvalues --    2.32933   2.34486   2.35516   2.37052   2.38227
 Alpha virt. eigenvalues --    2.38989   2.39478   2.40200   2.40232   2.42109
 Alpha virt. eigenvalues --    2.42975   2.43088   2.44007   2.44588   2.46589
 Alpha virt. eigenvalues --    2.47254   2.48200   2.50132   2.51451   2.52217
 Alpha virt. eigenvalues --    2.52406   2.53706   2.54742   2.55522   2.56103
 Alpha virt. eigenvalues --    2.56596   2.56700   2.57187   2.57724   2.59483
 Alpha virt. eigenvalues --    2.60320   2.61697   2.62339   2.62825   2.62893
 Alpha virt. eigenvalues --    2.63629   2.64668   2.65728   2.66629   2.67485
 Alpha virt. eigenvalues --    2.67996   2.68666   2.68934   2.70687   2.71350
 Alpha virt. eigenvalues --    2.72379   2.72938   2.74142   2.75264   2.75596
 Alpha virt. eigenvalues --    2.76273   2.76322   2.76950   2.77455   2.79393
 Alpha virt. eigenvalues --    2.80595   2.80884   2.81818   2.82021   2.83422
 Alpha virt. eigenvalues --    2.85281   2.86540   2.87263   2.89215   2.89627
 Alpha virt. eigenvalues --    2.90743   2.91520   2.92004   2.92876   2.93792
 Alpha virt. eigenvalues --    2.94438   2.94830   2.97453   2.98057   2.98646
 Alpha virt. eigenvalues --    2.99931   3.00947   3.01745   3.03114   3.04027
 Alpha virt. eigenvalues --    3.04672   3.05185   3.06366   3.08524   3.09288
 Alpha virt. eigenvalues --    3.09744   3.10486   3.10996   3.12003   3.13858
 Alpha virt. eigenvalues --    3.14201   3.14926   3.15719   3.16832   3.17266
 Alpha virt. eigenvalues --    3.17954   3.19014   3.19466   3.21103   3.21418
 Alpha virt. eigenvalues --    3.22590   3.22985   3.23786   3.24746   3.25504
 Alpha virt. eigenvalues --    3.25893   3.27781   3.28314   3.28718   3.29878
 Alpha virt. eigenvalues --    3.31096   3.31391   3.32919   3.33160   3.34192
 Alpha virt. eigenvalues --    3.34487   3.35262   3.35572   3.36879   3.37997
 Alpha virt. eigenvalues --    3.38447   3.39226   3.40047   3.41336   3.41792
 Alpha virt. eigenvalues --    3.43044   3.43899   3.45232   3.45703   3.46167
 Alpha virt. eigenvalues --    3.47486   3.47630   3.49709   3.50228   3.51897
 Alpha virt. eigenvalues --    3.52088   3.52941   3.54219   3.54722   3.55620
 Alpha virt. eigenvalues --    3.56406   3.57047   3.58596   3.59219   3.59643
 Alpha virt. eigenvalues --    3.61222   3.61936   3.63459   3.64148   3.65359
 Alpha virt. eigenvalues --    3.66133   3.67124   3.68184   3.69117   3.69671
 Alpha virt. eigenvalues --    3.71069   3.72105   3.73860   3.75979   3.78030
 Alpha virt. eigenvalues --    3.78537   3.81903   3.83790   3.84949   3.86453
 Alpha virt. eigenvalues --    3.87451   3.88440   3.89884   3.91295   3.93201
 Alpha virt. eigenvalues --    3.94112   3.97256   3.97522   3.99172   4.01242
 Alpha virt. eigenvalues --    4.02588   4.02849   4.05099   4.05336   4.06802
 Alpha virt. eigenvalues --    4.08093   4.09114   4.09828   4.11572   4.13121
 Alpha virt. eigenvalues --    4.13735   4.14837   4.17069   4.17682   4.18483
 Alpha virt. eigenvalues --    4.19098   4.20598   4.20890   4.22955   4.24698
 Alpha virt. eigenvalues --    4.25317   4.27814   4.30730   4.32979   4.34687
 Alpha virt. eigenvalues --    4.35319   4.36015   4.37827   4.41568   4.43122
 Alpha virt. eigenvalues --    4.44614   4.45907   4.46974   4.49171   4.51093
 Alpha virt. eigenvalues --    4.52871   4.54646   4.55422   4.57998   4.62389
 Alpha virt. eigenvalues --    4.62935   4.64247   4.65551   4.66311   4.70063
 Alpha virt. eigenvalues --    4.72044   4.72807   4.77805   4.78801   4.85111
 Alpha virt. eigenvalues --    4.87448   4.88761   4.94579   4.95733   4.99197
 Alpha virt. eigenvalues --    5.01475   5.08040   5.08772   5.10461   5.11023
 Alpha virt. eigenvalues --    5.15279   5.18739   5.27112   5.30011   5.30322
 Alpha virt. eigenvalues --    5.33253   5.36505   5.37378   5.42874   5.44286
 Alpha virt. eigenvalues --    5.50579   5.52788   5.53888   5.63570   5.68113
 Alpha virt. eigenvalues --    5.72595   5.80076   5.89605   5.95934   6.28214
 Alpha virt. eigenvalues --    6.50121   6.75014   6.79182   6.89992   6.90515
 Alpha virt. eigenvalues --    6.91091   6.92305   6.98568   6.99676   7.00734
 Alpha virt. eigenvalues --    7.08263   7.10009   7.20133   7.21705   7.24564
 Alpha virt. eigenvalues --    7.36262   7.39489   7.53793   7.56156   8.35796
 Alpha virt. eigenvalues --    8.36998   8.54686   8.55820   8.74217   8.75710
 Alpha virt. eigenvalues --    8.96728   8.97425   9.00863   9.02563  22.22385
 Alpha virt. eigenvalues --   22.46820  22.47866  22.55438  22.57762  22.65424
 Alpha virt. eigenvalues --   22.70537  22.74224  22.76347  22.79559  22.93289
 Alpha virt. eigenvalues --   23.02704  23.47866  32.62589  44.09288  57.50420
 Alpha virt. eigenvalues --   57.56851
          Condensed to atoms (all electrons):
               1          2          3          4          5          6
     1  C    5.111022   0.225244  -0.048541   0.008700  -0.000491   0.000042
     2  C    0.225244   5.260652   0.197413  -0.063633   0.010553   0.000377
     3  C   -0.048541   0.197413   5.541657   0.208915  -0.040026  -0.014905
     4  C    0.008700  -0.063633   0.208915   5.353194   0.288836  -0.032030
     5  C   -0.000491   0.010553  -0.040026   0.288836   4.908206   0.235925
     6  O    0.000042   0.000377  -0.014905  -0.032030   0.235925   8.139737
     7  N    0.002036  -0.006364   0.085236  -0.062839   0.013348  -0.061291
     8  C    0.017731  -0.008617  -0.046624   0.005342   0.000963   0.015754
     9  C    0.000013   0.000018  -0.000097   0.000015  -0.000022  -0.000028
    10  C    0.000002  -0.000048   0.000146  -0.000090   0.000188   0.000567
    11  C   -0.000414  -0.000351   0.001725  -0.000615   0.000846   0.004790
    12  C   -0.006118   0.000513   0.017053   0.000352  -0.001493  -0.006684
    13  C    0.002787   0.001105  -0.006678   0.000743  -0.000350  -0.000086
    14  C    0.000014  -0.000026   0.000008  -0.000018   0.000020   0.000008
    15  H    0.000000   0.000000   0.000000   0.000000   0.000000   0.000000
    16  H    0.000000   0.000000   0.000002   0.000000   0.000002   0.000017
    17  H   -0.000005  -0.000001   0.000004   0.000000   0.000000   0.000000
    18  F    0.000000  -0.000021  -0.000454   0.000156   0.000443  -0.001543
    19  F   -0.005947   0.000792  -0.000356  -0.000013   0.000002   0.000000
    20  H    0.407847  -0.027877  -0.030547  -0.000204  -0.000028   0.000013
    21  H    0.418554  -0.057212   0.009597   0.000254  -0.000024   0.000000
    22  H    0.420130  -0.045108   0.011549  -0.000563   0.000024   0.000000
    23  H   -0.041941   0.407156  -0.012491  -0.011147  -0.000538  -0.000179
    24  H   -0.033257   0.441952  -0.073820  -0.000790   0.000078   0.000043
    25  H   -0.000748  -0.007127  -0.052576   0.422510  -0.045210   0.003752
    26  H   -0.000163   0.001726  -0.010560  -0.068507   0.420541  -0.051937
    27  H    0.000050  -0.001160   0.013143  -0.043786   0.422662  -0.033504
    28  H    0.000035  -0.000145  -0.003200  -0.010469  -0.052890   0.317908
    29  H    0.000366   0.001651  -0.003938  -0.000039  -0.001298  -0.000948
    30  H   -0.007106  -0.003942   0.027591  -0.001897   0.000251  -0.000347
    31  H   -0.008231  -0.047766   0.467560  -0.032790  -0.011922  -0.000236
    32  C   -0.000196   0.007386  -0.070011   0.251721  -0.055883   0.009227
    33  H   -0.000178  -0.001167  -0.014524  -0.015014  -0.012375   0.000034
    34  H    0.000055   0.000067   0.013389  -0.053287  -0.006971   0.000125
    35  H    0.000467  -0.003315  -0.002923  -0.043470   0.010143  -0.000383
    36  H   -0.005312   0.004120  -0.056596   0.007169  -0.002145   0.001398
               7          8          9         10         11         12
     1  C    0.002036   0.017731   0.000013   0.000002  -0.000414  -0.006118
     2  C   -0.006364  -0.008617   0.000018  -0.000048  -0.000351   0.000513
     3  C    0.085236  -0.046624  -0.000097   0.000146   0.001725   0.017053
     4  C   -0.062839   0.005342   0.000015  -0.000090  -0.000615   0.000352
     5  C    0.013348   0.000963  -0.000022   0.000188   0.000846  -0.001493
     6  O   -0.061291   0.015754  -0.000028   0.000567   0.004790  -0.006684
     7  N    7.129311   0.133890  -0.000085   0.001032   0.000147  -0.032197
     8  C    0.133890   5.324457  -0.005247   0.015259  -0.047294   0.148895
     9  C   -0.000085  -0.005247   5.052180   0.383691   0.009958  -0.109078
    10  C    0.001032   0.015259   0.383691   5.128928   0.464263   0.044305
    11  C    0.000147  -0.047294   0.009958   0.464263   4.854937   0.227828
    12  C   -0.032197   0.148895  -0.109078   0.044305   0.227828   5.745054
    13  C    0.006563  -0.075991   0.005318  -0.123037   0.073180   0.198180
    14  C    0.000446   0.003785   0.416057  -0.001171  -0.090895   0.038822
    15  H   -0.000003   0.000082   0.406180  -0.026854   0.003493  -0.001228
    16  H    0.000039  -0.000199  -0.035425   0.416696  -0.043610   0.015046
    17  H    0.000005  -0.000413  -0.031234   0.004429  -0.001017   0.013847
    18  F   -0.001481   0.015628   0.010231  -0.056750   0.262092  -0.084714
    19  F   -0.001658   0.016710   0.008374  -0.000361   0.004774  -0.084023
    20  H    0.014093   0.009119  -0.000003   0.000017  -0.000212  -0.007279
    21  H   -0.002612  -0.002927   0.000000   0.000000   0.000000   0.000858
    22  H    0.000136  -0.000486   0.000000   0.000000   0.000005   0.000130
    23  H   -0.017058  -0.001637  -0.000002   0.000002   0.000014   0.000665
    24  H    0.009811   0.000845   0.000000   0.000000  -0.000006  -0.000101
    25  H    0.000750  -0.002227   0.000001  -0.000008  -0.000052   0.000402
    26  H    0.000234  -0.007833   0.000006  -0.000107  -0.001141   0.002546
    27  H   -0.000555   0.000646   0.000000   0.000005   0.000075  -0.000185
    28  H    0.036123  -0.003783   0.000107  -0.000856  -0.000767  -0.000814
    29  H   -0.039350   0.429134   0.000083  -0.001115  -0.014646  -0.025941
    30  H   -0.072429   0.428600  -0.000597   0.000432   0.005709  -0.029923
    31  H   -0.049598  -0.022038  -0.000004   0.000020   0.000234   0.002120
    32  C    0.009462  -0.000983   0.000000  -0.000002  -0.000039   0.000321
    33  H    0.000025  -0.000039   0.000000   0.000000   0.000001   0.000008
    34  H   -0.000417   0.000031   0.000000   0.000000   0.000000  -0.000004
    35  H   -0.000268  -0.000017   0.000000   0.000000   0.000000   0.000000
    36  H    0.372020  -0.034830   0.000138  -0.000429   0.001445  -0.007062
              13         14         15         16         17         18
     1  C    0.002787   0.000014   0.000000   0.000000  -0.000005   0.000000
     2  C    0.001105  -0.000026   0.000000   0.000000  -0.000001  -0.000021
     3  C   -0.006678   0.000008   0.000000   0.000002   0.000004  -0.000454
     4  C    0.000743  -0.000018   0.000000   0.000000   0.000000   0.000156
     5  C   -0.000350   0.000020   0.000000   0.000002   0.000000   0.000443
     6  O   -0.000086   0.000008   0.000000   0.000017   0.000000  -0.001543
     7  N    0.006563   0.000446  -0.000003   0.000039   0.000005  -0.001481
     8  C   -0.075991   0.003785   0.000082  -0.000199  -0.000413   0.015628
     9  C    0.005318   0.416057   0.406180  -0.035425  -0.031234   0.010231
    10  C   -0.123037  -0.001171  -0.026854   0.416696   0.004429  -0.056750
    11  C    0.073180  -0.090895   0.003493  -0.043610  -0.001017   0.262092
    12  C    0.198180   0.038822  -0.001228   0.015046   0.013847  -0.084714
    13  C    4.922371   0.492745   0.003513  -0.001797  -0.039814   0.008285
    14  C    0.492745   5.044221  -0.027008   0.005256   0.410590  -0.001407
    15  H    0.003513  -0.027008   0.475461  -0.003457  -0.003295  -0.000098
    16  H   -0.001797   0.005256  -0.003457   0.471884  -0.000128   0.001547
    17  H   -0.039814   0.410590  -0.003295  -0.000128   0.471056   0.000009
    18  F    0.008285  -0.001407  -0.000098   0.001547   0.000009   9.046722
    19  F    0.243511  -0.043026  -0.000114   0.000011   0.001625  -0.000033
    20  H    0.001443   0.000038   0.000000   0.000000  -0.000002   0.000000
    21  H   -0.000077  -0.000001   0.000000   0.000000   0.000000   0.000000
    22  H   -0.000066   0.000000   0.000000   0.000000   0.000000   0.000000
    23  H   -0.000211   0.000000   0.000000   0.000000   0.000000   0.000000
    24  H    0.000041   0.000001   0.000000   0.000000   0.000000   0.000000
    25  H    0.000013  -0.000002   0.000000   0.000000   0.000000   0.000002
    26  H    0.000147  -0.000006   0.000000  -0.000001   0.000000   0.000214
    27  H   -0.000003   0.000000   0.000000   0.000000   0.000000   0.000006
    28  H    0.000516  -0.000066   0.000000  -0.000006   0.000000   0.002804
    29  H    0.009809  -0.000173   0.000003  -0.000018   0.000006   0.002630
    30  H   -0.029815  -0.000431   0.000001   0.000011   0.000012   0.000609
    31  H   -0.000530   0.000005   0.000000   0.000000   0.000000   0.000012
    32  C    0.000012   0.000000   0.000000   0.000000   0.000000  -0.000002
    33  H   -0.000001   0.000000   0.000000   0.000000   0.000000   0.000000
    34  H    0.000000   0.000000   0.000000   0.000000   0.000000   0.000000
    35  H   -0.000001   0.000000   0.000000   0.000000   0.000000   0.000000
    36  H    0.006029  -0.000150   0.000000   0.000001   0.000004  -0.000075
              19         20         21         22         23         24
     1  C   -0.005947   0.407847   0.418554   0.420130  -0.041941  -0.033257
     2  C    0.000792  -0.027877  -0.057212  -0.045108   0.407156   0.441952
     3  C   -0.000356  -0.030547   0.009597   0.011549  -0.012491  -0.073820
     4  C   -0.000013  -0.000204   0.000254  -0.000563  -0.011147  -0.000790
     5  C    0.000002  -0.000028  -0.000024   0.000024  -0.000538   0.000078
     6  O    0.000000   0.000013   0.000000   0.000000  -0.000179   0.000043
     7  N   -0.001658   0.014093  -0.002612   0.000136  -0.017058   0.009811
     8  C    0.016710   0.009119  -0.002927  -0.000486  -0.001637   0.000845
     9  C    0.008374  -0.000003   0.000000   0.000000  -0.000002   0.000000
    10  C   -0.000361   0.000017   0.000000   0.000000   0.000002   0.000000
    11  C    0.004774  -0.000212   0.000000   0.000005   0.000014  -0.000006
    12  C   -0.084023  -0.007279   0.000858   0.000130   0.000665  -0.000101
    13  C    0.243511   0.001443  -0.000077  -0.000066  -0.000211   0.000041
    14  C   -0.043026   0.000038  -0.000001   0.000000   0.000000   0.000001
    15  H   -0.000114   0.000000   0.000000   0.000000   0.000000   0.000000
    16  H    0.000011   0.000000   0.000000   0.000000   0.000000   0.000000
    17  H    0.001625  -0.000002   0.000000   0.000000   0.000000   0.000000
    18  F   -0.000033   0.000000   0.000000   0.000000   0.000000   0.000000
    19  F    9.061255   0.007195   0.000074   0.000076  -0.000016  -0.000008
    20  H    0.007195   0.538406  -0.031744  -0.020658  -0.005123   0.007414
    21  H    0.000074  -0.031744   0.529327  -0.020935   0.006933  -0.004521
    22  H    0.000076  -0.020658  -0.020935   0.507810  -0.004072  -0.005349
    23  H   -0.000016  -0.005123   0.006933  -0.004072   0.531331  -0.027292
    24  H   -0.000008   0.007414  -0.004521  -0.005349  -0.027292   0.556206
    25  H    0.000000  -0.000003   0.000013  -0.000012   0.005171  -0.001341
    26  H    0.000000  -0.000008   0.000007  -0.000001  -0.000013  -0.000102
    27  H    0.000000   0.000001  -0.000001   0.000000  -0.000004   0.000030
    28  H   -0.000006  -0.000028  -0.000013  -0.000001   0.000088  -0.000099
    29  H    0.000700   0.000488   0.000055  -0.000008  -0.000048   0.000068
    30  H    0.003538  -0.013657  -0.000566   0.000427   0.000548  -0.000707
    31  H    0.000011   0.000953   0.001751  -0.000199   0.007087  -0.002526
    32  C    0.000000  -0.000071   0.000063   0.000002  -0.000394  -0.003255
    33  H    0.000000   0.000007   0.000011   0.000003   0.000118   0.000052
    34  H    0.000000   0.000001  -0.000002  -0.000002  -0.000077   0.000237
    35  H    0.000000  -0.000040   0.000095   0.000028   0.000224  -0.002228
    36  H    0.000628   0.003680   0.000400  -0.000115   0.001456   0.000966
              25         26         27         28         29         30
     1  C   -0.000748  -0.000163   0.000050   0.000035   0.000366  -0.007106
     2  C   -0.007127   0.001726  -0.001160  -0.000145   0.001651  -0.003942
     3  C   -0.052576  -0.010560   0.013143  -0.003200  -0.003938   0.027591
     4  C    0.422510  -0.068507  -0.043786  -0.010469  -0.000039  -0.001897
     5  C   -0.045210   0.420541   0.422662  -0.052890  -0.001298   0.000251
     6  O    0.003752  -0.051937  -0.033504   0.317908  -0.000948  -0.000347
     7  N    0.000750   0.000234  -0.000555   0.036123  -0.039350  -0.072429
     8  C   -0.002227  -0.007833   0.000646  -0.003783   0.429134   0.428600
     9  C    0.000001   0.000006   0.000000   0.000107   0.000083  -0.000597
    10  C   -0.000008  -0.000107   0.000005  -0.000856  -0.001115   0.000432
    11  C   -0.000052  -0.001141   0.000075  -0.000767  -0.014646   0.005709
    12  C    0.000402   0.002546  -0.000185  -0.000814  -0.025941  -0.029923
    13  C    0.000013   0.000147  -0.000003   0.000516   0.009809  -0.029815
    14  C   -0.000002  -0.000006   0.000000  -0.000066  -0.000173  -0.000431
    15  H    0.000000   0.000000   0.000000   0.000000   0.000003   0.000001
    16  H    0.000000  -0.000001   0.000000  -0.000006  -0.000018   0.000011
    17  H    0.000000   0.000000   0.000000   0.000000   0.000006   0.000012
    18  F    0.000002   0.000214   0.000006   0.002804   0.002630   0.000609
    19  F    0.000000   0.000000   0.000000  -0.000006   0.000700   0.003538
    20  H   -0.000003  -0.000008   0.000001  -0.000028   0.000488  -0.013657
    21  H    0.000013   0.000007  -0.000001  -0.000013   0.000055  -0.000566
    22  H   -0.000012  -0.000001   0.000000  -0.000001  -0.000008   0.000427
    23  H    0.005171  -0.000013  -0.000004   0.000088  -0.000048   0.000548
    24  H   -0.001341  -0.000102   0.000030  -0.000099   0.000068  -0.000707
    25  H    0.568234   0.012350  -0.010655   0.001980   0.000010   0.000144
    26  H    0.012350   0.610574  -0.050293   0.002984   0.001394   0.000159
    27  H   -0.010655  -0.050293   0.572327   0.006339  -0.000073  -0.000013
    28  H    0.001980   0.002984   0.006339   0.351526  -0.001093   0.000624
    29  H    0.000010   0.001394  -0.000073  -0.001093   0.466471  -0.019969
    30  H    0.000144   0.000159  -0.000013   0.000624  -0.019969   0.514910
    31  H    0.006976   0.002045  -0.000163   0.000681  -0.002294   0.002702
    32  C   -0.037156   0.007767  -0.008468   0.000319   0.000273   0.000102
    33  H    0.008686   0.005216  -0.000944   0.000032  -0.000012   0.000009
    34  H   -0.005239  -0.000158   0.003350  -0.000027   0.000004  -0.000004
    35  H   -0.006818  -0.000870   0.000106  -0.000017  -0.000005   0.000003
    36  H    0.000414   0.000071  -0.000022  -0.001631   0.004891  -0.003237
              31         32         33         34         35         36
     1  C   -0.008231  -0.000196  -0.000178   0.000055   0.000467  -0.005312
     2  C   -0.047766   0.007386  -0.001167   0.000067  -0.003315   0.004120
     3  C    0.467560  -0.070011  -0.014524   0.013389  -0.002923  -0.056596
     4  C   -0.032790   0.251721  -0.015014  -0.053287  -0.043470   0.007169
     5  C   -0.011922  -0.055883  -0.012375  -0.006971   0.010143  -0.002145
     6  O   -0.000236   0.009227   0.000034   0.000125  -0.000383   0.001398
     7  N   -0.049598   0.009462   0.000025  -0.000417  -0.000268   0.372020
     8  C   -0.022038  -0.000983  -0.000039   0.000031  -0.000017  -0.034830
     9  C   -0.000004   0.000000   0.000000   0.000000   0.000000   0.000138
    10  C    0.000020  -0.000002   0.000000   0.000000   0.000000  -0.000429
    11  C    0.000234  -0.000039   0.000001   0.000000   0.000000   0.001445
    12  C    0.002120   0.000321   0.000008  -0.000004   0.000000  -0.007062
    13  C   -0.000530   0.000012  -0.000001   0.000000  -0.000001   0.006029
    14  C    0.000005   0.000000   0.000000   0.000000   0.000000  -0.000150
    15  H    0.000000   0.000000   0.000000   0.000000   0.000000   0.000000
    16  H    0.000000   0.000000   0.000000   0.000000   0.000000   0.000001
    17  H    0.000000   0.000000   0.000000   0.000000   0.000000   0.000004
    18  F    0.000012  -0.000002   0.000000   0.000000   0.000000  -0.000075
    19  F    0.000011   0.000000   0.000000   0.000000   0.000000   0.000628
    20  H    0.000953  -0.000071   0.000007   0.000001  -0.000040   0.003680
    21  H    0.001751   0.000063   0.000011  -0.000002   0.000095   0.000400
    22  H   -0.000199   0.000002   0.000003  -0.000002   0.000028  -0.000115
    23  H    0.007087  -0.000394   0.000118  -0.000077   0.000224   0.001456
    24  H   -0.002526  -0.003255   0.000052   0.000237  -0.002228   0.000966
    25  H    0.006976  -0.037156   0.008686  -0.005239  -0.006818   0.000414
    26  H    0.002045   0.007767   0.005216  -0.000158  -0.000870   0.000071
    27  H   -0.000163  -0.008468  -0.000944   0.003350   0.000106  -0.000022
    28  H    0.000681   0.000319   0.000032  -0.000027  -0.000017  -0.001631
    29  H   -0.002294   0.000273  -0.000012   0.000004  -0.000005   0.004891
    30  H    0.002702   0.000102   0.000009  -0.000004   0.000003  -0.003237
    31  H    0.501185  -0.006893   0.004900  -0.000038  -0.000543   0.004668
    32  C   -0.006893   5.126461   0.396506   0.427197   0.420176  -0.000216
    33  H    0.004900   0.396506   0.531012  -0.025815  -0.027645  -0.000005
    34  H   -0.000038   0.427197  -0.025815   0.513164  -0.020901   0.000021
    35  H   -0.000543   0.420176  -0.027645  -0.020901   0.528443   0.000005
    36  H    0.004668  -0.000216  -0.000005   0.000021   0.000005   0.449515
 Mulliken charges:
               1
     1  C   -0.456446
     2  C   -0.286846
     3  C   -0.106122
     4  C   -0.106703
     5  C   -0.081363
     6  O   -0.525615
     7  N   -0.466503
     8  C   -0.305685
     9  C   -0.110548
    10  C   -0.249152
    11  C    0.285543
    12  C   -0.060099
    13  C    0.302147
    14  C   -0.247635
    15  H    0.173326
    16  H    0.174133
    17  H    0.174323
    18  F   -0.204808
    19  F   -0.213713
    20  H    0.146768
    21  H    0.152644
    22  H    0.157257
    23  H    0.161454
    24  H    0.137659
    25  H    0.137768
    26  H    0.123719
    27  H    0.131092
    28  H    0.353844
    29  H    0.192932
    30  H    0.198257
    31  H    0.182862
    32  C   -0.473426
    33  H    0.151100
    34  H    0.155299
    35  H    0.149753
    36  H    0.252785
 Sum of Mulliken charges =   0.00000
 Mulliken charges with hydrogens summed into heavy atoms:
               1
     1  C    0.000223
     2  C    0.012267
     3  C    0.076740
     4  C    0.031065
     5  C    0.173447
     6  O   -0.171771
     7  N   -0.213718
     8  C    0.085505
     9  C    0.062778
    10  C   -0.075020
    11  C    0.285543
    12  C   -0.060099
    13  C    0.302147
    14  C   -0.073312
    18  F   -0.204808
    19  F   -0.213713
    32  C   -0.017275
 Electronic spatial extent (au):  <R**2>=           4948.7453
 Charge=              0.0000 electrons
 Dipole moment (field-independent basis, Debye):
    X=             -1.4665    Y=              3.6234    Z=              0.6692  Tot=              3.9658
 Quadrupole moment (field-independent basis, Debye-Ang):
   XX=            -83.5550   YY=           -113.7371   ZZ=           -103.4035
   XY=              7.4175   XZ=              5.8971   YZ=             -4.1310
 Traceless Quadrupole moment (field-independent basis, Debye-Ang):
   XX=             16.6769   YY=            -13.5052   ZZ=             -3.1716
   XY=              7.4175   XZ=              5.8971   YZ=             -4.1310
 Octapole moment (field-independent basis, Debye-Ang**2):
  XXX=            -71.0689  YYY=             18.7788  ZZZ=              6.9919  XYY=            -15.5084
  XXY=             -9.3155  XXZ=            -19.1260  XZZ=             -0.2385  YZZ=              5.0925
  YYZ=              5.3030  XYZ=             -6.5141
 Hexadecapole moment (field-independent basis, Debye-Ang**3):
 XXXX=          -4165.2440 YYYY=          -1782.0775 ZZZZ=           -282.2142 XXXY=             -7.9928
 XXXZ=             89.5404 YYYX=             49.4211 YYYZ=            -33.3246 ZZZX=            -11.3052
 ZZZY=            -10.8505 XXYY=           -986.0672 XXZZ=           -842.5672 YYZZ=           -341.1740
 XXYZ=             -7.9936 YYXZ=             21.1497 ZZXY=             -3.4452
 N-N= 1.282881239015D+03 E-N=-4.521785412199D+03  KE= 8.321484976722D+02
 1\1\GINC-CPU-E-94\SP\RM062X\def2TZVP\C13H19F2N1O1\KE291\26-Jun-2019\0\
 \# m062x/def2tzvp int=ultrafine scrf=(solvent=chloroform)\\AT3_1ginp00
 7\\0,1\C,0,1.587047,3.067182,0.054735\C,0,2.452107,1.912841,-0.465704\
 C,0,2.119397,0.523082,0.114218\C,0,3.133337,-0.5611,-0.350329\C,0,2.66
 3684,-1.988615,-0.002862\O,0,1.558322,-2.425755,-0.772751\N,0,0.718817
 ,0.121932,-0.211321\C,0,-0.247627,0.291688,0.892318\C,0,-4.285222,-0.4
 14534,-0.516147\C,0,-3.477628,-1.496145,-0.159979\C,0,-2.18915,-1.2379
 58,0.289651\C,0,-1.657345,0.048149,0.413409\C,0,-2.508325,1.08767,0.03
 3259\C,0,-3.806299,0.892724,-0.422767\H,0,-5.294909,-0.592313,-0.87099
 \H,0,-3.826719,-2.519944,-0.226532\H,0,-4.412979,1.748214,-0.69581\F,0
 ,-1.400296,-2.28005,0.633961\F,0,-2.038947,2.357451,0.117083\H,0,0.525
 616,2.930104,-0.172996\H,0,1.684056,3.176958,1.140756\H,0,1.898059,4.0
 12596,-0.400986\H,0,2.366625,1.85247,-1.560525\H,0,3.502164,2.143895,-
 0.260463\H,0,3.203731,-0.51491,-1.447071\H,0,2.450834,-2.041326,1.0816
 31\H,0,3.485503,-2.689764,-0.192805\H,0,0.923533,-1.681245,-0.684528\H
 ,0,-0.001137,-0.440275,1.66697\H,0,-0.195463,1.286517,1.351409\H,0,2.1
 84377,0.576255,1.210943\C,0,4.530265,-0.327129,0.247806\H,0,4.501996,-
 0.381554,1.343153\H,0,5.23028,-1.092583,-0.102584\H,0,4.948263,0.64493
 6,-0.024867\H,0,0.395625,0.650758,-1.018501\\Version=ES64L-G09RevD.01\
 State=1-A\HF=-836.4604875\RMSD=7.676e-09\Dipole=-0.5769774,1.4255524,0
 .2632641\Quadrupole=12.398832,-10.0407991,-2.3580329,5.5147559,4.38436
 07,-3.0712968\PG=C01 [X(C13H19F2N1O1)]\\@


 I LOVE MANKIND - IT'S PEOPLE I CAN'T STAND.
     -- LINUS OF PEANUTS
 Job cpu time:       0 days  1 hours 19 minutes 37.8 seconds.
 File lengths (MBytes):  RWF=    318 Int=      0 D2E=      0 Chk=     17 Scr=      1
 Normal termination of Gaussian 09 at Wed Jun 26 12:23:00 2019.
