 Entering Gaussian System, Link 0=/usr/local/Cluster-Apps/gaussian/g09/g09
 Initial command:
 /usr/local/Cluster-Apps/gaussian/g09/l1.exe "/home/ke291/rds/hpc-work/26Jun1158AT3NMR/Gau-110046.inp" -scrdir="/home/ke291/rds/hpc-work/26Jun1158AT3NMR/"
 Entering Link 1 = /usr/local/Cluster-Apps/gaussian/g09/l1.exe PID=    110055.
  
 Copyright (c) 1988,1990,1992,1993,1995,1998,2003,2009,2013,
            Gaussian, Inc.  All Rights Reserved.
  
 This is part of the Gaussian(R) 09 program.  It is based on
 the Gaussian(R) 03 system (copyright 2003, Gaussian, Inc.),
 the Gaussian(R) 98 system (copyright 1998, Gaussian, Inc.),
 the Gaussian(R) 94 system (copyright 1995, Gaussian, Inc.),
 the Gaussian 92(TM) system (copyright 1992, Gaussian, Inc.),
 the Gaussian 90(TM) system (copyright 1990, Gaussian, Inc.),
 the Gaussian 88(TM) system (copyright 1988, Gaussian, Inc.),
 the Gaussian 86(TM) system (copyright 1986, Carnegie Mellon
 University), and the Gaussian 82(TM) system (copyright 1983,
 Carnegie Mellon University). Gaussian is a federally registered
 trademark of Gaussian, Inc.
  
 This software contains proprietary and confidential information,
 including trade secrets, belonging to Gaussian, Inc.
  
 This software is provided under written license and may be
 used, copied, transmitted, or stored only in accord with that
 written license.
  
 The following legend is applicable only to US Government
 contracts under FAR:
  
                    RESTRICTED RIGHTS LEGEND
  
 Use, reproduction and disclosure by the US Government is
 subject to restrictions as set forth in subparagraphs (a)
 and (c) of the Commercial Computer Software - Restricted
 Rights clause in FAR 52.227-19.
  
 Gaussian, Inc.
 340 Quinnipiac St., Bldg. 40, Wallingford CT 06492
  
  
 ---------------------------------------------------------------
 Warning -- This program may not be used in any manner that
 competes with the business of Gaussian, Inc. or will provide
 assistance to any competitor of Gaussian, Inc.  The licensee
 of this program is prohibited from giving any competitor of
 Gaussian, Inc. access to this program.  By using this program,
 the user acknowledges that Gaussian, Inc. is engaged in the
 business of creating and licensing software in the field of
 computational chemistry and represents and warrants to the
 licensee that it is not a competitor of Gaussian, Inc. and that
 it will not use this program in any manner prohibited above.
 ---------------------------------------------------------------
  

 Cite this work as:
 Gaussian 09, Revision D.01,
 M. J. Frisch, G. W. Trucks, H. B. Schlegel, G. E. Scuseria, 
 M. A. Robb, J. R. Cheeseman, G. Scalmani, V. Barone, B. Mennucci, 
 G. A. Petersson, H. Nakatsuji, M. Caricato, X. Li, H. P. Hratchian, 
 A. F. Izmaylov, J. Bloino, G. Zheng, J. L. Sonnenberg, M. Hada, 
 M. Ehara, K. Toyota, R. Fukuda, J. Hasegawa, M. Ishida, T. Nakajima, 
 Y. Honda, O. Kitao, H. Nakai, T. Vreven, J. A. Montgomery, Jr., 
 J. E. Peralta, F. Ogliaro, M. Bearpark, J. J. Heyd, E. Brothers, 
 K. N. Kudin, V. N. Staroverov, T. Keith, R. Kobayashi, J. Normand, 
 K. Raghavachari, A. Rendell, J. C. Burant, S. S. Iyengar, J. Tomasi, 
 M. Cossi, N. Rega, J. M. Millam, M. Klene, J. E. Knox, J. B. Cross, 
 V. Bakken, C. Adamo, J. Jaramillo, R. Gomperts, R. E. Stratmann, 
 O. Yazyev, A. J. Austin, R. Cammi, C. Pomelli, J. W. Ochterski, 
 R. L. Martin, K. Morokuma, V. G. Zakrzewski, G. A. Voth, 
 P. Salvador, J. J. Dannenberg, S. Dapprich, A. D. Daniels, 
 O. Farkas, J. B. Foresman, J. V. Ortiz, J. Cioslowski, 
 and D. J. Fox, Gaussian, Inc., Wallingford CT, 2013.
 
 ******************************************
 Gaussian 09:  ES64L-G09RevD.01 24-Apr-2013
                26-Jun-2019 
 ******************************************
 %nprocshared=4
 Will use up to    4 processors via shared memory.
 %mem=6000MB
 %chk=AT3_1ginp011.chk
 --------------------------------------------------------
 # m062x/def2tzvp int=ultrafine scrf=(solvent=chloroform)
 --------------------------------------------------------
 1/38=1/1;
 2/12=2,17=6,18=5,40=1/2;
 3/5=44,7=101,11=2,16=1,25=1,30=1,70=2201,72=7,74=-55,75=-5/1,2,3;
 4//1;
 5/5=2,38=5,53=7/2;
 6/7=2,8=2,9=2,10=2,28=1/1;
 99/5=1,9=1/99;
 ------------
 AT3_1ginp011
 ------------
 Symbolic Z-matrix:
 Charge =  0 Multiplicity = 1
 C                    -1.87103   3.0442    0.11401 
 C                    -2.50433   1.73395   0.59805 
 C                    -2.17148   0.51594  -0.29197 
 C                    -2.84632  -0.80597   0.16413 
 C                    -2.59101  -1.94596  -0.84511 
 O                    -1.23117  -2.32198  -0.97239 
 N                    -0.71005   0.30583  -0.50509 
 C                     0.12196   0.23257   0.71266 
 C                     4.3068   -0.23427  -0.3273 
 C                     3.6736    0.99469  -0.52471 
 C                     2.33379   1.10164  -0.1806 
 C                     1.57828   0.056     0.35296 
 C                     2.26286  -1.14923   0.52169 
 C                     3.60489  -1.31859   0.19904 
 H                     5.35397  -0.34693  -0.58741 
 H                     4.19464   1.85199  -0.93452 
 H                     4.07433  -2.28208   0.35982 
 F                     1.70369   2.29012  -0.37918 
 F                     1.587    -2.20059   1.03485 
 H                    -0.77743   3.01193   0.13181 
 H                    -2.17922   3.27281  -0.91305 
 H                    -2.18406   3.8814    0.74545 
 H                    -2.20705   1.53373   1.63575 
 H                    -3.591     1.86079   0.61619 
 H                    -2.40849  -1.11584   1.12354 
 H                    -3.01999  -1.64797  -1.82071 
 H                    -3.1418   -2.83714  -0.52005 
 H                    -0.7584   -1.46379  -1.05428 
 H                     0.02264   1.12307   1.34846 
 H                    -0.20007  -0.62767   1.30079 
 H                    -2.56209   0.73476  -1.29714 
 C                    -4.36263  -0.64706   0.36273 
 H                    -4.84369  -0.25372  -0.54111 
 H                    -4.81983  -1.61704   0.58412 
 H                    -4.60572   0.02339   1.1902 
 H                    -0.35553   1.06013  -1.08749 
 
                          Input orientation:                          
 ---------------------------------------------------------------------
 Center     Atomic      Atomic             Coordinates (Angstroms)
 Number     Number       Type             X           Y           Z
 ---------------------------------------------------------------------
      1          6           0       -1.871031    3.044202    0.114014
      2          6           0       -2.504329    1.733949    0.598045
      3          6           0       -2.171477    0.515942   -0.291970
      4          6           0       -2.846322   -0.805974    0.164127
      5          6           0       -2.591012   -1.945960   -0.845109
      6          8           0       -1.231173   -2.321978   -0.972385
      7          7           0       -0.710047    0.305829   -0.505093
      8          6           0        0.121961    0.232567    0.712659
      9          6           0        4.306803   -0.234269   -0.327303
     10          6           0        3.673602    0.994688   -0.524714
     11          6           0        2.333792    1.101645   -0.180600
     12          6           0        1.578284    0.056003    0.352964
     13          6           0        2.262860   -1.149234    0.521688
     14          6           0        3.604888   -1.318593    0.199037
     15          1           0        5.353966   -0.346932   -0.587411
     16          1           0        4.194640    1.851990   -0.934519
     17          1           0        4.074335   -2.282077    0.359816
     18          9           0        1.703688    2.290123   -0.379184
     19          9           0        1.586997   -2.200592    1.034845
     20          1           0       -0.777431    3.011930    0.131814
     21          1           0       -2.179217    3.272813   -0.913049
     22          1           0       -2.184063    3.881397    0.745449
     23          1           0       -2.207052    1.533730    1.635754
     24          1           0       -3.591004    1.860791    0.616193
     25          1           0       -2.408485   -1.115845    1.123543
     26          1           0       -3.019993   -1.647970   -1.820710
     27          1           0       -3.141801   -2.837144   -0.520048
     28          1           0       -0.758402   -1.463792   -1.054281
     29          1           0        0.022641    1.123067    1.348457
     30          1           0       -0.200074   -0.627672    1.300786
     31          1           0       -2.562088    0.734760   -1.297136
     32          6           0       -4.362628   -0.647060    0.362729
     33          1           0       -4.843686   -0.253715   -0.541114
     34          1           0       -4.819828   -1.617040    0.584124
     35          1           0       -4.605715    0.023391    1.190195
     36          1           0       -0.355527    1.060132   -1.087488
 ---------------------------------------------------------------------
                    Distance matrix (angstroms):
                    1          2          3          4          5
     1  C    0.000000
     2  C    1.533661   0.000000
     3  C    2.578214   1.544817   0.000000
     4  C    3.972098   2.599318   1.552708   0.000000
     5  C    5.132252   3.953725   2.557916   1.543797   0.000000
     6  O    5.512311   4.531856   3.066093   2.489706   1.416598
     7  N    3.038069   2.544777   1.491760   2.499526   2.953675
     8  C    3.497954   3.027323   2.519809   3.192203   3.812197
     9  C    7.007765   7.149942   6.521670   7.192743   7.125859
    10  C    5.945707   6.322494   5.869269   6.798992   6.927875
    11  C    4.641213   4.941003   4.544546   5.530952   5.829508
    12  C    4.569924   4.420780   3.832518   4.511740   4.777684
    13  C    5.902555   5.571774   4.806058   5.133168   5.105191
    14  C    7.001921   6.841034   6.080543   6.471639   6.314508
    15  H    8.012014   8.215119   7.580510   8.247439   8.108389
    16  H    6.270020   6.873054   6.536462   7.605718   7.776728
    17  H    7.986053   7.711293   6.874875   7.079030   6.781716
    18  F    3.686529   4.355653   4.262890   5.530244   6.050284
    19  F    6.349311   5.693009   4.823497   4.728364   4.588554
    20  H    1.094221   2.198359   2.890141   4.342551   5.368811
    21  H    1.096403   2.181102   2.825975   4.271047   5.235435
    22  H    1.094347   2.176196   3.521744   4.769483   6.054219
    23  H    2.170283   1.097862   2.180201   2.837000   4.290728
    24  H    2.147313   1.094203   2.156023   2.805450   4.198421
    25  H    4.314394   2.899424   2.173149   1.099182   2.144294
    26  H    5.203821   4.189709   2.782003   2.163030   1.106626
    27  H    6.050382   4.748831   3.498104   2.163575   1.096924
    28  H    4.787992   4.000499   2.548970   2.505325   1.906488
    29  H    2.966581   2.705896   2.806021   3.654420   4.589318
    30  H    4.205138   3.373528   2.780495   2.885553   3.472655
    31  H    2.793282   2.143228   1.100371   2.142414   2.718717
    32  C    4.460418   3.029497   2.565609   1.537492   2.506918
    33  H    4.487998   3.274306   2.791979   2.189022   2.833839
    34  H    5.535665   4.073188   3.511540   2.174615   2.668055
    35  H    4.214494   2.773531   2.892220   2.199119   3.475606
    36  H    2.770721   2.812899   2.055886   3.354542   3.754028
                    6          7          8          9         10
     6  O    0.000000
     7  N    2.719431   0.000000
     8  C    3.346049   1.476660   0.000000
     9  C    5.953473   5.048970   4.337322   0.000000
    10  C    5.937803   4.437487   3.837457   1.396513   0.000000
    11  C    5.005706   3.162843   2.538780   2.387250   1.387424
    12  C    3.912083   2.456651   1.510441   2.826984   2.458008
    13  C    3.976915   3.465496   2.555248   2.394922   2.771561
    14  C    5.076071   4.664034   3.847166   1.394804   2.424831
    15  H    6.885715   6.099601   5.422165   1.084850   2.151162
    16  H    6.845647   5.160521   4.682141   2.175723   1.083692
    17  H    5.470353   5.507780   4.697786   2.172485   3.417626
    18  F    5.498797   3.127202   2.815585   3.626493   2.362179
    19  F    3.462050   3.732287   2.858391   3.622046   4.122616
    20  H    5.465868   2.780858   2.978447   6.049631   4.930719
    21  H    5.674856   3.335848   4.145050   7.396700   6.292547
    22  H    6.506982   4.064636   4.316571   7.760209   6.652717
    23  H    4.756176   2.886519   2.823018   7.029205   6.288106
    24  H    5.058452   3.460506   4.055432   8.225255   7.404479
    25  H    2.689560   2.749237   2.896584   6.926559   6.645516
    26  H    2.091368   3.299095   4.452668   7.609912   7.312145
    27  H    2.029902   3.973906   4.647024   7.892643   7.818739
    28  H    0.983210   1.853511   2.602835   5.262749   5.095805
    29  H    4.338974   2.154149   1.098678   4.796309   4.105456
    30  H    3.016810   2.095876   1.090693   4.808054   4.579287
    31  H    3.349693   2.059459   3.390515   7.004374   6.288722
    32  C    3.793928   3.873301   4.583419   8.706640   8.250084
    33  H    4.184968   4.171494   5.144518   9.153007   8.608308
    34  H    3.974683   4.666275   5.278148   9.275675   8.954831
    35  H    4.643818   4.257934   4.756334   9.044455   8.510665
    36  H    3.495522   1.016780   2.037986   4.898028   4.068769
                   11         12         13         14         15
    11  C    0.000000
    12  C    1.396012   0.000000
    13  C    2.358961   1.396320   0.000000
    14  C    2.759957   2.453636   1.390620   0.000000
    15  H    3.374214   3.911833   3.380640   2.149860   0.000000
    16  H    2.143401   3.424690   3.854823   3.418385   2.509936
    17  H    3.843321   3.420078   2.142657   1.083758   2.505889
    18  F    1.359760   2.354370   3.599086   4.119676   4.507987
    19  F    3.597190   2.357384   1.351101   2.355500   4.500869
    20  H    3.664219   3.786265   5.168235   6.161385   7.028034
    21  H    5.061393   5.105827   6.430009   7.468173   8.364056
    22  H    5.384756   5.379864   6.718068   7.800668   8.745122
    23  H    4.909695   4.261220   5.330999   6.631632   8.102367
    24  H    6.026142   5.481614   6.583077   7.878030   9.291673
    25  H    5.395113   4.226269   4.710075   6.087403   7.985877
    26  H    6.238057   5.364004   5.800354   6.933752   8.563698
    27  H    6.753621   5.604610   5.757136   6.952762   8.853460
    28  H    4.111745   3.122534   3.422083   4.542047   6.231082
    29  H    2.771262   2.132993   3.296283   4.485015   5.859310
    30  H    3.406687   2.127989   2.635349   4.021064   5.872943
    31  H    5.034968   4.508461   5.489779   6.669811   8.021077
    32  C    6.942277   5.982376   6.646393   7.997441   9.767550
    33  H    7.313218   6.491302   7.241167   8.547525  10.198183
    34  H    7.690925   6.617276   7.098395   8.438792  10.319484
    35  H    7.155310   6.240502   6.999948   8.378384  10.123846
    36  H    2.838416   2.612049   3.785062   4.795661   5.901544
                   16         17         18         19         20
    16  H    0.000000
    17  H    4.333623   0.000000
    18  F    2.589440   5.202990   0.000000
    19  F    5.205921   2.578595   4.709524   0.000000
    20  H    5.215747   7.184576   2.634023   5.794512   0.000000
    21  H    6.530333   8.460727   4.040748   6.923642   1.767711
    22  H    6.901350   8.792307   4.348742   7.162069   1.763841
    23  H    6.905741   7.459506   4.463854   5.357337   2.547691
    24  H    7.938579   8.717024   5.404523   6.594073   3.078301
    25  H    7.526282   6.631013   5.546961   4.141065   4.547790
    26  H    8.067588   7.448911   6.316624   5.448297   5.527757
    27  H    8.716830   7.290739   7.056024   5.018408   6.342463
    28  H    5.961659   5.101432   4.539771   3.226177   4.630256
    29  H    4.811329   5.384110   2.678186   3.686770   2.384982
    30  H    5.518951   4.679001   3.867834   2.395501   3.866075
    31  H    6.858066   7.475888   4.632347   5.591899   3.226825
    32  C    9.008604   8.593930   6.780683   6.185729   5.127881
    33  H    9.288708   9.190050   7.026054   6.901280   5.258488
    34  H    9.777580   8.921812   7.664864   6.449115   6.162217
    35  H    9.236040   9.019312   6.885462   6.581787   4.970643
    36  H    4.621088   5.734869   2.500988   4.348565   2.339704
                   21         22         23         24         25
    21  H    0.000000
    22  H    1.766639   0.000000
    23  H    3.085706   2.510919   0.000000
    24  H    2.515061   2.465571   1.749799   0.000000
    25  H    4.843613   5.016547   2.706138   3.242856   0.000000
    26  H    5.073939   6.152873   4.767728   4.309983   3.053805
    27  H    6.197789   6.903444   4.962437   4.854217   2.490384
    28  H    4.947129   5.817438   4.280188   4.676213   2.754407
    29  H    3.818900   3.583510   2.285326   3.760170   3.312656
    30  H    4.902230   4.957450   2.968471   4.261399   2.268658
    31  H    2.595347   3.770462   3.060433   2.446925   3.050905
    32  C    4.664793   5.039796   3.320082   2.636089   2.148784
    33  H    4.435553   5.082125   3.858180   2.716562   3.073199
    34  H    5.755434   6.099680   4.226095   3.688678   2.521258
    35  H    4.568399   4.576725   2.869361   2.176041   2.475908
    36  H    2.872670   3.829195   3.326934   3.743247   3.719969
                   26         27         28         29         30
    26  H    0.000000
    27  H    1.766549   0.000000
    28  H    2.395022   2.802158   0.000000
    29  H    5.194217   5.402617   3.615939   0.000000
    30  H    4.328590   4.104992   2.560697   1.765492   0.000000
    31  H    2.482178   3.701139   2.854101   3.718974   3.766235
    32  C    2.751708   2.658229   3.957956   4.830693   4.266988
    33  H    2.628149   3.093697   4.291523   5.398810   5.009548
    34  H    3.003929   2.350239   4.382127   5.616217   4.778554
    35  H    3.791241   3.640142   4.695871   4.759833   4.454861
    36  H    3.869213   4.824321   2.556091   2.465928   2.928600
                   31         32         33         34         35
    31  H    0.000000
    32  C    2.811854   0.000000
    33  H    2.598912   1.096845   0.000000
    34  H    3.763973   1.094947   1.767876   0.000000
    35  H    3.296858   1.092381   1.769420   1.761868   0.000000
    36  H    2.240252   4.590696   4.708321   5.467314   4.932218
                   36
    36  H    0.000000
 Stoichiometry    C13H19F2NO
 Framework group  C1[X(C13H19F2NO)]
 Deg. of freedom   102
 Full point group                 C1      NOp   1
 Largest Abelian subgroup         C1      NOp   1
 Largest concise Abelian subgroup C1      NOp   1
                         Standard orientation:                         
 ---------------------------------------------------------------------
 Center     Atomic      Atomic             Coordinates (Angstroms)
 Number     Number       Type             X           Y           Z
 ---------------------------------------------------------------------
      1          6           0       -1.871031    3.044202    0.114014
      2          6           0       -2.504329    1.733949    0.598045
      3          6           0       -2.171477    0.515942   -0.291970
      4          6           0       -2.846322   -0.805974    0.164127
      5          6           0       -2.591012   -1.945960   -0.845109
      6          8           0       -1.231173   -2.321978   -0.972385
      7          7           0       -0.710047    0.305829   -0.505093
      8          6           0        0.121961    0.232567    0.712659
      9          6           0        4.306803   -0.234269   -0.327303
     10          6           0        3.673602    0.994688   -0.524714
     11          6           0        2.333792    1.101645   -0.180600
     12          6           0        1.578284    0.056003    0.352964
     13          6           0        2.262860   -1.149234    0.521688
     14          6           0        3.604888   -1.318593    0.199037
     15          1           0        5.353966   -0.346932   -0.587411
     16          1           0        4.194640    1.851990   -0.934519
     17          1           0        4.074335   -2.282077    0.359816
     18          9           0        1.703688    2.290123   -0.379184
     19          9           0        1.586997   -2.200592    1.034845
     20          1           0       -0.777431    3.011930    0.131814
     21          1           0       -2.179217    3.272813   -0.913049
     22          1           0       -2.184063    3.881397    0.745449
     23          1           0       -2.207052    1.533730    1.635754
     24          1           0       -3.591004    1.860791    0.616193
     25          1           0       -2.408485   -1.115845    1.123543
     26          1           0       -3.019993   -1.647970   -1.820710
     27          1           0       -3.141801   -2.837144   -0.520048
     28          1           0       -0.758402   -1.463792   -1.054281
     29          1           0        0.022641    1.123067    1.348457
     30          1           0       -0.200074   -0.627672    1.300786
     31          1           0       -2.562088    0.734760   -1.297136
     32          6           0       -4.362628   -0.647060    0.362729
     33          1           0       -4.843686   -0.253715   -0.541114
     34          1           0       -4.819828   -1.617040    0.584124
     35          1           0       -4.605715    0.023391    1.190195
     36          1           0       -0.355527    1.060132   -1.087488
 ---------------------------------------------------------------------
 Rotational constants (GHZ):      0.7051898      0.2981183      0.2272964
 Standard basis: def2TZVP (5D, 7F)
 There are   726 symmetry adapted cartesian basis functions of A   symmetry.
 There are   641 symmetry adapted basis functions of A   symmetry.
   641 basis functions,  1019 primitive gaussians,   726 cartesian basis functions
    65 alpha electrons       65 beta electrons
       nuclear repulsion energy      1290.3303610933 Hartrees.
 NAtoms=   36 NActive=   36 NUniq=   36 SFac= 1.00D+00 NAtFMM=   60 NAOKFM=F Big=F
 Integral buffers will be    131072 words long.
 Raffenetti 2 integral format.
 Two-electron integral symmetry is turned on.
 ------------------------------------------------------------------------------
 Polarizable Continuum Model (PCM)
 =================================
 Model                : PCM (using non-symmetric T matrix).
 Atomic radii         : UFF (Universal Force Field).
 Polarization charges : Total charges.
 Charge compensation  : None.
 Solution method      : On-the-fly selection.
 Cavity type          : Scaled VdW (van der Waals Surface) (Alpha=1.100).
 Cavity algorithm     : GePol (No added spheres)
                        Default sphere list used, NSphG=   36.
                        Lebedev-Laikov grids with approx.  5.0 points / Ang**2.
                        Smoothing algorithm: Karplus/York (Gamma=1.0000).
                        Polarization charges: spherical gaussians, with
                                              point-specific exponents (IZeta= 3).
                        Self-potential: point-specific (ISelfS= 7).
                        Self-field    : sphere-specific E.n sum rule (ISelfD= 2).
 Solvent              : Chloroform, Eps=   4.711300 Eps(inf)=   2.090627
 ------------------------------------------------------------------------------
 One-electron integrals computed using PRISM.
   1 Symmetry operations used in ECPInt.
 ECPInt:  NShTT=   34716 NPrTT=  103716 LenC2=   31277 LenP2D=   68064.
 LDataN:  DoStor=T MaxTD1= 6 Len=  172
 NBasis=   641 RedAO= T EigKep=  1.14D-05  NBF=   641
 NBsUse=   641 1.00D-06 EigRej= -1.00D+00 NBFU=   641
 ExpMin= 9.52D-02 ExpMax= 3.55D+04 ExpMxC= 1.21D+03 IAcc=3 IRadAn=         5 AccDes= 0.00D+00
 Harris functional with IExCor= 1009 and IRadAn=       5 diagonalized for initial guess.
 HarFok:  IExCor= 1009 AccDes= 0.00D+00 IRadAn=         5 IDoV= 1 UseB2=F ITyADJ=14
 ICtDFT=  3500011 ScaDFX=  1.000000  1.000000  1.000000  1.000000
 FoFCou: FMM=F IPFlag=           0 FMFlag=      100000 FMFlg1=           0
         NFxFlg=           0 DoJE=T BraDBF=F KetDBF=T FulRan=T
         wScrn=  0.000000 ICntrl=     500 IOpCl=  0 I1Cent=   200000004 NGrid=           0
         NMat0=    1 NMatS0=      1 NMatT0=    0 NMatD0=    1 NMtDS0=    0 NMtDT0=    0
 Petite list used in FoFCou.
 Requested convergence on RMS density matrix=1.00D-08 within 128 cycles.
 Requested convergence on MAX density matrix=1.00D-06.
 Requested convergence on             energy=1.00D-06.
 No special actions if energy rises.
 Inv3:  Mode=1 IEnd=    17875443.
 Iteration    1 A*A^-1 deviation from unit magnitude is 5.11D-15 for   2437.
 Iteration    1 A*A^-1 deviation from orthogonality  is 2.86D-15 for   2432      3.
 Iteration    1 A^-1*A deviation from unit magnitude is 5.11D-15 for   2437.
 Iteration    1 A^-1*A deviation from orthogonality  is 8.32D-14 for   2168   2143.
 Error on total polarization charges =  0.01268
 SCF Done:  E(RM062X) =  -836.462350226     A.U. after   12 cycles
            NFock= 12  Conv=0.80D-08     -V/T= 2.0052

 **********************************************************************

            Population analysis using the SCF density.

 **********************************************************************

 Orbital symmetries:
       Occupied  (A) (A) (A) (A) (A) (A) (A) (A) (A) (A) (A) (A)
                 (A) (A) (A) (A) (A) (A) (A) (A) (A) (A) (A) (A)
                 (A) (A) (A) (A) (A) (A) (A) (A) (A) (A) (A) (A)
                 (A) (A) (A) (A) (A) (A) (A) (A) (A) (A) (A) (A)
                 (A) (A) (A) (A) (A) (A) (A) (A) (A) (A) (A) (A)
                 (A) (A) (A) (A) (A)
       Virtual   (A) (A) (A) (A) (A) (A) (A) (A) (A) (A) (A) (A)
                 (A) (A) (A) (A) (A) (A) (A) (A) (A) (A) (A) (A)
                 (A) (A) (A) (A) (A) (A) (A) (A) (A) (A) (A) (A)
                 (A) (A) (A) (A) (A) (A) (A) (A) (A) (A) (A) (A)
                 (A) (A) (A) (A) (A) (A) (A) (A) (A) (A) (A) (A)
                 (A) (A) (A) (A) (A) (A) (A) (A) (A) (A) (A) (A)
                 (A) (A) (A) (A) (A) (A) (A) (A) (A) (A) (A) (A)
                 (A) (A) (A) (A) (A) (A) (A) (A) (A) (A) (A) (A)
                 (A) (A) (A) (A) (A) (A) (A) (A) (A) (A) (A) (A)
                 (A) (A) (A) (A) (A) (A) (A) (A) (A) (A) (A) (A)
                 (A) (A) (A) (A) (A) (A) (A) (A) (A) (A) (A) (A)
                 (A) (A) (A) (A) (A) (A) (A) (A) (A) (A) (A) (A)
                 (A) (A) (A) (A) (A) (A) (A) (A) (A) (A) (A) (A)
                 (A) (A) (A) (A) (A) (A) (A) (A) (A) (A) (A) (A)
                 (A) (A) (A) (A) (A) (A) (A) (A) (A) (A) (A) (A)
                 (A) (A) (A) (A) (A) (A) (A) (A) (A) (A) (A) (A)
                 (A) (A) (A) (A) (A) (A) (A) (A) (A) (A) (A) (A)
                 (A) (A) (A) (A) (A) (A) (A) (A) (A) (A) (A) (A)
                 (A) (A) (A) (A) (A) (A) (A) (A) (A) (A) (A) (A)
                 (A) (A) (A) (A) (A) (A) (A) (A) (A) (A) (A) (A)
                 (A) (A) (A) (A) (A) (A) (A) (A) (A) (A) (A) (A)
                 (A) (A) (A) (A) (A) (A) (A) (A) (A) (A) (A) (A)
                 (A) (A) (A) (A) (A) (A) (A) (A) (A) (A) (A) (A)
                 (A) (A) (A) (A) (A) (A) (A) (A) (A) (A) (A) (A)
                 (A) (A) (A) (A) (A) (A) (A) (A) (A) (A) (A) (A)
                 (A) (A) (A) (A) (A) (A) (A) (A) (A) (A) (A) (A)
                 (A) (A) (A) (A) (A) (A) (A) (A) (A) (A) (A) (A)
                 (A) (A) (A) (A) (A) (A) (A) (A) (A) (A) (A) (A)
                 (A) (A) (A) (A) (A) (A) (A) (A) (A) (A) (A) (A)
                 (A) (A) (A) (A) (A) (A) (A) (A) (A) (A) (A) (A)
                 (A) (A) (A) (A) (A) (A) (A) (A) (A) (A) (A) (A)
                 (A) (A) (A) (A) (A) (A) (A) (A) (A) (A) (A) (A)
                 (A) (A) (A) (A) (A) (A) (A) (A) (A) (A) (A) (A)
                 (A) (A) (A) (A) (A) (A) (A) (A) (A) (A) (A) (A)
                 (A) (A) (A) (A) (A) (A) (A) (A) (A) (A) (A) (A)
                 (A) (A) (A) (A) (A) (A) (A) (A) (A) (A) (A) (A)
                 (A) (A) (A) (A) (A) (A) (A) (A) (A) (A) (A) (A)
                 (A) (A) (A) (A) (A) (A) (A) (A) (A) (A) (A) (A)
                 (A) (A) (A) (A) (A) (A) (A) (A) (A) (A) (A) (A)
                 (A) (A) (A) (A) (A) (A) (A) (A) (A) (A) (A) (A)
                 (A) (A) (A) (A) (A) (A) (A) (A) (A) (A) (A) (A)
                 (A) (A) (A) (A) (A) (A) (A) (A) (A) (A) (A) (A)
                 (A) (A) (A) (A) (A) (A) (A) (A) (A) (A) (A) (A)
                 (A) (A) (A) (A) (A) (A) (A) (A) (A) (A) (A) (A)
                 (A) (A) (A) (A) (A) (A) (A) (A) (A) (A) (A) (A)
                 (A) (A) (A) (A) (A) (A) (A) (A) (A) (A) (A) (A)
                 (A) (A) (A) (A) (A) (A) (A) (A) (A) (A) (A) (A)
                 (A) (A) (A) (A) (A) (A) (A) (A) (A) (A) (A) (A)
 The electronic state is 1-A.
 Alpha  occ. eigenvalues --  -25.27284 -25.26679 -19.59945 -14.75208 -10.64500
 Alpha  occ. eigenvalues --  -10.64448 -10.58138 -10.57372 -10.57265 -10.57153
 Alpha  occ. eigenvalues --  -10.56706 -10.55934 -10.55825 -10.54052 -10.53418
 Alpha  occ. eigenvalues --  -10.52693 -10.52670  -1.38391  -1.38054  -1.12314
 Alpha  occ. eigenvalues --   -1.02869  -0.98456  -0.90784  -0.87713  -0.86218
 Alpha  occ. eigenvalues --   -0.85622  -0.79311  -0.75513  -0.74958  -0.72896
 Alpha  occ. eigenvalues --   -0.71059  -0.68589  -0.65602  -0.63893  -0.62562
 Alpha  occ. eigenvalues --   -0.59399  -0.58393  -0.57720  -0.57413  -0.57269
 Alpha  occ. eigenvalues --   -0.55629  -0.54841  -0.54048  -0.52312  -0.51365
 Alpha  occ. eigenvalues --   -0.49414  -0.48926  -0.48620  -0.48152  -0.47336
 Alpha  occ. eigenvalues --   -0.45589  -0.45297  -0.44470  -0.43911  -0.43532
 Alpha  occ. eigenvalues --   -0.42475  -0.41661  -0.40486  -0.39894  -0.38766
 Alpha  occ. eigenvalues --   -0.37680  -0.33132  -0.32053  -0.31439  -0.30413
 Alpha virt. eigenvalues --    0.00265   0.01673   0.05929   0.07516   0.07674
 Alpha virt. eigenvalues --    0.08594   0.09355   0.11397   0.11563   0.11940
 Alpha virt. eigenvalues --    0.12221   0.12443   0.13136   0.13925   0.14371
 Alpha virt. eigenvalues --    0.14877   0.15939   0.16171   0.16916   0.17483
 Alpha virt. eigenvalues --    0.17701   0.18610   0.18883   0.19074   0.19692
 Alpha virt. eigenvalues --    0.19843   0.20953   0.21210   0.21855   0.22258
 Alpha virt. eigenvalues --    0.22858   0.23379   0.24235   0.24665   0.25350
 Alpha virt. eigenvalues --    0.25720   0.26595   0.27618   0.28059   0.28444
 Alpha virt. eigenvalues --    0.28789   0.29736   0.30559   0.31452   0.31743
 Alpha virt. eigenvalues --    0.32735   0.32968   0.33679   0.34648   0.35285
 Alpha virt. eigenvalues --    0.35473   0.36472   0.37158   0.37452   0.37693
 Alpha virt. eigenvalues --    0.38095   0.39115   0.39382   0.40066   0.40591
 Alpha virt. eigenvalues --    0.41087   0.41881   0.42209   0.42936   0.43123
 Alpha virt. eigenvalues --    0.44088   0.44749   0.44967   0.45499   0.45729
 Alpha virt. eigenvalues --    0.46191   0.46659   0.46929   0.47713   0.47931
 Alpha virt. eigenvalues --    0.48347   0.48799   0.49023   0.49594   0.49833
 Alpha virt. eigenvalues --    0.50204   0.50481   0.51188   0.52064   0.52297
 Alpha virt. eigenvalues --    0.52428   0.52769   0.53216   0.53654   0.54041
 Alpha virt. eigenvalues --    0.55140   0.55698   0.56424   0.57108   0.57786
 Alpha virt. eigenvalues --    0.59757   0.60976   0.61935   0.62354   0.62844
 Alpha virt. eigenvalues --    0.63558   0.64300   0.65809   0.67084   0.67550
 Alpha virt. eigenvalues --    0.68288   0.69484   0.70248   0.70507   0.71870
 Alpha virt. eigenvalues --    0.72298   0.73207   0.74139   0.75999   0.76407
 Alpha virt. eigenvalues --    0.76832   0.78081   0.78710   0.79140   0.79626
 Alpha virt. eigenvalues --    0.81060   0.81214   0.81894   0.83151   0.84046
 Alpha virt. eigenvalues --    0.84803   0.85972   0.86899   0.88372   0.88875
 Alpha virt. eigenvalues --    0.89201   0.90405   0.90819   0.91480   0.91724
 Alpha virt. eigenvalues --    0.93333   0.93436   0.96249   0.96816   0.97321
 Alpha virt. eigenvalues --    0.97976   0.98875   1.00253   1.00909   1.02064
 Alpha virt. eigenvalues --    1.03604   1.04812   1.05159   1.06036   1.06814
 Alpha virt. eigenvalues --    1.07741   1.09061   1.09875   1.10646   1.11558
 Alpha virt. eigenvalues --    1.12371   1.13172   1.15461   1.15521   1.16709
 Alpha virt. eigenvalues --    1.17652   1.18508   1.19149   1.19948   1.20657
 Alpha virt. eigenvalues --    1.21595   1.22932   1.23628   1.24252   1.24912
 Alpha virt. eigenvalues --    1.25931   1.26391   1.28334   1.29235   1.30404
 Alpha virt. eigenvalues --    1.31473   1.32710   1.34140   1.34386   1.35483
 Alpha virt. eigenvalues --    1.35822   1.38312   1.39196   1.40257   1.41320
 Alpha virt. eigenvalues --    1.43764   1.45364   1.46003   1.46598   1.48101
 Alpha virt. eigenvalues --    1.49115   1.52342   1.53882   1.54352   1.54506
 Alpha virt. eigenvalues --    1.56298   1.56450   1.57415   1.58333   1.58679
 Alpha virt. eigenvalues --    1.59684   1.60586   1.61449   1.62341   1.62918
 Alpha virt. eigenvalues --    1.63252   1.63699   1.64522   1.65268   1.66350
 Alpha virt. eigenvalues --    1.67071   1.67653   1.67893   1.68715   1.69237
 Alpha virt. eigenvalues --    1.69754   1.70269   1.71064   1.71713   1.72754
 Alpha virt. eigenvalues --    1.73591   1.74723   1.75985   1.77044   1.79612
 Alpha virt. eigenvalues --    1.80822   1.83908   1.84359   1.84953   1.87000
 Alpha virt. eigenvalues --    1.87620   1.88328   1.90021   1.91042   1.92062
 Alpha virt. eigenvalues --    1.92385   1.93232   1.93559   1.95108   1.95956
 Alpha virt. eigenvalues --    1.96898   1.98226   1.99491   2.00048   2.00299
 Alpha virt. eigenvalues --    2.02837   2.03760   2.05140   2.06299   2.06859
 Alpha virt. eigenvalues --    2.08998   2.10250   2.11337   2.11607   2.12320
 Alpha virt. eigenvalues --    2.13133   2.14356   2.15366   2.16227   2.17236
 Alpha virt. eigenvalues --    2.18067   2.18701   2.20360   2.20699   2.21222
 Alpha virt. eigenvalues --    2.22927   2.24203   2.25191   2.26603   2.27944
 Alpha virt. eigenvalues --    2.28656   2.29725   2.30353   2.30865   2.32156
 Alpha virt. eigenvalues --    2.32216   2.33651   2.34598   2.36033   2.37144
 Alpha virt. eigenvalues --    2.39081   2.39484   2.40348   2.41271   2.42653
 Alpha virt. eigenvalues --    2.42968   2.43566   2.44172   2.45155   2.45759
 Alpha virt. eigenvalues --    2.46441   2.48388   2.49134   2.50454   2.52481
 Alpha virt. eigenvalues --    2.53682   2.54170   2.54640   2.55384   2.56109
 Alpha virt. eigenvalues --    2.56941   2.57529   2.58186   2.58788   2.59727
 Alpha virt. eigenvalues --    2.60480   2.60568   2.61799   2.62645   2.62730
 Alpha virt. eigenvalues --    2.64250   2.64988   2.65888   2.66390   2.67319
 Alpha virt. eigenvalues --    2.68053   2.68523   2.69242   2.70869   2.71096
 Alpha virt. eigenvalues --    2.71380   2.71908   2.73635   2.75787   2.75809
 Alpha virt. eigenvalues --    2.76685   2.77892   2.78411   2.79514   2.79869
 Alpha virt. eigenvalues --    2.80557   2.81435   2.82430   2.82923   2.85464
 Alpha virt. eigenvalues --    2.86277   2.86949   2.87605   2.89165   2.90301
 Alpha virt. eigenvalues --    2.90697   2.92407   2.92698   2.93863   2.94512
 Alpha virt. eigenvalues --    2.95202   2.96907   2.97832   2.98302   2.98450
 Alpha virt. eigenvalues --    2.99371   3.00962   3.02421   3.03817   3.04293
 Alpha virt. eigenvalues --    3.05630   3.05896   3.07312   3.08331   3.08785
 Alpha virt. eigenvalues --    3.09731   3.11142   3.11742   3.12624   3.13314
 Alpha virt. eigenvalues --    3.13823   3.14414   3.15355   3.16928   3.17468
 Alpha virt. eigenvalues --    3.18582   3.20094   3.20544   3.20988   3.22442
 Alpha virt. eigenvalues --    3.22962   3.23382   3.23632   3.24453   3.25528
 Alpha virt. eigenvalues --    3.26620   3.27590   3.27825   3.28693   3.29275
 Alpha virt. eigenvalues --    3.31144   3.31729   3.32429   3.32968   3.33889
 Alpha virt. eigenvalues --    3.34891   3.35494   3.35887   3.36993   3.37970
 Alpha virt. eigenvalues --    3.39075   3.39623   3.39954   3.41555   3.42179
 Alpha virt. eigenvalues --    3.43467   3.44389   3.45205   3.46089   3.46627
 Alpha virt. eigenvalues --    3.47437   3.48420   3.49257   3.50608   3.51022
 Alpha virt. eigenvalues --    3.52630   3.53769   3.55023   3.55237   3.55621
 Alpha virt. eigenvalues --    3.57361   3.58101   3.59203   3.59698   3.60161
 Alpha virt. eigenvalues --    3.61351   3.61970   3.62721   3.63666   3.64331
 Alpha virt. eigenvalues --    3.65371   3.66112   3.67603   3.68168   3.69570
 Alpha virt. eigenvalues --    3.70087   3.71718   3.74283   3.75167   3.76522
 Alpha virt. eigenvalues --    3.80020   3.80324   3.83691   3.85158   3.86581
 Alpha virt. eigenvalues --    3.88022   3.88906   3.89597   3.92899   3.93902
 Alpha virt. eigenvalues --    3.94836   3.96269   3.97961   3.98626   4.01337
 Alpha virt. eigenvalues --    4.03060   4.04280   4.04855   4.06188   4.06239
 Alpha virt. eigenvalues --    4.07414   4.09739   4.10700   4.12784   4.13708
 Alpha virt. eigenvalues --    4.14397   4.16206   4.17442   4.17961   4.19368
 Alpha virt. eigenvalues --    4.19597   4.20813   4.22001   4.23512   4.24036
 Alpha virt. eigenvalues --    4.27257   4.28357   4.30594   4.32830   4.34651
 Alpha virt. eigenvalues --    4.35281   4.36699   4.37494   4.40254   4.41380
 Alpha virt. eigenvalues --    4.44713   4.47122   4.48087   4.50001   4.50910
 Alpha virt. eigenvalues --    4.54045   4.55267   4.55884   4.56491   4.59901
 Alpha virt. eigenvalues --    4.62889   4.63545   4.66062   4.66287   4.67476
 Alpha virt. eigenvalues --    4.69191   4.73952   4.76886   4.80092   4.83793
 Alpha virt. eigenvalues --    4.85617   4.89678   4.92594   4.95609   4.98150
 Alpha virt. eigenvalues --    5.00750   5.06096   5.08068   5.11320   5.12902
 Alpha virt. eigenvalues --    5.13675   5.20815   5.28712   5.29867   5.30386
 Alpha virt. eigenvalues --    5.32994   5.34666   5.38925   5.43116   5.43451
 Alpha virt. eigenvalues --    5.50793   5.52407   5.56872   5.62965   5.65294
 Alpha virt. eigenvalues --    5.74442   5.79931   5.88953   5.95646   6.28462
 Alpha virt. eigenvalues --    6.50947   6.74233   6.79175   6.90093   6.90631
 Alpha virt. eigenvalues --    6.90974   6.92241   6.98867   6.99350   7.00730
 Alpha virt. eigenvalues --    7.08291   7.09961   7.19850   7.21346   7.24369
 Alpha virt. eigenvalues --    7.35864   7.39333   7.53246   7.55972   8.35837
 Alpha virt. eigenvalues --    8.37229   8.53386   8.55596   8.73886   8.75585
 Alpha virt. eigenvalues --    8.96638   8.96852   9.00655   9.04645  22.21766
 Alpha virt. eigenvalues --   22.45124  22.47632  22.56649  22.61924  22.66086
 Alpha virt. eigenvalues --   22.72144  22.74370  22.75323  22.77896  22.93773
 Alpha virt. eigenvalues --   23.02882  23.47652  32.61787  44.05233  57.49893
 Alpha virt. eigenvalues --   57.56876
          Condensed to atoms (all electrons):
               1          2          3          4          5          6
     1  C    5.127865   0.176266  -0.053040   0.009051  -0.000621   0.000214
     2  C    0.176266   5.446735   0.137287  -0.059437   0.012645  -0.000939
     3  C   -0.053040   0.137287   5.618171   0.175017  -0.062130   0.000424
     4  C    0.009051  -0.059437   0.175017   5.388864   0.296590  -0.059241
     5  C   -0.000621   0.012645  -0.062130   0.296590   4.859808   0.251576
     6  O    0.000214  -0.000939   0.000424  -0.059241   0.251576   8.135601
     7  N    0.034647  -0.072541   0.118009  -0.039471   0.016015  -0.064376
     8  C    0.011051  -0.011803  -0.055690   0.015224  -0.006030   0.043720
     9  C    0.000011   0.000014  -0.000005  -0.000007  -0.000003  -0.000033
    10  C    0.000041  -0.000169   0.000094   0.000020   0.000000   0.000049
    11  C    0.003742  -0.002237   0.005100  -0.001276  -0.000081  -0.001288
    12  C   -0.008649   0.006347   0.017693  -0.005411   0.000803  -0.018762
    13  C   -0.000905   0.001576  -0.003407   0.001226  -0.000090   0.007949
    14  C    0.000000  -0.000012  -0.000143   0.000052   0.000009   0.000387
    15  H    0.000000   0.000000   0.000000   0.000000   0.000000   0.000000
    16  H   -0.000009   0.000001   0.000000   0.000000   0.000000   0.000000
    17  H    0.000000   0.000000   0.000000   0.000000   0.000000  -0.000003
    18  F   -0.003506  -0.000833  -0.000173  -0.000032   0.000004  -0.000001
    19  F   -0.000004   0.000040   0.000249  -0.000483   0.000427  -0.000684
    20  H    0.427753  -0.046830  -0.017722  -0.000117  -0.000054  -0.000008
    21  H    0.408169  -0.045794   0.008011   0.000311   0.000007  -0.000005
    22  H    0.418270  -0.045229   0.011323  -0.000656   0.000028   0.000001
    23  H   -0.040687   0.410645  -0.035328   0.003671  -0.000303  -0.000060
    24  H   -0.020014   0.419723  -0.050193  -0.008850  -0.000504   0.000030
    25  H   -0.001217  -0.005736  -0.066290   0.423522  -0.044857   0.006093
    26  H   -0.000205   0.002130  -0.043142  -0.037313   0.430404  -0.050534
    27  H    0.000058  -0.001335   0.021928  -0.057361   0.430812  -0.033714
    28  H   -0.000082   0.000170   0.012139  -0.017712  -0.038880   0.306742
    29  H   -0.014837   0.023136  -0.010041   0.000598   0.000000   0.000138
    30  H    0.001851  -0.008876   0.017567  -0.004791  -0.000779  -0.005713
    31  H   -0.006606  -0.048226   0.426421  -0.009595  -0.007903  -0.000668
    32  C   -0.000084   0.022796  -0.077177   0.251596  -0.048047   0.006997
    33  H   -0.000406  -0.007510  -0.002425  -0.034994  -0.011610   0.000000
    34  H    0.000076  -0.000831   0.015395  -0.051847  -0.004019   0.000114
    35  H    0.000711   0.004294  -0.014053  -0.035832   0.007707  -0.000330
    36  H    0.007993  -0.009837  -0.032650   0.001715   0.000023   0.000869
               7          8          9         10         11         12
     1  C    0.034647   0.011051   0.000011   0.000041   0.003742  -0.008649
     2  C   -0.072541  -0.011803   0.000014  -0.000169  -0.002237   0.006347
     3  C    0.118009  -0.055690  -0.000005   0.000094   0.005100   0.017693
     4  C   -0.039471   0.015224  -0.000007   0.000020  -0.001276  -0.005411
     5  C    0.016015  -0.006030  -0.000003   0.000000  -0.000081   0.000803
     6  O   -0.064376   0.043720  -0.000033   0.000049  -0.001288  -0.018762
     7  N    7.110050   0.085807   0.000960  -0.000683   0.013568  -0.037877
     8  C    0.085807   5.464673  -0.007968   0.007997  -0.118884   0.140112
     9  C    0.000960  -0.007968   5.026171   0.422340  -0.003841  -0.089573
    10  C   -0.000683   0.007997   0.422340   5.056781   0.482347   0.030808
    11  C    0.013568  -0.118884  -0.003841   0.482347   4.983379   0.220736
    12  C   -0.037877   0.140112  -0.089573   0.030808   0.220736   5.690057
    13  C    0.012968  -0.048878  -0.020812  -0.077626   0.028870   0.262094
    14  C   -0.001800   0.018305   0.426300  -0.016591  -0.101130   0.012715
    15  H    0.000001   0.000056   0.404929  -0.027020   0.003605  -0.000869
    16  H    0.000018  -0.000257  -0.030806   0.411975  -0.042207   0.014273
    17  H    0.000002  -0.000394  -0.033892   0.004189  -0.000616   0.014517
    18  F   -0.003960   0.025967   0.008133  -0.044189   0.242680  -0.088811
    19  F   -0.000079   0.001359   0.009884  -0.000896   0.008479  -0.072903
    20  H    0.002217   0.013083  -0.000010   0.000078   0.001252  -0.005706
    21  H   -0.004006  -0.001526  -0.000001   0.000002  -0.000176   0.000608
    22  H    0.000495  -0.000666   0.000000   0.000003  -0.000061   0.000137
    23  H   -0.003810  -0.003761  -0.000002   0.000013  -0.000172   0.001735
    24  H    0.007159   0.001101   0.000000   0.000001   0.000002  -0.000161
    25  H   -0.005686   0.008615  -0.000004   0.000002  -0.000529  -0.003000
    26  H    0.001619   0.002768  -0.000001   0.000000  -0.000108  -0.000648
    27  H   -0.000893  -0.000619   0.000000   0.000000   0.000017   0.000228
    28  H    0.038646  -0.022257   0.000222  -0.000318   0.003358   0.007185
    29  H   -0.062417   0.412598   0.000550  -0.003143  -0.009060  -0.029504
    30  H   -0.035944   0.424823  -0.000247   0.000071   0.013525  -0.032073
    31  H   -0.041243   0.008853  -0.000001  -0.000002  -0.000250  -0.000450
    32  C    0.008766   0.001021   0.000000   0.000000  -0.000007  -0.000221
    33  H   -0.000146   0.000096   0.000000   0.000000  -0.000002  -0.000011
    34  H   -0.000381  -0.000022   0.000000   0.000000   0.000000  -0.000005
    35  H   -0.000279  -0.000035   0.000000   0.000000   0.000002   0.000027
    36  H    0.387644  -0.038942  -0.000190   0.000517  -0.003899  -0.009251
              13         14         15         16         17         18
     1  C   -0.000905   0.000000   0.000000  -0.000009   0.000000  -0.003506
     2  C    0.001576  -0.000012   0.000000   0.000001   0.000000  -0.000833
     3  C   -0.003407  -0.000143   0.000000   0.000000   0.000000  -0.000173
     4  C    0.001226   0.000052   0.000000   0.000000   0.000000  -0.000032
     5  C   -0.000090   0.000009   0.000000   0.000000   0.000000   0.000004
     6  O    0.007949   0.000387   0.000000   0.000000  -0.000003  -0.000001
     7  N    0.012968  -0.001800   0.000001   0.000018   0.000002  -0.003960
     8  C   -0.048878   0.018305   0.000056  -0.000257  -0.000394   0.025967
     9  C   -0.020812   0.426300   0.404929  -0.030806  -0.033892   0.008133
    10  C   -0.077626  -0.016591  -0.027020   0.411975   0.004189  -0.044189
    11  C    0.028870  -0.101130   0.003605  -0.042207  -0.000616   0.242680
    12  C    0.262094   0.012715  -0.000869   0.014273   0.014517  -0.088811
    13  C    4.836536   0.511297   0.002770  -0.000217  -0.040912   0.003067
    14  C    0.511297   5.055900  -0.025418   0.003522   0.412796  -0.000239
    15  H    0.002770  -0.025418   0.475758  -0.003241  -0.003375  -0.000110
    16  H   -0.000217   0.003522  -0.003241   0.471007  -0.000154   0.001848
    17  H   -0.040912   0.412796  -0.003375  -0.000154   0.473048   0.000013
    18  F    0.003067  -0.000239  -0.000110   0.001848   0.000013   9.066337
    19  F    0.246295  -0.048506  -0.000108   0.000010   0.001666  -0.000032
    20  H   -0.000502   0.000004   0.000000   0.000003   0.000000   0.004966
    21  H    0.000033   0.000000   0.000000   0.000001   0.000000   0.000048
    22  H    0.000005   0.000000   0.000000   0.000000   0.000000   0.000090
    23  H    0.000116   0.000003   0.000000   0.000000   0.000000   0.000108
    24  H   -0.000016   0.000000   0.000000   0.000000   0.000000  -0.000010
    25  H    0.001224   0.000042   0.000000   0.000000   0.000000  -0.000003
    26  H    0.000208   0.000008   0.000000   0.000000   0.000000   0.000000
    27  H   -0.000115  -0.000004   0.000000   0.000000   0.000000   0.000000
    28  H   -0.001828  -0.000924   0.000001  -0.000003   0.000002   0.000002
    29  H    0.009793  -0.000634   0.000002  -0.000046   0.000008  -0.001006
    30  H   -0.024047  -0.000240   0.000004  -0.000001  -0.000016   0.000633
    31  H    0.000087   0.000002   0.000000   0.000000   0.000000  -0.000019
    32  C    0.000028   0.000001   0.000000   0.000000   0.000000   0.000000
    33  H    0.000002   0.000000   0.000000   0.000000   0.000000   0.000000
    34  H   -0.000001   0.000000   0.000000   0.000000   0.000000   0.000000
    35  H   -0.000002   0.000000   0.000000   0.000000   0.000000   0.000000
    36  H    0.000905   0.000260   0.000000   0.000039   0.000001   0.005364
              19         20         21         22         23         24
     1  C   -0.000004   0.427753   0.408169   0.418270  -0.040687  -0.020014
     2  C    0.000040  -0.046830  -0.045794  -0.045229   0.410645   0.419723
     3  C    0.000249  -0.017722   0.008011   0.011323  -0.035328  -0.050193
     4  C   -0.000483  -0.000117   0.000311  -0.000656   0.003671  -0.008850
     5  C    0.000427  -0.000054   0.000007   0.000028  -0.000303  -0.000504
     6  O   -0.000684  -0.000008  -0.000005   0.000001  -0.000060   0.000030
     7  N   -0.000079   0.002217  -0.004006   0.000495  -0.003810   0.007159
     8  C    0.001359   0.013083  -0.001526  -0.000666  -0.003761   0.001101
     9  C    0.009884  -0.000010  -0.000001   0.000000  -0.000002   0.000000
    10  C   -0.000896   0.000078   0.000002   0.000003   0.000013   0.000001
    11  C    0.008479   0.001252  -0.000176  -0.000061  -0.000172   0.000002
    12  C   -0.072903  -0.005706   0.000608   0.000137   0.001735  -0.000161
    13  C    0.246295  -0.000502   0.000033   0.000005   0.000116  -0.000016
    14  C   -0.048506   0.000004   0.000000   0.000000   0.000003   0.000000
    15  H   -0.000108   0.000000   0.000000   0.000000   0.000000   0.000000
    16  H    0.000010   0.000003   0.000001   0.000000   0.000000   0.000000
    17  H    0.001666   0.000000   0.000000   0.000000   0.000000   0.000000
    18  F   -0.000032   0.004966   0.000048   0.000090   0.000108  -0.000010
    19  F    9.051873   0.000002   0.000000   0.000000  -0.000002   0.000000
    20  H    0.000002   0.524234  -0.031042  -0.021949  -0.002611   0.005827
    21  H    0.000000  -0.031042   0.530576  -0.020806   0.006392  -0.004944
    22  H    0.000000  -0.021949  -0.020806   0.512494  -0.003309  -0.004869
    23  H   -0.000002  -0.002611   0.006392  -0.003309   0.521680  -0.020608
    24  H    0.000000   0.005827  -0.004944  -0.004869  -0.020608   0.529763
    25  H   -0.000059   0.000053   0.000028   0.000013   0.002800   0.000646
    26  H   -0.000008   0.000007  -0.000001   0.000000  -0.000069   0.000063
    27  H   -0.000002  -0.000001   0.000000   0.000000   0.000034  -0.000001
    28  H    0.000498   0.000010  -0.000011  -0.000002  -0.000045  -0.000063
    29  H    0.000249  -0.002636   0.000491  -0.000161  -0.006611  -0.000175
    30  H    0.010212   0.000411  -0.000063  -0.000014  -0.000438   0.000081
    31  H    0.000002   0.001030   0.001951  -0.000119   0.005823  -0.001020
    32  C   -0.000002   0.000003  -0.000081   0.000041  -0.006512  -0.000716
    33  H    0.000000   0.000007   0.000078   0.000006   0.000700  -0.000359
    34  H    0.000000   0.000000  -0.000003  -0.000002  -0.000048   0.000656
    35  H    0.000000  -0.000041   0.000017   0.000009  -0.000542  -0.008572
    36  H   -0.000044  -0.004085  -0.000684   0.000285   0.000018  -0.000311
              25         26         27         28         29         30
     1  C   -0.001217  -0.000205   0.000058  -0.000082  -0.014837   0.001851
     2  C   -0.005736   0.002130  -0.001335   0.000170   0.023136  -0.008876
     3  C   -0.066290  -0.043142   0.021928   0.012139  -0.010041   0.017567
     4  C    0.423522  -0.037313  -0.057361  -0.017712   0.000598  -0.004791
     5  C   -0.044857   0.430404   0.430812  -0.038880   0.000000  -0.000779
     6  O    0.006093  -0.050534  -0.033714   0.306742   0.000138  -0.005713
     7  N   -0.005686   0.001619  -0.000893   0.038646  -0.062417  -0.035944
     8  C    0.008615   0.002768  -0.000619  -0.022257   0.412598   0.424823
     9  C   -0.000004  -0.000001   0.000000   0.000222   0.000550  -0.000247
    10  C    0.000002   0.000000   0.000000  -0.000318  -0.003143   0.000071
    11  C   -0.000529  -0.000108   0.000017   0.003358  -0.009060   0.013525
    12  C   -0.003000  -0.000648   0.000228   0.007185  -0.029504  -0.032073
    13  C    0.001224   0.000208  -0.000115  -0.001828   0.009793  -0.024047
    14  C    0.000042   0.000008  -0.000004  -0.000924  -0.000634  -0.000240
    15  H    0.000000   0.000000   0.000000   0.000001   0.000002   0.000004
    16  H    0.000000   0.000000   0.000000  -0.000003  -0.000046  -0.000001
    17  H    0.000000   0.000000   0.000000   0.000002   0.000008  -0.000016
    18  F   -0.000003   0.000000   0.000000   0.000002  -0.001006   0.000633
    19  F   -0.000059  -0.000008  -0.000002   0.000498   0.000249   0.010212
    20  H    0.000053   0.000007  -0.000001   0.000010  -0.002636   0.000411
    21  H    0.000028  -0.000001   0.000000  -0.000011   0.000491  -0.000063
    22  H    0.000013   0.000000   0.000000  -0.000002  -0.000161  -0.000014
    23  H    0.002800  -0.000069   0.000034  -0.000045  -0.006611  -0.000438
    24  H    0.000646   0.000063  -0.000001  -0.000063  -0.000175   0.000081
    25  H    0.574709   0.013175  -0.011646  -0.002090   0.001770  -0.008222
    26  H    0.013175   0.608168  -0.050657  -0.011276   0.000109  -0.000481
    27  H   -0.011646  -0.050657   0.570901   0.009225  -0.000034   0.000440
    28  H   -0.002090  -0.011276   0.009225   0.357237   0.000409   0.000782
    29  H    0.001770   0.000109  -0.000034   0.000409   0.508000  -0.019113
    30  H   -0.008222  -0.000481   0.000440   0.000782  -0.019113   0.463994
    31  H    0.006849   0.006356  -0.000272  -0.001120  -0.000007  -0.000347
    32  C   -0.029724   0.004015  -0.012085  -0.001935   0.000260   0.000330
    33  H    0.009052   0.005464  -0.000238   0.000000   0.000001  -0.000068
    34  H   -0.005506  -0.001131   0.004216   0.000001  -0.000006   0.000054
    35  H   -0.007606  -0.000771   0.000124   0.000071  -0.000050   0.000029
    36  H   -0.000526  -0.000228   0.000059   0.000140  -0.002733   0.003862
              31         32         33         34         35         36
     1  C   -0.006606  -0.000084  -0.000406   0.000076   0.000711   0.007993
     2  C   -0.048226   0.022796  -0.007510  -0.000831   0.004294  -0.009837
     3  C    0.426421  -0.077177  -0.002425   0.015395  -0.014053  -0.032650
     4  C   -0.009595   0.251596  -0.034994  -0.051847  -0.035832   0.001715
     5  C   -0.007903  -0.048047  -0.011610  -0.004019   0.007707   0.000023
     6  O   -0.000668   0.006997   0.000000   0.000114  -0.000330   0.000869
     7  N   -0.041243   0.008766  -0.000146  -0.000381  -0.000279   0.387644
     8  C    0.008853   0.001021   0.000096  -0.000022  -0.000035  -0.038942
     9  C   -0.000001   0.000000   0.000000   0.000000   0.000000  -0.000190
    10  C   -0.000002   0.000000   0.000000   0.000000   0.000000   0.000517
    11  C   -0.000250  -0.000007  -0.000002   0.000000   0.000002  -0.003899
    12  C   -0.000450  -0.000221  -0.000011  -0.000005   0.000027  -0.009251
    13  C    0.000087   0.000028   0.000002  -0.000001  -0.000002   0.000905
    14  C    0.000002   0.000001   0.000000   0.000000   0.000000   0.000260
    15  H    0.000000   0.000000   0.000000   0.000000   0.000000   0.000000
    16  H    0.000000   0.000000   0.000000   0.000000   0.000000   0.000039
    17  H    0.000000   0.000000   0.000000   0.000000   0.000000   0.000001
    18  F   -0.000019   0.000000   0.000000   0.000000   0.000000   0.005364
    19  F    0.000002  -0.000002   0.000000   0.000000   0.000000  -0.000044
    20  H    0.001030   0.000003   0.000007   0.000000  -0.000041  -0.004085
    21  H    0.001951  -0.000081   0.000078  -0.000003   0.000017  -0.000684
    22  H   -0.000119   0.000041   0.000006  -0.000002   0.000009   0.000285
    23  H    0.005823  -0.006512   0.000700  -0.000048  -0.000542   0.000018
    24  H   -0.001020  -0.000716  -0.000359   0.000656  -0.008572  -0.000311
    25  H    0.006849  -0.029724   0.009052  -0.005506  -0.007606  -0.000526
    26  H    0.006356   0.004015   0.005464  -0.001131  -0.000771  -0.000228
    27  H   -0.000272  -0.012085  -0.000238   0.004216   0.000124   0.000059
    28  H   -0.001120  -0.001935   0.000000   0.000001   0.000071   0.000140
    29  H   -0.000007   0.000260   0.000001  -0.000006  -0.000050  -0.002733
    30  H   -0.000347   0.000330  -0.000068   0.000054   0.000029   0.003862
    31  H    0.494951  -0.010410   0.004893  -0.000234   0.000189  -0.009567
    32  C   -0.010410   5.127710   0.411369   0.419782   0.422546  -0.000173
    33  H    0.004893   0.411369   0.519843  -0.024181  -0.028295  -0.000045
    34  H   -0.000234   0.419782  -0.024181   0.512802  -0.019933   0.000019
    35  H    0.000189   0.422546  -0.028295  -0.019933   0.517542  -0.000006
    36  H   -0.009567  -0.000173  -0.000045   0.000019  -0.000006   0.451951
 Mulliken charges:
               1
     1  C   -0.476897
     2  C   -0.295629
     3  C   -0.061219
     4  C   -0.143031
     5  C   -0.080951
     6  O   -0.524547
     7  N   -0.462997
     8  C   -0.369499
     9  C   -0.112120
    10  C   -0.246692
    11  C    0.275161
    12  C   -0.016190
    13  C    0.292307
    14  C   -0.245960
    15  H    0.173016
    16  H    0.174244
    17  H    0.173121
    18  F   -0.216336
    19  F   -0.207433
    20  H    0.152372
    21  H    0.152421
    22  H    0.154644
    23  H    0.171179
    24  H    0.156337
    25  H    0.144106
    26  H    0.122079
    27  H    0.130935
    28  H    0.361705
    29  H    0.204102
    30  H    0.202805
    31  H    0.180654
    32  C   -0.490089
    33  H    0.158779
    34  H    0.155035
    35  H    0.163080
    36  H    0.251511
 Sum of Mulliken charges =   0.00000
 Mulliken charges with hydrogens summed into heavy atoms:
               1
     1  C   -0.017461
     2  C    0.031887
     3  C    0.119435
     4  C    0.001075
     5  C    0.172063
     6  O   -0.162842
     7  N   -0.211486
     8  C    0.037407
     9  C    0.060896
    10  C   -0.072449
    11  C    0.275161
    12  C   -0.016190
    13  C    0.292307
    14  C   -0.072839
    18  F   -0.216336
    19  F   -0.207433
    32  C   -0.013196
 Electronic spatial extent (au):  <R**2>=           4832.4819
 Charge=              0.0000 electrons
 Dipole moment (field-independent basis, Debye):
    X=              0.7305    Y=              3.5837    Z=              0.6703  Tot=              3.7184
 Quadrupole moment (field-independent basis, Debye-Ang):
   XX=            -81.1787   YY=           -112.5472   ZZ=           -103.9881
   XY=             -4.0089   XZ=             -3.5790   YZ=             -3.7271
 Traceless Quadrupole moment (field-independent basis, Debye-Ang):
   XX=             18.0593   YY=            -13.3092   ZZ=             -4.7501
   XY=             -4.0089   XZ=             -3.5790   YZ=             -3.7271
 Octapole moment (field-independent basis, Debye-Ang**2):
  XXX=             74.3739  YYY=             15.6849  ZZZ=              2.0702  XYY=              8.9951
  XXY=            -11.0830  XXZ=            -15.7468  XZZ=             -3.5427  YZZ=              7.5770
  YYZ=              8.6324  XYZ=              0.3159
 Hexadecapole moment (field-independent basis, Debye-Ang**3):
 XXXX=          -4005.4000 YYYY=          -1696.5256 ZZZZ=           -361.0898 XXXY=             -8.4812
 XXXZ=            -65.6732 YYYX=            -19.9960 YYYZ=            -37.8784 ZZZX=             12.1948
 ZZZY=            -25.8507 XXYY=           -941.1403 XXZZ=           -822.3254 YYZZ=           -341.1968
 XXYZ=            -30.6657 YYXZ=            -17.2836 ZZXY=              2.8181
 N-N= 1.290330361093D+03 E-N=-4.536761181595D+03  KE= 8.321464870659D+02
 1\1\GINC-CPU-E-160\SP\RM062X\def2TZVP\C13H19F2N1O1\KE291\26-Jun-2019\0
 \\# m062x/def2tzvp int=ultrafine scrf=(solvent=chloroform)\\AT3_1ginp0
 11\\0,1\C,0,-1.871031,3.044202,0.114014\C,0,-2.504329,1.733949,0.59804
 5\C,0,-2.171477,0.515942,-0.29197\C,0,-2.846322,-0.805974,0.164127\C,0
 ,-2.591012,-1.94596,-0.845109\O,0,-1.231173,-2.321978,-0.972385\N,0,-0
 .710047,0.305829,-0.505093\C,0,0.121961,0.232567,0.712659\C,0,4.306803
 ,-0.234269,-0.327303\C,0,3.673602,0.994688,-0.524714\C,0,2.333792,1.10
 1645,-0.1806\C,0,1.578284,0.056003,0.352964\C,0,2.26286,-1.149234,0.52
 1688\C,0,3.604888,-1.318593,0.199037\H,0,5.353966,-0.346932,-0.587411\
 H,0,4.19464,1.85199,-0.934519\H,0,4.074335,-2.282077,0.359816\F,0,1.70
 3688,2.290123,-0.379184\F,0,1.586997,-2.200592,1.034845\H,0,-0.777431,
 3.01193,0.131814\H,0,-2.179217,3.272813,-0.913049\H,0,-2.184063,3.8813
 97,0.745449\H,0,-2.207052,1.53373,1.635754\H,0,-3.591004,1.860791,0.61
 6193\H,0,-2.408485,-1.115845,1.123543\H,0,-3.019993,-1.64797,-1.82071\
 H,0,-3.141801,-2.837144,-0.520048\H,0,-0.758402,-1.463792,-1.054281\H,
 0,0.022641,1.123067,1.348457\H,0,-0.200074,-0.627672,1.300786\H,0,-2.5
 62088,0.73476,-1.297136\C,0,-4.362628,-0.64706,0.362729\H,0,-4.843686,
 -0.253715,-0.541114\H,0,-4.819828,-1.61704,0.584124\H,0,-4.605715,0.02
 3391,1.190195\H,0,-0.355527,1.060132,-1.087488\\Version=ES64L-G09RevD.
 01\State=1-A\HF=-836.4623502\RMSD=7.963e-09\Dipole=0.2873915,1.4099512
 ,0.2637318\Quadrupole=13.4266642,-9.8950942,-3.53157,-2.9805104,-2.660
 9337,-2.7710111\PG=C01 [X(C13H19F2N1O1)]\\@


 ONE BIG VICE IN A MAN IS APT TO KEEP OUT MANY SMALLER ONES.

                           -- BRET HARTE
 Job cpu time:       0 days  1 hours 19 minutes 17.7 seconds.
 File lengths (MBytes):  RWF=    314 Int=      0 D2E=      0 Chk=     17 Scr=      1
 Normal termination of Gaussian 09 at Wed Jun 26 12:22:53 2019.
