 Entering Gaussian System, Link 0=/usr/local/Cluster-Apps/gaussian/g09/g09
 Initial command:
 /usr/local/Cluster-Apps/gaussian/g09/l1.exe "/home/ke291/rds/hpc-work/26Jun1158AT3NMR/Gau-272955.inp" -scrdir="/home/ke291/rds/hpc-work/26Jun1158AT3NMR/"
 Entering Link 1 = /usr/local/Cluster-Apps/gaussian/g09/l1.exe PID=    272964.
  
 Copyright (c) 1988,1990,1992,1993,1995,1998,2003,2009,2013,
            Gaussian, Inc.  All Rights Reserved.
  
 This is part of the Gaussian(R) 09 program.  It is based on
 the Gaussian(R) 03 system (copyright 2003, Gaussian, Inc.),
 the Gaussian(R) 98 system (copyright 1998, Gaussian, Inc.),
 the Gaussian(R) 94 system (copyright 1995, Gaussian, Inc.),
 the Gaussian 92(TM) system (copyright 1992, Gaussian, Inc.),
 the Gaussian 90(TM) system (copyright 1990, Gaussian, Inc.),
 the Gaussian 88(TM) system (copyright 1988, Gaussian, Inc.),
 the Gaussian 86(TM) system (copyright 1986, Carnegie Mellon
 University), and the Gaussian 82(TM) system (copyright 1983,
 Carnegie Mellon University). Gaussian is a federally registered
 trademark of Gaussian, Inc.
  
 This software contains proprietary and confidential information,
 including trade secrets, belonging to Gaussian, Inc.
  
 This software is provided under written license and may be
 used, copied, transmitted, or stored only in accord with that
 written license.
  
 The following legend is applicable only to US Government
 contracts under FAR:
  
                    RESTRICTED RIGHTS LEGEND
  
 Use, reproduction and disclosure by the US Government is
 subject to restrictions as set forth in subparagraphs (a)
 and (c) of the Commercial Computer Software - Restricted
 Rights clause in FAR 52.227-19.
  
 Gaussian, Inc.
 340 Quinnipiac St., Bldg. 40, Wallingford CT 06492
  
  
 ---------------------------------------------------------------
 Warning -- This program may not be used in any manner that
 competes with the business of Gaussian, Inc. or will provide
 assistance to any competitor of Gaussian, Inc.  The licensee
 of this program is prohibited from giving any competitor of
 Gaussian, Inc. access to this program.  By using this program,
 the user acknowledges that Gaussian, Inc. is engaged in the
 business of creating and licensing software in the field of
 computational chemistry and represents and warrants to the
 licensee that it is not a competitor of Gaussian, Inc. and that
 it will not use this program in any manner prohibited above.
 ---------------------------------------------------------------
  

 Cite this work as:
 Gaussian 09, Revision D.01,
 M. J. Frisch, G. W. Trucks, H. B. Schlegel, G. E. Scuseria, 
 M. A. Robb, J. R. Cheeseman, G. Scalmani, V. Barone, B. Mennucci, 
 G. A. Petersson, H. Nakatsuji, M. Caricato, X. Li, H. P. Hratchian, 
 A. F. Izmaylov, J. Bloino, G. Zheng, J. L. Sonnenberg, M. Hada, 
 M. Ehara, K. Toyota, R. Fukuda, J. Hasegawa, M. Ishida, T. Nakajima, 
 Y. Honda, O. Kitao, H. Nakai, T. Vreven, J. A. Montgomery, Jr., 
 J. E. Peralta, F. Ogliaro, M. Bearpark, J. J. Heyd, E. Brothers, 
 K. N. Kudin, V. N. Staroverov, T. Keith, R. Kobayashi, J. Normand, 
 K. Raghavachari, A. Rendell, J. C. Burant, S. S. Iyengar, J. Tomasi, 
 M. Cossi, N. Rega, J. M. Millam, M. Klene, J. E. Knox, J. B. Cross, 
 V. Bakken, C. Adamo, J. Jaramillo, R. Gomperts, R. E. Stratmann, 
 O. Yazyev, A. J. Austin, R. Cammi, C. Pomelli, J. W. Ochterski, 
 R. L. Martin, K. Morokuma, V. G. Zakrzewski, G. A. Voth, 
 P. Salvador, J. J. Dannenberg, S. Dapprich, A. D. Daniels, 
 O. Farkas, J. B. Foresman, J. V. Ortiz, J. Cioslowski, 
 and D. J. Fox, Gaussian, Inc., Wallingford CT, 2013.
 
 ******************************************
 Gaussian 09:  ES64L-G09RevD.01 24-Apr-2013
                26-Jun-2019 
 ******************************************
 %nprocshared=4
 Will use up to    4 processors via shared memory.
 %mem=6000MB
 %chk=AT3_1ginp019.chk
 --------------------------------------------------------
 # m062x/def2tzvp int=ultrafine scrf=(solvent=chloroform)
 --------------------------------------------------------
 1/38=1/1;
 2/12=2,17=6,18=5,40=1/2;
 3/5=44,7=101,11=2,16=1,25=1,30=1,70=2201,72=7,74=-55,75=-5/1,2,3;
 4//1;
 5/5=2,38=5,53=7/2;
 6/7=2,8=2,9=2,10=2,28=1/1;
 99/5=1,9=1/99;
 ------------
 AT3_1ginp019
 ------------
 Symbolic Z-matrix:
 Charge =  0 Multiplicity = 1
 C                    -1.96458   2.70841  -0.94609 
 C                    -1.41699   1.8898    0.22878 
 C                    -1.20993   0.38964  -0.06923 
 C                    -2.47531  -0.33486  -0.5971 
 C                    -3.6033   -0.39613   0.43696 
 O                    -4.77861  -0.87676  -0.22131 
 N                    -0.7238   -0.30207   1.14045 
 C                     0.60482   0.074     1.63812 
 C                     3.88844  -0.41183  -1.17885 
 C                     3.52808   0.86937  -0.76165 
 C                     2.47656   1.0014    0.13906 
 C                     1.75816  -0.07734   0.65543 
 C                     2.1643   -1.33198   0.19521 
 C                     3.20442  -1.53226  -0.70134 
 H                     4.70573  -0.53939  -1.8808 
 H                     4.04156   1.75475  -1.11839 
 H                     3.46334  -2.53867  -1.00934 
 F                     2.13272   2.25093   0.54207 
 F                     1.49139  -2.4149    0.66373 
 H                    -1.36505   2.55622  -1.8512 
 H                    -3.00066   2.45171  -1.18707 
 H                    -1.93997   3.77735  -0.71166 
 H                    -0.44773   2.31394   0.51114 
 H                    -2.06671   2.00215   1.10483 
 H                    -2.85217   0.26442  -1.43451 
 H                    -3.78269   0.60142   0.86263 
 H                    -3.31645  -1.05742   1.26639 
 H                    -5.46535  -0.98312   0.44947 
 H                     0.58501   1.10391   1.99634 
 H                     0.80633  -0.55852   2.50884 
 H                    -0.46789   0.33402  -0.88902 
 C                    -2.16248  -1.73186  -1.15932 
 H                    -3.05915  -2.16373  -1.60948 
 H                    -1.38201  -1.68164  -1.92598 
 H                    -1.82693  -2.43031  -0.38315 
 H                    -0.70392  -1.30094   0.95623 
 
                          Input orientation:                          
 ---------------------------------------------------------------------
 Center     Atomic      Atomic             Coordinates (Angstroms)
 Number     Number       Type             X           Y           Z
 ---------------------------------------------------------------------
      1          6           0       -1.964583    2.708413   -0.946085
      2          6           0       -1.416988    1.889803    0.228783
      3          6           0       -1.209926    0.389640   -0.069234
      4          6           0       -2.475306   -0.334861   -0.597095
      5          6           0       -3.603300   -0.396129    0.436960
      6          8           0       -4.778610   -0.876758   -0.221312
      7          7           0       -0.723803   -0.302068    1.140448
      8          6           0        0.604820    0.073996    1.638122
      9          6           0        3.888442   -0.411827   -1.178849
     10          6           0        3.528078    0.869365   -0.761647
     11          6           0        2.476563    1.001397    0.139063
     12          6           0        1.758162   -0.077340    0.655425
     13          6           0        2.164297   -1.331980    0.195210
     14          6           0        3.204421   -1.532264   -0.701337
     15          1           0        4.705731   -0.539386   -1.880799
     16          1           0        4.041564    1.754746   -1.118389
     17          1           0        3.463340   -2.538666   -1.009339
     18          9           0        2.132723    2.250926    0.542066
     19          9           0        1.491386   -2.414895    0.663726
     20          1           0       -1.365051    2.556217   -1.851204
     21          1           0       -3.000661    2.451706   -1.187069
     22          1           0       -1.939965    3.777347   -0.711656
     23          1           0       -0.447733    2.313943    0.511135
     24          1           0       -2.066706    2.002145    1.104829
     25          1           0       -2.852174    0.264419   -1.434507
     26          1           0       -3.782687    0.601417    0.862633
     27          1           0       -3.316452   -1.057416    1.266390
     28          1           0       -5.465346   -0.983119    0.449465
     29          1           0        0.585012    1.103909    1.996338
     30          1           0        0.806325   -0.558517    2.508845
     31          1           0       -0.467891    0.334021   -0.889024
     32          6           0       -2.162482   -1.731861   -1.159324
     33          1           0       -3.059145   -2.163730   -1.609475
     34          1           0       -1.382007   -1.681638   -1.925984
     35          1           0       -1.826925   -2.430311   -0.383150
     36          1           0       -0.703916   -1.300940    0.956231
 ---------------------------------------------------------------------
                    Distance matrix (angstroms):
                    1          2          3          4          5
     1  C    0.000000
     2  C    1.533068   0.000000
     3  C    2.591348   1.543431   0.000000
     4  C    3.105503   2.598315   1.550718   0.000000
     5  C    3.773114   3.169982   2.569417   1.531468   0.000000
     6  O    4.614921   4.376865   3.789775   2.395845   1.430273
     7  N    3.867318   2.473042   1.475841   2.467366   2.965678
     8  C    4.496678   3.061225   2.511573   3.827602   4.401373
     9  C    6.636865   5.952018   5.278916   6.390747   7.664025
    10  C    5.795295   5.145476   4.812302   6.125182   7.341300
    11  C    4.880085   3.994628   3.742704   5.181556   6.245523
    12  C    4.917732   3.759422   3.090752   4.422372   5.375372
    13  C    5.888547   4.817324   3.797274   4.811227   5.848028
    14  C    6.690429   5.825211   4.855896   5.805509   6.995112
    15  H    7.477632   6.916573   6.256185   7.297741   8.627429
    16  H    6.083829   5.623958   5.526517   6.863512   8.092547
    17  H    7.549714   6.705362   5.594478   6.347773   7.524603
    18  F    4.383127   3.581760   3.874452   5.405360   6.318220
    19  F    6.386196   5.213275   3.962289   4.653048   5.484767
    20  H    1.096286   2.184754   2.809544   3.341225   4.354515
    21  H    1.094271   2.197360   2.951000   2.896381   3.333288
    22  H    1.094615   2.172729   3.524517   4.148490   4.637230
    23  H    2.140077   1.095022   2.149583   3.515023   4.160240
    24  H    2.171518   1.096454   2.170868   2.919777   2.925558
    25  H    2.645653   2.732794   2.139306   1.096551   2.122004
    26  H    3.319096   2.767352   2.744508   2.171789   1.099307
    27  H    4.572096   3.656596   2.883629   2.168453   1.098880
    28  H    5.275444   4.969063   4.501346   3.233553   1.952416
    29  H    4.211024   2.783861   2.828174   4.261631   4.714205
    30  H    5.503390   4.016973   3.407457   4.523935   4.874820
    31  H    2.807326   2.137928   1.107143   2.135964   3.481687
    32  C    4.449794   3.949564   2.568351   1.538041   2.531454
    33  H    5.037453   4.744154   3.508796   2.170379   2.758335
    34  H    4.535653   4.171263   2.786992   2.185190   3.488579
    35  H    5.171299   4.382453   2.903680   2.203879   2.822408
    36  H    4.613350   3.349402   2.041001   2.546361   3.081356
                    6          7          8          9         10
     6  O    0.000000
     7  N    4.315799   0.000000
     8  C    5.774318   1.467768   0.000000
     9  C    8.732172   5.163719   4.353564   0.000000
    10  C    8.505408   4.802990   3.864834   1.394766   0.000000
    11  C    7.502991   3.597796   2.571123   2.393219   1.390825
    12  C    6.643578   2.538878   1.522759   2.830996   2.457020
    13  C    6.970271   3.208631   2.547692   2.389016   2.760687
    14  C    8.024269   4.509601   3.848515   1.396883   2.424090
    15  H    9.634337   6.218046   5.438429   1.084881   2.150337
    16  H    9.247974   5.660526   4.715345   2.172819   1.083897
    17  H    8.444683   5.211154   4.691075   2.175521   3.417633
    18  F    7.624413   3.877574   2.876604   3.624135   2.356988
    19  F    6.516288   3.098123   2.816030   3.626740   4.119001
    20  H    5.108253   4.187001   4.713513   6.071288   5.289170
    21  H    3.895184   4.264351   5.160882   7.460538   6.731212
    22  H    5.473485   4.642302   5.070719   7.192898   6.193412
    23  H    5.428955   2.704767   2.719436   5.393355   4.417449
    24  H    4.171469   2.667219   3.337546   6.819548   6.005708
    25  H    2.546622   3.388401   4.629051   6.779275   6.444092
    26  H    2.086097   3.201599   4.486622   8.002533   7.493822
    27  H    2.093753   2.703376   4.098128   7.635868   7.394120
    28  H    0.965847   4.839785   6.275134   9.511631   9.261758
    29  H    6.132655   2.102930   1.090611   4.826170   4.040189
    30  H    6.224671   2.068712   1.094913   4.808331   4.488085
    31  H    4.527044   2.142162   2.757678   4.429213   4.033681
    32  C    2.907782   3.066440   4.329525   6.193267   6.269529
    33  H    2.557314   4.059764   5.383209   7.177992   7.301369
    34  H    3.884669   3.426288   4.442137   5.472501   5.654399
    35  H    3.339485   2.840360   4.033668   6.113333   6.301363
    36  H    4.262589   1.015912   2.016981   5.141871   5.056788
                   11         12         13         14         15
    11  C    0.000000
    12  C    1.395136   0.000000
    13  C    2.354848   1.396734   0.000000
    14  C    2.766855   2.459527   1.387720   0.000000
    15  H    3.379800   3.915876   3.375930   2.151945   0.000000
    16  H    2.144283   3.422993   3.844158   3.417481   2.507076
    17  H    3.850273   3.425959   2.143488   1.083859   2.510000
    18  F    1.357188   2.360925   3.599795   4.123968   4.502942
    19  F    3.594008   2.352743   1.358316   2.361551   4.508232
    20  H    4.597459   4.793044   5.635795   6.238425   6.814545
    21  H    5.819107   5.695371   6.550097   7.389925   8.295563
    22  H    5.285389   5.513952   6.616086   7.393023   8.010390
    23  H    3.226875   3.256536   4.496139   5.440738   6.357753
    24  H    4.751368   4.376738   5.463074   6.598414   7.825552
    25  H    5.604882   5.073442   5.510848   6.359870   7.613620
    26  H    6.313616   5.586113   6.288887   7.471163   8.993392
    27  H    6.250488   5.204376   5.591191   6.827827   8.632993
    28  H    8.191982   7.282989   7.641845   8.763034  10.444034
    29  H    2.652912   2.137680   3.416396   4.592185   5.891768
    30  H    3.292247   2.138385   2.791996   4.123629   5.871517
    31  H    3.189383   2.740411   3.298414   4.123605   5.339740
    32  C    5.538704   4.626252   4.551449   5.390106   7.008200
    33  H    6.612071   5.717451   5.588653   6.360481   7.937595
    34  H    5.133387   4.370138   4.147047   4.749463   6.194137
    35  H    5.528954   4.412251   4.179795   5.120759   6.963774
    36  H    4.010482   2.765775   2.967619   4.251604   6.155728
                   16         17         18         19         20
    16  H    0.000000
    17  H    4.333546   0.000000
    18  F    2.578174   5.207455   0.000000
    19  F    5.202427   2.589028   4.711263   0.000000
    20  H    5.514604   7.069648   4.249161   6.260676   0.000000
    21  H    7.076963   8.168152   5.420503   6.876608   1.768394
    22  H    6.327325   8.317232   4.526430   7.211776   1.766424
    23  H    4.808517   6.415306   2.581411   5.113255   2.545744
    24  H    6.504988   7.461238   4.244266   5.689010   3.088276
    25  H    7.060073   6.922700   5.718588   5.517954   2.763604
    26  H    8.153129   8.115991   6.149449   6.078943   4.126878
    27  H    8.230178   7.303330   6.415862   5.032023   5.156132
    28  H   10.016756   9.179829   8.258225   7.105773   5.884930
    29  H    4.698177   5.530571   2.413703   3.870317   4.551431
    30  H    5.382823   4.833046   3.677026   2.705534   5.781563
    31  H    4.733524   4.870460   3.533516   3.715688   2.582410
    32  C    7.116761   5.685359   6.099681   4.140145   4.416130
    33  H    8.125004   6.560758   7.146594   5.092922   5.020586
    34  H    6.471172   5.005210   5.823200   3.937087   4.238549
    35  H    7.245305   5.328298   6.200711   3.479565   5.218618
    36  H    6.013389   4.770897   4.564406   2.479074   4.816269
                   21         22         23         24         25
    21  H    0.000000
    22  H    1.763070   0.000000
    23  H    3.069253   2.421472   0.000000
    24  H    2.515387   2.543034   1.752360   0.000000
    25  H    2.206241   3.700716   3.710446   3.175670   0.000000
    26  H    2.869915   3.995065   3.765397   2.228293   2.501255
    27  H    4.293381   5.402066   4.490659   3.308909   3.042638
    28  H    4.533314   6.036435   6.004237   4.570783   3.454616
    29  H    4.980732   4.566838   2.176367   2.938235   4.928457
    30  H    6.100358   6.059163   3.716791   4.096652   5.441678
    31  H    3.314867   3.748994   2.425066   3.051933   2.446876
    32  C    4.266796   5.531844   4.700992   4.367879   2.129914
    33  H    4.635094   6.111877   5.600537   5.070197   2.443227
    34  H    4.500063   5.620180   4.772534   4.819222   2.487987
    35  H    5.085079   6.217372   5.020942   4.681692   3.068885
    36  H    4.893989   5.486225   3.651181   3.576262   3.575051
                   26         27         28         29         30
    26  H    0.000000
    27  H    1.769780   0.000000
    28  H    2.347936   2.300137   0.000000
    29  H    4.540328   4.519466   6.584477   0.000000
    30  H    5.011436   4.334730   6.614771   1.753654   0.000000
    31  H    3.758680   3.833563   5.338630   3.166488   3.737080
    32  C    3.486769   2.769587   3.749364   5.054554   4.862717
    33  H    3.779004   3.092044   3.379775   6.079411   5.871893
    34  H    4.330357   3.784572   4.775389   5.197408   5.071282
    35  H    3.816851   2.612377   4.003214   4.895928   4.336041
    36  H    3.620297   2.642129   4.798858   2.920010   2.289679
                   31         32         33         34         35
    31  H    0.000000
    32  C    2.685623   0.000000
    33  H    3.670478   1.092315   0.000000
    34  H    2.444131   1.095185   1.773523   0.000000
    35  H    3.121604   1.096757   1.758779   1.771666   0.000000
    36  H    2.476645   2.605510   3.588085   2.985281   2.081002
                   36
    36  H    0.000000
 Stoichiometry    C13H19F2NO
 Framework group  C1[X(C13H19F2NO)]
 Deg. of freedom   102
 Full point group                 C1      NOp   1
 Largest Abelian subgroup         C1      NOp   1
 Largest concise Abelian subgroup C1      NOp   1
                         Standard orientation:                         
 ---------------------------------------------------------------------
 Center     Atomic      Atomic             Coordinates (Angstroms)
 Number     Number       Type             X           Y           Z
 ---------------------------------------------------------------------
      1          6           0       -1.964583    2.708413   -0.946085
      2          6           0       -1.416988    1.889803    0.228783
      3          6           0       -1.209926    0.389640   -0.069234
      4          6           0       -2.475306   -0.334861   -0.597095
      5          6           0       -3.603300   -0.396129    0.436960
      6          8           0       -4.778610   -0.876758   -0.221312
      7          7           0       -0.723803   -0.302068    1.140448
      8          6           0        0.604820    0.073996    1.638122
      9          6           0        3.888442   -0.411827   -1.178849
     10          6           0        3.528078    0.869365   -0.761647
     11          6           0        2.476563    1.001397    0.139063
     12          6           0        1.758162   -0.077340    0.655425
     13          6           0        2.164297   -1.331980    0.195210
     14          6           0        3.204421   -1.532264   -0.701337
     15          1           0        4.705731   -0.539386   -1.880799
     16          1           0        4.041564    1.754746   -1.118389
     17          1           0        3.463340   -2.538666   -1.009339
     18          9           0        2.132723    2.250926    0.542066
     19          9           0        1.491386   -2.414895    0.663726
     20          1           0       -1.365051    2.556217   -1.851204
     21          1           0       -3.000661    2.451706   -1.187069
     22          1           0       -1.939965    3.777347   -0.711656
     23          1           0       -0.447733    2.313943    0.511135
     24          1           0       -2.066706    2.002145    1.104829
     25          1           0       -2.852174    0.264419   -1.434507
     26          1           0       -3.782687    0.601417    0.862633
     27          1           0       -3.316452   -1.057416    1.266390
     28          1           0       -5.465346   -0.983119    0.449465
     29          1           0        0.585012    1.103909    1.996338
     30          1           0        0.806325   -0.558517    2.508845
     31          1           0       -0.467891    0.334021   -0.889024
     32          6           0       -2.162482   -1.731861   -1.159324
     33          1           0       -3.059145   -2.163730   -1.609475
     34          1           0       -1.382007   -1.681638   -1.925984
     35          1           0       -1.826925   -2.430311   -0.383150
     36          1           0       -0.703916   -1.300940    0.956231
 ---------------------------------------------------------------------
 Rotational constants (GHZ):      0.7205716      0.2778329      0.2318797
 Standard basis: def2TZVP (5D, 7F)
 There are   726 symmetry adapted cartesian basis functions of A   symmetry.
 There are   641 symmetry adapted basis functions of A   symmetry.
   641 basis functions,  1019 primitive gaussians,   726 cartesian basis functions
    65 alpha electrons       65 beta electrons
       nuclear repulsion energy      1285.6770005568 Hartrees.
 NAtoms=   36 NActive=   36 NUniq=   36 SFac= 1.00D+00 NAtFMM=   60 NAOKFM=F Big=F
 Integral buffers will be    131072 words long.
 Raffenetti 2 integral format.
 Two-electron integral symmetry is turned on.
 ------------------------------------------------------------------------------
 Polarizable Continuum Model (PCM)
 =================================
 Model                : PCM (using non-symmetric T matrix).
 Atomic radii         : UFF (Universal Force Field).
 Polarization charges : Total charges.
 Charge compensation  : None.
 Solution method      : On-the-fly selection.
 Cavity type          : Scaled VdW (van der Waals Surface) (Alpha=1.100).
 Cavity algorithm     : GePol (No added spheres)
                        Default sphere list used, NSphG=   36.
                        Lebedev-Laikov grids with approx.  5.0 points / Ang**2.
                        Smoothing algorithm: Karplus/York (Gamma=1.0000).
                        Polarization charges: spherical gaussians, with
                                              point-specific exponents (IZeta= 3).
                        Self-potential: point-specific (ISelfS= 7).
                        Self-field    : sphere-specific E.n sum rule (ISelfD= 2).
 Solvent              : Chloroform, Eps=   4.711300 Eps(inf)=   2.090627
 ------------------------------------------------------------------------------
 One-electron integrals computed using PRISM.
   1 Symmetry operations used in ECPInt.
 ECPInt:  NShTT=   34716 NPrTT=  103716 LenC2=   31440 LenP2D=   68517.
 LDataN:  DoStor=T MaxTD1= 6 Len=  172
 NBasis=   641 RedAO= T EigKep=  1.10D-05  NBF=   641
 NBsUse=   641 1.00D-06 EigRej= -1.00D+00 NBFU=   641
 ExpMin= 9.52D-02 ExpMax= 3.55D+04 ExpMxC= 1.21D+03 IAcc=3 IRadAn=         5 AccDes= 0.00D+00
 Harris functional with IExCor= 1009 and IRadAn=       5 diagonalized for initial guess.
 HarFok:  IExCor= 1009 AccDes= 0.00D+00 IRadAn=         5 IDoV= 1 UseB2=F ITyADJ=14
 ICtDFT=  3500011 ScaDFX=  1.000000  1.000000  1.000000  1.000000
 FoFCou: FMM=F IPFlag=           0 FMFlag=      100000 FMFlg1=           0
         NFxFlg=           0 DoJE=T BraDBF=F KetDBF=T FulRan=T
         wScrn=  0.000000 ICntrl=     500 IOpCl=  0 I1Cent=   200000004 NGrid=           0
         NMat0=    1 NMatS0=      1 NMatT0=    0 NMatD0=    1 NMtDS0=    0 NMtDT0=    0
 Petite list used in FoFCou.
 Requested convergence on RMS density matrix=1.00D-08 within 128 cycles.
 Requested convergence on MAX density matrix=1.00D-06.
 Requested convergence on             energy=1.00D-06.
 No special actions if energy rises.
 Inv3:  Mode=1 IEnd=    18780012.
 Iteration    1 A*A^-1 deviation from unit magnitude is 5.55D-15 for   2494.
 Iteration    1 A*A^-1 deviation from orthogonality  is 3.34D-15 for   2380    263.
 Iteration    1 A^-1*A deviation from unit magnitude is 5.11D-15 for   2494.
 Iteration    1 A^-1*A deviation from orthogonality  is 3.52D-13 for   2106   2065.
 Error on total polarization charges =  0.01191
 SCF Done:  E(RM062X) =  -836.457006816     A.U. after   12 cycles
            NFock= 12  Conv=0.96D-08     -V/T= 2.0052

 **********************************************************************

            Population analysis using the SCF density.

 **********************************************************************

 Orbital symmetries:
       Occupied  (A) (A) (A) (A) (A) (A) (A) (A) (A) (A) (A) (A)
                 (A) (A) (A) (A) (A) (A) (A) (A) (A) (A) (A) (A)
                 (A) (A) (A) (A) (A) (A) (A) (A) (A) (A) (A) (A)
                 (A) (A) (A) (A) (A) (A) (A) (A) (A) (A) (A) (A)
                 (A) (A) (A) (A) (A) (A) (A) (A) (A) (A) (A) (A)
                 (A) (A) (A) (A) (A)
       Virtual   (A) (A) (A) (A) (A) (A) (A) (A) (A) (A) (A) (A)
                 (A) (A) (A) (A) (A) (A) (A) (A) (A) (A) (A) (A)
                 (A) (A) (A) (A) (A) (A) (A) (A) (A) (A) (A) (A)
                 (A) (A) (A) (A) (A) (A) (A) (A) (A) (A) (A) (A)
                 (A) (A) (A) (A) (A) (A) (A) (A) (A) (A) (A) (A)
                 (A) (A) (A) (A) (A) (A) (A) (A) (A) (A) (A) (A)
                 (A) (A) (A) (A) (A) (A) (A) (A) (A) (A) (A) (A)
                 (A) (A) (A) (A) (A) (A) (A) (A) (A) (A) (A) (A)
                 (A) (A) (A) (A) (A) (A) (A) (A) (A) (A) (A) (A)
                 (A) (A) (A) (A) (A) (A) (A) (A) (A) (A) (A) (A)
                 (A) (A) (A) (A) (A) (A) (A) (A) (A) (A) (A) (A)
                 (A) (A) (A) (A) (A) (A) (A) (A) (A) (A) (A) (A)
                 (A) (A) (A) (A) (A) (A) (A) (A) (A) (A) (A) (A)
                 (A) (A) (A) (A) (A) (A) (A) (A) (A) (A) (A) (A)
                 (A) (A) (A) (A) (A) (A) (A) (A) (A) (A) (A) (A)
                 (A) (A) (A) (A) (A) (A) (A) (A) (A) (A) (A) (A)
                 (A) (A) (A) (A) (A) (A) (A) (A) (A) (A) (A) (A)
                 (A) (A) (A) (A) (A) (A) (A) (A) (A) (A) (A) (A)
                 (A) (A) (A) (A) (A) (A) (A) (A) (A) (A) (A) (A)
                 (A) (A) (A) (A) (A) (A) (A) (A) (A) (A) (A) (A)
                 (A) (A) (A) (A) (A) (A) (A) (A) (A) (A) (A) (A)
                 (A) (A) (A) (A) (A) (A) (A) (A) (A) (A) (A) (A)
                 (A) (A) (A) (A) (A) (A) (A) (A) (A) (A) (A) (A)
                 (A) (A) (A) (A) (A) (A) (A) (A) (A) (A) (A) (A)
                 (A) (A) (A) (A) (A) (A) (A) (A) (A) (A) (A) (A)
                 (A) (A) (A) (A) (A) (A) (A) (A) (A) (A) (A) (A)
                 (A) (A) (A) (A) (A) (A) (A) (A) (A) (A) (A) (A)
                 (A) (A) (A) (A) (A) (A) (A) (A) (A) (A) (A) (A)
                 (A) (A) (A) (A) (A) (A) (A) (A) (A) (A) (A) (A)
                 (A) (A) (A) (A) (A) (A) (A) (A) (A) (A) (A) (A)
                 (A) (A) (A) (A) (A) (A) (A) (A) (A) (A) (A) (A)
                 (A) (A) (A) (A) (A) (A) (A) (A) (A) (A) (A) (A)
                 (A) (A) (A) (A) (A) (A) (A) (A) (A) (A) (A) (A)
                 (A) (A) (A) (A) (A) (A) (A) (A) (A) (A) (A) (A)
                 (A) (A) (A) (A) (A) (A) (A) (A) (A) (A) (A) (A)
                 (A) (A) (A) (A) (A) (A) (A) (A) (A) (A) (A) (A)
                 (A) (A) (A) (A) (A) (A) (A) (A) (A) (A) (A) (A)
                 (A) (A) (A) (A) (A) (A) (A) (A) (A) (A) (A) (A)
                 (A) (A) (A) (A) (A) (A) (A) (A) (A) (A) (A) (A)
                 (A) (A) (A) (A) (A) (A) (A) (A) (A) (A) (A) (A)
                 (A) (A) (A) (A) (A) (A) (A) (A) (A) (A) (A) (A)
                 (A) (A) (A) (A) (A) (A) (A) (A) (A) (A) (A) (A)
                 (A) (A) (A) (A) (A) (A) (A) (A) (A) (A) (A) (A)
                 (A) (A) (A) (A) (A) (A) (A) (A) (A) (A) (A) (A)
                 (A) (A) (A) (A) (A) (A) (A) (A) (A) (A) (A) (A)
                 (A) (A) (A) (A) (A) (A) (A) (A) (A) (A) (A) (A)
                 (A) (A) (A) (A) (A) (A) (A) (A) (A) (A) (A) (A)
                 (A) (A) (A) (A) (A) (A) (A) (A) (A) (A) (A) (A)
 The electronic state is 1-A.
 Alpha  occ. eigenvalues --  -25.26993 -25.26789 -19.62316 -14.73719 -10.64314
 Alpha  occ. eigenvalues --  -10.64283 -10.57612 -10.57572 -10.56784 -10.56619
 Alpha  occ. eigenvalues --  -10.56535 -10.55843 -10.55813 -10.53755 -10.52800
 Alpha  occ. eigenvalues --  -10.52263 -10.52090  -1.38149  -1.37993  -1.13957
 Alpha  occ. eigenvalues --   -1.02168  -0.98232  -0.90419  -0.87165  -0.86098
 Alpha  occ. eigenvalues --   -0.85407  -0.78561  -0.76630  -0.74396  -0.72689
 Alpha  occ. eigenvalues --   -0.70671  -0.68359  -0.65367  -0.62778  -0.61673
 Alpha  occ. eigenvalues --   -0.59510  -0.58547  -0.57700  -0.57426  -0.57220
 Alpha  occ. eigenvalues --   -0.55461  -0.54690  -0.54387  -0.52983  -0.51311
 Alpha  occ. eigenvalues --   -0.50121  -0.49155  -0.47957  -0.47169  -0.46926
 Alpha  occ. eigenvalues --   -0.45669  -0.44676  -0.44228  -0.43760  -0.43122
 Alpha  occ. eigenvalues --   -0.42575  -0.41779  -0.40494  -0.38288  -0.37922
 Alpha  occ. eigenvalues --   -0.36846  -0.34695  -0.31940  -0.31392  -0.29719
 Alpha virt. eigenvalues --    0.00343   0.01701   0.06065   0.07049   0.07709
 Alpha virt. eigenvalues --    0.08382   0.09120   0.10029   0.11876   0.12068
 Alpha virt. eigenvalues --    0.12212   0.13010   0.13237   0.13911   0.14374
 Alpha virt. eigenvalues --    0.14566   0.15312   0.15872   0.16511   0.16799
 Alpha virt. eigenvalues --    0.17507   0.18530   0.19004   0.19644   0.20263
 Alpha virt. eigenvalues --    0.20929   0.21235   0.21664   0.21939   0.22501
 Alpha virt. eigenvalues --    0.22915   0.24286   0.24587   0.24754   0.25099
 Alpha virt. eigenvalues --    0.25837   0.26237   0.27093   0.27381   0.28402
 Alpha virt. eigenvalues --    0.28994   0.29953   0.30519   0.31671   0.31778
 Alpha virt. eigenvalues --    0.32670   0.33264   0.34163   0.34824   0.35431
 Alpha virt. eigenvalues --    0.36294   0.36583   0.36903   0.37538   0.37948
 Alpha virt. eigenvalues --    0.38485   0.39295   0.39635   0.39927   0.40339
 Alpha virt. eigenvalues --    0.41583   0.42163   0.42447   0.43008   0.43433
 Alpha virt. eigenvalues --    0.43933   0.44504   0.45611   0.45790   0.46158
 Alpha virt. eigenvalues --    0.46378   0.46923   0.47319   0.47648   0.47939
 Alpha virt. eigenvalues --    0.48309   0.48864   0.49328   0.49943   0.50461
 Alpha virt. eigenvalues --    0.50651   0.51032   0.51606   0.52178   0.52490
 Alpha virt. eigenvalues --    0.52719   0.53296   0.53829   0.54215   0.54954
 Alpha virt. eigenvalues --    0.55776   0.56666   0.56994   0.57157   0.57698
 Alpha virt. eigenvalues --    0.59307   0.60013   0.61172   0.61580   0.62276
 Alpha virt. eigenvalues --    0.63471   0.63694   0.64969   0.66586   0.67880
 Alpha virt. eigenvalues --    0.68288   0.69386   0.70063   0.70649   0.71159
 Alpha virt. eigenvalues --    0.71754   0.72693   0.73634   0.74257   0.75530
 Alpha virt. eigenvalues --    0.75808   0.77628   0.79003   0.79692   0.80437
 Alpha virt. eigenvalues --    0.80706   0.81292   0.83035   0.83673   0.84829
 Alpha virt. eigenvalues --    0.86619   0.87354   0.87885   0.88334   0.89285
 Alpha virt. eigenvalues --    0.90291   0.90746   0.91630   0.92258   0.93516
 Alpha virt. eigenvalues --    0.93865   0.94201   0.95203   0.96768   0.97422
 Alpha virt. eigenvalues --    0.98048   0.99796   1.00424   1.01468   1.02340
 Alpha virt. eigenvalues --    1.03534   1.03975   1.05260   1.06251   1.06999
 Alpha virt. eigenvalues --    1.08211   1.09861   1.10247   1.11452   1.11635
 Alpha virt. eigenvalues --    1.12773   1.13187   1.14447   1.14693   1.16312
 Alpha virt. eigenvalues --    1.17216   1.17931   1.20505   1.20698   1.20763
 Alpha virt. eigenvalues --    1.22274   1.23322   1.24199   1.25213   1.25771
 Alpha virt. eigenvalues --    1.26807   1.28331   1.29598   1.30200   1.31411
 Alpha virt. eigenvalues --    1.32204   1.32828   1.35130   1.36185   1.37033
 Alpha virt. eigenvalues --    1.37868   1.38696   1.38945   1.41328   1.42395
 Alpha virt. eigenvalues --    1.43554   1.44539   1.47316   1.48961   1.49195
 Alpha virt. eigenvalues --    1.50181   1.51899   1.53240   1.53922   1.54851
 Alpha virt. eigenvalues --    1.55921   1.56148   1.57685   1.58210   1.59009
 Alpha virt. eigenvalues --    1.59830   1.60510   1.61875   1.62597   1.63062
 Alpha virt. eigenvalues --    1.63702   1.63928   1.65322   1.65493   1.65966
 Alpha virt. eigenvalues --    1.67227   1.67361   1.68167   1.68514   1.69417
 Alpha virt. eigenvalues --    1.69672   1.71254   1.72231   1.72875   1.73173
 Alpha virt. eigenvalues --    1.74570   1.75560   1.76417   1.78744   1.79648
 Alpha virt. eigenvalues --    1.80522   1.81628   1.83465   1.85102   1.86572
 Alpha virt. eigenvalues --    1.87362   1.88150   1.89277   1.90384   1.90524
 Alpha virt. eigenvalues --    1.91309   1.92571   1.94253   1.96329   1.96996
 Alpha virt. eigenvalues --    1.97772   1.98506   1.99440   2.01066   2.01387
 Alpha virt. eigenvalues --    2.03106   2.05039   2.05673   2.06444   2.06716
 Alpha virt. eigenvalues --    2.08232   2.09021   2.11138   2.11428   2.12732
 Alpha virt. eigenvalues --    2.13750   2.14122   2.15418   2.16752   2.18103
 Alpha virt. eigenvalues --    2.18287   2.18785   2.19914   2.20593   2.21431
 Alpha virt. eigenvalues --    2.22112   2.23168   2.23927   2.24430   2.26558
 Alpha virt. eigenvalues --    2.27884   2.29046   2.29727   2.30668   2.31304
 Alpha virt. eigenvalues --    2.31635   2.32232   2.32812   2.34041   2.35744
 Alpha virt. eigenvalues --    2.36846   2.37997   2.39679   2.40139   2.41289
 Alpha virt. eigenvalues --    2.43117   2.43969   2.44013   2.44356   2.45787
 Alpha virt. eigenvalues --    2.46963   2.47453   2.48913   2.51154   2.51776
 Alpha virt. eigenvalues --    2.52118   2.53839   2.54671   2.55490   2.56749
 Alpha virt. eigenvalues --    2.57340   2.58259   2.59453   2.59769   2.61089
 Alpha virt. eigenvalues --    2.61498   2.61838   2.62321   2.63376   2.63729
 Alpha virt. eigenvalues --    2.64795   2.65062   2.65807   2.66660   2.66971
 Alpha virt. eigenvalues --    2.67758   2.68116   2.68798   2.69907   2.70650
 Alpha virt. eigenvalues --    2.72189   2.72607   2.73860   2.74360   2.75164
 Alpha virt. eigenvalues --    2.76211   2.77049   2.77929   2.78518   2.79704
 Alpha virt. eigenvalues --    2.80468   2.81468   2.82023   2.83590   2.84664
 Alpha virt. eigenvalues --    2.85679   2.86613   2.88132   2.88814   2.89429
 Alpha virt. eigenvalues --    2.90843   2.91330   2.91970   2.92753   2.93597
 Alpha virt. eigenvalues --    2.94782   2.95806   2.96317   2.97914   2.98660
 Alpha virt. eigenvalues --    3.00134   3.00628   3.02225   3.02702   3.04104
 Alpha virt. eigenvalues --    3.05125   3.05631   3.07396   3.07900   3.08632
 Alpha virt. eigenvalues --    3.09685   3.11131   3.11221   3.12839   3.13348
 Alpha virt. eigenvalues --    3.13772   3.14512   3.15502   3.16793   3.17573
 Alpha virt. eigenvalues --    3.18968   3.19404   3.19982   3.20679   3.21232
 Alpha virt. eigenvalues --    3.22038   3.23182   3.23857   3.25425   3.25985
 Alpha virt. eigenvalues --    3.26791   3.27220   3.27468   3.29684   3.29857
 Alpha virt. eigenvalues --    3.30086   3.31138   3.32242   3.33066   3.33340
 Alpha virt. eigenvalues --    3.34422   3.34629   3.36379   3.37147   3.38461
 Alpha virt. eigenvalues --    3.39957   3.40438   3.40954   3.42661   3.42924
 Alpha virt. eigenvalues --    3.44081   3.44616   3.45748   3.46841   3.47040
 Alpha virt. eigenvalues --    3.47927   3.48113   3.48931   3.50536   3.51475
 Alpha virt. eigenvalues --    3.52468   3.53510   3.54583   3.55850   3.56331
 Alpha virt. eigenvalues --    3.56809   3.56947   3.58498   3.58818   3.61270
 Alpha virt. eigenvalues --    3.62122   3.62301   3.63600   3.64187   3.64757
 Alpha virt. eigenvalues --    3.66797   3.67414   3.68436   3.69783   3.70277
 Alpha virt. eigenvalues --    3.72738   3.73944   3.74949   3.76654   3.78190
 Alpha virt. eigenvalues --    3.79157   3.81375   3.83775   3.84390   3.86788
 Alpha virt. eigenvalues --    3.87678   3.89020   3.91573   3.92650   3.94485
 Alpha virt. eigenvalues --    3.96481   3.96848   4.00576   4.01547   4.03003
 Alpha virt. eigenvalues --    4.03603   4.04047   4.05621   4.07279   4.07740
 Alpha virt. eigenvalues --    4.09120   4.09821   4.10387   4.12837   4.13952
 Alpha virt. eigenvalues --    4.14530   4.15521   4.15633   4.18273   4.18599
 Alpha virt. eigenvalues --    4.19867   4.20493   4.21620   4.23615   4.24882
 Alpha virt. eigenvalues --    4.25749   4.27361   4.28205   4.30471   4.34214
 Alpha virt. eigenvalues --    4.35509   4.35935   4.38713   4.39724   4.41989
 Alpha virt. eigenvalues --    4.42572   4.45949   4.48240   4.51441   4.53249
 Alpha virt. eigenvalues --    4.54066   4.55742   4.57870   4.59658   4.60955
 Alpha virt. eigenvalues --    4.62863   4.64117   4.65162   4.68142   4.68791
 Alpha virt. eigenvalues --    4.73470   4.75916   4.79130   4.80153   4.83274
 Alpha virt. eigenvalues --    4.85627   4.89809   4.94235   4.96392   4.97455
 Alpha virt. eigenvalues --    5.00768   5.05269   5.05432   5.08572   5.13750
 Alpha virt. eigenvalues --    5.14999   5.23398   5.29222   5.29789   5.31145
 Alpha virt. eigenvalues --    5.35036   5.37777   5.39658   5.40776   5.43830
 Alpha virt. eigenvalues --    5.47619   5.51226   5.56966   5.60584   5.68744
 Alpha virt. eigenvalues --    5.72401   5.75579   5.86914   5.87912   6.26232
 Alpha virt. eigenvalues --    6.46527   6.68155   6.73626   6.90290   6.90590
 Alpha virt. eigenvalues --    6.91078   6.92206   6.97775   6.99610   7.00375
 Alpha virt. eigenvalues --    7.08058   7.09685   7.14123   7.21418   7.23935
 Alpha virt. eigenvalues --    7.35607   7.38924   7.53243   7.54760   8.36214
 Alpha virt. eigenvalues --    8.37685   8.53897   8.55426   8.74383   8.75371
 Alpha virt. eigenvalues --    8.96037   8.96790   9.00546   9.02191  22.26398
 Alpha virt. eigenvalues --   22.43988  22.48900  22.54849  22.61691  22.67095
 Alpha virt. eigenvalues --   22.74374  22.76695  22.78685  22.80134  22.95080
 Alpha virt. eigenvalues --   23.02820  23.47291  32.62151  43.99936  57.51510
 Alpha virt. eigenvalues --   57.57938
          Condensed to atoms (all electrons):
               1          2          3          4          5          6
     1  C    5.097941   0.205306  -0.055333   0.031287  -0.009220  -0.000013
     2  C    0.205306   5.318951   0.195947  -0.042926   0.008222  -0.000631
     3  C   -0.055333   0.195947   5.540164   0.025199   0.029104   0.007995
     4  C    0.031287  -0.042926   0.025199   5.670829   0.141058  -0.082689
     5  C   -0.009220   0.008222   0.029104   0.141058   4.977600   0.256508
     6  O   -0.000013  -0.000631   0.007995  -0.082689   0.256508   8.098416
     7  N    0.011349  -0.061560   0.158950  -0.012381  -0.016750   0.000540
     8  C   -0.005913   0.039858  -0.059726   0.002871   0.000919   0.000002
     9  C   -0.000020   0.000217  -0.000382  -0.000004  -0.000001   0.000000
    10  C    0.000030  -0.000457   0.001092  -0.000046   0.000001   0.000000
    11  C   -0.000591   0.004283   0.007568  -0.000027  -0.000018   0.000000
    12  C    0.004820  -0.029400   0.016996   0.003978   0.000575   0.000003
    13  C   -0.000005   0.001421  -0.005804   0.001168  -0.000252   0.000000
    14  C   -0.000017   0.000043  -0.000077  -0.000087  -0.000002   0.000000
    15  H    0.000000  -0.000001   0.000000   0.000000   0.000000   0.000000
    16  H    0.000004  -0.000028   0.000022   0.000001   0.000000   0.000000
    17  H    0.000000   0.000001   0.000013  -0.000006   0.000000   0.000000
    18  F   -0.000136  -0.006816   0.000870  -0.000019   0.000001   0.000000
    19  F    0.000001  -0.000092   0.000760  -0.001582   0.000106   0.000000
    20  H    0.412020  -0.048390   0.014783  -0.013171   0.001225  -0.000011
    21  H    0.426523  -0.041232  -0.023696   0.018685  -0.004183   0.000779
    22  H    0.418065  -0.044956   0.012807  -0.000325  -0.000095   0.000000
    23  H   -0.033629   0.423650  -0.055741   0.012670  -0.000525  -0.000002
    24  H   -0.037691   0.423928  -0.036712  -0.023921   0.005647  -0.000041
    25  H    0.000032  -0.018823  -0.037022   0.445257  -0.058911   0.007995
    26  H   -0.002576   0.000550   0.011472  -0.077902   0.453764  -0.043892
    27  H    0.000782  -0.003207  -0.006768  -0.011148   0.415496  -0.047598
    28  H    0.000009   0.000128  -0.002101   0.015929  -0.043760   0.303822
    29  H    0.000313  -0.005486  -0.010912  -0.000731  -0.000141   0.000000
    30  H   -0.000022   0.001007   0.007554   0.000238  -0.000134  -0.000001
    31  H    0.002964  -0.055290   0.446728  -0.046619   0.010274  -0.000116
    32  C   -0.001371   0.013383  -0.060177   0.240197  -0.067031  -0.003508
    33  H   -0.000006  -0.000497   0.013148  -0.051836  -0.003482   0.011230
    34  H    0.000072   0.000492   0.005078  -0.055100   0.011361   0.000137
    35  H    0.000045  -0.000768  -0.018878  -0.027448  -0.010977   0.000112
    36  H   -0.000604   0.005656  -0.061028   0.002440  -0.006779  -0.000161
               7          8          9         10         11         12
     1  C    0.011349  -0.005913  -0.000020   0.000030  -0.000591   0.004820
     2  C   -0.061560   0.039858   0.000217  -0.000457   0.004283  -0.029400
     3  C    0.158950  -0.059726  -0.000382   0.001092   0.007568   0.016996
     4  C   -0.012381   0.002871  -0.000004  -0.000046  -0.000027   0.003978
     5  C   -0.016750   0.000919  -0.000001   0.000001  -0.000018   0.000575
     6  O    0.000540   0.000002   0.000000   0.000000   0.000000   0.000003
     7  N    6.869898   0.230995   0.000350  -0.000822   0.012056  -0.077455
     8  C    0.230995   5.469814  -0.001163   0.001797  -0.003463  -0.153428
     9  C    0.000350  -0.001163   5.025164   0.435194  -0.022268  -0.075826
    10  C   -0.000822   0.001797   0.435194   5.030952   0.517996   0.005781
    11  C    0.012056  -0.003463  -0.022268   0.517996   4.890186   0.167139
    12  C   -0.077455  -0.153428  -0.075826   0.005781   0.167139   6.226671
    13  C    0.006785  -0.057038  -0.031156  -0.067178   0.022351   0.230989
    14  C    0.002221   0.007101   0.435008  -0.035191  -0.071137   0.003047
    15  H   -0.000003   0.000048   0.403836  -0.024531   0.002330  -0.000786
    16  H    0.000005  -0.000299  -0.031976   0.412699  -0.040065   0.013051
    17  H    0.000022  -0.000109  -0.032112   0.004310  -0.001283   0.013776
    18  F   -0.000237  -0.000752   0.009175  -0.045372   0.229123  -0.061317
    19  F   -0.006139   0.020351   0.009285  -0.000974   0.008838  -0.075313
    20  H    0.000255  -0.000033  -0.000002   0.000017   0.000098  -0.000074
    21  H   -0.000256   0.000128   0.000000   0.000002   0.000013  -0.000043
    22  H   -0.000377   0.000094   0.000000   0.000000   0.000026  -0.000095
    23  H   -0.010177   0.024314  -0.000066   0.000326  -0.000925  -0.013286
    24  H    0.009354  -0.008437  -0.000004  -0.000007  -0.000558   0.003823
    25  H    0.006674  -0.001011  -0.000003   0.000002  -0.000012   0.000472
    26  H   -0.003089  -0.000013   0.000000   0.000000   0.000006  -0.000038
    27  H    0.013617  -0.001051   0.000000   0.000000  -0.000022   0.000741
    28  H    0.000112  -0.000010   0.000000   0.000000   0.000000   0.000001
    29  H   -0.029921   0.471937  -0.000216   0.000143  -0.017151  -0.080260
    30  H   -0.042335   0.450961   0.000161  -0.000432   0.007397  -0.068909
    31  H   -0.056152  -0.038472  -0.000556   0.000776  -0.010391   0.041076
    32  C    0.001078   0.001946   0.000005   0.000056   0.000731  -0.005090
    33  H    0.000105   0.000150   0.000001   0.000000   0.000008  -0.000078
    34  H   -0.002372  -0.000099  -0.000015  -0.000007  -0.000041   0.000387
    35  H    0.000201  -0.001300  -0.000017   0.000016  -0.000067   0.001369
    36  H    0.384149  -0.033165  -0.000093   0.000148  -0.000492  -0.019815
              13         14         15         16         17         18
     1  C   -0.000005  -0.000017   0.000000   0.000004   0.000000  -0.000136
     2  C    0.001421   0.000043  -0.000001  -0.000028   0.000001  -0.006816
     3  C   -0.005804  -0.000077   0.000000   0.000022   0.000013   0.000870
     4  C    0.001168  -0.000087   0.000000   0.000001  -0.000006  -0.000019
     5  C   -0.000252  -0.000002   0.000000   0.000000   0.000000   0.000001
     6  O    0.000000   0.000000   0.000000   0.000000   0.000000   0.000000
     7  N    0.006785   0.002221  -0.000003   0.000005   0.000022  -0.000237
     8  C   -0.057038   0.007101   0.000048  -0.000299  -0.000109  -0.000752
     9  C   -0.031156   0.435008   0.403836  -0.031976  -0.032112   0.009175
    10  C   -0.067178  -0.035191  -0.024531   0.412699   0.004310  -0.045372
    11  C    0.022351  -0.071137   0.002330  -0.040065  -0.001283   0.229123
    12  C    0.230989   0.003047  -0.000786   0.013051   0.013776  -0.061317
    13  C    4.885507   0.518223   0.002884  -0.001021  -0.042418   0.007889
    14  C    0.518223   5.036164  -0.025388   0.004180   0.414248  -0.000401
    15  H    0.002884  -0.025388   0.475599  -0.003221  -0.003277  -0.000112
    16  H   -0.001021   0.004180  -0.003221   0.472203  -0.000146   0.001245
    17  H   -0.042418   0.414248  -0.003277  -0.000146   0.471914   0.000011
    18  F    0.007889  -0.000401  -0.000112   0.001245   0.000011   9.069436
    19  F    0.232648  -0.046486  -0.000106   0.000010   0.001588  -0.000034
    20  H   -0.000016   0.000006   0.000000   0.000000   0.000000   0.000079
    21  H   -0.000005   0.000000   0.000000   0.000000   0.000000  -0.000003
    22  H    0.000003   0.000000   0.000000   0.000000   0.000000   0.000006
    23  H   -0.000083   0.000045   0.000001   0.000009  -0.000001   0.007798
    24  H   -0.000065   0.000003   0.000000   0.000000   0.000000   0.000311
    25  H    0.000008   0.000004   0.000000   0.000000   0.000000  -0.000001
    26  H    0.000001   0.000000   0.000000   0.000000   0.000000  -0.000001
    27  H   -0.000046  -0.000003   0.000000   0.000000   0.000000   0.000000
    28  H    0.000000   0.000000   0.000000   0.000000   0.000000   0.000000
    29  H    0.010923   0.000006   0.000002  -0.000030   0.000001   0.006380
    30  H   -0.009320  -0.000388   0.000000   0.000004  -0.000003   0.000526
    31  H   -0.001004   0.000029   0.000004   0.000011   0.000006   0.000230
    32  C   -0.001902  -0.000004  -0.000001   0.000000   0.000003  -0.000004
    33  H   -0.000021  -0.000009   0.000000   0.000000   0.000000   0.000000
    34  H    0.000102   0.000254   0.000000   0.000000   0.000004   0.000001
    35  H   -0.000653   0.000052   0.000000   0.000000   0.000008   0.000000
    36  H    0.004943   0.000724   0.000001  -0.000001  -0.000006  -0.000055
              19         20         21         22         23         24
     1  C    0.000001   0.412020   0.426523   0.418065  -0.033629  -0.037691
     2  C   -0.000092  -0.048390  -0.041232  -0.044956   0.423650   0.423928
     3  C    0.000760   0.014783  -0.023696   0.012807  -0.055741  -0.036712
     4  C   -0.001582  -0.013171   0.018685  -0.000325   0.012670  -0.023921
     5  C    0.000106   0.001225  -0.004183  -0.000095  -0.000525   0.005647
     6  O    0.000000  -0.000011   0.000779   0.000000  -0.000002  -0.000041
     7  N   -0.006139   0.000255  -0.000256  -0.000377  -0.010177   0.009354
     8  C    0.020351  -0.000033   0.000128   0.000094   0.024314  -0.008437
     9  C    0.009285  -0.000002   0.000000   0.000000  -0.000066  -0.000004
    10  C   -0.000974   0.000017   0.000002   0.000000   0.000326  -0.000007
    11  C    0.008838   0.000098   0.000013   0.000026  -0.000925  -0.000558
    12  C   -0.075313  -0.000074  -0.000043  -0.000095  -0.013286   0.003823
    13  C    0.232648  -0.000016  -0.000005   0.000003  -0.000083  -0.000065
    14  C   -0.046486   0.000006   0.000000   0.000000   0.000045   0.000003
    15  H   -0.000106   0.000000   0.000000   0.000000   0.000001   0.000000
    16  H    0.000010   0.000000   0.000000   0.000000   0.000009   0.000000
    17  H    0.001588   0.000000   0.000000   0.000000  -0.000001   0.000000
    18  F   -0.000034   0.000079  -0.000003   0.000006   0.007798   0.000311
    19  F    9.070635   0.000000   0.000000   0.000000  -0.000003   0.000002
    20  H    0.000000   0.531029  -0.030633  -0.022689  -0.003249   0.006382
    21  H    0.000000  -0.030633   0.530741  -0.024221   0.006549  -0.004678
    22  H    0.000000  -0.022689  -0.024221   0.519879  -0.007463  -0.003207
    23  H   -0.000003  -0.003249   0.006549  -0.007463   0.544345  -0.024984
    24  H    0.000002   0.006382  -0.004678  -0.003207  -0.024984   0.527786
    25  H   -0.000008   0.001604  -0.009902   0.000628  -0.000768   0.001982
    26  H    0.000000  -0.000111   0.000592   0.000059   0.000834  -0.004453
    27  H   -0.000031  -0.000020   0.000056   0.000008  -0.000141   0.000705
    28  H    0.000000   0.000002  -0.000023   0.000000  -0.000003   0.000047
    29  H    0.000464   0.000013  -0.000049   0.000022  -0.011608   0.000450
    30  H    0.000318   0.000000   0.000001  -0.000001   0.000323  -0.000310
    31  H   -0.000042   0.000148   0.000974  -0.000274  -0.004412   0.007630
    32  C    0.001615  -0.000389   0.000850   0.000006  -0.000073  -0.001374
    33  H    0.000030   0.000007   0.000023  -0.000001   0.000019  -0.000012
    34  H   -0.000220   0.000048   0.000006  -0.000003  -0.000045   0.000036
    35  H    0.000419   0.000006  -0.000034   0.000001  -0.000001   0.000069
    36  H    0.004102  -0.000013  -0.000021   0.000025  -0.000737   0.000133
              25         26         27         28         29         30
     1  C    0.000032  -0.002576   0.000782   0.000009   0.000313  -0.000022
     2  C   -0.018823   0.000550  -0.003207   0.000128  -0.005486   0.001007
     3  C   -0.037022   0.011472  -0.006768  -0.002101  -0.010912   0.007554
     4  C    0.445257  -0.077902  -0.011148   0.015929  -0.000731   0.000238
     5  C   -0.058911   0.453764   0.415496  -0.043760  -0.000141  -0.000134
     6  O    0.007995  -0.043892  -0.047598   0.303822   0.000000  -0.000001
     7  N    0.006674  -0.003089   0.013617   0.000112  -0.029921  -0.042335
     8  C   -0.001011  -0.000013  -0.001051  -0.000010   0.471937   0.450961
     9  C   -0.000003   0.000000   0.000000   0.000000  -0.000216   0.000161
    10  C    0.000002   0.000000   0.000000   0.000000   0.000143  -0.000432
    11  C   -0.000012   0.000006  -0.000022   0.000000  -0.017151   0.007397
    12  C    0.000472  -0.000038   0.000741   0.000001  -0.080260  -0.068909
    13  C    0.000008   0.000001  -0.000046   0.000000   0.010923  -0.009320
    14  C    0.000004   0.000000  -0.000003   0.000000   0.000006  -0.000388
    15  H    0.000000   0.000000   0.000000   0.000000   0.000002   0.000000
    16  H    0.000000   0.000000   0.000000   0.000000  -0.000030   0.000004
    17  H    0.000000   0.000000   0.000000   0.000000   0.000001  -0.000003
    18  F   -0.000001  -0.000001   0.000000   0.000000   0.006380   0.000526
    19  F   -0.000008   0.000000  -0.000031   0.000000   0.000464   0.000318
    20  H    0.001604  -0.000111  -0.000020   0.000002   0.000013   0.000000
    21  H   -0.009902   0.000592   0.000056  -0.000023  -0.000049   0.000001
    22  H    0.000628   0.000059   0.000008   0.000000   0.000022  -0.000001
    23  H   -0.000768   0.000834  -0.000141  -0.000003  -0.011608   0.000323
    24  H    0.001982  -0.004453   0.000705   0.000047   0.000450  -0.000310
    25  H    0.555827  -0.010068   0.010457  -0.000629   0.000019   0.000022
    26  H   -0.010068   0.583687  -0.050510  -0.003074  -0.000011   0.000018
    27  H    0.010457  -0.050510   0.569445  -0.006546  -0.000016   0.000025
    28  H   -0.000629  -0.003074  -0.006546   0.401825   0.000000   0.000000
    29  H    0.000019  -0.000011  -0.000016   0.000000   0.466263  -0.010219
    30  H    0.000022   0.000018   0.000025   0.000000  -0.010219   0.477190
    31  H   -0.004630   0.000034  -0.000028   0.000054   0.001233  -0.000894
    32  C   -0.048528   0.010929  -0.027062   0.000684  -0.000018   0.000115
    33  H   -0.004912   0.000588   0.000232  -0.000986  -0.000002   0.000000
    34  H   -0.006036  -0.000217  -0.000034   0.000048  -0.000003  -0.000006
    35  H    0.008481  -0.000057   0.004935  -0.000092  -0.000018   0.000053
    36  H    0.000977  -0.000126   0.001174   0.000018   0.005199  -0.007385
              31         32         33         34         35         36
     1  C    0.002964  -0.001371  -0.000006   0.000072   0.000045  -0.000604
     2  C   -0.055290   0.013383  -0.000497   0.000492  -0.000768   0.005656
     3  C    0.446728  -0.060177   0.013148   0.005078  -0.018878  -0.061028
     4  C   -0.046619   0.240197  -0.051836  -0.055100  -0.027448   0.002440
     5  C    0.010274  -0.067031  -0.003482   0.011361  -0.010977  -0.006779
     6  O   -0.000116  -0.003508   0.011230   0.000137   0.000112  -0.000161
     7  N   -0.056152   0.001078   0.000105  -0.002372   0.000201   0.384149
     8  C   -0.038472   0.001946   0.000150  -0.000099  -0.001300  -0.033165
     9  C   -0.000556   0.000005   0.000001  -0.000015  -0.000017  -0.000093
    10  C    0.000776   0.000056   0.000000  -0.000007   0.000016   0.000148
    11  C   -0.010391   0.000731   0.000008  -0.000041  -0.000067  -0.000492
    12  C    0.041076  -0.005090  -0.000078   0.000387   0.001369  -0.019815
    13  C   -0.001004  -0.001902  -0.000021   0.000102  -0.000653   0.004943
    14  C    0.000029  -0.000004  -0.000009   0.000254   0.000052   0.000724
    15  H    0.000004  -0.000001   0.000000   0.000000   0.000000   0.000001
    16  H    0.000011   0.000000   0.000000   0.000000   0.000000  -0.000001
    17  H    0.000006   0.000003   0.000000   0.000004   0.000008  -0.000006
    18  F    0.000230  -0.000004   0.000000   0.000001   0.000000  -0.000055
    19  F   -0.000042   0.001615   0.000030  -0.000220   0.000419   0.004102
    20  H    0.000148  -0.000389   0.000007   0.000048   0.000006  -0.000013
    21  H    0.000974   0.000850   0.000023   0.000006  -0.000034  -0.000021
    22  H   -0.000274   0.000006  -0.000001  -0.000003   0.000001   0.000025
    23  H   -0.004412  -0.000073   0.000019  -0.000045  -0.000001  -0.000737
    24  H    0.007630  -0.001374  -0.000012   0.000036   0.000069   0.000133
    25  H   -0.004630  -0.048528  -0.004912  -0.006036   0.008481   0.000977
    26  H    0.000034   0.010929   0.000588  -0.000217  -0.000057  -0.000126
    27  H   -0.000028  -0.027062   0.000232  -0.000034   0.004935   0.001174
    28  H    0.000054   0.000684  -0.000986   0.000048  -0.000092   0.000018
    29  H    0.001233  -0.000018  -0.000002  -0.000003  -0.000018   0.005199
    30  H   -0.000894   0.000115   0.000000  -0.000006   0.000053  -0.007385
    31  H    0.550300  -0.022994  -0.000636   0.005259   0.000377   0.000619
    32  C   -0.022994   5.179962   0.420644   0.415409   0.413094   0.004578
    33  H   -0.000636   0.420644   0.495719  -0.021456  -0.022424  -0.000136
    34  H    0.005259   0.415409  -0.021456   0.524342  -0.028412  -0.000943
    35  H    0.000377   0.413094  -0.022424  -0.028412   0.534818   0.002074
    36  H    0.000619   0.004578  -0.000136  -0.000943   0.002074   0.488997
 Mulliken charges:
               1
     1  C   -0.464414
     2  C   -0.282483
     3  C   -0.061894
     4  C   -0.163839
     5  C   -0.089600
     6  O   -0.508877
     7  N   -0.388690
     8  C   -0.357805
     9  C   -0.122517
    10  C   -0.236320
    11  C    0.298358
    12  C   -0.073483
    13  C    0.292141
    14  C   -0.242169
    15  H    0.172721
    16  H    0.173344
    17  H    0.173458
    18  F   -0.217821
    19  F   -0.220140
    20  H    0.151078
    21  H    0.153055
    22  H    0.152079
    23  H    0.147041
    24  H    0.158163
    25  H    0.160824
    26  H    0.133605
    27  H    0.136558
    28  H    0.334546
    29  H    0.203422
    30  H    0.194447
    31  H    0.173786
    32  C   -0.465760
    33  H    0.164592
    34  H    0.151974
    35  H    0.145016
    36  H    0.225606
 Sum of Mulliken charges =   0.00000
 Mulliken charges with hydrogens summed into heavy atoms:
               1
     1  C   -0.008202
     2  C    0.022721
     3  C    0.111892
     4  C   -0.003015
     5  C    0.180563
     6  O   -0.174331
     7  N   -0.163084
     8  C    0.040064
     9  C    0.050205
    10  C   -0.062976
    11  C    0.298358
    12  C   -0.073483
    13  C    0.292141
    14  C   -0.068711
    18  F   -0.217821
    19  F   -0.220140
    32  C   -0.004180
 Electronic spatial extent (au):  <R**2>=           4832.4242
 Charge=              0.0000 electrons
 Dipole moment (field-independent basis, Debye):
    X=              1.9802    Y=             -0.0444    Z=             -0.1577  Tot=              1.9869
 Quadrupole moment (field-independent basis, Debye-Ang):
   XX=            -92.6003   YY=           -104.3077   ZZ=           -102.0714
   XY=             -2.7075   XZ=            -13.3083   YZ=             -0.9321
 Traceless Quadrupole moment (field-independent basis, Debye-Ang):
   XX=              7.0595   YY=             -4.6479   ZZ=             -2.4116
   XY=             -2.7075   XZ=            -13.3083   YZ=             -0.9321
 Octapole moment (field-independent basis, Debye-Ang**2):
  XXX=             15.0527  YYY=             -6.0181  ZZZ=             11.4587  XYY=              1.7851
  XXY=             -7.5174  XXZ=             16.2178  XZZ=              9.8509  YZZ=             -3.2117
  YYZ=             -0.8110  XYZ=              9.4036
 Hexadecapole moment (field-independent basis, Debye-Ang**3):
 XXXX=          -3853.6550 YYYY=          -1403.9459 ZZZZ=           -597.1742 XXXY=             54.3231
 XXXZ=           -380.3267 YYYX=              3.4809 YYYZ=              3.6054 ZZZX=             14.1055
 ZZZY=             -3.6022 XXYY=           -916.0169 XXZZ=           -775.9268 YYZZ=           -328.7978
 XXYZ=            -32.2765 YYXZ=            -37.4142 ZZXY=              9.1950
 N-N= 1.285677000557D+03 E-N=-4.527722200744D+03  KE= 8.321457332417D+02
 1\1\GINC-CPU-E-827\SP\RM062X\def2TZVP\C13H19F2N1O1\KE291\26-Jun-2019\0
 \\# m062x/def2tzvp int=ultrafine scrf=(solvent=chloroform)\\AT3_1ginp0
 19\\0,1\C,0,-1.964583,2.708413,-0.946085\C,0,-1.416988,1.889803,0.2287
 83\C,0,-1.209926,0.38964,-0.069234\C,0,-2.475306,-0.334861,-0.597095\C
 ,0,-3.6033,-0.396129,0.43696\O,0,-4.77861,-0.876758,-0.221312\N,0,-0.7
 23803,-0.302068,1.140448\C,0,0.60482,0.073996,1.638122\C,0,3.888442,-0
 .411827,-1.178849\C,0,3.528078,0.869365,-0.761647\C,0,2.476563,1.00139
 7,0.139063\C,0,1.758162,-0.07734,0.655425\C,0,2.164297,-1.33198,0.1952
 1\C,0,3.204421,-1.532264,-0.701337\H,0,4.705731,-0.539386,-1.880799\H,
 0,4.041564,1.754746,-1.118389\H,0,3.46334,-2.538666,-1.009339\F,0,2.13
 2723,2.250926,0.542066\F,0,1.491386,-2.414895,0.663726\H,0,-1.365051,2
 .556217,-1.851204\H,0,-3.000661,2.451706,-1.187069\H,0,-1.939965,3.777
 347,-0.711656\H,0,-0.447733,2.313943,0.511135\H,0,-2.066706,2.002145,1
 .104829\H,0,-2.852174,0.264419,-1.434507\H,0,-3.782687,0.601417,0.8626
 33\H,0,-3.316452,-1.057416,1.26639\H,0,-5.465346,-0.983119,0.449465\H,
 0,0.585012,1.103909,1.996338\H,0,0.806325,-0.558517,2.508845\H,0,-0.46
 7891,0.334021,-0.889024\C,0,-2.162482,-1.731861,-1.159324\H,0,-3.05914
 5,-2.16373,-1.609475\H,0,-1.382007,-1.681638,-1.925984\H,0,-1.826925,-
 2.430311,-0.38315\H,0,-0.703916,-1.30094,0.956231\\Version=ES64L-G09Re
 vD.01\State=1-A\HF=-836.4570068\RMSD=9.640e-09\Dipole=0.7790524,-0.017
 4648,-0.0620598\Quadrupole=5.2486001,-3.4556146,-1.7929854,-2.0129605,
 -9.8943806,-0.6930157\PG=C01 [X(C13H19F2N1O1)]\\@


 PENOTUS DIED A HUNDRED YEARS OLD WANTING BUT TWO...
 AND HE USED TO SAY BEFORE HE DIED, HAVING SPENT HIS
 WHOLE LIFE IN VAINLY SEARCHING AFTER THE PHILOSOPHER'S
 STONE, THAT IF HE HAD A MORTAL ENEMY HE DID NOT DARE
 TO ENCOUNTER OPENLY, HE WOULD ADVISE HIM ABOVE ALL
 THINGS TO GIVE HIMSELF UP TO THE STUDY AND PRACTICE
 OF ALCHEMY.  --  NICOLAS LEMERY, M.D.
 "A COURSE OF CHYMISTRY", WALTER KETTILBY, LONDON, 1686
 Job cpu time:       0 days  1 hours 18 minutes 34.1 seconds.
 File lengths (MBytes):  RWF=    319 Int=      0 D2E=      0 Chk=     17 Scr=      1
 Normal termination of Gaussian 09 at Wed Jun 26 12:22:42 2019.
