 Entering Gaussian System, Link 0=/usr/local/Cluster-Apps/gaussian/g09/g09
 Initial command:
 /usr/local/Cluster-Apps/gaussian/g09/l1.exe "/home/ke291/rds/hpc-work/26Jun1158AT3NMR/Gau-272999.inp" -scrdir="/home/ke291/rds/hpc-work/26Jun1158AT3NMR/"
 Entering Link 1 = /usr/local/Cluster-Apps/gaussian/g09/l1.exe PID=    273011.
  
 Copyright (c) 1988,1990,1992,1993,1995,1998,2003,2009,2013,
            Gaussian, Inc.  All Rights Reserved.
  
 This is part of the Gaussian(R) 09 program.  It is based on
 the Gaussian(R) 03 system (copyright 2003, Gaussian, Inc.),
 the Gaussian(R) 98 system (copyright 1998, Gaussian, Inc.),
 the Gaussian(R) 94 system (copyright 1995, Gaussian, Inc.),
 the Gaussian 92(TM) system (copyright 1992, Gaussian, Inc.),
 the Gaussian 90(TM) system (copyright 1990, Gaussian, Inc.),
 the Gaussian 88(TM) system (copyright 1988, Gaussian, Inc.),
 the Gaussian 86(TM) system (copyright 1986, Carnegie Mellon
 University), and the Gaussian 82(TM) system (copyright 1983,
 Carnegie Mellon University). Gaussian is a federally registered
 trademark of Gaussian, Inc.
  
 This software contains proprietary and confidential information,
 including trade secrets, belonging to Gaussian, Inc.
  
 This software is provided under written license and may be
 used, copied, transmitted, or stored only in accord with that
 written license.
  
 The following legend is applicable only to US Government
 contracts under FAR:
  
                    RESTRICTED RIGHTS LEGEND
  
 Use, reproduction and disclosure by the US Government is
 subject to restrictions as set forth in subparagraphs (a)
 and (c) of the Commercial Computer Software - Restricted
 Rights clause in FAR 52.227-19.
  
 Gaussian, Inc.
 340 Quinnipiac St., Bldg. 40, Wallingford CT 06492
  
  
 ---------------------------------------------------------------
 Warning -- This program may not be used in any manner that
 competes with the business of Gaussian, Inc. or will provide
 assistance to any competitor of Gaussian, Inc.  The licensee
 of this program is prohibited from giving any competitor of
 Gaussian, Inc. access to this program.  By using this program,
 the user acknowledges that Gaussian, Inc. is engaged in the
 business of creating and licensing software in the field of
 computational chemistry and represents and warrants to the
 licensee that it is not a competitor of Gaussian, Inc. and that
 it will not use this program in any manner prohibited above.
 ---------------------------------------------------------------
  

 Cite this work as:
 Gaussian 09, Revision D.01,
 M. J. Frisch, G. W. Trucks, H. B. Schlegel, G. E. Scuseria, 
 M. A. Robb, J. R. Cheeseman, G. Scalmani, V. Barone, B. Mennucci, 
 G. A. Petersson, H. Nakatsuji, M. Caricato, X. Li, H. P. Hratchian, 
 A. F. Izmaylov, J. Bloino, G. Zheng, J. L. Sonnenberg, M. Hada, 
 M. Ehara, K. Toyota, R. Fukuda, J. Hasegawa, M. Ishida, T. Nakajima, 
 Y. Honda, O. Kitao, H. Nakai, T. Vreven, J. A. Montgomery, Jr., 
 J. E. Peralta, F. Ogliaro, M. Bearpark, J. J. Heyd, E. Brothers, 
 K. N. Kudin, V. N. Staroverov, T. Keith, R. Kobayashi, J. Normand, 
 K. Raghavachari, A. Rendell, J. C. Burant, S. S. Iyengar, J. Tomasi, 
 M. Cossi, N. Rega, J. M. Millam, M. Klene, J. E. Knox, J. B. Cross, 
 V. Bakken, C. Adamo, J. Jaramillo, R. Gomperts, R. E. Stratmann, 
 O. Yazyev, A. J. Austin, R. Cammi, C. Pomelli, J. W. Ochterski, 
 R. L. Martin, K. Morokuma, V. G. Zakrzewski, G. A. Voth, 
 P. Salvador, J. J. Dannenberg, S. Dapprich, A. D. Daniels, 
 O. Farkas, J. B. Foresman, J. V. Ortiz, J. Cioslowski, 
 and D. J. Fox, Gaussian, Inc., Wallingford CT, 2013.
 
 ******************************************
 Gaussian 09:  ES64L-G09RevD.01 24-Apr-2013
                26-Jun-2019 
 ******************************************
 %nprocshared=4
 Will use up to    4 processors via shared memory.
 %mem=6000MB
 %chk=AT3_2ginp001.chk
 --------------------------------------------------------
 # m062x/def2tzvp int=ultrafine scrf=(solvent=chloroform)
 --------------------------------------------------------
 1/38=1/1;
 2/12=2,17=6,18=5,40=1/2;
 3/5=44,7=101,11=2,16=1,25=1,30=1,70=2201,72=7,74=-55,75=-5/1,2,3;
 4//1;
 5/5=2,38=5,53=7/2;
 6/7=2,8=2,9=2,10=2,28=1/1;
 99/5=1,9=1/99;
 ------------
 AT3_2ginp001
 ------------
 Symbolic Z-matrix:
 Charge =  0 Multiplicity = 1
 C                    -3.96053  -1.85143  -1.17492 
 C                    -2.57475  -1.67382  -0.54328 
 C                    -2.07935  -0.2137   -0.46929 
 C                    -2.98417   0.72961   0.36802 
 C                    -2.52998   2.19648   0.22399 
 O                    -1.28702   2.46969   0.85285 
 N                    -0.6734   -0.10564   0.00397 
 C                     0.34516  -0.53592  -0.97095 
 C                     4.331     0.07427   0.62083 
 C                     3.79923   1.00219  -0.27529 
 C                     2.51847   0.78687  -0.77079 
 C                     1.73681  -0.31781  -0.42758 
 C                     2.32     -1.20664   0.47706 
 C                     3.59208  -1.04502   1.00892 
 H                     5.32779   0.22505   1.0216 
 H                     4.35322   1.87929  -0.5889 
 H                     3.98067  -1.77757   1.70667 
 F                     2.00221   1.68655  -1.63841 
 F                     1.58547  -2.2828    0.85472 
 H                    -4.19974  -2.9134   -1.28884 
 H                    -4.75119  -1.40133  -0.56708 
 H                    -4.00383  -1.39398  -2.16997 
 H                    -2.56811  -2.11116   0.46343 
 H                    -1.84985  -2.25259  -1.12764 
 H                    -3.98614   0.6783   -0.07872 
 H                    -3.27675   2.85373   0.687 
 H                    -2.49911   2.45395  -0.85001 
 H                    -0.72042   1.71245   0.58703 
 H                     0.24196  -1.59094  -1.26082 
 H                     0.21782   0.06541  -1.87405 
 H                    -2.07611   0.18792  -1.493 
 C                    -3.09867   0.33249   1.84797 
 H                    -2.13491   0.41771   2.3584 
 H                    -3.79515   1.00161   2.36405 
 H                    -3.46883  -0.68915   1.97522 
 H                    -0.56227  -0.6625    0.85013 
 
                          Input orientation:                          
 ---------------------------------------------------------------------
 Center     Atomic      Atomic             Coordinates (Angstroms)
 Number     Number       Type             X           Y           Z
 ---------------------------------------------------------------------
      1          6           0       -3.960526   -1.851427   -1.174925
      2          6           0       -2.574754   -1.673818   -0.543280
      3          6           0       -2.079347   -0.213701   -0.469293
      4          6           0       -2.984172    0.729608    0.368022
      5          6           0       -2.529983    2.196477    0.223987
      6          8           0       -1.287022    2.469685    0.852853
      7          7           0       -0.673398   -0.105640    0.003973
      8          6           0        0.345158   -0.535920   -0.970954
      9          6           0        4.331003    0.074274    0.620830
     10          6           0        3.799227    1.002193   -0.275289
     11          6           0        2.518467    0.786865   -0.770792
     12          6           0        1.736813   -0.317811   -0.427575
     13          6           0        2.319998   -1.206639    0.477059
     14          6           0        3.592079   -1.045021    1.008919
     15          1           0        5.327790    0.225053    1.021603
     16          1           0        4.353215    1.879290   -0.588897
     17          1           0        3.980665   -1.777574    1.706670
     18          9           0        2.002214    1.686553   -1.638409
     19          9           0        1.585473   -2.282797    0.854717
     20          1           0       -4.199741   -2.913401   -1.288840
     21          1           0       -4.751186   -1.401332   -0.567076
     22          1           0       -4.003828   -1.393983   -2.169975
     23          1           0       -2.568114   -2.111156    0.463427
     24          1           0       -1.849850   -2.252588   -1.127643
     25          1           0       -3.986138    0.678297   -0.078720
     26          1           0       -3.276752    2.853729    0.686995
     27          1           0       -2.499114    2.453951   -0.850010
     28          1           0       -0.720421    1.712451    0.587031
     29          1           0        0.241955   -1.590939   -1.260815
     30          1           0        0.217817    0.065412   -1.874048
     31          1           0       -2.076110    0.187917   -1.492998
     32          6           0       -3.098672    0.332487    1.847974
     33          1           0       -2.134909    0.417705    2.358395
     34          1           0       -3.795146    1.001615    2.364053
     35          1           0       -3.468831   -0.689154    1.975217
     36          1           0       -0.562273   -0.662498    0.850128
 ---------------------------------------------------------------------
                    Distance matrix (angstroms):
                    1          2          3          4          5
     1  C    0.000000
     2  C    1.533259   0.000000
     3  C    2.592084   1.543646   0.000000
     4  C    3.161597   2.602797   1.552300   0.000000
     5  C    4.515411   3.945870   2.548071   1.542316   0.000000
     6  O    5.470970   4.558076   3.094577   2.478557   1.419531
     7  N    3.904201   2.524643   1.487397   2.483918   2.965646
     8  C    4.506781   3.162847   2.496741   3.805109   4.142501
     9  C    8.699570   7.218065   6.508754   7.348820   7.192660
    10  C    8.316625   6.918127   6.006136   6.819285   6.460224
    11  C    7.007229   5.661062   4.715075   5.619538   5.335114
    12  C    5.947284   4.521256   3.817808   4.900792   4.995170
    13  C    6.526085   5.021747   4.608226   5.647580   5.930224
    14  C    7.903247   6.390191   5.919567   6.841574   6.971590
    15  H    9.767769   8.276761   7.568418   8.352871   8.140473
    16  H    9.131263   7.786104   6.765558   7.488305   6.938285
    17  H    8.448169   6.931562   6.626029   7.522426   7.770455
    18  F    6.948841   5.782736   4.651552   5.459446   4.926393
    19  F    5.921455   4.430885   4.411923   5.494826   6.115447
    20  H    1.094527   2.175548   3.529321   4.182621   5.584585
    21  H    1.094171   2.193552   2.925535   2.921926   4.301599
    22  H    1.096018   2.183277   2.826484   3.462769   4.560118
    23  H    2.165749   1.097619   2.170068   2.872655   4.314451
    24  H    2.148981   1.096331   2.154798   3.523804   4.699326
    25  H    2.757141   2.782133   2.141042   1.098247   2.125297
    26  H    5.106152   4.743950   3.489972   2.167772   1.097279
    27  H    4.558242   4.139841   2.727181   2.166158   1.104860
    28  H    5.128742   4.022806   2.583130   2.477602   1.908035
    29  H    4.211422   2.907847   2.812781   4.294874   4.922682
    30  H    4.649903   3.548847   2.707065   3.964942   4.061231
    31  H    2.794838   2.148643   1.099672   2.140421   2.681110
    32  C    3.827557   3.165098   2.589801   1.536578   2.536770
    33  H    4.578885   3.603838   2.897858   2.186348   2.806388
    34  H    4.548798   4.135201   3.528287   2.171591   2.758299
    35  H    3.393529   2.848116   2.851728   2.197921   3.503585
    36  H    4.130680   2.648478   2.060050   2.834780   3.526709
                    6          7          8          9         10
     6  O    0.000000
     7  N    2.780185   0.000000
     8  C    3.876073   1.474137   0.000000
     9  C    6.111795   5.045484   4.335098   0.000000
    10  C    5.412593   4.616238   3.844520   1.395295   0.000000
    11  C    4.466526   3.403649   2.552077   2.393676   1.390049
    12  C    4.307343   2.457716   1.509813   2.825368   2.453396
    13  C    5.164027   3.224349   2.539015   2.388629   2.762804
    14  C    6.015242   4.481813   3.836871   1.396225   2.425528
    15  H    6.987316   6.095834   5.419962   1.084868   2.149972
    16  H    5.851451   5.436753   4.695075   2.173020   1.083767
    17  H    6.820318   5.230186   4.682765   2.175115   3.418799
    18  F    4.199852   3.615007   2.851441   3.623101   2.357053
    19  F    5.553136   3.250581   2.814789   3.626075   4.119318
    20  H    6.484473   4.689348   5.139025   9.238324   8.963406
    21  H    5.385295   4.316627   5.185053   9.277645   8.886599
    22  H    5.607714   4.180627   4.592124   8.911441   8.379687
    23  H    4.772521   2.796988   3.609151   7.238694   7.126126
    24  H    5.151602   2.697032   2.790978   6.831866   6.575118
    25  H    3.370775   3.405237   4.585906   8.368336   7.794579
    26  H    2.033230   4.000229   5.230368   8.099857   7.377239
    27  H    2.090253   3.257918   4.128418   7.380835   6.488991
    28  H    0.982396   1.909875   2.935634   5.310523   4.655672
    29  H    4.826389   2.154918   1.098970   4.799358   4.511073
    30  H    3.934598   2.085782   1.092426   4.810696   4.032380
    31  H    3.366325   2.072366   2.580506   6.747761   6.055200
    32  C    2.973206   3.078027   4.534363   7.534761   7.248294
    33  H    2.682572   2.820143   4.259659   6.704110   6.518580
    34  H    3.275613   4.067100   5.534293   8.362600   8.039940
    35  H    3.999782   3.469977   4.821817   7.953276   7.794235
    36  H    3.214940   1.019028   2.038576   4.953742   4.802129
                   11         12         13         14         15
    11  C    0.000000
    12  C    1.396098   0.000000
    13  C    2.360208   1.395881   0.000000
    14  C    2.770527   2.456494   1.388231   0.000000
    15  H    3.379439   3.910235   3.375364   2.150800   0.000000
    16  H    2.143077   3.420356   3.846192   3.418178   2.505994
    17  H    3.853854   3.423563   2.143764   1.083739   2.508900
    18  F    1.352300   2.356699   3.598159   4.122804   4.502344
    19  F    3.596607   2.351244   1.356565   2.362697   4.508004
    20  H    7.687305   6.536172   6.966953   8.335646  10.293779
    21  H    7.594574   6.579332   7.150508   8.498282  10.332221
    22  H    7.018130   6.095003   6.858036   8.241659   9.994325
    23  H    5.982903   4.747880   4.971114   6.275523   8.253165
    24  H    5.333649   4.134925   4.588759   5.969733   7.891545
    25  H    6.542220   5.819459   6.605242   7.847430   9.389643
    26  H    6.323103   6.036287   6.917678   7.904728   9.003335
    27  H    5.287870   5.079783   6.195553   7.266433   8.350530
    28  H    3.631912   3.345054   4.216317   5.136078   6.243562
    29  H    3.328150   2.133013   2.736084   4.083265   5.862847
    30  H    2.651539   2.132251   3.400733   4.574954   5.875551
    31  H    4.689398   3.991149   5.015145   6.317285   7.819356
    32  C    6.214229   5.383579   5.797439   6.882419   8.467567
    33  H    5.619786   4.826266   5.101384   6.062924   7.583931
    34  H    7.052310   6.335349   6.769942   7.784356   9.253820
    35  H    6.750328   5.745436   6.001900   7.135603   8.895263
    36  H    3.770808   2.652759   2.956815   4.174947   5.959026
                   16         17         18         19         20
    16  H    0.000000
    17  H    4.333714   0.000000
    18  F    2.581827   5.206150   0.000000
    19  F    5.202633   2.591914   4.705857   0.000000
    20  H    9.829184   8.785342   7.729555   6.201709   0.000000
    21  H    9.677452   9.030875   7.502746   6.553756   1.763913
    22  H    9.113413   8.884123   6.770879   6.417090   1.767318
    23  H    8.058278   6.674087   6.303032   4.175506   2.525122
    24  H    7.472662   6.500298   5.533183   3.966372   2.446354
    25  H    8.440822   8.525777   6.269734   6.378262   3.796092
    26  H    7.797040   8.669418   5.885345   7.074833   6.165681
    27  H    6.881339   8.150457   4.633835   6.482802   5.647404
    28  H    5.210799   5.961047   3.516532   4.620694   6.084658
    29  H    5.421847   4.776898   3.739391   2.599843   4.634475
    30  H    4.695027   5.511548   2.422333   3.851068   5.360095
    31  H    6.709274   7.126398   4.347388   5.002338   3.764261
    32  C    7.991343   7.388460   6.325140   5.455959   4.646261
    33  H    7.274511   6.530256   5.890688   4.836838   5.353702
    34  H    8.711258   8.283676   7.078010   6.482015   5.369793
    35  H    8.622992   7.533377   6.973852   5.416752   4.016911
    36  H    5.717823   4.755559   4.276383   2.690391   4.782564
                   21         22         23         24         25
    21  H    0.000000
    22  H    1.768582   0.000000
    23  H    2.516265   3.083897   0.000000
    24  H    3.075162   2.542298   1.751402   0.000000
    25  H    2.269063   2.944148   3.175809   3.775454   0.000000
    26  H    4.674633   5.170491   5.020183   5.603877   2.412893
    27  H    4.473822   4.337403   4.750798   4.759216   2.441122
    28  H    5.222516   5.294504   4.248437   4.465115   3.489643
    29  H    5.044669   4.346497   3.337682   2.197991   4.942019
    30  H    5.343267   4.476572   4.238237   3.194603   4.612165
    31  H    3.246394   2.583951   3.058660   2.478052   2.426698
    32  C    3.401382   4.465862   2.858296   4.134787   2.149263
    33  H    4.325758   5.223141   3.189625   4.400475   3.071561
    34  H    3.908924   5.132236   3.848029   5.154217   2.471468
    35  H    2.935113   4.238587   2.262496   3.833167   2.521148
    36  H    4.483451   4.636852   2.504305   2.845667   3.792538
                   26         27         28         29         30
    26  H    0.000000
    27  H    1.768312   0.000000
    28  H    2.801310   2.403884   0.000000
    29  H    5.994192   4.903402   3.905520   0.000000
    30  H    5.152249   3.759719   3.106435   1.766391   0.000000
    31  H    3.646980   2.393173   2.913523   2.931154   2.328585
    32  C    2.781411   3.484135   3.024955   4.952164   4.992382
    33  H    3.167270   3.817434   2.610531   4.773135   4.855204
    34  H    2.551780   3.757550   3.621744   6.013251   5.911163
    35  H    3.774709   4.336054   3.904936   5.005502   5.383083
    36  H    4.445094   4.044017   2.394705   2.442307   2.925667
                   31         32         33         34         35
    31  H    0.000000
    32  C    3.496945   0.000000
    33  H    3.858690   1.093906   0.000000
    34  H    4.300469   1.095055   1.759935   0.000000
    35  H    3.838937   1.094056   1.775193   1.765326   0.000000
    36  H    2.916359   2.901553   2.432055   3.938618   3.116828
                   36
    36  H    0.000000
 Stoichiometry    C13H19F2NO
 Framework group  C1[X(C13H19F2NO)]
 Deg. of freedom   102
 Full point group                 C1      NOp   1
 Largest Abelian subgroup         C1      NOp   1
 Largest concise Abelian subgroup C1      NOp   1
                         Standard orientation:                         
 ---------------------------------------------------------------------
 Center     Atomic      Atomic             Coordinates (Angstroms)
 Number     Number       Type             X           Y           Z
 ---------------------------------------------------------------------
      1          6           0       -3.960526   -1.851427   -1.174925
      2          6           0       -2.574754   -1.673818   -0.543280
      3          6           0       -2.079347   -0.213701   -0.469293
      4          6           0       -2.984172    0.729608    0.368022
      5          6           0       -2.529983    2.196477    0.223987
      6          8           0       -1.287022    2.469685    0.852853
      7          7           0       -0.673398   -0.105640    0.003973
      8          6           0        0.345158   -0.535920   -0.970954
      9          6           0        4.331003    0.074274    0.620830
     10          6           0        3.799227    1.002193   -0.275289
     11          6           0        2.518467    0.786865   -0.770792
     12          6           0        1.736813   -0.317811   -0.427575
     13          6           0        2.319998   -1.206639    0.477059
     14          6           0        3.592079   -1.045021    1.008919
     15          1           0        5.327790    0.225053    1.021603
     16          1           0        4.353215    1.879290   -0.588897
     17          1           0        3.980665   -1.777574    1.706670
     18          9           0        2.002214    1.686553   -1.638409
     19          9           0        1.585473   -2.282797    0.854717
     20          1           0       -4.199741   -2.913401   -1.288840
     21          1           0       -4.751186   -1.401332   -0.567076
     22          1           0       -4.003828   -1.393983   -2.169975
     23          1           0       -2.568114   -2.111156    0.463427
     24          1           0       -1.849850   -2.252588   -1.127643
     25          1           0       -3.986138    0.678297   -0.078720
     26          1           0       -3.276752    2.853729    0.686995
     27          1           0       -2.499114    2.453951   -0.850010
     28          1           0       -0.720421    1.712451    0.587031
     29          1           0        0.241955   -1.590939   -1.260815
     30          1           0        0.217817    0.065412   -1.874048
     31          1           0       -2.076110    0.187917   -1.492998
     32          6           0       -3.098672    0.332487    1.847974
     33          1           0       -2.134909    0.417705    2.358395
     34          1           0       -3.795146    1.001615    2.364053
     35          1           0       -3.468831   -0.689154    1.975217
     36          1           0       -0.562273   -0.662498    0.850128
 ---------------------------------------------------------------------
 Rotational constants (GHZ):      0.7034123      0.2626856      0.2295229
 Standard basis: def2TZVP (5D, 7F)
 There are   726 symmetry adapted cartesian basis functions of A   symmetry.
 There are   641 symmetry adapted basis functions of A   symmetry.
   641 basis functions,  1019 primitive gaussians,   726 cartesian basis functions
    65 alpha electrons       65 beta electrons
       nuclear repulsion energy      1274.7271506320 Hartrees.
 NAtoms=   36 NActive=   36 NUniq=   36 SFac= 1.00D+00 NAtFMM=   60 NAOKFM=F Big=F
 Integral buffers will be    131072 words long.
 Raffenetti 2 integral format.
 Two-electron integral symmetry is turned on.
 ------------------------------------------------------------------------------
 Polarizable Continuum Model (PCM)
 =================================
 Model                : PCM (using non-symmetric T matrix).
 Atomic radii         : UFF (Universal Force Field).
 Polarization charges : Total charges.
 Charge compensation  : None.
 Solution method      : On-the-fly selection.
 Cavity type          : Scaled VdW (van der Waals Surface) (Alpha=1.100).
 Cavity algorithm     : GePol (No added spheres)
                        Default sphere list used, NSphG=   36.
                        Lebedev-Laikov grids with approx.  5.0 points / Ang**2.
                        Smoothing algorithm: Karplus/York (Gamma=1.0000).
                        Polarization charges: spherical gaussians, with
                                              point-specific exponents (IZeta= 3).
                        Self-potential: point-specific (ISelfS= 7).
                        Self-field    : sphere-specific E.n sum rule (ISelfD= 2).
 Solvent              : Chloroform, Eps=   4.711300 Eps(inf)=   2.090627
 ------------------------------------------------------------------------------
 One-electron integrals computed using PRISM.
   1 Symmetry operations used in ECPInt.
 ECPInt:  NShTT=   34716 NPrTT=  103716 LenC2=   31062 LenP2D=   67398.
 LDataN:  DoStor=T MaxTD1= 6 Len=  172
 NBasis=   641 RedAO= T EigKep=  1.17D-05  NBF=   641
 NBsUse=   641 1.00D-06 EigRej= -1.00D+00 NBFU=   641
 ExpMin= 9.52D-02 ExpMax= 3.55D+04 ExpMxC= 1.21D+03 IAcc=3 IRadAn=         5 AccDes= 0.00D+00
 Harris functional with IExCor= 1009 and IRadAn=       5 diagonalized for initial guess.
 HarFok:  IExCor= 1009 AccDes= 0.00D+00 IRadAn=         5 IDoV= 1 UseB2=F ITyADJ=14
 ICtDFT=  3500011 ScaDFX=  1.000000  1.000000  1.000000  1.000000
 FoFCou: FMM=F IPFlag=           0 FMFlag=      100000 FMFlg1=           0
         NFxFlg=           0 DoJE=T BraDBF=F KetDBF=T FulRan=T
         wScrn=  0.000000 ICntrl=     500 IOpCl=  0 I1Cent=   200000004 NGrid=           0
         NMat0=    1 NMatS0=      1 NMatT0=    0 NMatD0=    1 NMtDS0=    0 NMtDT0=    0
 Petite list used in FoFCou.
 Requested convergence on RMS density matrix=1.00D-08 within 128 cycles.
 Requested convergence on MAX density matrix=1.00D-06.
 Requested convergence on             energy=1.00D-06.
 No special actions if energy rises.
 Inv3:  Mode=1 IEnd=    19293888.
 Iteration    1 A*A^-1 deviation from unit magnitude is 4.55D-15 for   2532.
 Iteration    1 A*A^-1 deviation from orthogonality  is 2.89D-15 for   2299   1038.
 Iteration    1 A^-1*A deviation from unit magnitude is 4.55D-15 for   2530.
 Iteration    1 A^-1*A deviation from orthogonality  is 2.00D-11 for   2535   2480.
 Error on total polarization charges =  0.01260
 SCF Done:  E(RM062X) =  -836.461668684     A.U. after   12 cycles
            NFock= 12  Conv=0.84D-08     -V/T= 2.0052

 **********************************************************************

            Population analysis using the SCF density.

 **********************************************************************

 Orbital symmetries:
       Occupied  (A) (A) (A) (A) (A) (A) (A) (A) (A) (A) (A) (A)
                 (A) (A) (A) (A) (A) (A) (A) (A) (A) (A) (A) (A)
                 (A) (A) (A) (A) (A) (A) (A) (A) (A) (A) (A) (A)
                 (A) (A) (A) (A) (A) (A) (A) (A) (A) (A) (A) (A)
                 (A) (A) (A) (A) (A) (A) (A) (A) (A) (A) (A) (A)
                 (A) (A) (A) (A) (A)
       Virtual   (A) (A) (A) (A) (A) (A) (A) (A) (A) (A) (A) (A)
                 (A) (A) (A) (A) (A) (A) (A) (A) (A) (A) (A) (A)
                 (A) (A) (A) (A) (A) (A) (A) (A) (A) (A) (A) (A)
                 (A) (A) (A) (A) (A) (A) (A) (A) (A) (A) (A) (A)
                 (A) (A) (A) (A) (A) (A) (A) (A) (A) (A) (A) (A)
                 (A) (A) (A) (A) (A) (A) (A) (A) (A) (A) (A) (A)
                 (A) (A) (A) (A) (A) (A) (A) (A) (A) (A) (A) (A)
                 (A) (A) (A) (A) (A) (A) (A) (A) (A) (A) (A) (A)
                 (A) (A) (A) (A) (A) (A) (A) (A) (A) (A) (A) (A)
                 (A) (A) (A) (A) (A) (A) (A) (A) (A) (A) (A) (A)
                 (A) (A) (A) (A) (A) (A) (A) (A) (A) (A) (A) (A)
                 (A) (A) (A) (A) (A) (A) (A) (A) (A) (A) (A) (A)
                 (A) (A) (A) (A) (A) (A) (A) (A) (A) (A) (A) (A)
                 (A) (A) (A) (A) (A) (A) (A) (A) (A) (A) (A) (A)
                 (A) (A) (A) (A) (A) (A) (A) (A) (A) (A) (A) (A)
                 (A) (A) (A) (A) (A) (A) (A) (A) (A) (A) (A) (A)
                 (A) (A) (A) (A) (A) (A) (A) (A) (A) (A) (A) (A)
                 (A) (A) (A) (A) (A) (A) (A) (A) (A) (A) (A) (A)
                 (A) (A) (A) (A) (A) (A) (A) (A) (A) (A) (A) (A)
                 (A) (A) (A) (A) (A) (A) (A) (A) (A) (A) (A) (A)
                 (A) (A) (A) (A) (A) (A) (A) (A) (A) (A) (A) (A)
                 (A) (A) (A) (A) (A) (A) (A) (A) (A) (A) (A) (A)
                 (A) (A) (A) (A) (A) (A) (A) (A) (A) (A) (A) (A)
                 (A) (A) (A) (A) (A) (A) (A) (A) (A) (A) (A) (A)
                 (A) (A) (A) (A) (A) (A) (A) (A) (A) (A) (A) (A)
                 (A) (A) (A) (A) (A) (A) (A) (A) (A) (A) (A) (A)
                 (A) (A) (A) (A) (A) (A) (A) (A) (A) (A) (A) (A)
                 (A) (A) (A) (A) (A) (A) (A) (A) (A) (A) (A) (A)
                 (A) (A) (A) (A) (A) (A) (A) (A) (A) (A) (A) (A)
                 (A) (A) (A) (A) (A) (A) (A) (A) (A) (A) (A) (A)
                 (A) (A) (A) (A) (A) (A) (A) (A) (A) (A) (A) (A)
                 (A) (A) (A) (A) (A) (A) (A) (A) (A) (A) (A) (A)
                 (A) (A) (A) (A) (A) (A) (A) (A) (A) (A) (A) (A)
                 (A) (A) (A) (A) (A) (A) (A) (A) (A) (A) (A) (A)
                 (A) (A) (A) (A) (A) (A) (A) (A) (A) (A) (A) (A)
                 (A) (A) (A) (A) (A) (A) (A) (A) (A) (A) (A) (A)
                 (A) (A) (A) (A) (A) (A) (A) (A) (A) (A) (A) (A)
                 (A) (A) (A) (A) (A) (A) (A) (A) (A) (A) (A) (A)
                 (A) (A) (A) (A) (A) (A) (A) (A) (A) (A) (A) (A)
                 (A) (A) (A) (A) (A) (A) (A) (A) (A) (A) (A) (A)
                 (A) (A) (A) (A) (A) (A) (A) (A) (A) (A) (A) (A)
                 (A) (A) (A) (A) (A) (A) (A) (A) (A) (A) (A) (A)
                 (A) (A) (A) (A) (A) (A) (A) (A) (A) (A) (A) (A)
                 (A) (A) (A) (A) (A) (A) (A) (A) (A) (A) (A) (A)
                 (A) (A) (A) (A) (A) (A) (A) (A) (A) (A) (A) (A)
                 (A) (A) (A) (A) (A) (A) (A) (A) (A) (A) (A) (A)
                 (A) (A) (A) (A) (A) (A) (A) (A) (A) (A) (A) (A)
                 (A) (A) (A) (A) (A) (A) (A) (A) (A) (A) (A) (A)
 The electronic state is 1-A.
 Alpha  occ. eigenvalues --  -25.27133 -25.26830 -19.59937 -14.75157 -10.64456
 Alpha  occ. eigenvalues --  -10.64448 -10.58216 -10.57224 -10.57170 -10.57098
 Alpha  occ. eigenvalues --  -10.56700 -10.55900 -10.55828 -10.53897 -10.53473
 Alpha  occ. eigenvalues --  -10.52712 -10.52199  -1.38345  -1.38161  -1.12249
 Alpha  occ. eigenvalues --   -1.02931  -0.98439  -0.90797  -0.87434  -0.86204
 Alpha  occ. eigenvalues --   -0.85405  -0.78968  -0.76577  -0.74237  -0.72904
 Alpha  occ. eigenvalues --   -0.70768  -0.69325  -0.65570  -0.63930  -0.62345
 Alpha  occ. eigenvalues --   -0.58856  -0.58105  -0.57553  -0.57388  -0.56693
 Alpha  occ. eigenvalues --   -0.55532  -0.54654  -0.54225  -0.53122  -0.51973
 Alpha  occ. eigenvalues --   -0.49501  -0.48758  -0.48255  -0.47783  -0.46723
 Alpha  occ. eigenvalues --   -0.46276  -0.45121  -0.44119  -0.43598  -0.43296
 Alpha  occ. eigenvalues --   -0.42817  -0.42172  -0.41410  -0.38975  -0.38299
 Alpha  occ. eigenvalues --   -0.37746  -0.33245  -0.32030  -0.31427  -0.30238
 Alpha virt. eigenvalues --    0.00240   0.01701   0.05911   0.06962   0.07922
 Alpha virt. eigenvalues --    0.08830   0.09023   0.10747   0.11420   0.12214
 Alpha virt. eigenvalues --    0.12509   0.12551   0.13394   0.13950   0.14206
 Alpha virt. eigenvalues --    0.14922   0.15240   0.15779   0.17012   0.17138
 Alpha virt. eigenvalues --    0.17470   0.17701   0.18062   0.19153   0.19887
 Alpha virt. eigenvalues --    0.20525   0.20997   0.21751   0.21841   0.22199
 Alpha virt. eigenvalues --    0.22853   0.23472   0.24513   0.24709   0.24975
 Alpha virt. eigenvalues --    0.25433   0.26630   0.27250   0.27842   0.28373
 Alpha virt. eigenvalues --    0.29171   0.29761   0.29999   0.31158   0.31847
 Alpha virt. eigenvalues --    0.32400   0.33165   0.33482   0.34237   0.35176
 Alpha virt. eigenvalues --    0.36307   0.36927   0.37187   0.37379   0.37937
 Alpha virt. eigenvalues --    0.38124   0.38889   0.39381   0.39699   0.40420
 Alpha virt. eigenvalues --    0.40821   0.41329   0.41887   0.42100   0.42778
 Alpha virt. eigenvalues --    0.43888   0.44054   0.44535   0.44873   0.45111
 Alpha virt. eigenvalues --    0.45358   0.46627   0.46871   0.47315   0.47658
 Alpha virt. eigenvalues --    0.47992   0.48467   0.48810   0.48906   0.49753
 Alpha virt. eigenvalues --    0.50373   0.50771   0.50954   0.52280   0.52888
 Alpha virt. eigenvalues --    0.53111   0.53760   0.54134   0.54396   0.54853
 Alpha virt. eigenvalues --    0.55168   0.56259   0.56940   0.57504   0.57912
 Alpha virt. eigenvalues --    0.58333   0.59506   0.59639   0.61172   0.61866
 Alpha virt. eigenvalues --    0.62734   0.64118   0.64788   0.65669   0.66548
 Alpha virt. eigenvalues --    0.67603   0.68946   0.69525   0.69760   0.71032
 Alpha virt. eigenvalues --    0.71619   0.72014   0.73224   0.74662   0.76057
 Alpha virt. eigenvalues --    0.77221   0.77316   0.78261   0.79264   0.79561
 Alpha virt. eigenvalues --    0.80580   0.80788   0.82219   0.83425   0.84575
 Alpha virt. eigenvalues --    0.84928   0.85847   0.87053   0.88668   0.89289
 Alpha virt. eigenvalues --    0.89867   0.90277   0.91016   0.92434   0.92490
 Alpha virt. eigenvalues --    0.93457   0.94328   0.95437   0.96368   0.96815
 Alpha virt. eigenvalues --    0.98569   0.98879   0.99789   1.00312   1.02075
 Alpha virt. eigenvalues --    1.02340   1.03278   1.04439   1.05237   1.07575
 Alpha virt. eigenvalues --    1.07711   1.08615   1.09473   1.10752   1.11889
 Alpha virt. eigenvalues --    1.12592   1.13294   1.13940   1.14798   1.16452
 Alpha virt. eigenvalues --    1.18068   1.18293   1.19233   1.19775   1.20565
 Alpha virt. eigenvalues --    1.21140   1.23220   1.24034   1.24326   1.25343
 Alpha virt. eigenvalues --    1.26234   1.26925   1.27821   1.28985   1.30051
 Alpha virt. eigenvalues --    1.31870   1.32296   1.33351   1.34597   1.35859
 Alpha virt. eigenvalues --    1.36737   1.37748   1.38691   1.40244   1.41412
 Alpha virt. eigenvalues --    1.43346   1.44937   1.46854   1.47458   1.49066
 Alpha virt. eigenvalues --    1.49515   1.51500   1.52721   1.53460   1.54033
 Alpha virt. eigenvalues --    1.55792   1.56616   1.56878   1.57612   1.58317
 Alpha virt. eigenvalues --    1.58481   1.59900   1.61122   1.62101   1.62533
 Alpha virt. eigenvalues --    1.62747   1.63764   1.64144   1.64351   1.65538
 Alpha virt. eigenvalues --    1.65982   1.66885   1.68171   1.68354   1.69507
 Alpha virt. eigenvalues --    1.70435   1.70458   1.70977   1.72128   1.72398
 Alpha virt. eigenvalues --    1.73616   1.74691   1.76474   1.77223   1.79562
 Alpha virt. eigenvalues --    1.80424   1.80486   1.82316   1.85252   1.86189
 Alpha virt. eigenvalues --    1.86795   1.87361   1.89347   1.90013   1.91405
 Alpha virt. eigenvalues --    1.91783   1.92616   1.93293   1.94513   1.96327
 Alpha virt. eigenvalues --    1.97778   1.98072   1.99770   2.00081   2.01260
 Alpha virt. eigenvalues --    2.03335   2.04597   2.05669   2.06153   2.07722
 Alpha virt. eigenvalues --    2.08448   2.10245   2.10715   2.11591   2.12441
 Alpha virt. eigenvalues --    2.13211   2.15158   2.15435   2.15878   2.16382
 Alpha virt. eigenvalues --    2.17244   2.18666   2.19436   2.20584   2.20876
 Alpha virt. eigenvalues --    2.22062   2.23681   2.25030   2.26570   2.28488
 Alpha virt. eigenvalues --    2.29211   2.29598   2.30712   2.31325   2.31973
 Alpha virt. eigenvalues --    2.32436   2.33929   2.35369   2.36177   2.36912
 Alpha virt. eigenvalues --    2.37764   2.37936   2.38843   2.41475   2.41987
 Alpha virt. eigenvalues --    2.43782   2.44212   2.44642   2.45496   2.46323
 Alpha virt. eigenvalues --    2.47541   2.48325   2.49668   2.50560   2.51600
 Alpha virt. eigenvalues --    2.52892   2.53885   2.54714   2.55655   2.56525
 Alpha virt. eigenvalues --    2.57577   2.58509   2.58585   2.59111   2.59401
 Alpha virt. eigenvalues --    2.60767   2.61074   2.61926   2.62312   2.62920
 Alpha virt. eigenvalues --    2.63591   2.64620   2.64979   2.65370   2.66725
 Alpha virt. eigenvalues --    2.67106   2.68566   2.68738   2.69491   2.69821
 Alpha virt. eigenvalues --    2.71650   2.72112   2.73014   2.74351   2.75552
 Alpha virt. eigenvalues --    2.76470   2.76535   2.78453   2.78652   2.79371
 Alpha virt. eigenvalues --    2.80440   2.80872   2.81767   2.82722   2.83170
 Alpha virt. eigenvalues --    2.84950   2.86169   2.87802   2.88217   2.89054
 Alpha virt. eigenvalues --    2.90360   2.90961   2.91757   2.92307   2.93821
 Alpha virt. eigenvalues --    2.94545   2.95543   2.96650   2.97444   2.99421
 Alpha virt. eigenvalues --    3.00450   3.00967   3.02134   3.02677   3.04338
 Alpha virt. eigenvalues --    3.05065   3.05888   3.06798   3.07647   3.08549
 Alpha virt. eigenvalues --    3.09221   3.09590   3.10845   3.11615   3.12591
 Alpha virt. eigenvalues --    3.13359   3.14501   3.15391   3.16058   3.16836
 Alpha virt. eigenvalues --    3.17769   3.18484   3.19520   3.19784   3.20958
 Alpha virt. eigenvalues --    3.21423   3.22533   3.23728   3.24054   3.25029
 Alpha virt. eigenvalues --    3.25413   3.26192   3.26642   3.27687   3.29396
 Alpha virt. eigenvalues --    3.29972   3.30897   3.31609   3.32115   3.32769
 Alpha virt. eigenvalues --    3.34145   3.34798   3.35799   3.36303   3.37349
 Alpha virt. eigenvalues --    3.38467   3.39513   3.40421   3.41547   3.42192
 Alpha virt. eigenvalues --    3.43353   3.43875   3.44452   3.44908   3.46083
 Alpha virt. eigenvalues --    3.46696   3.47107   3.48504   3.49759   3.50602
 Alpha virt. eigenvalues --    3.52549   3.53505   3.53907   3.54604   3.54772
 Alpha virt. eigenvalues --    3.55103   3.56426   3.57276   3.57804   3.59373
 Alpha virt. eigenvalues --    3.60165   3.61214   3.62034   3.62540   3.63323
 Alpha virt. eigenvalues --    3.65347   3.67313   3.68187   3.68896   3.70149
 Alpha virt. eigenvalues --    3.72693   3.74133   3.76123   3.77646   3.78512
 Alpha virt. eigenvalues --    3.79379   3.82181   3.83681   3.85362   3.86695
 Alpha virt. eigenvalues --    3.87742   3.90125   3.90827   3.93197   3.93541
 Alpha virt. eigenvalues --    3.95819   3.96927   3.99599   4.00576   4.01479
 Alpha virt. eigenvalues --    4.02804   4.04214   4.04389   4.05670   4.06961
 Alpha virt. eigenvalues --    4.07824   4.09255   4.10963   4.12283   4.13019
 Alpha virt. eigenvalues --    4.14186   4.15210   4.15503   4.17188   4.18168
 Alpha virt. eigenvalues --    4.19943   4.20152   4.20663   4.23660   4.24406
 Alpha virt. eigenvalues --    4.24693   4.28561   4.29984   4.33742   4.34693
 Alpha virt. eigenvalues --    4.35492   4.36170   4.38791   4.39142   4.40048
 Alpha virt. eigenvalues --    4.42784   4.44601   4.45918   4.48343   4.49557
 Alpha virt. eigenvalues --    4.53579   4.54632   4.56099   4.56530   4.59227
 Alpha virt. eigenvalues --    4.62725   4.64131   4.64518   4.64924   4.68598
 Alpha virt. eigenvalues --    4.74327   4.75996   4.77350   4.78334   4.83471
 Alpha virt. eigenvalues --    4.84592   4.88740   4.90495   4.95004   4.96770
 Alpha virt. eigenvalues --    5.01063   5.05042   5.08376   5.11348   5.11630
 Alpha virt. eigenvalues --    5.16187   5.20761   5.25576   5.29681   5.31331
 Alpha virt. eigenvalues --    5.32876   5.36951   5.40407   5.42719   5.43589
 Alpha virt. eigenvalues --    5.50352   5.53294   5.58253   5.62153   5.66002
 Alpha virt. eigenvalues --    5.72913   5.78999   5.85935   5.95141   6.26786
 Alpha virt. eigenvalues --    6.51583   6.74657   6.78214   6.90052   6.90472
 Alpha virt. eigenvalues --    6.90987   6.92200   6.98815   6.99607   7.00531
 Alpha virt. eigenvalues --    7.08223   7.09869   7.18909   7.21600   7.24328
 Alpha virt. eigenvalues --    7.36200   7.39316   7.53779   7.55887   8.35807
 Alpha virt. eigenvalues --    8.36891   8.53543   8.55568   8.74106   8.75200
 Alpha virt. eigenvalues --    8.96347   8.96460   8.99496   9.01326  22.21569
 Alpha virt. eigenvalues --   22.42806  22.50169  22.54678  22.61411  22.63851
 Alpha virt. eigenvalues --   22.73829  22.74180  22.76284  22.77459  22.93785
 Alpha virt. eigenvalues --   23.02451  23.47914  32.61572  44.07183  57.49518
 Alpha virt. eigenvalues --   57.56517
          Condensed to atoms (all electrons):
               1          2          3          4          5          6
     1  C    5.093777   0.214861  -0.056698   0.032190  -0.000147   0.000155
     2  C    0.214861   5.256233   0.217910  -0.051244   0.009393  -0.000320
     3  C   -0.056698   0.217910   5.516751   0.118140  -0.031214  -0.007577
     4  C    0.032190  -0.051244   0.118140   5.474596   0.287585  -0.036029
     5  C   -0.000147   0.009393  -0.031214   0.287585   4.865458   0.225065
     6  O    0.000155  -0.000320  -0.007577  -0.036029   0.225065   8.163601
     7  N    0.011391  -0.050121   0.119811  -0.042558   0.015136  -0.058229
     8  C    0.000359  -0.006016  -0.041709   0.005812  -0.002829   0.006426
     9  C    0.000000   0.000003  -0.000005   0.000007  -0.000002  -0.000024
    10  C    0.000000   0.000000  -0.000090  -0.000058   0.000052   0.000200
    11  C   -0.000022  -0.000393  -0.000485  -0.001100   0.000638   0.000995
    12  C   -0.000076   0.001541   0.005443   0.000197  -0.000257  -0.001651
    13  C   -0.000001   0.001117   0.000190   0.001051  -0.000209  -0.000053
    14  C    0.000003   0.000008   0.000021  -0.000006  -0.000007   0.000040
    15  H    0.000000   0.000000   0.000000   0.000000   0.000000   0.000000
    16  H    0.000000   0.000000  -0.000001   0.000000   0.000000   0.000001
    17  H    0.000000   0.000000  -0.000002   0.000000   0.000000   0.000000
    18  F    0.000000   0.000006  -0.000221   0.000011   0.000072  -0.000205
    19  F    0.000013   0.000131  -0.000376   0.000116   0.000001   0.000000
    20  H    0.415796  -0.044341   0.012638  -0.000418   0.000001   0.000000
    21  H    0.422604  -0.039221  -0.020964   0.016709   0.000709  -0.000016
    22  H    0.411338  -0.048110   0.010169  -0.010171  -0.000223  -0.000002
    23  H   -0.039867   0.416499  -0.019102  -0.025115  -0.000882  -0.000012
    24  H   -0.033104   0.441152  -0.066302   0.011683  -0.000294   0.000002
    25  H   -0.000367  -0.012399  -0.058569   0.449247  -0.036758   0.006373
    26  H    0.000161  -0.001009   0.016131  -0.053506   0.433499  -0.038777
    27  H   -0.000200   0.001814  -0.013282  -0.059587   0.426038  -0.047557
    28  H   -0.000180   0.001019  -0.003451  -0.008110  -0.040162   0.311113
    29  H   -0.001222  -0.002744   0.005325  -0.001528   0.000170  -0.000260
    30  H    0.000441  -0.001217   0.005451   0.001930  -0.000788   0.000137
    31  H   -0.002283  -0.045858   0.464204  -0.050075  -0.011956   0.000264
    32  C   -0.011061   0.015961  -0.030656   0.198077  -0.053030  -0.006391
    33  H    0.000278  -0.001642  -0.013625  -0.030020  -0.015483   0.013393
    34  H    0.000363  -0.000987   0.010854  -0.041165  -0.003021  -0.000178
    35  H   -0.003027   0.007036  -0.006755  -0.045093   0.008204   0.000684
    36  H    0.001285  -0.009235  -0.027761  -0.002294  -0.001605   0.001422
               7          8          9         10         11         12
     1  C    0.011391   0.000359   0.000000   0.000000  -0.000022  -0.000076
     2  C   -0.050121  -0.006016   0.000003   0.000000  -0.000393   0.001541
     3  C    0.119811  -0.041709  -0.000005  -0.000090  -0.000485   0.005443
     4  C   -0.042558   0.005812   0.000007  -0.000058  -0.001100   0.000197
     5  C    0.015136  -0.002829  -0.000002   0.000052   0.000638  -0.000257
     6  O   -0.058229   0.006426  -0.000024   0.000200   0.000995  -0.001651
     7  N    7.084877   0.169145   0.000998  -0.001108   0.018640  -0.051730
     8  C    0.169145   5.155856  -0.008504   0.012403  -0.081348   0.270644
     9  C    0.000998  -0.008504   5.063255   0.400335  -0.004701  -0.095835
    10  C   -0.001108   0.012403   0.400335   5.083168   0.504631   0.016245
    11  C    0.018640  -0.081348  -0.004701   0.504631   4.829044   0.274420
    12  C   -0.051730   0.270644  -0.095835   0.016245   0.274420   5.589530
    13  C    0.010237  -0.094277   0.006443  -0.099840   0.045541   0.250403
    14  C   -0.001607   0.014566   0.391441  -0.007026  -0.093598   0.035524
    15  H    0.000000   0.000093   0.401926  -0.022631   0.001479  -0.000106
    16  H    0.000007  -0.000309  -0.032144   0.412300  -0.039499   0.012796
    17  H    0.000010  -0.000112  -0.032243   0.004390  -0.001042   0.013459
    18  F   -0.000523   0.009560   0.010052  -0.048961   0.247516  -0.076532
    19  F   -0.003127   0.017132   0.010276  -0.001323   0.007227  -0.084863
    20  H   -0.000510  -0.000052   0.000000   0.000000   0.000001   0.000000
    21  H   -0.000263  -0.000026   0.000000   0.000000   0.000000   0.000001
    22  H    0.000132  -0.000007   0.000000   0.000000   0.000000   0.000004
    23  H   -0.002235  -0.001277  -0.000002   0.000001   0.000036   0.000168
    24  H   -0.002735   0.000931  -0.000001   0.000002  -0.000218   0.000322
    25  H    0.006400  -0.000528   0.000000   0.000000  -0.000013   0.000081
    26  H   -0.000143   0.000361   0.000000   0.000002   0.000023  -0.000045
    27  H   -0.001271  -0.002500   0.000001  -0.000029  -0.000509   0.000745
    28  H    0.041955  -0.000689   0.000088  -0.000175   0.001553  -0.004167
    29  H   -0.057518   0.412721   0.000618  -0.000631   0.013022  -0.026334
    30  H   -0.038252   0.436340  -0.000422  -0.000261  -0.025642  -0.034592
    31  H   -0.037962  -0.013355  -0.000003   0.000005   0.000240  -0.000125
    32  C   -0.003477  -0.000038  -0.000001   0.000000   0.000023  -0.000015
    33  H    0.009104  -0.000175   0.000007  -0.000019  -0.000064   0.000331
    34  H   -0.000305   0.000035   0.000000   0.000000   0.000000   0.000007
    35  H   -0.001161  -0.000191   0.000000   0.000000  -0.000004  -0.000035
    36  H    0.359566  -0.029987  -0.000291   0.000281   0.000841  -0.010245
              13         14         15         16         17         18
     1  C   -0.000001   0.000003   0.000000   0.000000   0.000000   0.000000
     2  C    0.001117   0.000008   0.000000   0.000000   0.000000   0.000006
     3  C    0.000190   0.000021   0.000000  -0.000001  -0.000002  -0.000221
     4  C    0.001051  -0.000006   0.000000   0.000000   0.000000   0.000011
     5  C   -0.000209  -0.000007   0.000000   0.000000   0.000000   0.000072
     6  O   -0.000053   0.000040   0.000000   0.000001   0.000000  -0.000205
     7  N    0.010237  -0.001607   0.000000   0.000007   0.000010  -0.000523
     8  C   -0.094277   0.014566   0.000093  -0.000309  -0.000112   0.009560
     9  C    0.006443   0.391441   0.401926  -0.032144  -0.032243   0.010052
    10  C   -0.099840  -0.007026  -0.022631   0.412300   0.004390  -0.048961
    11  C    0.045541  -0.093598   0.001479  -0.039499  -0.001042   0.247516
    12  C    0.250403   0.035524  -0.000106   0.012796   0.013459  -0.076532
    13  C    4.897084   0.464231   0.002091  -0.000572  -0.043571   0.008017
    14  C    0.464231   5.109771  -0.023920   0.003848   0.415703  -0.000942
    15  H    0.002091  -0.023920   0.474146  -0.003122  -0.003186  -0.000105
    16  H   -0.000572   0.003848  -0.003122   0.472526  -0.000149   0.001296
    17  H   -0.043571   0.415703  -0.003186  -0.000149   0.472007   0.000009
    18  F    0.008017  -0.000942  -0.000105   0.001296   0.000009   9.054603
    19  F    0.254364  -0.052540  -0.000097   0.000010   0.001293  -0.000034
    20  H   -0.000001   0.000000   0.000000   0.000000   0.000000   0.000000
    21  H    0.000001   0.000000   0.000000   0.000000   0.000000   0.000000
    22  H   -0.000001   0.000000   0.000000   0.000000   0.000000   0.000000
    23  H   -0.000236   0.000012   0.000000   0.000000   0.000000   0.000000
    24  H    0.000689   0.000009   0.000000   0.000000   0.000000   0.000002
    25  H    0.000002   0.000000   0.000000   0.000000   0.000000   0.000000
    26  H   -0.000008   0.000000   0.000000   0.000000   0.000000   0.000001
    27  H    0.000087  -0.000002   0.000000   0.000000   0.000000   0.000050
    28  H    0.000167  -0.000163   0.000000   0.000001  -0.000002   0.001330
    29  H   -0.011203  -0.004072   0.000004   0.000010  -0.000063   0.000364
    30  H    0.010204   0.000607   0.000003  -0.000025   0.000005   0.007468
    31  H   -0.000298   0.000022   0.000000   0.000000   0.000000  -0.000104
    32  C   -0.000078   0.000010   0.000000   0.000000   0.000000   0.000001
    33  H    0.000266  -0.000026   0.000000   0.000000   0.000000  -0.000001
    34  H    0.000001   0.000000   0.000000   0.000000   0.000000   0.000000
    35  H    0.000028   0.000000   0.000000   0.000000   0.000000   0.000000
    36  H   -0.004890   0.001081  -0.000001   0.000000   0.000038  -0.000077
              19         20         21         22         23         24
     1  C    0.000013   0.415796   0.422604   0.411338  -0.039867  -0.033104
     2  C    0.000131  -0.044341  -0.039221  -0.048110   0.416499   0.441152
     3  C   -0.000376   0.012638  -0.020964   0.010169  -0.019102  -0.066302
     4  C    0.000116  -0.000418   0.016709  -0.010171  -0.025115   0.011683
     5  C    0.000001   0.000001   0.000709  -0.000223  -0.000882  -0.000294
     6  O    0.000000   0.000000  -0.000016  -0.000002  -0.000012   0.000002
     7  N   -0.003127  -0.000510  -0.000263   0.000132  -0.002235  -0.002735
     8  C    0.017132  -0.000052  -0.000026  -0.000007  -0.001277   0.000931
     9  C    0.010276   0.000000   0.000000   0.000000  -0.000002  -0.000001
    10  C   -0.001323   0.000000   0.000000   0.000000   0.000001   0.000002
    11  C    0.007227   0.000001   0.000000   0.000000   0.000036  -0.000218
    12  C   -0.084863   0.000000   0.000001   0.000004   0.000168   0.000322
    13  C    0.254364  -0.000001   0.000001  -0.000001  -0.000236   0.000689
    14  C   -0.052540   0.000000   0.000000   0.000000   0.000012   0.000009
    15  H   -0.000097   0.000000   0.000000   0.000000   0.000000   0.000000
    16  H    0.000010   0.000000   0.000000   0.000000   0.000000   0.000000
    17  H    0.001293   0.000000   0.000000   0.000000   0.000000   0.000000
    18  F   -0.000034   0.000000   0.000000   0.000000   0.000000   0.000002
    19  F    9.060350   0.000000   0.000000   0.000000   0.000066   0.000058
    20  H    0.000000   0.519423  -0.023703  -0.022573  -0.003749  -0.006128
    21  H    0.000000  -0.023703   0.529215  -0.029341  -0.004038   0.006264
    22  H    0.000000  -0.022573  -0.029341   0.533085   0.006583  -0.003339
    23  H    0.000066  -0.003749  -0.004038   0.006583   0.532321  -0.024959
    24  H    0.000058  -0.006128   0.006264  -0.003339  -0.024959   0.536621
    25  H    0.000000   0.000476  -0.009497   0.001317   0.001576  -0.000578
    26  H    0.000000  -0.000002  -0.000001   0.000006   0.000019   0.000013
    27  H    0.000000   0.000002  -0.000013   0.000039  -0.000032  -0.000014
    28  H   -0.000005   0.000003   0.000002   0.000004  -0.000015  -0.000018
    29  H    0.001539   0.000124  -0.000024   0.000082  -0.000084  -0.003682
    30  H    0.000618  -0.000010  -0.000002   0.000013  -0.000034   0.001313
    31  H   -0.000006  -0.000289   0.000847   0.001482   0.006400  -0.004002
    32  C   -0.000064   0.000031  -0.002981   0.000940   0.003869  -0.000764
    33  H   -0.000024   0.000016  -0.000085  -0.000006   0.000162  -0.000130
    34  H    0.000000  -0.000005   0.000075  -0.000005   0.000053   0.000027
    35  H    0.000000   0.000089   0.001745  -0.000121  -0.007014   0.000674
    36  H    0.005415  -0.000043   0.000029  -0.000018   0.003699   0.000656
              25         26         27         28         29         30
     1  C   -0.000367   0.000161  -0.000200  -0.000180  -0.001222   0.000441
     2  C   -0.012399  -0.001009   0.001814   0.001019  -0.002744  -0.001217
     3  C   -0.058569   0.016131  -0.013282  -0.003451   0.005325   0.005451
     4  C    0.449247  -0.053506  -0.059587  -0.008110  -0.001528   0.001930
     5  C   -0.036758   0.433499   0.426038  -0.040162   0.000170  -0.000788
     6  O    0.006373  -0.038777  -0.047557   0.311113  -0.000260   0.000137
     7  N    0.006400  -0.000143  -0.001271   0.041955  -0.057518  -0.038252
     8  C   -0.000528   0.000361  -0.002500  -0.000689   0.412721   0.436340
     9  C    0.000000   0.000000   0.000001   0.000088   0.000618  -0.000422
    10  C    0.000000   0.000002  -0.000029  -0.000175  -0.000631  -0.000261
    11  C   -0.000013   0.000023  -0.000509   0.001553   0.013022  -0.025642
    12  C    0.000081  -0.000045   0.000745  -0.004167  -0.026334  -0.034592
    13  C    0.000002  -0.000008   0.000087   0.000167  -0.011203   0.010204
    14  C    0.000000   0.000000  -0.000002  -0.000163  -0.004072   0.000607
    15  H    0.000000   0.000000   0.000000   0.000000   0.000004   0.000003
    16  H    0.000000   0.000000   0.000000   0.000001   0.000010  -0.000025
    17  H    0.000000   0.000000   0.000000  -0.000002  -0.000063   0.000005
    18  F    0.000000   0.000001   0.000050   0.001330   0.000364   0.007468
    19  F    0.000000   0.000000   0.000000  -0.000005   0.001539   0.000618
    20  H    0.000476  -0.000002   0.000002   0.000003   0.000124  -0.000010
    21  H   -0.009497  -0.000001  -0.000013   0.000002  -0.000024  -0.000002
    22  H    0.001317   0.000006   0.000039   0.000004   0.000082   0.000013
    23  H    0.001576   0.000019  -0.000032  -0.000015  -0.000084  -0.000034
    24  H   -0.000578   0.000013  -0.000014  -0.000018  -0.003682   0.001313
    25  H    0.542806  -0.003298   0.002305  -0.000358   0.000024   0.000006
    26  H   -0.003298   0.564005  -0.043977   0.006632  -0.000001  -0.000024
    27  H    0.002305  -0.043977   0.604020  -0.000889   0.000014   0.000520
    28  H   -0.000358   0.006632  -0.000889   0.346310   0.000751  -0.001430
    29  H    0.000024  -0.000001   0.000014   0.000751   0.535345  -0.026715
    30  H    0.000006  -0.000024   0.000520  -0.001430  -0.026715   0.489445
    31  H   -0.001695  -0.000375   0.002336  -0.000388  -0.001256  -0.000984
    32  C   -0.045141  -0.016983   0.012436  -0.003388   0.000059  -0.000074
    33  H    0.007233  -0.000887   0.000940   0.000566   0.000120  -0.000010
    34  H   -0.005184   0.003279  -0.000025  -0.000066  -0.000001   0.000004
    35  H   -0.003635  -0.000362  -0.000162  -0.000054  -0.000006   0.000003
    36  H   -0.000092   0.000012  -0.000163  -0.003218  -0.008209   0.004886
              31         32         33         34         35         36
     1  C   -0.002283  -0.011061   0.000278   0.000363  -0.003027   0.001285
     2  C   -0.045858   0.015961  -0.001642  -0.000987   0.007036  -0.009235
     3  C    0.464204  -0.030656  -0.013625   0.010854  -0.006755  -0.027761
     4  C   -0.050075   0.198077  -0.030020  -0.041165  -0.045093  -0.002294
     5  C   -0.011956  -0.053030  -0.015483  -0.003021   0.008204  -0.001605
     6  O    0.000264  -0.006391   0.013393  -0.000178   0.000684   0.001422
     7  N   -0.037962  -0.003477   0.009104  -0.000305  -0.001161   0.359566
     8  C   -0.013355  -0.000038  -0.000175   0.000035  -0.000191  -0.029987
     9  C   -0.000003  -0.000001   0.000007   0.000000   0.000000  -0.000291
    10  C    0.000005   0.000000  -0.000019   0.000000   0.000000   0.000281
    11  C    0.000240   0.000023  -0.000064   0.000000  -0.000004   0.000841
    12  C   -0.000125  -0.000015   0.000331   0.000007  -0.000035  -0.010245
    13  C   -0.000298  -0.000078   0.000266   0.000001   0.000028  -0.004890
    14  C    0.000022   0.000010  -0.000026   0.000000   0.000000   0.001081
    15  H    0.000000   0.000000   0.000000   0.000000   0.000000  -0.000001
    16  H    0.000000   0.000000   0.000000   0.000000   0.000000   0.000000
    17  H    0.000000   0.000000   0.000000   0.000000   0.000000   0.000038
    18  F   -0.000104   0.000001  -0.000001   0.000000   0.000000  -0.000077
    19  F   -0.000006  -0.000064  -0.000024   0.000000   0.000000   0.005415
    20  H   -0.000289   0.000031   0.000016  -0.000005   0.000089  -0.000043
    21  H    0.000847  -0.002981  -0.000085   0.000075   0.001745   0.000029
    22  H    0.001482   0.000940  -0.000006  -0.000005  -0.000121  -0.000018
    23  H    0.006400   0.003869   0.000162   0.000053  -0.007014   0.003699
    24  H   -0.004002  -0.000764  -0.000130   0.000027   0.000674   0.000656
    25  H   -0.001695  -0.045141   0.007233  -0.005184  -0.003635  -0.000092
    26  H   -0.000375  -0.016983  -0.000887   0.003279  -0.000362   0.000012
    27  H    0.002336   0.012436   0.000940  -0.000025  -0.000162  -0.000163
    28  H   -0.000388  -0.003388   0.000566  -0.000066  -0.000054  -0.003218
    29  H   -0.001256   0.000059   0.000120  -0.000001  -0.000006  -0.008209
    30  H   -0.000984  -0.000074  -0.000010   0.000004   0.000003   0.004886
    31  H    0.497644   0.007773  -0.000376  -0.000259  -0.000141   0.006007
    32  C    0.007773   5.172457   0.409949   0.412971   0.416295   0.001454
    33  H   -0.000376   0.409949   0.517695  -0.021410  -0.026562  -0.003675
    34  H   -0.000259   0.412971  -0.021410   0.511665  -0.021209   0.000124
    35  H   -0.000141   0.416295  -0.026562  -0.021209   0.528938  -0.000734
    36  H    0.006007   0.001454  -0.003675   0.000124  -0.000734   0.455065
 Mulliken charges:
               1
     1  C   -0.456758
     2  C   -0.269830
     3  C   -0.104192
     4  C   -0.139273
     5  C   -0.073153
     6  O   -0.532588
     7  N   -0.492573
     8  C   -0.228454
     9  C   -0.111274
    10  C   -0.251860
    11  C    0.302770
    12  C   -0.085252
    13  C    0.303024
    14  C   -0.252989
    15  H    0.173424
    16  H    0.173024
    17  H    0.173455
    18  F   -0.212652
    19  F   -0.216150
    20  H    0.153225
    21  H    0.151975
    22  H    0.148725
    23  H    0.157184
    24  H    0.145851
    25  H    0.160265
    26  H    0.135257
    27  H    0.118864
    28  H    0.355433
    29  H    0.175261
    30  H    0.171088
    31  H    0.184565
    32  C   -0.478163
    33  H    0.154162
    34  H    0.154363
    35  H    0.152570
    36  H    0.260679
 Sum of Mulliken charges =   0.00000
 Mulliken charges with hydrogens summed into heavy atoms:
               1
     1  C   -0.002833
     2  C    0.033205
     3  C    0.080373
     4  C    0.020992
     5  C    0.180968
     6  O   -0.177155
     7  N   -0.231894
     8  C    0.117894
     9  C    0.062150
    10  C   -0.078837
    11  C    0.302770
    12  C   -0.085252
    13  C    0.303024
    14  C   -0.079534
    18  F   -0.212652
    19  F   -0.216150
    32  C   -0.017068
 Electronic spatial extent (au):  <R**2>=           5029.5809
 Charge=              0.0000 electrons
 Dipole moment (field-independent basis, Debye):
    X=              0.8086    Y=             -3.4155    Z=             -0.9749  Tot=              3.6428
 Quadrupole moment (field-independent basis, Debye-Ang):
   XX=            -82.5169   YY=           -113.5024   ZZ=           -103.6758
   XY=              3.7649   XZ=              6.2331   YZ=             -3.1924
 Traceless Quadrupole moment (field-independent basis, Debye-Ang):
   XX=             17.3814   YY=            -13.6040   ZZ=             -3.7774
   XY=              3.7649   XZ=              6.2331   YZ=             -3.1924
 Octapole moment (field-independent basis, Debye-Ang**2):
  XXX=             70.9321  YYY=            -21.8523  ZZZ=             -5.4271  XYY=              8.2407
  XXY=             14.4837  XXZ=             21.9513  XZZ=              4.1260  YZZ=             -9.1750
  YYZ=            -11.6171  XYZ=             -1.2887
 Hexadecapole moment (field-independent basis, Debye-Ang**3):
 XXXX=          -4282.7620 YYYY=          -1380.7074 ZZZZ=           -687.8417 XXXY=             16.2488
 XXXZ=             83.3505 YYYX=             29.3104 YYYZ=            -50.1663 ZZZX=              4.9861
 ZZZY=            -37.3336 XXYY=           -955.6287 XXZZ=           -895.7676 YYZZ=           -341.9877
 XXYZ=            -38.9998 YYXZ=             11.0929 ZZXY=            -18.1279
 N-N= 1.274727150632D+03 E-N=-4.505462140803D+03  KE= 8.321553285182D+02
 1\1\GINC-CPU-E-827\SP\RM062X\def2TZVP\C13H19F2N1O1\KE291\26-Jun-2019\0
 \\# m062x/def2tzvp int=ultrafine scrf=(solvent=chloroform)\\AT3_2ginp0
 01\\0,1\C,0,-3.960526,-1.851427,-1.174925\C,0,-2.574754,-1.673818,-0.5
 4328\C,0,-2.079347,-0.213701,-0.469293\C,0,-2.984172,0.729608,0.368022
 \C,0,-2.529983,2.196477,0.223987\O,0,-1.287022,2.469685,0.852853\N,0,-
 0.673398,-0.10564,0.003973\C,0,0.345158,-0.53592,-0.970954\C,0,4.33100
 3,0.074274,0.62083\C,0,3.799227,1.002193,-0.275289\C,0,2.518467,0.7868
 65,-0.770792\C,0,1.736813,-0.317811,-0.427575\C,0,2.319998,-1.206639,0
 .477059\C,0,3.592079,-1.045021,1.008919\H,0,5.32779,0.225053,1.021603\
 H,0,4.353215,1.87929,-0.588897\H,0,3.980665,-1.777574,1.70667\F,0,2.00
 2214,1.686553,-1.638409\F,0,1.585473,-2.282797,0.854717\H,0,-4.199741,
 -2.913401,-1.28884\H,0,-4.751186,-1.401332,-0.567076\H,0,-4.003828,-1.
 393983,-2.169975\H,0,-2.568114,-2.111156,0.463427\H,0,-1.84985,-2.2525
 88,-1.127643\H,0,-3.986138,0.678297,-0.07872\H,0,-3.276752,2.853729,0.
 686995\H,0,-2.499114,2.453951,-0.85001\H,0,-0.720421,1.712451,0.587031
 \H,0,0.241955,-1.590939,-1.260815\H,0,0.217817,0.065412,-1.874048\H,0,
 -2.07611,0.187917,-1.492998\C,0,-3.098672,0.332487,1.847974\H,0,-2.134
 909,0.417705,2.358395\H,0,-3.795146,1.001615,2.364053\H,0,-3.468831,-0
 .689154,1.975217\H,0,-0.562273,-0.662498,0.850128\\Version=ES64L-G09Re
 vD.01\State=1-A\HF=-836.4616687\RMSD=8.391e-09\Dipole=0.3181395,-1.343
 7456,-0.3835446\Quadrupole=12.9226589,-10.1142432,-2.8084156,2.7990995
 ,4.6341758,-2.3734468\PG=C01 [X(C13H19F2N1O1)]\\@


 THERE ARE TWO THINGS THAT EVERYBODY THINKS THEY CAN DO BETTER THAN
 ANYONE ELSE - PUNCH THE FIRE, AND EDIT A DAILY PAPER.
 -- UNCLE ESEK, "CENTURY MAGAZINE", 1885
 Job cpu time:       0 days  1 hours 14 minutes 54.0 seconds.
 File lengths (MBytes):  RWF=    322 Int=      0 D2E=      0 Chk=     17 Scr=      1
 Normal termination of Gaussian 09 at Wed Jun 26 12:21:47 2019.
