 Entering Gaussian System, Link 0=/usr/local/Cluster-Apps/gaussian/g09/g09
 Initial command:
 /usr/local/Cluster-Apps/gaussian/g09/l1.exe "/home/ke291/rds/hpc-work/26Jun1158AT3NMR/Gau-272899.inp" -scrdir="/home/ke291/rds/hpc-work/26Jun1158AT3NMR/"
 Entering Link 1 = /usr/local/Cluster-Apps/gaussian/g09/l1.exe PID=    272911.
  
 Copyright (c) 1988,1990,1992,1993,1995,1998,2003,2009,2013,
            Gaussian, Inc.  All Rights Reserved.
  
 This is part of the Gaussian(R) 09 program.  It is based on
 the Gaussian(R) 03 system (copyright 2003, Gaussian, Inc.),
 the Gaussian(R) 98 system (copyright 1998, Gaussian, Inc.),
 the Gaussian(R) 94 system (copyright 1995, Gaussian, Inc.),
 the Gaussian 92(TM) system (copyright 1992, Gaussian, Inc.),
 the Gaussian 90(TM) system (copyright 1990, Gaussian, Inc.),
 the Gaussian 88(TM) system (copyright 1988, Gaussian, Inc.),
 the Gaussian 86(TM) system (copyright 1986, Carnegie Mellon
 University), and the Gaussian 82(TM) system (copyright 1983,
 Carnegie Mellon University). Gaussian is a federally registered
 trademark of Gaussian, Inc.
  
 This software contains proprietary and confidential information,
 including trade secrets, belonging to Gaussian, Inc.
  
 This software is provided under written license and may be
 used, copied, transmitted, or stored only in accord with that
 written license.
  
 The following legend is applicable only to US Government
 contracts under FAR:
  
                    RESTRICTED RIGHTS LEGEND
  
 Use, reproduction and disclosure by the US Government is
 subject to restrictions as set forth in subparagraphs (a)
 and (c) of the Commercial Computer Software - Restricted
 Rights clause in FAR 52.227-19.
  
 Gaussian, Inc.
 340 Quinnipiac St., Bldg. 40, Wallingford CT 06492
  
  
 ---------------------------------------------------------------
 Warning -- This program may not be used in any manner that
 competes with the business of Gaussian, Inc. or will provide
 assistance to any competitor of Gaussian, Inc.  The licensee
 of this program is prohibited from giving any competitor of
 Gaussian, Inc. access to this program.  By using this program,
 the user acknowledges that Gaussian, Inc. is engaged in the
 business of creating and licensing software in the field of
 computational chemistry and represents and warrants to the
 licensee that it is not a competitor of Gaussian, Inc. and that
 it will not use this program in any manner prohibited above.
 ---------------------------------------------------------------
  

 Cite this work as:
 Gaussian 09, Revision D.01,
 M. J. Frisch, G. W. Trucks, H. B. Schlegel, G. E. Scuseria, 
 M. A. Robb, J. R. Cheeseman, G. Scalmani, V. Barone, B. Mennucci, 
 G. A. Petersson, H. Nakatsuji, M. Caricato, X. Li, H. P. Hratchian, 
 A. F. Izmaylov, J. Bloino, G. Zheng, J. L. Sonnenberg, M. Hada, 
 M. Ehara, K. Toyota, R. Fukuda, J. Hasegawa, M. Ishida, T. Nakajima, 
 Y. Honda, O. Kitao, H. Nakai, T. Vreven, J. A. Montgomery, Jr., 
 J. E. Peralta, F. Ogliaro, M. Bearpark, J. J. Heyd, E. Brothers, 
 K. N. Kudin, V. N. Staroverov, T. Keith, R. Kobayashi, J. Normand, 
 K. Raghavachari, A. Rendell, J. C. Burant, S. S. Iyengar, J. Tomasi, 
 M. Cossi, N. Rega, J. M. Millam, M. Klene, J. E. Knox, J. B. Cross, 
 V. Bakken, C. Adamo, J. Jaramillo, R. Gomperts, R. E. Stratmann, 
 O. Yazyev, A. J. Austin, R. Cammi, C. Pomelli, J. W. Ochterski, 
 R. L. Martin, K. Morokuma, V. G. Zakrzewski, G. A. Voth, 
 P. Salvador, J. J. Dannenberg, S. Dapprich, A. D. Daniels, 
 O. Farkas, J. B. Foresman, J. V. Ortiz, J. Cioslowski, 
 and D. J. Fox, Gaussian, Inc., Wallingford CT, 2013.
 
 ******************************************
 Gaussian 09:  ES64L-G09RevD.01 24-Apr-2013
                26-Jun-2019 
 ******************************************
 %nprocshared=4
 Will use up to    4 processors via shared memory.
 %mem=6000MB
 %chk=AT3_2ginp002.chk
 --------------------------------------------------------
 # m062x/def2tzvp int=ultrafine scrf=(solvent=chloroform)
 --------------------------------------------------------
 1/38=1/1;
 2/12=2,17=6,18=5,40=1/2;
 3/5=44,7=101,11=2,16=1,25=1,30=1,70=2201,72=7,74=-55,75=-5/1,2,3;
 4//1;
 5/5=2,38=5,53=7/2;
 6/7=2,8=2,9=2,10=2,28=1/1;
 99/5=1,9=1/99;
 ------------
 AT3_2ginp002
 ------------
 Symbolic Z-matrix:
 Charge =  0 Multiplicity = 1
 C                     2.41784   2.93063   0.16718 
 C                     2.81246   1.48044   0.47866 
 C                     2.07662   0.43817  -0.38348 
 C                     2.72482  -0.97411  -0.36825 
 C                     2.80334  -1.58273   1.04325 
 O                     1.53167  -1.77783   1.64269 
 N                     0.66721   0.34649   0.0814 
 C                    -0.28984  -0.03745  -0.97127 
 C                    -4.36427   0.01673   0.51459 
 C                    -3.64743   1.21028   0.40449 
 C                    -2.34731   1.14926  -0.07518 
 C                    -1.70855  -0.03326  -0.45389 
 C                    -2.47305  -1.19354  -0.3182 
 C                    -3.78154  -1.19761   0.15274 
 H                    -5.38329   0.03445   0.88627 
 H                    -4.07519   2.16693   0.68058 
 H                    -4.31757  -2.13633   0.22988 
 F                    -1.63515   2.30255  -0.18004 
 F                    -1.91429  -2.37257  -0.67247 
 H                     2.95846   3.62719   0.81513 
 H                     2.65429   3.18658  -0.87139 
 H                     1.34828   3.11828   0.31505 
 H                     3.89107   1.37198   0.32837 
 H                     2.62429   1.26326   1.53749 
 H                     2.0639   -1.62953  -0.95206 
 H                     3.45176  -0.95202   1.67697 
 H                     3.29378  -2.56317   0.98082 
 H                     0.98678  -1.02169   1.33027 
 H                    -0.21964   0.63602  -1.84128 
 H                    -0.04715  -1.04211  -1.32081 
 H                     2.10192   0.7957   -1.42947 
 C                     4.10026  -0.98838  -1.04992 
 H                     4.85607  -0.45368  -0.46462 
 H                     4.45472  -2.01595  -1.17853 
 H                     4.05791  -0.52427  -2.04115 
 H                     0.3807    1.25514   0.43545 
 
                          Input orientation:                          
 ---------------------------------------------------------------------
 Center     Atomic      Atomic             Coordinates (Angstroms)
 Number     Number       Type             X           Y           Z
 ---------------------------------------------------------------------
      1          6           0        2.417837    2.930629    0.167177
      2          6           0        2.812456    1.480444    0.478662
      3          6           0        2.076616    0.438167   -0.383476
      4          6           0        2.724816   -0.974114   -0.368249
      5          6           0        2.803339   -1.582729    1.043249
      6          8           0        1.531670   -1.777832    1.642687
      7          7           0        0.667206    0.346491    0.081400
      8          6           0       -0.289837   -0.037452   -0.971266
      9          6           0       -4.364267    0.016730    0.514586
     10          6           0       -3.647427    1.210280    0.404493
     11          6           0       -2.347307    1.149257   -0.075184
     12          6           0       -1.708545   -0.033264   -0.453894
     13          6           0       -2.473050   -1.193537   -0.318199
     14          6           0       -3.781543   -1.197607    0.152739
     15          1           0       -5.383291    0.034453    0.886268
     16          1           0       -4.075191    2.166934    0.680575
     17          1           0       -4.317575   -2.136333    0.229882
     18          9           0       -1.635151    2.302552   -0.180035
     19          9           0       -1.914290   -2.372569   -0.672468
     20          1           0        2.958459    3.627190    0.815130
     21          1           0        2.654287    3.186576   -0.871387
     22          1           0        1.348283    3.118280    0.315048
     23          1           0        3.891070    1.371980    0.328366
     24          1           0        2.624289    1.263255    1.537488
     25          1           0        2.063902   -1.629528   -0.952064
     26          1           0        3.451756   -0.952016    1.676970
     27          1           0        3.293778   -2.563169    0.980819
     28          1           0        0.986780   -1.021691    1.330267
     29          1           0       -0.219636    0.636024   -1.841280
     30          1           0       -0.047151   -1.042107   -1.320807
     31          1           0        2.101921    0.795699   -1.429465
     32          6           0        4.100258   -0.988375   -1.049924
     33          1           0        4.856066   -0.453678   -0.464618
     34          1           0        4.454723   -2.015949   -1.178530
     35          1           0        4.057914   -0.524265   -2.041151
     36          1           0        0.380702    1.255142    0.435449
 ---------------------------------------------------------------------
                    Distance matrix (angstroms):
                    1          2          3          4          5
     1  C    0.000000
     2  C    1.534856   0.000000
     3  C    2.575270   1.539832   0.000000
     4  C    3.953218   2.598037   1.554005   0.000000
     5  C    4.613731   3.114783   2.578312   1.539125   0.000000
     6  O    5.013185   3.689408   3.051713   2.472534   1.419343
     7  N    3.122473   2.458814   1.486927   2.485949   3.034816
     8  C    4.175770   3.745734   2.484313   3.213891   4.001736
     9  C    7.389752   7.324555   6.516832   7.212230   7.362902
    10  C    6.308989   6.465955   5.829384   6.780427   7.058420
    11  C    5.092997   5.199960   4.491301   5.506453   5.936648
    12  C    5.118341   4.858027   3.815056   4.532905   4.999938
    13  C    6.416004   5.976766   4.833858   5.202736   5.463084
    14  C    7.448144   7.124535   6.105842   6.531009   6.655975
    15  H    8.352396   8.332305   7.577958   8.266343   8.346306
    16  H    6.557913   6.924718   6.478084   7.563485   7.842556
    17  H    8.428749   7.998769   6.920256   7.162666   7.188564
    18  F    4.116036   4.570662   4.158670   5.457222   6.024286
    19  F    6.899003   6.205879   4.889896   4.854846   5.081688
    20  H    1.094218   2.177854   3.519115   4.756782   5.217217
    21  H    1.095460   2.181407   2.850529   4.191594   5.141431
    22  H    1.095913   2.202970   2.863810   4.371433   4.974631
    23  H    2.150764   1.094423   2.161242   2.711010   3.228703
    24  H    2.168066   1.097128   2.161208   2.940707   2.894124
    25  H    4.708822   3.504174   2.144485   1.098733   2.128434
    26  H    4.292248   2.785948   2.840608   2.170680   1.104466
    27  H    5.622375   4.103004   3.514371   2.160740   1.098039
    28  H    4.361369   3.212321   2.501168   2.430636   1.922766
    29  H    4.031796   3.910084   2.727107   3.664991   4.730935
    30  H    4.906414   4.216480   2.753214   2.931858   3.742503
    31  H    2.684585   2.148182   1.105695   2.155555   3.501888
    32  C    4.435140   3.176488   2.564040   1.535163   2.533107
    33  H    4.218727   2.967650   2.920156   2.195989   2.786056
    34  H    5.516200   4.203343   3.508588   2.175903   2.801973
    35  H    4.416204   3.452460   2.756756   2.185890   3.493970
    36  H    2.651254   2.442551   2.052854   3.333224   3.780490
                    6          7          8          9         10
     6  O    0.000000
     7  N    2.774466   0.000000
     8  C    3.630366   1.473584   0.000000
     9  C    6.265392   5.060841   4.337242   0.000000
    10  C    6.106143   4.412095   3.837051   1.396618   0.000000
    11  C    5.154163   3.123498   2.538587   2.387169   1.387129
    12  C    4.235347   2.464741   1.510107   2.827245   2.458148
    13  C    4.497139   3.520309   2.555278   2.394782   2.771242
    14  C    5.548589   4.709639   3.847253   1.394674   2.424724
    15  H    7.188410   6.111767   5.422073   1.084837   2.151255
    16  H    6.922697   5.115012   4.681538   2.175889   1.083693
    17  H    6.028118   5.570862   4.697950   2.172307   3.417515
    18  F    5.477281   3.032387   2.812745   3.627059   2.363046
    19  F    4.193840   3.824360   2.860227   3.622186   4.123156
    20  H    5.651092   4.068315   5.212700   8.169949   7.046120
    21  H    5.676811   3.594771   4.367173   7.824893   6.726456
    22  H    5.076236   2.863786   3.781096   6.503280   5.348419
    23  H    4.149159   3.392038   4.599514   8.367913   7.540615
    24  H    3.233124   2.605921   4.059288   7.172173   6.373453
    25  H    2.652922   2.631247   2.841683   6.795777   6.521046
    26  H    2.090425   3.462034   4.674302   7.961144   7.529483
    27  H    2.039571   4.021686   4.799185   8.094375   7.921578
    28  H    0.982986   1.879819   2.809899   5.511566   5.226340
    29  H    4.586044   2.137058   1.102462   4.807452   4.137997
    30  H    3.437479   2.098736   1.091058   4.809085   4.583873
    31  H    4.048008   2.131410   2.573829   6.796890   6.048990
    32  C    3.804082   3.853259   4.492591   8.666378   8.183889
    33  H    4.152797   4.299413   5.187509   9.284108   8.708243
    34  H    4.069423   4.638300   5.144731   9.207226   8.863371
    35  H    4.639397   4.093939   4.503841   8.818027   8.268138
    36  H    3.461370   1.016406   2.024665   4.904555   4.028498
                   11         12         13         14         15
    11  C    0.000000
    12  C    1.396350   0.000000
    13  C    2.358718   1.396107   0.000000
    14  C    2.759846   2.453776   1.390666   0.000000
    15  H    3.374074   3.912081   3.380563   2.149798   0.000000
    16  H    2.142994   3.424749   3.854500   3.418329   2.510161
    17  H    3.843192   3.420159   2.142785   1.083738   2.505774
    18  F    1.359503   2.352960   3.597750   4.119326   4.508861
    19  F    3.598265   2.358485   1.351975   2.355448   4.500820
    20  H    5.923172   6.065498   7.350179   8.315351   9.082820
    21  H    5.458988   5.438380   6.766165   7.854286   8.810669
    22  H    4.205558   4.457320   5.796150   6.705844   7.426329
    23  H    6.255382   5.826005   6.892166   8.093368   9.386906
    24  H    5.227856   4.941661   5.955020   7.000575   8.127446
    25  H    5.286713   4.126450   4.601718   5.964593   7.849139
    26  H    6.412061   5.658038   6.256385   7.396229   8.925043
    27  H    6.835136   5.786368   6.067919   7.253319   9.058041
    28  H    4.219531   3.380088   3.836326   4.914715   6.472278
    29  H    2.812381   2.142344   3.277948   4.474986   5.870668
    30  H    3.412385   2.128270   2.629285   4.017611   5.874058
    31  H    4.664194   4.019772   5.111001   6.410288   7.872135
    32  C    6.862265   5.916898   6.617091   7.975774   9.733073
    33  H    7.389834   6.578068   7.367820   8.691539  10.339613
    34  H    7.583107   6.514753   7.029265   8.383200  10.259340
    35  H    6.905980   6.001043   6.787487   8.168453   9.900419
    36  H    2.777407   2.610723   3.835090   4.839441   5.909055
                   16         17         18         19         20
    16  H    0.000000
    17  H    4.333588   0.000000
    18  F    2.590914   5.202608   0.000000
    19  F    5.206468   2.577949   4.709264   0.000000
    20  H    7.184893   9.300612   4.883264   7.871070   0.000000
    21  H    6.980983   8.840419   4.433818   7.198302   1.769463
    22  H    5.518400   7.727882   3.132315   6.462894   1.761175
    23  H    8.013571   8.927475   5.627038   6.980367   2.488509
    24  H    6.814247   7.839420   4.708806   6.221079   2.494325
    25  H    7.400479   6.509769   5.453464   4.056636   5.617499
    26  H    8.208263   7.991194   6.318014   6.027626   4.685642
    27  H    8.761605   7.660208   7.022618   5.467509   6.201648
    28  H    6.017722   5.530774   4.495122   3.775186   5.075921
    29  H    4.854765   5.363654   2.746040   3.645491   5.109195
    30  H    5.525267   4.673167   3.874255   2.382579   5.949643
    31  H    6.670028   7.249840   4.218695   5.171162   3.713382
    32  C    8.932445   8.591602   6.669470   6.183304   5.107404
    33  H    9.377976   9.352505   7.057881   7.040104   4.678905
    34  H    9.680507   8.885456   7.532132   6.399031   6.169157
    35  H    8.988756   8.826391   6.623114   6.399745   5.157686
    36  H    4.554825   5.798118   2.353625   4.433368   3.523578
                   21         22         23         24         25
    21  H    0.000000
    22  H    1.765769   0.000000
    23  H    2.502359   3.084722   0.000000
    24  H    3.082652   2.561966   1.754574   0.000000
    25  H    4.852826   4.965820   3.739932   3.857473   0.000000
    26  H    4.925244   4.779826   2.722625   2.368878   3.049095
    27  H    6.074470   6.042108   4.033342   3.924235   2.473927
    28  H    5.033624   4.277933   3.894659   2.818751   2.595899
    29  H    3.963009   3.642762   4.706049   4.460650   3.337361
    30  H    5.038006   4.683170   4.904811   4.541050   2.222067
    31  H    2.516516   3.000946   2.573543   3.048653   2.472061
    32  C    4.421869   5.128463   2.741299   3.734036   2.137148
    33  H    4.273727   5.066686   2.212028   3.455013   3.068616
    34  H    5.513817   6.183935   3.750534   4.634698   2.432413
    35  H    4.136285   5.114871   3.039440   4.249372   2.526618
    36  H    3.256907   2.102853   3.513944   2.499648   3.616583
                   26         27         28         29         30
    26  H    0.000000
    27  H    1.762214   0.000000
    28  H    2.490214   2.796517   0.000000
    29  H    5.327201   5.526586   3.776529   0.000000
    30  H    4.608376   4.332773   2.845632   1.765437   0.000000
    31  H    3.811365   4.302556   3.487487   2.363200   2.829814
    32  C    2.803182   2.693381   3.919205   4.682563   4.156593
    33  H    2.608990   2.996662   4.302979   5.370791   5.012070
    34  H    3.208080   2.511978   4.394228   5.414964   4.608197
    35  H    3.791414   3.724693   4.587565   4.436626   4.199835
    36  H    3.980489   4.833522   2.520317   2.434586   2.923157
                   31         32         33         34         35
    31  H    0.000000
    32  C    2.705609   0.000000
    33  H    3.174459   1.095322   0.000000
    34  H    3.674780   1.094574   1.763927   0.000000
    35  H    2.437698   1.095318   1.768470   1.768246   0.000000
    36  H    2.579067   4.590730   4.874328   5.468328   4.777209
                   36
    36  H    0.000000
 Stoichiometry    C13H19F2NO
 Framework group  C1[X(C13H19F2NO)]
 Deg. of freedom   102
 Full point group                 C1      NOp   1
 Largest Abelian subgroup         C1      NOp   1
 Largest concise Abelian subgroup C1      NOp   1
                         Standard orientation:                         
 ---------------------------------------------------------------------
 Center     Atomic      Atomic             Coordinates (Angstroms)
 Number     Number       Type             X           Y           Z
 ---------------------------------------------------------------------
      1          6           0        2.417837    2.930629    0.167177
      2          6           0        2.812456    1.480444    0.478662
      3          6           0        2.076616    0.438167   -0.383476
      4          6           0        2.724816   -0.974114   -0.368249
      5          6           0        2.803339   -1.582729    1.043249
      6          8           0        1.531670   -1.777832    1.642687
      7          7           0        0.667206    0.346491    0.081400
      8          6           0       -0.289837   -0.037452   -0.971266
      9          6           0       -4.364267    0.016730    0.514586
     10          6           0       -3.647427    1.210280    0.404493
     11          6           0       -2.347307    1.149257   -0.075184
     12          6           0       -1.708545   -0.033264   -0.453894
     13          6           0       -2.473050   -1.193537   -0.318199
     14          6           0       -3.781543   -1.197607    0.152739
     15          1           0       -5.383291    0.034453    0.886268
     16          1           0       -4.075191    2.166934    0.680575
     17          1           0       -4.317575   -2.136333    0.229882
     18          9           0       -1.635151    2.302552   -0.180035
     19          9           0       -1.914290   -2.372569   -0.672468
     20          1           0        2.958459    3.627190    0.815130
     21          1           0        2.654287    3.186576   -0.871387
     22          1           0        1.348283    3.118280    0.315048
     23          1           0        3.891070    1.371980    0.328366
     24          1           0        2.624289    1.263255    1.537488
     25          1           0        2.063902   -1.629528   -0.952064
     26          1           0        3.451756   -0.952016    1.676970
     27          1           0        3.293778   -2.563169    0.980819
     28          1           0        0.986780   -1.021691    1.330267
     29          1           0       -0.219636    0.636024   -1.841280
     30          1           0       -0.047151   -1.042107   -1.320807
     31          1           0        2.101921    0.795699   -1.429465
     32          6           0        4.100258   -0.988375   -1.049924
     33          1           0        4.856066   -0.453678   -0.464618
     34          1           0        4.454723   -2.015949   -1.178530
     35          1           0        4.057914   -0.524265   -2.041151
     36          1           0        0.380702    1.255142    0.435449
 ---------------------------------------------------------------------
 Rotational constants (GHZ):      0.7130470      0.2766343      0.2222110
 Standard basis: def2TZVP (5D, 7F)
 There are   726 symmetry adapted cartesian basis functions of A   symmetry.
 There are   641 symmetry adapted basis functions of A   symmetry.
   641 basis functions,  1019 primitive gaussians,   726 cartesian basis functions
    65 alpha electrons       65 beta electrons
       nuclear repulsion energy      1278.2063277809 Hartrees.
 NAtoms=   36 NActive=   36 NUniq=   36 SFac= 1.00D+00 NAtFMM=   60 NAOKFM=F Big=F
 Integral buffers will be    131072 words long.
 Raffenetti 2 integral format.
 Two-electron integral symmetry is turned on.
 ------------------------------------------------------------------------------
 Polarizable Continuum Model (PCM)
 =================================
 Model                : PCM (using non-symmetric T matrix).
 Atomic radii         : UFF (Universal Force Field).
 Polarization charges : Total charges.
 Charge compensation  : None.
 Solution method      : On-the-fly selection.
 Cavity type          : Scaled VdW (van der Waals Surface) (Alpha=1.100).
 Cavity algorithm     : GePol (No added spheres)
                        Default sphere list used, NSphG=   36.
                        Lebedev-Laikov grids with approx.  5.0 points / Ang**2.
                        Smoothing algorithm: Karplus/York (Gamma=1.0000).
                        Polarization charges: spherical gaussians, with
                                              point-specific exponents (IZeta= 3).
                        Self-potential: point-specific (ISelfS= 7).
                        Self-field    : sphere-specific E.n sum rule (ISelfD= 2).
 Solvent              : Chloroform, Eps=   4.711300 Eps(inf)=   2.090627
 ------------------------------------------------------------------------------
 One-electron integrals computed using PRISM.
   1 Symmetry operations used in ECPInt.
 ECPInt:  NShTT=   34716 NPrTT=  103716 LenC2=   31135 LenP2D=   67593.
 LDataN:  DoStor=T MaxTD1= 6 Len=  172
 NBasis=   641 RedAO= T EigKep=  1.16D-05  NBF=   641
 NBsUse=   641 1.00D-06 EigRej= -1.00D+00 NBFU=   641
 ExpMin= 9.52D-02 ExpMax= 3.55D+04 ExpMxC= 1.21D+03 IAcc=3 IRadAn=         5 AccDes= 0.00D+00
 Harris functional with IExCor= 1009 and IRadAn=       5 diagonalized for initial guess.
 HarFok:  IExCor= 1009 AccDes= 0.00D+00 IRadAn=         5 IDoV= 1 UseB2=F ITyADJ=14
 ICtDFT=  3500011 ScaDFX=  1.000000  1.000000  1.000000  1.000000
 FoFCou: FMM=F IPFlag=           0 FMFlag=      100000 FMFlg1=           0
         NFxFlg=           0 DoJE=T BraDBF=F KetDBF=T FulRan=T
         wScrn=  0.000000 ICntrl=     500 IOpCl=  0 I1Cent=   200000004 NGrid=           0
         NMat0=    1 NMatS0=      1 NMatT0=    0 NMatD0=    1 NMtDS0=    0 NMtDT0=    0
 Petite list used in FoFCou.
 Requested convergence on RMS density matrix=1.00D-08 within 128 cycles.
 Requested convergence on MAX density matrix=1.00D-06.
 Requested convergence on             energy=1.00D-06.
 No special actions if energy rises.
 Inv3:  Mode=1 IEnd=    19676163.
 Iteration    1 A*A^-1 deviation from unit magnitude is 5.11D-15 for    624.
 Iteration    1 A*A^-1 deviation from orthogonality  is 6.19D-15 for   2554   1189.
 Iteration    1 A^-1*A deviation from unit magnitude is 5.33D-15 for   2557.
 Iteration    1 A^-1*A deviation from orthogonality  is 6.79D-13 for   2417   2413.
 Error on total polarization charges =  0.01268
 SCF Done:  E(RM062X) =  -836.461971615     A.U. after   12 cycles
            NFock= 12  Conv=0.76D-08     -V/T= 2.0052

 **********************************************************************

            Population analysis using the SCF density.

 **********************************************************************

 Orbital symmetries:
       Occupied  (A) (A) (A) (A) (A) (A) (A) (A) (A) (A) (A) (A)
                 (A) (A) (A) (A) (A) (A) (A) (A) (A) (A) (A) (A)
                 (A) (A) (A) (A) (A) (A) (A) (A) (A) (A) (A) (A)
                 (A) (A) (A) (A) (A) (A) (A) (A) (A) (A) (A) (A)
                 (A) (A) (A) (A) (A) (A) (A) (A) (A) (A) (A) (A)
                 (A) (A) (A) (A) (A)
       Virtual   (A) (A) (A) (A) (A) (A) (A) (A) (A) (A) (A) (A)
                 (A) (A) (A) (A) (A) (A) (A) (A) (A) (A) (A) (A)
                 (A) (A) (A) (A) (A) (A) (A) (A) (A) (A) (A) (A)
                 (A) (A) (A) (A) (A) (A) (A) (A) (A) (A) (A) (A)
                 (A) (A) (A) (A) (A) (A) (A) (A) (A) (A) (A) (A)
                 (A) (A) (A) (A) (A) (A) (A) (A) (A) (A) (A) (A)
                 (A) (A) (A) (A) (A) (A) (A) (A) (A) (A) (A) (A)
                 (A) (A) (A) (A) (A) (A) (A) (A) (A) (A) (A) (A)
                 (A) (A) (A) (A) (A) (A) (A) (A) (A) (A) (A) (A)
                 (A) (A) (A) (A) (A) (A) (A) (A) (A) (A) (A) (A)
                 (A) (A) (A) (A) (A) (A) (A) (A) (A) (A) (A) (A)
                 (A) (A) (A) (A) (A) (A) (A) (A) (A) (A) (A) (A)
                 (A) (A) (A) (A) (A) (A) (A) (A) (A) (A) (A) (A)
                 (A) (A) (A) (A) (A) (A) (A) (A) (A) (A) (A) (A)
                 (A) (A) (A) (A) (A) (A) (A) (A) (A) (A) (A) (A)
                 (A) (A) (A) (A) (A) (A) (A) (A) (A) (A) (A) (A)
                 (A) (A) (A) (A) (A) (A) (A) (A) (A) (A) (A) (A)
                 (A) (A) (A) (A) (A) (A) (A) (A) (A) (A) (A) (A)
                 (A) (A) (A) (A) (A) (A) (A) (A) (A) (A) (A) (A)
                 (A) (A) (A) (A) (A) (A) (A) (A) (A) (A) (A) (A)
                 (A) (A) (A) (A) (A) (A) (A) (A) (A) (A) (A) (A)
                 (A) (A) (A) (A) (A) (A) (A) (A) (A) (A) (A) (A)
                 (A) (A) (A) (A) (A) (A) (A) (A) (A) (A) (A) (A)
                 (A) (A) (A) (A) (A) (A) (A) (A) (A) (A) (A) (A)
                 (A) (A) (A) (A) (A) (A) (A) (A) (A) (A) (A) (A)
                 (A) (A) (A) (A) (A) (A) (A) (A) (A) (A) (A) (A)
                 (A) (A) (A) (A) (A) (A) (A) (A) (A) (A) (A) (A)
                 (A) (A) (A) (A) (A) (A) (A) (A) (A) (A) (A) (A)
                 (A) (A) (A) (A) (A) (A) (A) (A) (A) (A) (A) (A)
                 (A) (A) (A) (A) (A) (A) (A) (A) (A) (A) (A) (A)
                 (A) (A) (A) (A) (A) (A) (A) (A) (A) (A) (A) (A)
                 (A) (A) (A) (A) (A) (A) (A) (A) (A) (A) (A) (A)
                 (A) (A) (A) (A) (A) (A) (A) (A) (A) (A) (A) (A)
                 (A) (A) (A) (A) (A) (A) (A) (A) (A) (A) (A) (A)
                 (A) (A) (A) (A) (A) (A) (A) (A) (A) (A) (A) (A)
                 (A) (A) (A) (A) (A) (A) (A) (A) (A) (A) (A) (A)
                 (A) (A) (A) (A) (A) (A) (A) (A) (A) (A) (A) (A)
                 (A) (A) (A) (A) (A) (A) (A) (A) (A) (A) (A) (A)
                 (A) (A) (A) (A) (A) (A) (A) (A) (A) (A) (A) (A)
                 (A) (A) (A) (A) (A) (A) (A) (A) (A) (A) (A) (A)
                 (A) (A) (A) (A) (A) (A) (A) (A) (A) (A) (A) (A)
                 (A) (A) (A) (A) (A) (A) (A) (A) (A) (A) (A) (A)
                 (A) (A) (A) (A) (A) (A) (A) (A) (A) (A) (A) (A)
                 (A) (A) (A) (A) (A) (A) (A) (A) (A) (A) (A) (A)
                 (A) (A) (A) (A) (A) (A) (A) (A) (A) (A) (A) (A)
                 (A) (A) (A) (A) (A) (A) (A) (A) (A) (A) (A) (A)
                 (A) (A) (A) (A) (A) (A) (A) (A) (A) (A) (A) (A)
                 (A) (A) (A) (A) (A) (A) (A) (A) (A) (A) (A) (A)
 The electronic state is 1-A.
 Alpha  occ. eigenvalues --  -25.27351 -25.26820 -19.59958 -14.75176 -10.64539
 Alpha  occ. eigenvalues --  -10.64513 -10.58247 -10.57321 -10.57319 -10.57116
 Alpha  occ. eigenvalues --  -10.56740 -10.55973 -10.55874 -10.53975 -10.53736
 Alpha  occ. eigenvalues --  -10.52908 -10.52696  -1.38481  -1.38175  -1.12210
 Alpha  occ. eigenvalues --   -1.03144  -0.98531  -0.90946  -0.87732  -0.86273
 Alpha  occ. eigenvalues --   -0.85804  -0.78956  -0.75702  -0.74748  -0.72943
 Alpha  occ. eigenvalues --   -0.70955  -0.69684  -0.65564  -0.64016  -0.62664
 Alpha  occ. eigenvalues --   -0.58957  -0.58306  -0.57656  -0.57451  -0.57059
 Alpha  occ. eigenvalues --   -0.55367  -0.55220  -0.54637  -0.52457  -0.51158
 Alpha  occ. eigenvalues --   -0.49795  -0.48573  -0.48502  -0.48045  -0.47735
 Alpha  occ. eigenvalues --   -0.46129  -0.45616  -0.44556  -0.44089  -0.43950
 Alpha  occ. eigenvalues --   -0.42646  -0.42016  -0.40283  -0.39440  -0.38333
 Alpha  occ. eigenvalues --   -0.37576  -0.33153  -0.32132  -0.31497  -0.30728
 Alpha virt. eigenvalues --    0.00180   0.01633   0.06089   0.07312   0.07790
 Alpha virt. eigenvalues --    0.08826   0.09250   0.10980   0.11375   0.11898
 Alpha virt. eigenvalues --    0.12547   0.12609   0.13174   0.13719   0.13944
 Alpha virt. eigenvalues --    0.15070   0.15311   0.16014   0.16947   0.17397
 Alpha virt. eigenvalues --    0.17704   0.18129   0.18366   0.19053   0.19567
 Alpha virt. eigenvalues --    0.20273   0.20844   0.21586   0.21852   0.22084
 Alpha virt. eigenvalues --    0.23145   0.23470   0.24239   0.24665   0.25306
 Alpha virt. eigenvalues --    0.26081   0.26521   0.26867   0.27548   0.27693
 Alpha virt. eigenvalues --    0.28955   0.29373   0.29829   0.30516   0.31901
 Alpha virt. eigenvalues --    0.32588   0.33120   0.33892   0.34853   0.35079
 Alpha virt. eigenvalues --    0.36362   0.36938   0.36954   0.37401   0.37803
 Alpha virt. eigenvalues --    0.37914   0.38677   0.39016   0.39334   0.40258
 Alpha virt. eigenvalues --    0.40778   0.41364   0.41703   0.42259   0.43017
 Alpha virt. eigenvalues --    0.43624   0.43743   0.44264   0.44770   0.45178
 Alpha virt. eigenvalues --    0.45341   0.46398   0.46560   0.47298   0.47810
 Alpha virt. eigenvalues --    0.48483   0.48585   0.48763   0.49813   0.50263
 Alpha virt. eigenvalues --    0.50972   0.51375   0.51694   0.52051   0.52271
 Alpha virt. eigenvalues --    0.53193   0.53582   0.54329   0.54465   0.54688
 Alpha virt. eigenvalues --    0.55316   0.55409   0.56836   0.57354   0.58012
 Alpha virt. eigenvalues --    0.58286   0.59264   0.60354   0.61870   0.63200
 Alpha virt. eigenvalues --    0.63948   0.64538   0.65003   0.66502   0.67034
 Alpha virt. eigenvalues --    0.68201   0.69360   0.69908   0.70448   0.70616
 Alpha virt. eigenvalues --    0.71150   0.72186   0.72896   0.74253   0.75153
 Alpha virt. eigenvalues --    0.76186   0.77717   0.78497   0.78750   0.79731
 Alpha virt. eigenvalues --    0.80518   0.81159   0.82333   0.83254   0.85036
 Alpha virt. eigenvalues --    0.85611   0.86462   0.87511   0.88019   0.89012
 Alpha virt. eigenvalues --    0.89531   0.90152   0.90726   0.91069   0.91600
 Alpha virt. eigenvalues --    0.92685   0.93352   0.94721   0.95965   0.96554
 Alpha virt. eigenvalues --    0.97549   0.98642   1.00001   1.00765   1.01437
 Alpha virt. eigenvalues --    1.02387   1.02624   1.04659   1.05049   1.06979
 Alpha virt. eigenvalues --    1.08378   1.09159   1.09685   1.10652   1.11546
 Alpha virt. eigenvalues --    1.13093   1.13201   1.14210   1.14878   1.15108
 Alpha virt. eigenvalues --    1.15917   1.16747   1.18847   1.19146   1.19878
 Alpha virt. eigenvalues --    1.21161   1.23614   1.24037   1.24530   1.25395
 Alpha virt. eigenvalues --    1.25992   1.26668   1.28334   1.28945   1.29885
 Alpha virt. eigenvalues --    1.31869   1.32152   1.33800   1.34294   1.35971
 Alpha virt. eigenvalues --    1.36611   1.37025   1.39006   1.39120   1.42020
 Alpha virt. eigenvalues --    1.42842   1.44657   1.45986   1.47173   1.49639
 Alpha virt. eigenvalues --    1.50090   1.50837   1.51459   1.53242   1.54526
 Alpha virt. eigenvalues --    1.55447   1.56725   1.57692   1.57983   1.58463
 Alpha virt. eigenvalues --    1.58771   1.59680   1.60359   1.60716   1.61797
 Alpha virt. eigenvalues --    1.62727   1.63496   1.63801   1.64336   1.64860
 Alpha virt. eigenvalues --    1.66342   1.66748   1.67357   1.67877   1.68646
 Alpha virt. eigenvalues --    1.69009   1.70288   1.70817   1.71638   1.71894
 Alpha virt. eigenvalues --    1.72664   1.74048   1.74594   1.76347   1.79698
 Alpha virt. eigenvalues --    1.80361   1.82968   1.83684   1.85763   1.87514
 Alpha virt. eigenvalues --    1.87797   1.88399   1.89422   1.89996   1.91123
 Alpha virt. eigenvalues --    1.92263   1.92925   1.93896   1.95999   1.97014
 Alpha virt. eigenvalues --    1.97435   1.98051   1.98622   1.99848   2.01176
 Alpha virt. eigenvalues --    2.03568   2.03977   2.04636   2.05971   2.08319
 Alpha virt. eigenvalues --    2.08875   2.10223   2.10438   2.11663   2.12963
 Alpha virt. eigenvalues --    2.13146   2.14038   2.14832   2.15884   2.16646
 Alpha virt. eigenvalues --    2.16768   2.18359   2.19092   2.20278   2.21627
 Alpha virt. eigenvalues --    2.22011   2.23790   2.24108   2.26623   2.27242
 Alpha virt. eigenvalues --    2.28329   2.28862   2.29232   2.30162   2.31843
 Alpha virt. eigenvalues --    2.31976   2.33267   2.34492   2.35741   2.36703
 Alpha virt. eigenvalues --    2.37288   2.38489   2.40123   2.40760   2.41499
 Alpha virt. eigenvalues --    2.42358   2.43039   2.43419   2.45144   2.46465
 Alpha virt. eigenvalues --    2.46983   2.48213   2.49958   2.51057   2.52785
 Alpha virt. eigenvalues --    2.53467   2.54138   2.54859   2.55961   2.56427
 Alpha virt. eigenvalues --    2.57047   2.57385   2.58324   2.58485   2.59717
 Alpha virt. eigenvalues --    2.60021   2.60603   2.61569   2.61792   2.62759
 Alpha virt. eigenvalues --    2.63834   2.64530   2.65287   2.66003   2.66643
 Alpha virt. eigenvalues --    2.66970   2.67541   2.69409   2.70264   2.70939
 Alpha virt. eigenvalues --    2.71817   2.72055   2.73187   2.74253   2.75395
 Alpha virt. eigenvalues --    2.75917   2.76120   2.77249   2.77694   2.78653
 Alpha virt. eigenvalues --    2.80388   2.81104   2.81726   2.81861   2.84552
 Alpha virt. eigenvalues --    2.85114   2.85495   2.86538   2.88088   2.89316
 Alpha virt. eigenvalues --    2.89667   2.90737   2.91543   2.92640   2.93374
 Alpha virt. eigenvalues --    2.94649   2.95491   2.96479   2.97572   2.98434
 Alpha virt. eigenvalues --    3.00841   3.01275   3.01934   3.02728   3.03794
 Alpha virt. eigenvalues --    3.04475   3.04991   3.06579   3.07095   3.08534
 Alpha virt. eigenvalues --    3.08933   3.09480   3.10886   3.11726   3.12344
 Alpha virt. eigenvalues --    3.12624   3.13506   3.14511   3.15684   3.16868
 Alpha virt. eigenvalues --    3.17163   3.17668   3.19530   3.20520   3.21282
 Alpha virt. eigenvalues --    3.21461   3.22994   3.24196   3.24637   3.24973
 Alpha virt. eigenvalues --    3.25834   3.26305   3.27098   3.27733   3.29990
 Alpha virt. eigenvalues --    3.30251   3.31291   3.31425   3.32098   3.32824
 Alpha virt. eigenvalues --    3.33454   3.34845   3.36577   3.36997   3.37693
 Alpha virt. eigenvalues --    3.37893   3.39192   3.39941   3.41474   3.41640
 Alpha virt. eigenvalues --    3.42573   3.43604   3.44727   3.46208   3.46221
 Alpha virt. eigenvalues --    3.46762   3.48143   3.49576   3.50361   3.51406
 Alpha virt. eigenvalues --    3.52500   3.53299   3.53613   3.54608   3.55462
 Alpha virt. eigenvalues --    3.55884   3.56894   3.57341   3.58332   3.58777
 Alpha virt. eigenvalues --    3.61146   3.61227   3.62554   3.63243   3.64367
 Alpha virt. eigenvalues --    3.65392   3.66632   3.67471   3.68533   3.70148
 Alpha virt. eigenvalues --    3.71424   3.73882   3.76616   3.78175   3.79362
 Alpha virt. eigenvalues --    3.80957   3.82586   3.82972   3.85009   3.86819
 Alpha virt. eigenvalues --    3.87316   3.89553   3.90059   3.92161   3.93216
 Alpha virt. eigenvalues --    3.94806   3.98894   3.99355   4.01210   4.02000
 Alpha virt. eigenvalues --    4.03296   4.03596   4.04976   4.05816   4.06322
 Alpha virt. eigenvalues --    4.09051   4.09378   4.10799   4.11817   4.12973
 Alpha virt. eigenvalues --    4.13545   4.14011   4.15659   4.16776   4.18488
 Alpha virt. eigenvalues --    4.19643   4.20731   4.21163   4.21258   4.23929
 Alpha virt. eigenvalues --    4.24089   4.27303   4.31227   4.32582   4.33724
 Alpha virt. eigenvalues --    4.35042   4.35397   4.36685   4.39756   4.40648
 Alpha virt. eigenvalues --    4.44206   4.44920   4.47925   4.49034   4.51549
 Alpha virt. eigenvalues --    4.53915   4.54982   4.56327   4.56863   4.61053
 Alpha virt. eigenvalues --    4.63419   4.65001   4.66125   4.67033   4.69549
 Alpha virt. eigenvalues --    4.72005   4.74403   4.78391   4.79638   4.84129
 Alpha virt. eigenvalues --    4.85043   4.87108   4.91120   4.92964   4.94594
 Alpha virt. eigenvalues --    5.00589   5.02866   5.08668   5.10438   5.13052
 Alpha virt. eigenvalues --    5.15454   5.21190   5.27407   5.28705   5.30984
 Alpha virt. eigenvalues --    5.32772   5.37248   5.39891   5.41208   5.43425
 Alpha virt. eigenvalues --    5.51574   5.51955   5.58144   5.63622   5.68078
 Alpha virt. eigenvalues --    5.74369   5.78569   5.88608   5.95206   6.27840
 Alpha virt. eigenvalues --    6.49685   6.74095   6.78665   6.90170   6.90446
 Alpha virt. eigenvalues --    6.90823   6.92086   6.98971   6.99366   7.00471
 Alpha virt. eigenvalues --    7.08112   7.09744   7.19525   7.21318   7.24163
 Alpha virt. eigenvalues --    7.35752   7.39099   7.53144   7.55674   8.35796
 Alpha virt. eigenvalues --    8.37460   8.52462   8.55278   8.73958   8.75099
 Alpha virt. eigenvalues --    8.96180   8.96444   9.00182   9.02837  22.20819
 Alpha virt. eigenvalues --   22.42672  22.48348  22.54144  22.61995  22.65870
 Alpha virt. eigenvalues --   22.73864  22.75030  22.76217  22.76845  22.93507
 Alpha virt. eigenvalues --   23.02539  23.47754  32.63412  44.06319  57.47194
 Alpha virt. eigenvalues --   57.55652
          Condensed to atoms (all electrons):
               1          2          3          4          5          6
     1  C    5.049324   0.240439  -0.046920   0.007754  -0.000197   0.000387
     2  C    0.240439   5.359495   0.052316   0.032365   0.003094  -0.016145
     3  C   -0.046920   0.052316   5.794238   0.051569  -0.024840   0.027782
     4  C    0.007754   0.032365   0.051569   5.431687   0.265823  -0.048104
     5  C   -0.000197   0.003094  -0.024840   0.265823   4.907469   0.225685
     6  O    0.000387  -0.016145   0.027782  -0.048104   0.225685   8.149703
     7  N    0.006838  -0.014694   0.026862  -0.029400   0.018714  -0.065321
     8  C   -0.002625   0.010216  -0.061619   0.022469  -0.004524   0.020083
     9  C   -0.000004  -0.000003   0.000019  -0.000020   0.000005  -0.000022
    10  C    0.000034  -0.000019   0.000077   0.000065  -0.000015   0.000034
    11  C    0.000136  -0.001036   0.008262  -0.002000   0.000059  -0.000601
    12  C    0.000027  -0.001370   0.017288  -0.005942   0.000850  -0.007848
    13  C   -0.000164   0.000660  -0.007380   0.001607  -0.000005   0.002826
    14  C    0.000002   0.000015  -0.000330   0.000125  -0.000009   0.000261
    15  H    0.000000   0.000000   0.000000   0.000000   0.000000   0.000000
    16  H   -0.000001   0.000000   0.000001   0.000000   0.000000   0.000000
    17  H    0.000000   0.000000  -0.000001   0.000000   0.000000   0.000000
    18  F   -0.000647  -0.000715  -0.000143  -0.000032   0.000001   0.000000
    19  F    0.000000   0.000001   0.000615  -0.000485   0.000049  -0.000148
    20  H    0.424242  -0.050835   0.012430  -0.000425  -0.000026   0.000003
    21  H    0.416813  -0.048059   0.001541  -0.000706   0.000043  -0.000003
    22  H    0.415296  -0.036612  -0.013204   0.000160  -0.000002  -0.000028
    23  H   -0.029012   0.435628  -0.072211   0.013082  -0.007112   0.000200
    24  H   -0.039162   0.401300  -0.003636  -0.027257   0.003593   0.005409
    25  H   -0.000717   0.013514  -0.111573   0.465024  -0.057826   0.004855
    26  H    0.000065   0.022819  -0.060316  -0.026789   0.430640  -0.050410
    27  H    0.000069  -0.002752   0.023809  -0.053041   0.428116  -0.032625
    28  H    0.000061  -0.005334   0.013823  -0.018320  -0.038755   0.314102
    29  H   -0.001440   0.003438  -0.004180  -0.003349   0.000133  -0.000213
    30  H    0.000268  -0.001693   0.019031  -0.004560  -0.000195  -0.002610
    31  H   -0.016114  -0.039214   0.486520  -0.079249   0.007754  -0.000905
    32  C   -0.000044  -0.004727  -0.050816   0.262479  -0.056766   0.007504
    33  H   -0.000242   0.004749  -0.027326  -0.012459  -0.013404   0.000016
    34  H    0.000042   0.000334   0.014286  -0.049767  -0.005100   0.000020
    35  H    0.000129  -0.004137   0.008585  -0.054741   0.010296  -0.000381
    36  H    0.007226  -0.011710  -0.037984   0.004034  -0.000949   0.000761
               7          8          9         10         11         12
     1  C    0.006838  -0.002625  -0.000004   0.000034   0.000136   0.000027
     2  C   -0.014694   0.010216  -0.000003  -0.000019  -0.001036  -0.001370
     3  C    0.026862  -0.061619   0.000019   0.000077   0.008262   0.017288
     4  C   -0.029400   0.022469  -0.000020   0.000065  -0.002000  -0.005942
     5  C    0.018714  -0.004524   0.000005  -0.000015   0.000059   0.000850
     6  O   -0.065321   0.020083  -0.000022   0.000034  -0.000601  -0.007848
     7  N    7.123578   0.145174   0.000818  -0.000821   0.005087  -0.042675
     8  C    0.145174   5.271912  -0.009988   0.014566  -0.114399   0.210614
     9  C    0.000818  -0.009988   5.041617   0.412624  -0.004993  -0.095474
    10  C   -0.000821   0.014566   0.412624   5.083168   0.488519   0.024491
    11  C    0.005087  -0.114399  -0.004993   0.488519   4.921973   0.266161
    12  C   -0.042675   0.210614  -0.095474   0.024491   0.266161   5.645587
    13  C    0.026899  -0.079949  -0.002872  -0.098943   0.038340   0.233658
    14  C   -0.000923   0.019927   0.410818  -0.012582  -0.098516   0.011962
    15  H    0.000001   0.000062   0.403845  -0.025840   0.002911  -0.000532
    16  H    0.000018  -0.000074  -0.029963   0.412686  -0.041506   0.012919
    17  H   -0.000002  -0.000287  -0.033082   0.004397  -0.000911   0.013395
    18  F   -0.004851   0.019878   0.008824  -0.048403   0.236647  -0.077354
    19  F   -0.000413   0.004946   0.010112  -0.000863   0.008403  -0.075071
    20  H   -0.000054   0.000145   0.000000   0.000001   0.000007  -0.000023
    21  H   -0.001243   0.000264   0.000000   0.000000   0.000051  -0.000027
    22  H    0.000874  -0.002171  -0.000014   0.000039  -0.001174   0.001269
    23  H    0.006499  -0.000932   0.000000   0.000000   0.000005   0.000089
    24  H   -0.005103  -0.001381   0.000004  -0.000008   0.000374   0.000193
    25  H    0.003602   0.007699  -0.000006   0.000005  -0.000645  -0.003446
    26  H    0.001873   0.001309   0.000000   0.000000  -0.000059  -0.000322
    27  H   -0.001625  -0.000432   0.000000   0.000000   0.000009   0.000128
    28  H    0.037120  -0.011184   0.000101  -0.000180   0.000947   0.001949
    29  H   -0.050753   0.405308   0.000484  -0.002825  -0.014071  -0.023447
    30  H   -0.043097   0.426521  -0.000389   0.000594   0.015573  -0.025014
    31  H   -0.042436  -0.022725   0.000010  -0.000047   0.000596   0.003104
    32  C    0.006864   0.001793   0.000000   0.000000  -0.000009  -0.000385
    33  H   -0.000047   0.000089   0.000000   0.000000  -0.000002  -0.000005
    34  H   -0.000481  -0.000073   0.000000   0.000000   0.000000  -0.000004
    35  H    0.000433  -0.000248   0.000000   0.000000   0.000005   0.000067
    36  H    0.379890  -0.041352  -0.000074   0.000123  -0.003553  -0.010558
              13         14         15         16         17         18
     1  C   -0.000164   0.000002   0.000000  -0.000001   0.000000  -0.000647
     2  C    0.000660   0.000015   0.000000   0.000000   0.000000  -0.000715
     3  C   -0.007380  -0.000330   0.000000   0.000001  -0.000001  -0.000143
     4  C    0.001607   0.000125   0.000000   0.000000   0.000000  -0.000032
     5  C   -0.000005  -0.000009   0.000000   0.000000   0.000000   0.000001
     6  O    0.002826   0.000261   0.000000   0.000000   0.000000   0.000000
     7  N    0.026899  -0.000923   0.000001   0.000018  -0.000002  -0.004851
     8  C   -0.079949   0.019927   0.000062  -0.000074  -0.000287   0.019878
     9  C   -0.002872   0.410818   0.403845  -0.029963  -0.033082   0.008824
    10  C   -0.098943  -0.012582  -0.025840   0.412686   0.004397  -0.048403
    11  C    0.038340  -0.098516   0.002911  -0.041506  -0.000911   0.236647
    12  C    0.233658   0.011962  -0.000532   0.012919   0.013395  -0.077354
    13  C    4.885002   0.497450   0.001968  -0.000738  -0.040172   0.006433
    14  C    0.497450   5.081039  -0.023843   0.003669   0.412863  -0.000794
    15  H    0.001968  -0.023843   0.474697  -0.003226  -0.003277  -0.000104
    16  H   -0.000738   0.003669  -0.003226   0.470128  -0.000147   0.001561
    17  H   -0.040172   0.412863  -0.003277  -0.000147   0.472516   0.000011
    18  F    0.006433  -0.000794  -0.000104   0.001561   0.000011   9.070430
    19  F    0.248412  -0.049173  -0.000105   0.000010   0.001439  -0.000033
    20  H   -0.000001   0.000000   0.000000   0.000000   0.000000   0.000028
    21  H    0.000006   0.000000   0.000000   0.000000   0.000000  -0.000014
    22  H   -0.000042   0.000008   0.000000   0.000011   0.000000   0.002161
    23  H   -0.000007   0.000000   0.000000   0.000000   0.000000  -0.000004
    24  H   -0.000050  -0.000007   0.000000   0.000000   0.000000   0.000024
    25  H    0.002084   0.000083   0.000000   0.000000   0.000000  -0.000005
    26  H    0.000089   0.000004   0.000000   0.000000   0.000000   0.000000
    27  H   -0.000072  -0.000003   0.000000   0.000000   0.000000   0.000000
    28  H    0.000690  -0.000349   0.000001  -0.000002  -0.000001  -0.000008
    29  H    0.017369  -0.000363   0.000002  -0.000029   0.000007   0.000085
    30  H   -0.039009  -0.001119   0.000004   0.000002  -0.000026   0.000495
    31  H    0.000185  -0.000018   0.000000  -0.000001   0.000000   0.000088
    32  C    0.000050   0.000001   0.000000   0.000000   0.000000   0.000000
    33  H    0.000002   0.000000   0.000000   0.000000   0.000000   0.000000
    34  H   -0.000002   0.000000   0.000000   0.000000   0.000000   0.000000
    35  H   -0.000006   0.000000   0.000000   0.000000   0.000000   0.000000
    36  H   -0.000176   0.000101   0.000000   0.000026   0.000001   0.006415
              19         20         21         22         23         24
     1  C    0.000000   0.424242   0.416813   0.415296  -0.029012  -0.039162
     2  C    0.000001  -0.050835  -0.048059  -0.036612   0.435628   0.401300
     3  C    0.000615   0.012430   0.001541  -0.013204  -0.072211  -0.003636
     4  C   -0.000485  -0.000425  -0.000706   0.000160   0.013082  -0.027257
     5  C    0.000049  -0.000026   0.000043  -0.000002  -0.007112   0.003593
     6  O   -0.000148   0.000003  -0.000003  -0.000028   0.000200   0.005409
     7  N   -0.000413  -0.000054  -0.001243   0.000874   0.006499  -0.005103
     8  C    0.004946   0.000145   0.000264  -0.002171  -0.000932  -0.001381
     9  C    0.010112   0.000000   0.000000  -0.000014   0.000000   0.000004
    10  C   -0.000863   0.000001   0.000000   0.000039   0.000000  -0.000008
    11  C    0.008403   0.000007   0.000051  -0.001174   0.000005   0.000374
    12  C   -0.075071  -0.000023  -0.000027   0.001269   0.000089   0.000193
    13  C    0.248412  -0.000001   0.000006  -0.000042  -0.000007  -0.000050
    14  C   -0.049173   0.000000   0.000000   0.000008   0.000000  -0.000007
    15  H   -0.000105   0.000000   0.000000   0.000000   0.000000   0.000000
    16  H    0.000010   0.000000   0.000000   0.000011   0.000000   0.000000
    17  H    0.001439   0.000000   0.000000   0.000000   0.000000   0.000000
    18  F   -0.000033   0.000028  -0.000014   0.002161  -0.000004   0.000024
    19  F    9.052553   0.000000   0.000000   0.000000   0.000000   0.000000
    20  H    0.000000   0.514852  -0.023299  -0.023034  -0.004372  -0.003897
    21  H    0.000000  -0.023299   0.534412  -0.030506  -0.005995   0.007204
    22  H    0.000000  -0.023034  -0.030506   0.541442   0.006398  -0.004408
    23  H    0.000000  -0.004372  -0.005995   0.006398   0.532509  -0.022038
    24  H    0.000000  -0.003897   0.007204  -0.004408  -0.022038   0.523078
    25  H    0.000145   0.000013  -0.000010   0.000013  -0.000038  -0.000932
    26  H   -0.000001   0.000021  -0.000057   0.000038  -0.001376  -0.014961
    27  H    0.000002  -0.000001   0.000001  -0.000002  -0.000003   0.000762
    28  H    0.000409  -0.000016   0.000000   0.000066   0.000141   0.002223
    29  H    0.000314  -0.000035   0.000049   0.000418   0.000040  -0.000027
    30  H    0.010295   0.000003  -0.000004  -0.000035   0.000026   0.000154
    31  H    0.000002  -0.000144   0.003406   0.000837   0.000793   0.006777
    32  C    0.000003   0.000056  -0.000125  -0.000007  -0.006588   0.000763
    33  H    0.000000   0.000039   0.000142  -0.000031  -0.004074   0.000305
    34  H    0.000000  -0.000001  -0.000007   0.000001   0.000279  -0.000063
    35  H    0.000000  -0.000001   0.000017   0.000006   0.000754   0.000051
    36  H   -0.000065  -0.000259  -0.000596   0.005487   0.000928  -0.002448
              25         26         27         28         29         30
     1  C   -0.000717   0.000065   0.000069   0.000061  -0.001440   0.000268
     2  C    0.013514   0.022819  -0.002752  -0.005334   0.003438  -0.001693
     3  C   -0.111573  -0.060316   0.023809   0.013823  -0.004180   0.019031
     4  C    0.465024  -0.026789  -0.053041  -0.018320  -0.003349  -0.004560
     5  C   -0.057826   0.430640   0.428116  -0.038755   0.000133  -0.000195
     6  O    0.004855  -0.050410  -0.032625   0.314102  -0.000213  -0.002610
     7  N    0.003602   0.001873  -0.001625   0.037120  -0.050753  -0.043097
     8  C    0.007699   0.001309  -0.000432  -0.011184   0.405308   0.426521
     9  C   -0.000006   0.000000   0.000000   0.000101   0.000484  -0.000389
    10  C    0.000005   0.000000   0.000000  -0.000180  -0.002825   0.000594
    11  C   -0.000645  -0.000059   0.000009   0.000947  -0.014071   0.015573
    12  C   -0.003446  -0.000322   0.000128   0.001949  -0.023447  -0.025014
    13  C    0.002084   0.000089  -0.000072   0.000690   0.017369  -0.039009
    14  C    0.000083   0.000004  -0.000003  -0.000349  -0.000363  -0.001119
    15  H    0.000000   0.000000   0.000000   0.000001   0.000002   0.000004
    16  H    0.000000   0.000000   0.000000  -0.000002  -0.000029   0.000002
    17  H    0.000000   0.000000   0.000000  -0.000001   0.000007  -0.000026
    18  F   -0.000005   0.000000   0.000000  -0.000008   0.000085   0.000495
    19  F    0.000145  -0.000001   0.000002   0.000409   0.000314   0.010295
    20  H    0.000013   0.000021  -0.000001  -0.000016  -0.000035   0.000003
    21  H   -0.000010  -0.000057   0.000001   0.000000   0.000049  -0.000004
    22  H    0.000013   0.000038  -0.000002   0.000066   0.000418  -0.000035
    23  H   -0.000038  -0.001376  -0.000003   0.000141   0.000040   0.000026
    24  H   -0.000932  -0.014961   0.000762   0.002223  -0.000027   0.000154
    25  H    0.584230   0.012748  -0.013802  -0.000591   0.001903  -0.010182
    26  H    0.012748   0.596506  -0.047940  -0.004143   0.000034  -0.000361
    27  H   -0.013802  -0.047940   0.565556   0.006796  -0.000021   0.000394
    28  H   -0.000591  -0.004143   0.006796   0.338430   0.000751  -0.000206
    29  H    0.001903   0.000034  -0.000021   0.000751   0.523846  -0.030812
    30  H   -0.010182  -0.000361   0.000394  -0.000206  -0.030812   0.503066
    31  H   -0.002469  -0.000727  -0.000295   0.001009   0.006118  -0.000974
    32  C   -0.028246   0.002686  -0.006518  -0.001212   0.000230   0.000033
    33  H    0.009433   0.006042  -0.001417  -0.000003   0.000004  -0.000087
    34  H   -0.008371  -0.000209   0.002959  -0.000022  -0.000013   0.000110
    35  H   -0.006924  -0.000817  -0.000057   0.000070   0.000038   0.000190
    36  H   -0.000378  -0.000070   0.000056  -0.000347  -0.003573   0.004996
              31         32         33         34         35         36
     1  C   -0.016114  -0.000044  -0.000242   0.000042   0.000129   0.007226
     2  C   -0.039214  -0.004727   0.004749   0.000334  -0.004137  -0.011710
     3  C    0.486520  -0.050816  -0.027326   0.014286   0.008585  -0.037984
     4  C   -0.079249   0.262479  -0.012459  -0.049767  -0.054741   0.004034
     5  C    0.007754  -0.056766  -0.013404  -0.005100   0.010296  -0.000949
     6  O   -0.000905   0.007504   0.000016   0.000020  -0.000381   0.000761
     7  N   -0.042436   0.006864  -0.000047  -0.000481   0.000433   0.379890
     8  C   -0.022725   0.001793   0.000089  -0.000073  -0.000248  -0.041352
     9  C    0.000010   0.000000   0.000000   0.000000   0.000000  -0.000074
    10  C   -0.000047   0.000000   0.000000   0.000000   0.000000   0.000123
    11  C    0.000596  -0.000009  -0.000002   0.000000   0.000005  -0.003553
    12  C    0.003104  -0.000385  -0.000005  -0.000004   0.000067  -0.010558
    13  C    0.000185   0.000050   0.000002  -0.000002  -0.000006  -0.000176
    14  C   -0.000018   0.000001   0.000000   0.000000   0.000000   0.000101
    15  H    0.000000   0.000000   0.000000   0.000000   0.000000   0.000000
    16  H   -0.000001   0.000000   0.000000   0.000000   0.000000   0.000026
    17  H    0.000000   0.000000   0.000000   0.000000   0.000000   0.000001
    18  F    0.000088   0.000000   0.000000   0.000000   0.000000   0.006415
    19  F    0.000002   0.000003   0.000000   0.000000   0.000000  -0.000065
    20  H   -0.000144   0.000056   0.000039  -0.000001  -0.000001  -0.000259
    21  H    0.003406  -0.000125   0.000142  -0.000007   0.000017  -0.000596
    22  H    0.000837  -0.000007  -0.000031   0.000001   0.000006   0.005487
    23  H    0.000793  -0.006588  -0.004074   0.000279   0.000754   0.000928
    24  H    0.006777   0.000763   0.000305  -0.000063   0.000051  -0.002448
    25  H   -0.002469  -0.028246   0.009433  -0.008371  -0.006924  -0.000378
    26  H   -0.000727   0.002686   0.006042  -0.000209  -0.000817  -0.000070
    27  H   -0.000295  -0.006518  -0.001417   0.002959  -0.000057   0.000056
    28  H    0.001009  -0.001212  -0.000003  -0.000022   0.000070  -0.000347
    29  H    0.006118   0.000230   0.000004  -0.000013   0.000038  -0.003573
    30  H   -0.000974   0.000033  -0.000087   0.000110   0.000190   0.004996
    31  H    0.515667  -0.006120   0.000920  -0.000434   0.001634   0.001014
    32  C   -0.006120   5.091446   0.408996   0.425423   0.418684  -0.000446
    33  H    0.000920   0.408996   0.534583  -0.026139  -0.028603  -0.000020
    34  H   -0.000434   0.425423  -0.026139   0.508942  -0.021013   0.000024
    35  H    0.001634   0.418684  -0.028603  -0.021013   0.521411  -0.000010
    36  H    0.001014  -0.000446  -0.000020   0.000024  -0.000010   0.468586
 Mulliken charges:
               1
     1  C   -0.431862
     2  C   -0.341328
     3  C   -0.036575
     4  C   -0.141597
     5  C   -0.092599
     6  O   -0.534264
     7  N   -0.487205
     8  C   -0.229012
     9  C   -0.112375
    10  C   -0.250877
    11  C    0.289411
    12  C   -0.074248
    13  C    0.305855
    14  C   -0.250300
    15  H    0.173435
    16  H    0.174657
    17  H    0.173276
    18  F   -0.219973
    19  F   -0.211352
    20  H    0.154585
    21  H    0.146703
    22  H    0.136746
    23  H    0.156390
    24  H    0.173164
    25  H    0.140810
    26  H    0.133685
    27  H    0.131948
    28  H    0.361984
    29  H    0.174582
    30  H    0.178620
    31  H    0.175436
    32  C   -0.465002
    33  H    0.148538
    34  H    0.159279
    35  H    0.154569
    36  H    0.234899
 Sum of Mulliken charges =   0.00000
 Mulliken charges with hydrogens summed into heavy atoms:
               1
     1  C    0.006171
     2  C   -0.011774
     3  C    0.138862
     4  C   -0.000787
     5  C    0.173033
     6  O   -0.172280
     7  N   -0.252306
     8  C    0.124189
     9  C    0.061060
    10  C   -0.076220
    11  C    0.289411
    12  C   -0.074248
    13  C    0.305855
    14  C   -0.077024
    18  F   -0.219973
    19  F   -0.211352
    32  C   -0.002616
 Electronic spatial extent (au):  <R**2>=           4997.7458
 Charge=              0.0000 electrons
 Dipole moment (field-independent basis, Debye):
    X=             -1.1337    Y=              3.0567    Z=             -2.1074  Tot=              3.8820
 Quadrupole moment (field-independent basis, Debye-Ang):
   XX=            -81.9750   YY=           -108.2898   ZZ=           -107.7286
   XY=              2.7105   XZ=             -7.2424   YZ=              6.2095
 Traceless Quadrupole moment (field-independent basis, Debye-Ang):
   XX=             17.3561   YY=             -8.9586   ZZ=             -8.3975
   XY=              2.7105   XZ=             -7.2424   YZ=              6.2095
 Octapole moment (field-independent basis, Debye-Ang**2):
  XXX=            -74.3778  YYY=              6.3106  ZZZ=            -15.6268  XYY=             -7.1580
  XXY=             -1.2749  XXZ=             20.2182  XZZ=             -4.3478  YZZ=             11.7224
  YYZ=             -4.7096  XYZ=              6.8819
 Hexadecapole moment (field-independent basis, Debye-Ang**3):
 XXXX=          -4223.9414 YYYY=          -1528.4313 ZZZZ=           -489.3740 XXXY=              5.8918
 XXXZ=            -86.8157 YYYX=             -0.3801 YYYZ=             29.8992 ZZZX=              5.2607
 ZZZY=             21.4463 XXYY=           -956.8078 XXZZ=           -888.3123 YYZZ=           -346.8670
 XXYZ=             19.3772 YYXZ=            -21.3716 ZZXY=             14.0104
 N-N= 1.278206327781D+03 E-N=-4.512361882472D+03  KE= 8.321543043642D+02
 1\1\GINC-CPU-E-827\SP\RM062X\def2TZVP\C13H19F2N1O1\KE291\26-Jun-2019\0
 \\# m062x/def2tzvp int=ultrafine scrf=(solvent=chloroform)\\AT3_2ginp0
 02\\0,1\C,0,2.417837,2.930629,0.167177\C,0,2.812456,1.480444,0.478662\
 C,0,2.076616,0.438167,-0.383476\C,0,2.724816,-0.974114,-0.368249\C,0,2
 .803339,-1.582729,1.043249\O,0,1.53167,-1.777832,1.642687\N,0,0.667206
 ,0.346491,0.0814\C,0,-0.289837,-0.037452,-0.971266\C,0,-4.364267,0.016
 73,0.514586\C,0,-3.647427,1.21028,0.404493\C,0,-2.347307,1.149257,-0.0
 75184\C,0,-1.708545,-0.033264,-0.453894\C,0,-2.47305,-1.193537,-0.3181
 99\C,0,-3.781543,-1.197607,0.152739\H,0,-5.383291,0.034453,0.886268\H,
 0,-4.075191,2.166934,0.680575\H,0,-4.317575,-2.136333,0.229882\F,0,-1.
 635151,2.302552,-0.180035\F,0,-1.91429,-2.372569,-0.672468\H,0,2.95845
 9,3.62719,0.81513\H,0,2.654287,3.186576,-0.871387\H,0,1.348283,3.11828
 ,0.315048\H,0,3.89107,1.37198,0.328366\H,0,2.624289,1.263255,1.537488\
 H,0,2.063902,-1.629528,-0.952064\H,0,3.451756,-0.952016,1.67697\H,0,3.
 293778,-2.563169,0.980819\H,0,0.98678,-1.021691,1.330267\H,0,-0.219636
 ,0.636024,-1.84128\H,0,-0.047151,-1.042107,-1.320807\H,0,2.101921,0.79
 5699,-1.429465\C,0,4.100258,-0.988375,-1.049924\H,0,4.856066,-0.453678
 ,-0.464618\H,0,4.454723,-2.015949,-1.17853\H,0,4.057914,-0.524265,-2.0
 41151\H,0,0.380702,1.255142,0.435449\\Version=ES64L-G09RevD.01\State=1
 -A\HF=-836.4619716\RMSD=7.618e-09\Dipole=-0.4460322,1.2025908,-0.82911
 47\Quadrupole=12.903856,-6.6605308,-6.2433252,2.0152155,-5.3845313,4.6
 165995\PG=C01 [X(C13H19F2N1O1)]\\@


 WHEN ALL ELSE FAILS, LOOK AT THE SCHRODINGER EQUATION.
     -- RUSSELL T. PACK, APRIL 1978
 Job cpu time:       0 days  1 hours 14 minutes 34.6 seconds.
 File lengths (MBytes):  RWF=    324 Int=      0 D2E=      0 Chk=     17 Scr=      1
 Normal termination of Gaussian 09 at Wed Jun 26 12:21:42 2019.
