 Entering Gaussian System, Link 0=/usr/local/Cluster-Apps/gaussian/g09/g09
 Initial command:
 /usr/local/Cluster-Apps/gaussian/g09/l1.exe "/home/ke291/rds/hpc-work/26Jun1158AT3NMR/Gau-19470.inp" -scrdir="/home/ke291/rds/hpc-work/26Jun1158AT3NMR/"
 Entering Link 1 = /usr/local/Cluster-Apps/gaussian/g09/l1.exe PID=     19479.
  
 Copyright (c) 1988,1990,1992,1993,1995,1998,2003,2009,2013,
            Gaussian, Inc.  All Rights Reserved.
  
 This is part of the Gaussian(R) 09 program.  It is based on
 the Gaussian(R) 03 system (copyright 2003, Gaussian, Inc.),
 the Gaussian(R) 98 system (copyright 1998, Gaussian, Inc.),
 the Gaussian(R) 94 system (copyright 1995, Gaussian, Inc.),
 the Gaussian 92(TM) system (copyright 1992, Gaussian, Inc.),
 the Gaussian 90(TM) system (copyright 1990, Gaussian, Inc.),
 the Gaussian 88(TM) system (copyright 1988, Gaussian, Inc.),
 the Gaussian 86(TM) system (copyright 1986, Carnegie Mellon
 University), and the Gaussian 82(TM) system (copyright 1983,
 Carnegie Mellon University). Gaussian is a federally registered
 trademark of Gaussian, Inc.
  
 This software contains proprietary and confidential information,
 including trade secrets, belonging to Gaussian, Inc.
  
 This software is provided under written license and may be
 used, copied, transmitted, or stored only in accord with that
 written license.
  
 The following legend is applicable only to US Government
 contracts under FAR:
  
                    RESTRICTED RIGHTS LEGEND
  
 Use, reproduction and disclosure by the US Government is
 subject to restrictions as set forth in subparagraphs (a)
 and (c) of the Commercial Computer Software - Restricted
 Rights clause in FAR 52.227-19.
  
 Gaussian, Inc.
 340 Quinnipiac St., Bldg. 40, Wallingford CT 06492
  
  
 ---------------------------------------------------------------
 Warning -- This program may not be used in any manner that
 competes with the business of Gaussian, Inc. or will provide
 assistance to any competitor of Gaussian, Inc.  The licensee
 of this program is prohibited from giving any competitor of
 Gaussian, Inc. access to this program.  By using this program,
 the user acknowledges that Gaussian, Inc. is engaged in the
 business of creating and licensing software in the field of
 computational chemistry and represents and warrants to the
 licensee that it is not a competitor of Gaussian, Inc. and that
 it will not use this program in any manner prohibited above.
 ---------------------------------------------------------------
  

 Cite this work as:
 Gaussian 09, Revision D.01,
 M. J. Frisch, G. W. Trucks, H. B. Schlegel, G. E. Scuseria, 
 M. A. Robb, J. R. Cheeseman, G. Scalmani, V. Barone, B. Mennucci, 
 G. A. Petersson, H. Nakatsuji, M. Caricato, X. Li, H. P. Hratchian, 
 A. F. Izmaylov, J. Bloino, G. Zheng, J. L. Sonnenberg, M. Hada, 
 M. Ehara, K. Toyota, R. Fukuda, J. Hasegawa, M. Ishida, T. Nakajima, 
 Y. Honda, O. Kitao, H. Nakai, T. Vreven, J. A. Montgomery, Jr., 
 J. E. Peralta, F. Ogliaro, M. Bearpark, J. J. Heyd, E. Brothers, 
 K. N. Kudin, V. N. Staroverov, T. Keith, R. Kobayashi, J. Normand, 
 K. Raghavachari, A. Rendell, J. C. Burant, S. S. Iyengar, J. Tomasi, 
 M. Cossi, N. Rega, J. M. Millam, M. Klene, J. E. Knox, J. B. Cross, 
 V. Bakken, C. Adamo, J. Jaramillo, R. Gomperts, R. E. Stratmann, 
 O. Yazyev, A. J. Austin, R. Cammi, C. Pomelli, J. W. Ochterski, 
 R. L. Martin, K. Morokuma, V. G. Zakrzewski, G. A. Voth, 
 P. Salvador, J. J. Dannenberg, S. Dapprich, A. D. Daniels, 
 O. Farkas, J. B. Foresman, J. V. Ortiz, J. Cioslowski, 
 and D. J. Fox, Gaussian, Inc., Wallingford CT, 2013.
 
 ******************************************
 Gaussian 09:  ES64L-G09RevD.01 24-Apr-2013
                26-Jun-2019 
 ******************************************
 %nprocshared=4
 Will use up to    4 processors via shared memory.
 %mem=6000MB
 %chk=AT3_2ginp008.chk
 --------------------------------------------------------
 # m062x/def2tzvp int=ultrafine scrf=(solvent=chloroform)
 --------------------------------------------------------
 1/38=1/1;
 2/12=2,17=6,18=5,40=1/2;
 3/5=44,7=101,11=2,16=1,25=1,30=1,70=2201,72=7,74=-55,75=-5/1,2,3;
 4//1;
 5/5=2,38=5,53=7/2;
 6/7=2,8=2,9=2,10=2,28=1/1;
 99/5=1,9=1/99;
 ------------
 AT3_2ginp008
 ------------
 Symbolic Z-matrix:
 Charge =  0 Multiplicity = 1
 C                    -2.05203   3.19573  -0.20721 
 C                    -2.55355   1.77955  -0.51943 
 C                    -1.89487   0.68326   0.34002 
 C                    -2.67265  -0.66066   0.34894 
 C                    -2.91564  -1.20174  -1.06085 
 O                    -3.36223  -2.55593  -0.94472 
 N                    -0.51284   0.46616  -0.12932 
 C                     0.41109   0.02896   0.92533 
 C                     4.46506  -0.31432  -0.58659 
 C                     3.86527   0.94199  -0.47679 
 C                     2.5678    1.00692   0.01086 
 C                     1.82131  -0.10708   0.39992 
 C                     2.47144  -1.33458   0.26238 
 C                     3.77068  -1.46586  -0.21652 
 H                     5.47888  -0.39507  -0.96422 
 H                     4.38015   1.85282  -0.75935 
 H                     4.21378  -2.45204  -0.29277 
 F                     1.97132   2.22416   0.11343 
 F                     1.80621  -2.45583   0.6237 
 H                    -2.53126   3.93252  -0.85939 
 H                    -2.27648   3.47019   0.8294 
 H                    -0.96956   3.2977   -0.34485 
 H                    -3.63795   1.75214  -0.3706 
 H                    -2.38      1.54979  -1.5786 
 H                    -2.02356  -1.3977    0.8414 
 H                    -1.98047  -1.14191  -1.63324 
 H                    -3.67176  -0.59094  -1.57882 
 H                    -3.52861  -2.88465  -1.83757 
 H                     0.41848   0.72145   1.78624 
 H                     0.08653  -0.94216   1.30403 
 H                    -1.8902    1.04788   1.38568 
 C                    -3.97183  -0.58326   1.16231 
 H                    -4.6826    0.1297    0.72913 
 H                    -4.46     -1.5605    1.18635 
 H                    -3.77492  -0.27333   2.19436 
 H                    -0.15318   1.33996  -0.50263 
 
                          Input orientation:                          
 ---------------------------------------------------------------------
 Center     Atomic      Atomic             Coordinates (Angstroms)
 Number     Number       Type             X           Y           Z
 ---------------------------------------------------------------------
      1          6           0       -2.052027    3.195727   -0.207210
      2          6           0       -2.553547    1.779551   -0.519431
      3          6           0       -1.894874    0.683262    0.340024
      4          6           0       -2.672649   -0.660661    0.348941
      5          6           0       -2.915637   -1.201740   -1.060853
      6          8           0       -3.362227   -2.555925   -0.944715
      7          7           0       -0.512839    0.466164   -0.129315
      8          6           0        0.411094    0.028955    0.925332
      9          6           0        4.465061   -0.314317   -0.586594
     10          6           0        3.865270    0.941985   -0.476791
     11          6           0        2.567801    1.006921    0.010857
     12          6           0        1.821313   -0.107080    0.399922
     13          6           0        2.471441   -1.334583    0.262377
     14          6           0        3.770679   -1.465858   -0.216516
     15          1           0        5.478883   -0.395069   -0.964222
     16          1           0        4.380149    1.852822   -0.759350
     17          1           0        4.213782   -2.452042   -0.292767
     18          9           0        1.971323    2.224163    0.113434
     19          9           0        1.806214   -2.455834    0.623696
     20          1           0       -2.531259    3.932523   -0.859392
     21          1           0       -2.276475    3.470186    0.829396
     22          1           0       -0.969563    3.297701   -0.344853
     23          1           0       -3.637946    1.752137   -0.370598
     24          1           0       -2.380001    1.549792   -1.578596
     25          1           0       -2.023559   -1.397699    0.841402
     26          1           0       -1.980466   -1.141912   -1.633244
     27          1           0       -3.671761   -0.590937   -1.578821
     28          1           0       -3.528609   -2.884651   -1.837568
     29          1           0        0.418480    0.721446    1.786242
     30          1           0        0.086525   -0.942157    1.304034
     31          1           0       -1.890198    1.047883    1.385680
     32          6           0       -3.971830   -0.583255    1.162310
     33          1           0       -4.682596    0.129704    0.729126
     34          1           0       -4.459997   -1.560502    1.186354
     35          1           0       -3.774919   -0.273327    2.194363
     36          1           0       -0.153180    1.339961   -0.502632
 ---------------------------------------------------------------------
                    Distance matrix (angstroms):
                    1          2          3          4          5
     1  C    0.000000
     2  C    1.534457   0.000000
     3  C    2.576168   1.540897   0.000000
     4  C    3.945403   2.592854   1.552785   0.000000
     5  C    4.562044   3.051613   2.560790   1.529486   0.000000
     6  O    5.944917   4.430709   3.781007   2.396057   1.430646
     7  N    3.134594   2.457980   1.475612   2.482588   3.069708
     8  C    4.168700   3.733768   2.467426   3.212050   4.065302
     9  C    7.411935   7.324592   6.504042   7.207086   7.448969
    10  C    6.337699   6.473372   5.823520   6.781939   7.135642
    11  C    5.116760   5.206378   4.486488   5.509759   6.007898
    12  C    5.126393   4.852215   3.799773   4.528217   5.076499
    13  C    6.419189   5.963184   4.810658   5.188769   5.548801
    14  C    7.458845   7.114792   6.084977   6.518018   6.744589
    15  H    8.377439   8.333471   7.565458   8.260896   8.433743
    16  H    6.594023   6.938232   6.477068   7.568875   7.915159
    17  H    8.435934   7.984641   6.895378   7.144492   7.278862
    18  F    4.151397   4.590495   4.168117   5.472125   6.082610
    19  F    6.893226   6.184880   4.861321   4.833048   5.167817
    20  H    1.094474   2.179761   3.521545   4.751568   5.152571
    21  H    1.095562   2.180447   2.855179   4.177522   5.080203
    22  H    1.095935   2.200968   2.856667   4.364686   4.954274
    23  H    2.150764   1.094908   2.164666   2.696503   3.118264
    24  H    2.167341   1.097606   2.160399   2.947396   2.850595
    25  H    4.711683   3.496809   2.144374   1.098663   2.110160
    26  H    4.566597   3.178671   2.689307   2.154014   1.098069
    27  H    4.340931   2.826999   2.909102   2.172407   1.101406
    28  H    6.466016   4.943987   4.487873   3.234134   1.952232
    29  H    4.024838   3.907513   2.728481   3.678469   4.787581
    30  H    4.896871   4.207458   2.738110   2.933340   3.830542
    31  H    2.678940   2.145884   1.107414   2.146201   3.478197
    32  C    4.454429   3.228410   2.567872   1.534742   2.537818
    33  H    4.146940   2.968794   2.868662   2.192967   2.845859
    34  H    5.510177   4.207162   3.511496   2.169237   2.750218
    35  H    4.557438   3.615347   2.808595   2.184172   3.492384
    36  H    2.671472   2.440345   2.043238   3.327971   3.795132
                    6          7          8          9         10
     6  O    0.000000
     7  N    4.232837   0.000000
     8  C    4.941319   1.468702   0.000000
     9  C    8.149816   5.059421   4.340323   0.000000
    10  C    8.043074   4.417577   3.838086   1.396460   0.000000
    11  C    6.983711   3.130880   2.538517   2.387931   1.387603
    12  C    5.888461   2.461090   1.511052   2.829411   2.459049
    13  C    6.081154   3.507426   2.558080   2.395040   2.769818
    14  C    7.252370   4.699877   3.850337   1.394694   2.423716
    15  H    9.101368   6.110608   5.425191   1.084877   2.151523
    16  H    8.911554   5.124558   4.681671   2.175671   1.083773
    17  H    7.604718   5.557301   4.701016   2.172405   3.416833
    18  F    7.239867   3.052957   2.812904   3.626658   2.362071
    19  F    5.402103   3.805667   2.865575   3.622204   4.122615
    20  H    6.541999   4.077092   5.203895   8.188929   7.071441
    21  H    6.374978   3.612989   4.367414   7.859758   6.768970
    22  H    6.352135   2.876222   3.768857   6.529950   5.379816
    23  H    4.354886   3.387955   4.587321   8.365142   7.547574
    24  H    4.268897   2.600184   4.046333   7.163368   6.370778
    25  H    2.514703   2.588156   2.823105   6.731648   6.472253
    26  H    2.093506   2.646061   3.692804   6.582189   6.312895
    27  H    2.087841   3.632811   4.829571   8.201762   7.769888
    28  H    0.965883   4.820888   5.625298   8.489424   8.435894
    29  H    5.700266   2.145200   1.104882   4.803954   4.129203
    30  H    4.422105   2.096925   1.091705   4.810430   4.582602
    31  H    4.537074   2.128550   2.558531   6.792258   6.050242
    32  C    2.950016   3.838515   4.431815   8.620448   8.150653
    33  H    3.428953   4.270480   5.098463   9.252454   8.670643
    34  H    2.595654   4.628003   5.130500   9.184388   8.850907
    35  H    3.903124   4.072775   4.384577   8.696705   8.184408
    36  H    5.066690   1.015993   2.018966   4.906306   4.038192
                   11         12         13         14         15
    11  C    0.000000
    12  C    1.396286   0.000000
    13  C    2.356945   1.395833   0.000000
    14  C    2.759212   2.454853   1.390896   0.000000
    15  H    3.375019   3.914287   3.381115   2.150259   0.000000
    16  H    2.143215   3.425313   3.853134   3.417566   2.510419
    17  H    3.842638   3.420902   2.143047   1.083842   2.506486
    18  F    1.359407   2.353566   3.596801   4.118592   4.508292
    19  F    3.598091   2.359438   1.352879   2.354810   4.500748
    20  H    5.942802   6.070350   7.350359   8.322874   9.105022
    21  H    5.495879   5.456477   6.778645   7.875693   8.848889
    22  H    4.229320   4.464999   5.802352   6.721448   7.456717
    23  H    6.261961   5.818410   6.874090   8.078797   9.385065
    24  H    5.225114   4.930598   5.936774   6.984287   8.119236
    25  H    5.249056   4.079662   4.532580   5.890419   7.781528
    26  H    5.292191   4.433753   4.842518   5.931924   7.526437
    27  H    6.634181   5.858618   6.456156   7.616513   9.173352
    28  H    7.465067   6.429847   6.543170   7.610545   9.385929
    29  H    2.802333   2.139224   3.280864   4.475777   5.866800
    30  H    3.409977   2.127031   2.631895   4.019866   5.875527
    31  H    4.665359   4.010109   5.095277   6.397769   7.868132
    32  C    6.827978   5.862464   6.549054   7.913697   9.688835
    33  H    7.338506   6.516539   7.317256   8.654358  10.314963
    34  H    7.573863   6.495057   6.996399   8.349912  10.235455
    35  H    6.829116   5.879241   6.623885   8.010650   9.778769
    36  H    2.788965   2.609052   3.824534   4.832303   5.911305
                   16         17         18         19         20
    16  H    0.000000
    17  H    4.333270   0.000000
    18  F    2.588839   5.201972   0.000000
    19  F    5.206004   2.576102   4.710626   0.000000
    20  H    7.218222   9.304800   4.913057   7.862845   0.000000
    21  H    7.032114   8.857509   4.484302   7.199193   1.769371
    22  H    5.556879   7.741403   3.164067   6.461129   1.762567
    23  H    8.028145   8.906785   5.649867   6.952303   2.493543
    24  H    6.816349   7.819591   4.717177   6.198349   2.493500
    25  H    7.357701   6.426694   5.441223   3.979222   5.617982
    26  H    7.084458   6.471633   5.477041   4.599904   5.162568
    27  H    8.454392   8.203623   6.529388   6.191699   4.720171
    28  H    9.281953   7.906844   7.756007   5.890844   6.958836
    29  H    4.843023   5.366342   2.732721   3.656833   5.100133
    30  H    5.523103   4.675872   3.872412   2.389855   5.941019
    31  H    6.675802   7.233618   4.232445   5.149768   3.711126
    32  C    8.909703   8.521377   6.656035   6.097741   5.153133
    33  H    9.344412   9.319615   7.002890   6.985755   4.648986
    34  H    9.673920   8.844042   7.539013   6.354809   6.170772
    35  H    8.930289   8.645921   6.602047   6.195109   5.344276
    36  H    4.569464   5.787373   2.382197   4.417680   3.536088
                   21         22         23         24         25
    21  H    0.000000
    22  H    1.765398   0.000000
    23  H    2.499056   3.083780   0.000000
    24  H    3.081729   2.562546   1.755742   0.000000
    25  H    4.874466   4.956298   3.741211   3.830293   0.000000
    26  H    5.236761   4.732023   3.566095   2.721743   2.488204
    27  H    4.923317   4.893471   2.636464   2.500273   3.037254
    28  H    7.004605   6.855537   4.864541   4.588099   3.413661
    29  H    3.966599   3.620127   4.708383   4.454188   3.368539
    30  H    5.027705   4.670176   4.892371   4.539066   2.207714
    31  H    2.515197   2.983956   2.575871   3.046104   2.508963
    32  C    4.406296   5.132930   2.813422   3.820520   2.135898
    33  H    4.118045   4.997624   2.221030   3.555865   3.068557
    34  H    5.495726   6.174938   3.751459   4.652447   2.466116
    35  H    4.257036   5.202872   3.271130   4.416421   2.482333
    36  H    3.289459   2.126998   3.511540   2.482027   3.577643
                   26         27         28         29         30
    26  H    0.000000
    27  H    1.779611   0.000000
    28  H    2.340007   2.312697   0.000000
    29  H    4.573831   5.456745   6.458750   0.000000
    30  H    3.597215   4.749623   5.168379   1.763602   0.000000
    31  H    3.730583   3.827266   5.342148   2.365799   2.806129
    32  C    3.477463   2.757517   3.806854   4.622376   4.076658
    33  H    3.807795   2.620635   4.123826   5.242960   4.921780
    34  H    3.778019   3.034397   3.430009   5.419104   4.589887
    35  H    4.315678   3.787933   4.810005   4.329057   4.018802
    36  H    3.282827   4.155353   5.569822   2.438914   2.920542
                   31         32         33         34         35
    31  H    0.000000
    32  C    2.653996   0.000000
    33  H    3.011910   1.095969   0.000000
    34  H    3.667052   1.092656   1.765051   0.000000
    35  H    2.439618   1.095428   1.770093   1.772635   0.000000
    36  H    2.582298   4.588342   4.847428   5.460223   4.795151
                   36
    36  H    0.000000
 Stoichiometry    C13H19F2NO
 Framework group  C1[X(C13H19F2NO)]
 Deg. of freedom   102
 Full point group                 C1      NOp   1
 Largest Abelian subgroup         C1      NOp   1
 Largest concise Abelian subgroup C1      NOp   1
                         Standard orientation:                         
 ---------------------------------------------------------------------
 Center     Atomic      Atomic             Coordinates (Angstroms)
 Number     Number       Type             X           Y           Z
 ---------------------------------------------------------------------
      1          6           0       -2.052027    3.195727   -0.207210
      2          6           0       -2.553547    1.779551   -0.519431
      3          6           0       -1.894874    0.683262    0.340024
      4          6           0       -2.672649   -0.660661    0.348941
      5          6           0       -2.915637   -1.201740   -1.060853
      6          8           0       -3.362227   -2.555925   -0.944715
      7          7           0       -0.512839    0.466164   -0.129315
      8          6           0        0.411094    0.028955    0.925332
      9          6           0        4.465061   -0.314317   -0.586594
     10          6           0        3.865270    0.941985   -0.476791
     11          6           0        2.567801    1.006921    0.010857
     12          6           0        1.821313   -0.107080    0.399922
     13          6           0        2.471441   -1.334583    0.262377
     14          6           0        3.770679   -1.465858   -0.216516
     15          1           0        5.478883   -0.395069   -0.964222
     16          1           0        4.380149    1.852822   -0.759350
     17          1           0        4.213782   -2.452042   -0.292767
     18          9           0        1.971323    2.224163    0.113434
     19          9           0        1.806214   -2.455834    0.623696
     20          1           0       -2.531259    3.932523   -0.859392
     21          1           0       -2.276475    3.470186    0.829396
     22          1           0       -0.969563    3.297701   -0.344853
     23          1           0       -3.637946    1.752137   -0.370598
     24          1           0       -2.380001    1.549792   -1.578596
     25          1           0       -2.023559   -1.397699    0.841402
     26          1           0       -1.980466   -1.141912   -1.633244
     27          1           0       -3.671761   -0.590937   -1.578821
     28          1           0       -3.528609   -2.884651   -1.837568
     29          1           0        0.418480    0.721446    1.786242
     30          1           0        0.086525   -0.942157    1.304034
     31          1           0       -1.890198    1.047883    1.385680
     32          6           0       -3.971830   -0.583255    1.162310
     33          1           0       -4.682596    0.129704    0.729126
     34          1           0       -4.459997   -1.560502    1.186354
     35          1           0       -3.774919   -0.273327    2.194363
     36          1           0       -0.153180    1.339961   -0.502632
 ---------------------------------------------------------------------
 Rotational constants (GHZ):      0.6645399      0.2589841      0.2024668
 Standard basis: def2TZVP (5D, 7F)
 There are   726 symmetry adapted cartesian basis functions of A   symmetry.
 There are   641 symmetry adapted basis functions of A   symmetry.
   641 basis functions,  1019 primitive gaussians,   726 cartesian basis functions
    65 alpha electrons       65 beta electrons
       nuclear repulsion energy      1254.9191800595 Hartrees.
 NAtoms=   36 NActive=   36 NUniq=   36 SFac= 1.00D+00 NAtFMM=   60 NAOKFM=F Big=F
 Integral buffers will be    131072 words long.
 Raffenetti 2 integral format.
 Two-electron integral symmetry is turned on.
 ------------------------------------------------------------------------------
 Polarizable Continuum Model (PCM)
 =================================
 Model                : PCM (using non-symmetric T matrix).
 Atomic radii         : UFF (Universal Force Field).
 Polarization charges : Total charges.
 Charge compensation  : None.
 Solution method      : On-the-fly selection.
 Cavity type          : Scaled VdW (van der Waals Surface) (Alpha=1.100).
 Cavity algorithm     : GePol (No added spheres)
                        Default sphere list used, NSphG=   36.
                        Lebedev-Laikov grids with approx.  5.0 points / Ang**2.
                        Smoothing algorithm: Karplus/York (Gamma=1.0000).
                        Polarization charges: spherical gaussians, with
                                              point-specific exponents (IZeta= 3).
                        Self-potential: point-specific (ISelfS= 7).
                        Self-field    : sphere-specific E.n sum rule (ISelfD= 2).
 Solvent              : Chloroform, Eps=   4.711300 Eps(inf)=   2.090627
 ------------------------------------------------------------------------------
 One-electron integrals computed using PRISM.
   1 Symmetry operations used in ECPInt.
 ECPInt:  NShTT=   34716 NPrTT=  103716 LenC2=   30756 LenP2D=   66547.
 LDataN:  DoStor=T MaxTD1= 6 Len=  172
 NBasis=   641 RedAO= T EigKep=  1.16D-05  NBF=   641
 NBsUse=   641 1.00D-06 EigRej= -1.00D+00 NBFU=   641
 ExpMin= 9.52D-02 ExpMax= 3.55D+04 ExpMxC= 1.21D+03 IAcc=3 IRadAn=         5 AccDes= 0.00D+00
 Harris functional with IExCor= 1009 and IRadAn=       5 diagonalized for initial guess.
 HarFok:  IExCor= 1009 AccDes= 0.00D+00 IRadAn=         5 IDoV= 1 UseB2=F ITyADJ=14
 ICtDFT=  3500011 ScaDFX=  1.000000  1.000000  1.000000  1.000000
 FoFCou: FMM=F IPFlag=           0 FMFlag=      100000 FMFlg1=           0
         NFxFlg=           0 DoJE=T BraDBF=F KetDBF=T FulRan=T
         wScrn=  0.000000 ICntrl=     500 IOpCl=  0 I1Cent=   200000004 NGrid=           0
         NMat0=    1 NMatS0=      1 NMatT0=    0 NMatD0=    1 NMtDS0=    0 NMtDT0=    0
 Petite list used in FoFCou.
 Requested convergence on RMS density matrix=1.00D-08 within 128 cycles.
 Requested convergence on MAX density matrix=1.00D-06.
 Requested convergence on             energy=1.00D-06.
 No special actions if energy rises.
 Inv3:  Mode=1 IEnd=    19845552.
 Iteration    1 A*A^-1 deviation from unit magnitude is 5.33D-15 for    621.
 Iteration    1 A*A^-1 deviation from orthogonality  is 3.25D-15 for   2546     58.
 Iteration    1 A^-1*A deviation from unit magnitude is 5.11D-15 for   1911.
 Iteration    1 A^-1*A deviation from orthogonality  is 4.46D-08 for   2144   2143.
 Iteration    2 A*A^-1 deviation from unit magnitude is 6.33D-15 for    622.
 Iteration    2 A*A^-1 deviation from orthogonality  is 5.12D-15 for   2159    637.
 Iteration    2 A^-1*A deviation from unit magnitude is 1.11D-15 for   1303.
 Iteration    2 A^-1*A deviation from orthogonality  is 4.27D-16 for   1750   1008.
 Error on total polarization charges =  0.01256
 SCF Done:  E(RM062X) =  -836.455612410     A.U. after   12 cycles
            NFock= 12  Conv=0.74D-08     -V/T= 2.0052

 **********************************************************************

            Population analysis using the SCF density.

 **********************************************************************

 Orbital symmetries:
       Occupied  (A) (A) (A) (A) (A) (A) (A) (A) (A) (A) (A) (A)
                 (A) (A) (A) (A) (A) (A) (A) (A) (A) (A) (A) (A)
                 (A) (A) (A) (A) (A) (A) (A) (A) (A) (A) (A) (A)
                 (A) (A) (A) (A) (A) (A) (A) (A) (A) (A) (A) (A)
                 (A) (A) (A) (A) (A) (A) (A) (A) (A) (A) (A) (A)
                 (A) (A) (A) (A) (A)
       Virtual   (A) (A) (A) (A) (A) (A) (A) (A) (A) (A) (A) (A)
                 (A) (A) (A) (A) (A) (A) (A) (A) (A) (A) (A) (A)
                 (A) (A) (A) (A) (A) (A) (A) (A) (A) (A) (A) (A)
                 (A) (A) (A) (A) (A) (A) (A) (A) (A) (A) (A) (A)
                 (A) (A) (A) (A) (A) (A) (A) (A) (A) (A) (A) (A)
                 (A) (A) (A) (A) (A) (A) (A) (A) (A) (A) (A) (A)
                 (A) (A) (A) (A) (A) (A) (A) (A) (A) (A) (A) (A)
                 (A) (A) (A) (A) (A) (A) (A) (A) (A) (A) (A) (A)
                 (A) (A) (A) (A) (A) (A) (A) (A) (A) (A) (A) (A)
                 (A) (A) (A) (A) (A) (A) (A) (A) (A) (A) (A) (A)
                 (A) (A) (A) (A) (A) (A) (A) (A) (A) (A) (A) (A)
                 (A) (A) (A) (A) (A) (A) (A) (A) (A) (A) (A) (A)
                 (A) (A) (A) (A) (A) (A) (A) (A) (A) (A) (A) (A)
                 (A) (A) (A) (A) (A) (A) (A) (A) (A) (A) (A) (A)
                 (A) (A) (A) (A) (A) (A) (A) (A) (A) (A) (A) (A)
                 (A) (A) (A) (A) (A) (A) (A) (A) (A) (A) (A) (A)
                 (A) (A) (A) (A) (A) (A) (A) (A) (A) (A) (A) (A)
                 (A) (A) (A) (A) (A) (A) (A) (A) (A) (A) (A) (A)
                 (A) (A) (A) (A) (A) (A) (A) (A) (A) (A) (A) (A)
                 (A) (A) (A) (A) (A) (A) (A) (A) (A) (A) (A) (A)
                 (A) (A) (A) (A) (A) (A) (A) (A) (A) (A) (A) (A)
                 (A) (A) (A) (A) (A) (A) (A) (A) (A) (A) (A) (A)
                 (A) (A) (A) (A) (A) (A) (A) (A) (A) (A) (A) (A)
                 (A) (A) (A) (A) (A) (A) (A) (A) (A) (A) (A) (A)
                 (A) (A) (A) (A) (A) (A) (A) (A) (A) (A) (A) (A)
                 (A) (A) (A) (A) (A) (A) (A) (A) (A) (A) (A) (A)
                 (A) (A) (A) (A) (A) (A) (A) (A) (A) (A) (A) (A)
                 (A) (A) (A) (A) (A) (A) (A) (A) (A) (A) (A) (A)
                 (A) (A) (A) (A) (A) (A) (A) (A) (A) (A) (A) (A)
                 (A) (A) (A) (A) (A) (A) (A) (A) (A) (A) (A) (A)
                 (A) (A) (A) (A) (A) (A) (A) (A) (A) (A) (A) (A)
                 (A) (A) (A) (A) (A) (A) (A) (A) (A) (A) (A) (A)
                 (A) (A) (A) (A) (A) (A) (A) (A) (A) (A) (A) (A)
                 (A) (A) (A) (A) (A) (A) (A) (A) (A) (A) (A) (A)
                 (A) (A) (A) (A) (A) (A) (A) (A) (A) (A) (A) (A)
                 (A) (A) (A) (A) (A) (A) (A) (A) (A) (A) (A) (A)
                 (A) (A) (A) (A) (A) (A) (A) (A) (A) (A) (A) (A)
                 (A) (A) (A) (A) (A) (A) (A) (A) (A) (A) (A) (A)
                 (A) (A) (A) (A) (A) (A) (A) (A) (A) (A) (A) (A)
                 (A) (A) (A) (A) (A) (A) (A) (A) (A) (A) (A) (A)
                 (A) (A) (A) (A) (A) (A) (A) (A) (A) (A) (A) (A)
                 (A) (A) (A) (A) (A) (A) (A) (A) (A) (A) (A) (A)
                 (A) (A) (A) (A) (A) (A) (A) (A) (A) (A) (A) (A)
                 (A) (A) (A) (A) (A) (A) (A) (A) (A) (A) (A) (A)
                 (A) (A) (A) (A) (A) (A) (A) (A) (A) (A) (A) (A)
                 (A) (A) (A) (A) (A) (A) (A) (A) (A) (A) (A) (A)
                 (A) (A) (A) (A) (A) (A) (A) (A) (A) (A) (A) (A)
                 (A) (A) (A) (A) (A) (A) (A) (A) (A) (A) (A) (A)
 The electronic state is 1-A.
 Alpha  occ. eigenvalues --  -25.27075 -25.26642 -19.62152 -14.73677 -10.64284
 Alpha  occ. eigenvalues --  -10.64277 -10.57552 -10.57315 -10.57006 -10.56643
 Alpha  occ. eigenvalues --  -10.56565 -10.55797 -10.55720 -10.53447 -10.53410
 Alpha  occ. eigenvalues --  -10.52645 -10.51861  -1.38208  -1.37974  -1.13754
 Alpha  occ. eigenvalues --   -1.02318  -0.98273  -0.90585  -0.87317  -0.86064
 Alpha  occ. eigenvalues --   -0.85489  -0.78412  -0.76355  -0.74180  -0.72713
 Alpha  occ. eigenvalues --   -0.70503  -0.69037  -0.65318  -0.62571  -0.62173
 Alpha  occ. eigenvalues --   -0.59010  -0.58501  -0.57933  -0.57391  -0.57218
 Alpha  occ. eigenvalues --   -0.55191  -0.54762  -0.54275  -0.52910  -0.51321
 Alpha  occ. eigenvalues --   -0.49732  -0.49132  -0.48009  -0.47803  -0.47320
 Alpha  occ. eigenvalues --   -0.45581  -0.44709  -0.44067  -0.43730  -0.43387
 Alpha  occ. eigenvalues --   -0.42363  -0.41438  -0.40196  -0.39113  -0.38229
 Alpha  occ. eigenvalues --   -0.36420  -0.34656  -0.31852  -0.31312  -0.29826
 Alpha virt. eigenvalues --    0.00454   0.01816   0.06359   0.07168   0.07954
 Alpha virt. eigenvalues --    0.08458   0.09234   0.10200   0.11479   0.11791
 Alpha virt. eigenvalues --    0.12269   0.12589   0.13475   0.13878   0.14496
 Alpha virt. eigenvalues --    0.14834   0.15250   0.15819   0.16529   0.17361
 Alpha virt. eigenvalues --    0.18035   0.18128   0.18484   0.19084   0.19922
 Alpha virt. eigenvalues --    0.20646   0.20952   0.21958   0.22042   0.22208
 Alpha virt. eigenvalues --    0.22955   0.23313   0.23912   0.24763   0.25778
 Alpha virt. eigenvalues --    0.26275   0.26847   0.27619   0.28529   0.28615
 Alpha virt. eigenvalues --    0.29056   0.29553   0.30048   0.30473   0.31431
 Alpha virt. eigenvalues --    0.31912   0.33050   0.34026   0.34529   0.35327
 Alpha virt. eigenvalues --    0.36410   0.37085   0.37164   0.37510   0.38002
 Alpha virt. eigenvalues --    0.38659   0.38960   0.39324   0.39756   0.39845
 Alpha virt. eigenvalues --    0.40944   0.41619   0.41728   0.42482   0.42569
 Alpha virt. eigenvalues --    0.43234   0.44267   0.44807   0.45156   0.45387
 Alpha virt. eigenvalues --    0.45574   0.46772   0.46961   0.47275   0.48189
 Alpha virt. eigenvalues --    0.48568   0.49127   0.49464   0.49632   0.50321
 Alpha virt. eigenvalues --    0.51328   0.51856   0.52003   0.52470   0.52953
 Alpha virt. eigenvalues --    0.53254   0.53550   0.54377   0.54654   0.55391
 Alpha virt. eigenvalues --    0.55621   0.56096   0.56666   0.57220   0.58163
 Alpha virt. eigenvalues --    0.58815   0.59187   0.60694   0.61277   0.63482
 Alpha virt. eigenvalues --    0.63889   0.64625   0.65156   0.65473   0.66716
 Alpha virt. eigenvalues --    0.67372   0.68479   0.69507   0.69740   0.70412
 Alpha virt. eigenvalues --    0.70815   0.72631   0.73069   0.73676   0.75089
 Alpha virt. eigenvalues --    0.76514   0.77824   0.78170   0.78513   0.79279
 Alpha virt. eigenvalues --    0.79897   0.81071   0.82070   0.83072   0.84462
 Alpha virt. eigenvalues --    0.85490   0.86426   0.86703   0.88834   0.89310
 Alpha virt. eigenvalues --    0.89659   0.90262   0.90927   0.91590   0.92124
 Alpha virt. eigenvalues --    0.92890   0.93927   0.94913   0.95762   0.96213
 Alpha virt. eigenvalues --    0.97114   0.98742   1.00055   1.01025   1.01637
 Alpha virt. eigenvalues --    1.02931   1.03936   1.04333   1.05559   1.06767
 Alpha virt. eigenvalues --    1.08032   1.08671   1.09312   1.09447   1.11149
 Alpha virt. eigenvalues --    1.11707   1.12540   1.13962   1.14701   1.15797
 Alpha virt. eigenvalues --    1.16508   1.17677   1.18397   1.19253   1.20141
 Alpha virt. eigenvalues --    1.20945   1.22800   1.23305   1.24016   1.25217
 Alpha virt. eigenvalues --    1.25380   1.26642   1.28876   1.29515   1.31212
 Alpha virt. eigenvalues --    1.31741   1.33091   1.33674   1.34143   1.36438
 Alpha virt. eigenvalues --    1.36675   1.38091   1.39184   1.39823   1.42540
 Alpha virt. eigenvalues --    1.43104   1.43941   1.45637   1.47072   1.47961
 Alpha virt. eigenvalues --    1.49574   1.51649   1.52295   1.54017   1.54789
 Alpha virt. eigenvalues --    1.55755   1.56904   1.57485   1.58219   1.58561
 Alpha virt. eigenvalues --    1.58923   1.60196   1.60711   1.61440   1.61705
 Alpha virt. eigenvalues --    1.62549   1.63185   1.64206   1.64741   1.65396
 Alpha virt. eigenvalues --    1.65907   1.66749   1.67551   1.68098   1.68370
 Alpha virt. eigenvalues --    1.69702   1.69862   1.70689   1.71077   1.72193
 Alpha virt. eigenvalues --    1.72734   1.73625   1.74503   1.75967   1.78142
 Alpha virt. eigenvalues --    1.79672   1.83078   1.84020   1.84099   1.85355
 Alpha virt. eigenvalues --    1.86935   1.88697   1.89357   1.89973   1.90129
 Alpha virt. eigenvalues --    1.91652   1.92720   1.93589   1.95855   1.96686
 Alpha virt. eigenvalues --    1.97390   1.98491   1.98762   2.00056   2.00365
 Alpha virt. eigenvalues --    2.02451   2.04104   2.04330   2.04980   2.07134
 Alpha virt. eigenvalues --    2.08546   2.09280   2.10451   2.10743   2.11453
 Alpha virt. eigenvalues --    2.12609   2.13859   2.15432   2.16008   2.17222
 Alpha virt. eigenvalues --    2.17400   2.17980   2.19337   2.20632   2.21159
 Alpha virt. eigenvalues --    2.22699   2.23597   2.24509   2.25677   2.25730
 Alpha virt. eigenvalues --    2.26542   2.28246   2.28811   2.29083   2.30192
 Alpha virt. eigenvalues --    2.31800   2.31880   2.34198   2.35088   2.35173
 Alpha virt. eigenvalues --    2.36132   2.37667   2.39003   2.39621   2.40225
 Alpha virt. eigenvalues --    2.40799   2.42376   2.43524   2.45027   2.45211
 Alpha virt. eigenvalues --    2.46144   2.46518   2.49297   2.49620   2.50643
 Alpha virt. eigenvalues --    2.52261   2.53820   2.54739   2.55132   2.55505
 Alpha virt. eigenvalues --    2.57444   2.58119   2.58619   2.59179   2.60164
 Alpha virt. eigenvalues --    2.60548   2.61353   2.61622   2.62341   2.63430
 Alpha virt. eigenvalues --    2.64100   2.64948   2.65575   2.66314   2.66636
 Alpha virt. eigenvalues --    2.67491   2.67962   2.70055   2.70649   2.71080
 Alpha virt. eigenvalues --    2.71548   2.73436   2.73614   2.75145   2.75705
 Alpha virt. eigenvalues --    2.76051   2.76743   2.77845   2.78263   2.78932
 Alpha virt. eigenvalues --    2.79953   2.81075   2.81838   2.83290   2.83585
 Alpha virt. eigenvalues --    2.84832   2.85574   2.86343   2.88507   2.88991
 Alpha virt. eigenvalues --    2.90311   2.90590   2.91689   2.92515   2.92749
 Alpha virt. eigenvalues --    2.93249   2.94429   2.95571   2.96470   2.97284
 Alpha virt. eigenvalues --    2.99479   3.00947   3.01748   3.02512   3.02996
 Alpha virt. eigenvalues --    3.03966   3.05004   3.05479   3.07934   3.08698
 Alpha virt. eigenvalues --    3.08929   3.10087   3.11465   3.11905   3.12514
 Alpha virt. eigenvalues --    3.13263   3.13716   3.14938   3.15383   3.16545
 Alpha virt. eigenvalues --    3.17731   3.17801   3.19660   3.19986   3.20729
 Alpha virt. eigenvalues --    3.21674   3.22400   3.22798   3.23705   3.25452
 Alpha virt. eigenvalues --    3.25489   3.26619   3.27078   3.27634   3.28588
 Alpha virt. eigenvalues --    3.30178   3.30891   3.30995   3.32440   3.32802
 Alpha virt. eigenvalues --    3.33610   3.34189   3.36515   3.37351   3.38391
 Alpha virt. eigenvalues --    3.39063   3.40167   3.40347   3.41363   3.42085
 Alpha virt. eigenvalues --    3.43201   3.43523   3.45499   3.46073   3.46746
 Alpha virt. eigenvalues --    3.47422   3.48023   3.49835   3.51030   3.51760
 Alpha virt. eigenvalues --    3.53071   3.53509   3.54251   3.55226   3.56148
 Alpha virt. eigenvalues --    3.56483   3.57376   3.58907   3.59265   3.59984
 Alpha virt. eigenvalues --    3.61508   3.62251   3.62859   3.63395   3.64552
 Alpha virt. eigenvalues --    3.66013   3.67463   3.68628   3.69838   3.71501
 Alpha virt. eigenvalues --    3.73711   3.74105   3.76515   3.77868   3.79008
 Alpha virt. eigenvalues --    3.81130   3.83182   3.84175   3.86502   3.87329
 Alpha virt. eigenvalues --    3.87621   3.88342   3.90310   3.92411   3.93286
 Alpha virt. eigenvalues --    3.93621   3.97464   3.99108   3.99885   4.01802
 Alpha virt. eigenvalues --    4.02530   4.03235   4.04598   4.05515   4.06888
 Alpha virt. eigenvalues --    4.08858   4.09579   4.10340   4.10843   4.12540
 Alpha virt. eigenvalues --    4.13975   4.14776   4.15627   4.17065   4.18461
 Alpha virt. eigenvalues --    4.19801   4.20489   4.21423   4.22393   4.23682
 Alpha virt. eigenvalues --    4.25571   4.27031   4.30734   4.34509   4.34987
 Alpha virt. eigenvalues --    4.35485   4.37215   4.38869   4.39751   4.41445
 Alpha virt. eigenvalues --    4.43588   4.45235   4.47995   4.50074   4.51595
 Alpha virt. eigenvalues --    4.53688   4.55127   4.55533   4.57115   4.61744
 Alpha virt. eigenvalues --    4.63132   4.64681   4.65282   4.71228   4.71693
 Alpha virt. eigenvalues --    4.74205   4.76774   4.78811   4.81405   4.83567
 Alpha virt. eigenvalues --    4.84835   4.87552   4.92223   4.92968   4.95236
 Alpha virt. eigenvalues --    5.00730   5.05514   5.08875   5.09979   5.13433
 Alpha virt. eigenvalues --    5.16411   5.22121   5.28455   5.29017   5.29730
 Alpha virt. eigenvalues --    5.31357   5.37733   5.39549   5.42341   5.43923
 Alpha virt. eigenvalues --    5.47600   5.52357   5.59531   5.63889   5.68371
 Alpha virt. eigenvalues --    5.72542   5.75426   5.87743   5.89788   6.26368
 Alpha virt. eigenvalues --    6.46646   6.68358   6.73457   6.90374   6.90598
 Alpha virt. eigenvalues --    6.91064   6.92269   6.97728   6.99544   7.00597
 Alpha virt. eigenvalues --    7.08292   7.09883   7.14396   7.21498   7.24241
 Alpha virt. eigenvalues --    7.35849   7.39250   7.53348   7.55616   8.35848
 Alpha virt. eigenvalues --    8.37578   8.52553   8.55427   8.74148   8.75198
 Alpha virt. eigenvalues --    8.96288   8.96499   9.00259   9.02939  22.20490
 Alpha virt. eigenvalues --   22.42812  22.48598  22.53346  22.62511  22.67145
 Alpha virt. eigenvalues --   22.73981  22.75670  22.77776  22.78711  22.93575
 Alpha virt. eigenvalues --   23.02670  23.47838  32.62215  44.00404  57.46693
 Alpha virt. eigenvalues --   57.55594
          Condensed to atoms (all electrons):
               1          2          3          4          5          6
     1  C    5.055415   0.248634  -0.053578   0.007722   0.001756  -0.000005
     2  C    0.248634   5.325752   0.117638   0.026573  -0.013424  -0.000596
     3  C   -0.053578   0.117638   5.599954  -0.011646   0.047874   0.008373
     4  C    0.007722   0.026573  -0.011646   5.623855   0.127028  -0.081501
     5  C    0.001756  -0.013424   0.047874   0.127028   5.058352   0.259147
     6  O   -0.000005  -0.000596   0.008373  -0.081501   0.259147   8.091945
     7  N    0.006878  -0.021783   0.131425  -0.019336  -0.035300   0.000415
     8  C   -0.002008   0.005301  -0.044571   0.006687  -0.001448   0.000307
     9  C   -0.000005   0.000002  -0.000015  -0.000002  -0.000002   0.000000
    10  C    0.000043   0.000006  -0.000074   0.000054   0.000006   0.000000
    11  C    0.000234  -0.000199   0.002710   0.000698   0.000009  -0.000005
    12  C   -0.000687   0.000152   0.000308   0.004669  -0.000786  -0.000172
    13  C   -0.000160   0.000209  -0.001363  -0.001222  -0.000548   0.000054
    14  C    0.000004  -0.000005  -0.000056  -0.000003   0.000004   0.000001
    15  H    0.000000   0.000000   0.000000   0.000000   0.000000   0.000000
    16  H   -0.000001   0.000000   0.000000   0.000000   0.000000   0.000000
    17  H    0.000000   0.000000  -0.000002   0.000001   0.000000   0.000000
    18  F   -0.000669  -0.000660  -0.000246  -0.000035   0.000002   0.000000
    19  F    0.000000   0.000002   0.000620  -0.000551   0.000109  -0.000002
    20  H    0.424163  -0.050747   0.011899  -0.000273  -0.000033   0.000000
    21  H    0.417491  -0.047690   0.000457  -0.000749  -0.000030   0.000000
    22  H    0.414772  -0.040010  -0.009622   0.000389  -0.000012   0.000000
    23  H   -0.030988   0.433260  -0.074972   0.018963  -0.007825   0.000046
    24  H   -0.042145   0.424983  -0.031057  -0.021574   0.002973   0.000095
    25  H   -0.000197   0.012636  -0.055819   0.442624  -0.063325   0.012905
    26  H   -0.000534  -0.015185   0.037965  -0.081025   0.435618  -0.041827
    27  H    0.000576   0.016957  -0.025456  -0.023607   0.423556  -0.048691
    28  H   -0.000008   0.000026  -0.002140   0.016869  -0.045747   0.303298
    29  H   -0.002069   0.003082   0.003201  -0.005899  -0.000361   0.000004
    30  H    0.000339  -0.000516   0.005851   0.002396   0.000320  -0.000198
    31  H   -0.019261  -0.042038   0.488101  -0.083943   0.005676  -0.000193
    32  C   -0.001397  -0.021849  -0.017832   0.253581  -0.065765  -0.006785
    33  H   -0.000112   0.001997  -0.018228  -0.017455  -0.013573  -0.000102
    34  H    0.000053   0.000208   0.015118  -0.053656  -0.004518   0.011906
    35  H    0.000177  -0.001577  -0.001191  -0.051128   0.011821   0.000027
    36  H    0.006069  -0.008379  -0.047345   0.003272   0.000320   0.000018
               7          8          9         10         11         12
     1  C    0.006878  -0.002008  -0.000005   0.000043   0.000234  -0.000687
     2  C   -0.021783   0.005301   0.000002   0.000006  -0.000199   0.000152
     3  C    0.131425  -0.044571  -0.000015  -0.000074   0.002710   0.000308
     4  C   -0.019336   0.006687  -0.000002   0.000054   0.000698   0.004669
     5  C   -0.035300  -0.001448  -0.000002   0.000006   0.000009  -0.000786
     6  O    0.000415   0.000307   0.000000   0.000000  -0.000005  -0.000172
     7  N    6.876958   0.222736   0.000723  -0.000640  -0.002795  -0.043722
     8  C    0.222736   5.142817  -0.007365   0.014553  -0.069017   0.267770
     9  C    0.000723  -0.007365   5.044254   0.413329  -0.016993  -0.093555
    10  C   -0.000640   0.014553   0.413329   5.101551   0.496191   0.013301
    11  C   -0.002795  -0.069017  -0.016993   0.496191   4.883793   0.280540
    12  C   -0.043722   0.267770  -0.093555   0.013301   0.280540   5.603188
    13  C    0.032540  -0.111476   0.002603  -0.110533   0.016842   0.221481
    14  C   -0.000789   0.009559   0.412841  -0.014164  -0.080486   0.020911
    15  H    0.000001   0.000088   0.403648  -0.025488   0.002807  -0.000405
    16  H    0.000021  -0.000150  -0.029728   0.412451  -0.040954   0.012156
    17  H   -0.000007  -0.000254  -0.033675   0.004631  -0.001011   0.014061
    18  F   -0.004609   0.018448   0.008830  -0.049016   0.238772  -0.077049
    19  F   -0.000585   0.009545   0.009908  -0.000754   0.007085  -0.081062
    20  H    0.000098   0.000141   0.000000   0.000002   0.000017  -0.000031
    21  H   -0.001125   0.000191   0.000000  -0.000002   0.000014   0.000029
    22  H    0.000178  -0.001613  -0.000014   0.000053  -0.000966   0.000925
    23  H    0.006308  -0.000832   0.000000   0.000000   0.000001   0.000073
    24  H   -0.001459  -0.000452   0.000003  -0.000021  -0.000021   0.000171
    25  H    0.000164   0.004386  -0.000005   0.000009  -0.000623  -0.001906
    26  H    0.013254  -0.002748   0.000015  -0.000043   0.000055   0.000999
    27  H    0.003450   0.000014   0.000000   0.000000  -0.000024  -0.000061
    28  H    0.000148  -0.000007   0.000000   0.000000   0.000000   0.000010
    29  H   -0.068275   0.399088   0.000851  -0.004908  -0.029272  -0.013563
    30  H   -0.041624   0.430940  -0.000811   0.001369   0.018003  -0.024135
    31  H   -0.052332  -0.022413   0.000011  -0.000083  -0.000538   0.003937
    32  C    0.003698   0.000104   0.000000  -0.000001   0.000019   0.000177
    33  H   -0.000148   0.000121   0.000000   0.000000  -0.000001   0.000006
    34  H   -0.000409  -0.000109   0.000000   0.000000   0.000000  -0.000006
    35  H    0.000509  -0.000131   0.000000   0.000000   0.000003   0.000013
    36  H    0.386037  -0.050194  -0.000048   0.000245   0.000577  -0.012734
              13         14         15         16         17         18
     1  C   -0.000160   0.000004   0.000000  -0.000001   0.000000  -0.000669
     2  C    0.000209  -0.000005   0.000000   0.000000   0.000000  -0.000660
     3  C   -0.001363  -0.000056   0.000000   0.000000  -0.000002  -0.000246
     4  C   -0.001222  -0.000003   0.000000   0.000000   0.000001  -0.000035
     5  C   -0.000548   0.000004   0.000000   0.000000   0.000000   0.000002
     6  O    0.000054   0.000001   0.000000   0.000000   0.000000   0.000000
     7  N    0.032540  -0.000789   0.000001   0.000021  -0.000007  -0.004609
     8  C   -0.111476   0.009559   0.000088  -0.000150  -0.000254   0.018448
     9  C    0.002603   0.412841   0.403648  -0.029728  -0.033675   0.008830
    10  C   -0.110533  -0.014164  -0.025488   0.412451   0.004631  -0.049016
    11  C    0.016842  -0.080486   0.002807  -0.040954  -0.001011   0.238772
    12  C    0.221481   0.020911  -0.000405   0.012156   0.014061  -0.077049
    13  C    4.942022   0.502555   0.001809  -0.000742  -0.041389   0.006424
    14  C    0.502555   5.059348  -0.023999   0.003682   0.413311  -0.000804
    15  H    0.001809  -0.023999   0.475837  -0.003218  -0.003335  -0.000106
    16  H   -0.000742   0.003682  -0.003218   0.471352  -0.000146   0.001679
    17  H   -0.041389   0.413311  -0.003335  -0.000146   0.474151   0.000011
    18  F    0.006424  -0.000804  -0.000106   0.001679   0.000011   9.069759
    19  F    0.252471  -0.047828  -0.000109   0.000010   0.001611  -0.000033
    20  H   -0.000001   0.000000   0.000000   0.000000   0.000000   0.000025
    21  H    0.000008   0.000000   0.000000   0.000000   0.000000  -0.000009
    22  H   -0.000065   0.000008   0.000000   0.000009   0.000000   0.002162
    23  H   -0.000005   0.000000   0.000000   0.000000   0.000000  -0.000004
    24  H    0.000086  -0.000003   0.000000   0.000000   0.000000   0.000020
    25  H    0.001422   0.000038   0.000000   0.000000   0.000000  -0.000005
    26  H    0.000536  -0.000041   0.000000   0.000000   0.000000   0.000000
    27  H    0.000034   0.000000   0.000000   0.000000   0.000000   0.000000
    28  H    0.000000   0.000000   0.000000   0.000000   0.000000   0.000000
    29  H    0.029125  -0.001021   0.000004  -0.000036  -0.000002   0.000649
    30  H   -0.049779   0.000221   0.000002   0.000006  -0.000004   0.000499
    31  H    0.000736  -0.000014   0.000000   0.000000   0.000000   0.000059
    32  C    0.000013  -0.000001   0.000000   0.000000   0.000000   0.000000
    33  H    0.000001   0.000000   0.000000   0.000000   0.000000   0.000000
    34  H   -0.000002   0.000000   0.000000   0.000000   0.000000   0.000000
    35  H   -0.000004   0.000000   0.000000   0.000000   0.000000   0.000000
    36  H   -0.000440   0.000100   0.000000   0.000025   0.000002   0.005746
              19         20         21         22         23         24
     1  C    0.000000   0.424163   0.417491   0.414772  -0.030988  -0.042145
     2  C    0.000002  -0.050747  -0.047690  -0.040010   0.433260   0.424983
     3  C    0.000620   0.011899   0.000457  -0.009622  -0.074972  -0.031057
     4  C   -0.000551  -0.000273  -0.000749   0.000389   0.018963  -0.021574
     5  C    0.000109  -0.000033  -0.000030  -0.000012  -0.007825   0.002973
     6  O   -0.000002   0.000000   0.000000   0.000000   0.000046   0.000095
     7  N   -0.000585   0.000098  -0.001125   0.000178   0.006308  -0.001459
     8  C    0.009545   0.000141   0.000191  -0.001613  -0.000832  -0.000452
     9  C    0.009908   0.000000   0.000000  -0.000014   0.000000   0.000003
    10  C   -0.000754   0.000002  -0.000002   0.000053   0.000000  -0.000021
    11  C    0.007085   0.000017   0.000014  -0.000966   0.000001  -0.000021
    12  C   -0.081062  -0.000031   0.000029   0.000925   0.000073   0.000171
    13  C    0.252471  -0.000001   0.000008  -0.000065  -0.000005   0.000086
    14  C   -0.047828   0.000000   0.000000   0.000008   0.000000  -0.000003
    15  H   -0.000109   0.000000   0.000000   0.000000   0.000000   0.000000
    16  H    0.000010   0.000000   0.000000   0.000009   0.000000   0.000000
    17  H    0.001611   0.000000   0.000000   0.000000   0.000000   0.000000
    18  F   -0.000033   0.000025  -0.000009   0.002162  -0.000004   0.000020
    19  F    9.053829   0.000000   0.000000   0.000000   0.000000   0.000000
    20  H    0.000000   0.519137  -0.023727  -0.023757  -0.004365  -0.004338
    21  H    0.000000  -0.023727   0.534144  -0.029985  -0.005886   0.007090
    22  H    0.000000  -0.023757  -0.029985   0.542953   0.006571  -0.003894
    23  H    0.000000  -0.004365  -0.005886   0.006571   0.535818  -0.023782
    24  H    0.000000  -0.004338   0.007090  -0.003894  -0.023782   0.519831
    25  H    0.000380   0.000014  -0.000026  -0.000013   0.000005  -0.000436
    26  H   -0.000009  -0.000015   0.000019   0.000007   0.000716   0.002868
    27  H    0.000000   0.000021  -0.000046  -0.000013  -0.001485  -0.005752
    28  H    0.000000   0.000000   0.000000   0.000000   0.000020   0.000020
    29  H    0.000259  -0.000046   0.000161   0.000153   0.000028   0.000246
    30  H    0.009170   0.000006  -0.000017  -0.000005   0.000015  -0.000121
    31  H   -0.000004  -0.000228   0.003793   0.000695   0.001236   0.007206
    32  C    0.000007  -0.000012   0.000088   0.000004  -0.005336   0.003013
    33  H    0.000000   0.000057   0.000189  -0.000036  -0.001857   0.000410
    34  H    0.000000  -0.000001  -0.000009   0.000001   0.000146  -0.000079
    35  H    0.000000   0.000000  -0.000021   0.000006   0.000521  -0.000080
    36  H   -0.000058  -0.000218  -0.000530   0.005158   0.000959  -0.003052
              25         26         27         28         29         30
     1  C   -0.000197  -0.000534   0.000576  -0.000008  -0.002069   0.000339
     2  C    0.012636  -0.015185   0.016957   0.000026   0.003082  -0.000516
     3  C   -0.055819   0.037965  -0.025456  -0.002140   0.003201   0.005851
     4  C    0.442624  -0.081025  -0.023607   0.016869  -0.005899   0.002396
     5  C   -0.063325   0.435618   0.423556  -0.045747  -0.000361   0.000320
     6  O    0.012905  -0.041827  -0.048691   0.303298   0.000004  -0.000198
     7  N    0.000164   0.013254   0.003450   0.000148  -0.068275  -0.041624
     8  C    0.004386  -0.002748   0.000014  -0.000007   0.399088   0.430940
     9  C   -0.000005   0.000015   0.000000   0.000000   0.000851  -0.000811
    10  C    0.000009  -0.000043   0.000000   0.000000  -0.004908   0.001369
    11  C   -0.000623   0.000055  -0.000024   0.000000  -0.029272   0.018003
    12  C   -0.001906   0.000999  -0.000061   0.000010  -0.013563  -0.024135
    13  C    0.001422   0.000536   0.000034   0.000000   0.029125  -0.049779
    14  C    0.000038  -0.000041   0.000000   0.000000  -0.001021   0.000221
    15  H    0.000000   0.000000   0.000000   0.000000   0.000004   0.000002
    16  H    0.000000   0.000000   0.000000   0.000000  -0.000036   0.000006
    17  H    0.000000   0.000000   0.000000   0.000000  -0.000002  -0.000004
    18  F   -0.000005   0.000000   0.000000   0.000000   0.000649   0.000499
    19  F    0.000380  -0.000009   0.000000   0.000000   0.000259   0.009170
    20  H    0.000014  -0.000015   0.000021   0.000000  -0.000046   0.000006
    21  H   -0.000026   0.000019  -0.000046   0.000000   0.000161  -0.000017
    22  H   -0.000013   0.000007  -0.000013   0.000000   0.000153  -0.000005
    23  H    0.000005   0.000716  -0.001485   0.000020   0.000028   0.000015
    24  H   -0.000436   0.002868  -0.005752   0.000020   0.000246  -0.000121
    25  H    0.584294  -0.010346   0.012619  -0.000823   0.001724  -0.007055
    26  H   -0.010346   0.559295  -0.050081  -0.002920   0.000353  -0.000143
    27  H    0.012619  -0.050081   0.582031  -0.005218   0.000044  -0.000188
    28  H   -0.000823  -0.002920  -0.005218   0.403512   0.000001  -0.000004
    29  H    0.001724   0.000353   0.000044   0.000001   0.559894  -0.043675
    30  H   -0.007055  -0.000143  -0.000188  -0.000004  -0.043675   0.533263
    31  H   -0.005190   0.001173  -0.000549   0.000048   0.010654  -0.003243
    32  C   -0.055865   0.011225  -0.024327   0.000916   0.000633   0.000251
    33  H    0.009289  -0.000018   0.005535  -0.000090  -0.000002  -0.000074
    34  H   -0.004983   0.000409   0.000082  -0.000952  -0.000012   0.000105
    35  H   -0.006325  -0.000209  -0.000289   0.000046   0.000026   0.000154
    36  H   -0.000108  -0.000525   0.000029  -0.000006  -0.004179   0.005848
              31         32         33         34         35         36
     1  C   -0.019261  -0.001397  -0.000112   0.000053   0.000177   0.006069
     2  C   -0.042038  -0.021849   0.001997   0.000208  -0.001577  -0.008379
     3  C    0.488101  -0.017832  -0.018228   0.015118  -0.001191  -0.047345
     4  C   -0.083943   0.253581  -0.017455  -0.053656  -0.051128   0.003272
     5  C    0.005676  -0.065765  -0.013573  -0.004518   0.011821   0.000320
     6  O   -0.000193  -0.006785  -0.000102   0.011906   0.000027   0.000018
     7  N   -0.052332   0.003698  -0.000148  -0.000409   0.000509   0.386037
     8  C   -0.022413   0.000104   0.000121  -0.000109  -0.000131  -0.050194
     9  C    0.000011   0.000000   0.000000   0.000000   0.000000  -0.000048
    10  C   -0.000083  -0.000001   0.000000   0.000000   0.000000   0.000245
    11  C   -0.000538   0.000019  -0.000001   0.000000   0.000003   0.000577
    12  C    0.003937   0.000177   0.000006  -0.000006   0.000013  -0.012734
    13  C    0.000736   0.000013   0.000001  -0.000002  -0.000004  -0.000440
    14  C   -0.000014  -0.000001   0.000000   0.000000   0.000000   0.000100
    15  H    0.000000   0.000000   0.000000   0.000000   0.000000   0.000000
    16  H    0.000000   0.000000   0.000000   0.000000   0.000000   0.000025
    17  H    0.000000   0.000000   0.000000   0.000000   0.000000   0.000002
    18  F    0.000059   0.000000   0.000000   0.000000   0.000000   0.005746
    19  F   -0.000004   0.000007   0.000000   0.000000   0.000000  -0.000058
    20  H   -0.000228  -0.000012   0.000057  -0.000001   0.000000  -0.000218
    21  H    0.003793   0.000088   0.000189  -0.000009  -0.000021  -0.000530
    22  H    0.000695   0.000004  -0.000036   0.000001   0.000006   0.005158
    23  H    0.001236  -0.005336  -0.001857   0.000146   0.000521   0.000959
    24  H    0.007206   0.003013   0.000410  -0.000079  -0.000080  -0.003052
    25  H   -0.005190  -0.055865   0.009289  -0.004983  -0.006325  -0.000108
    26  H    0.001173   0.011225  -0.000018   0.000409  -0.000209  -0.000525
    27  H   -0.000549  -0.024327   0.005535   0.000082  -0.000289   0.000029
    28  H    0.000048   0.000916  -0.000090  -0.000952   0.000046  -0.000006
    29  H    0.010654   0.000633  -0.000002  -0.000012   0.000026  -0.004179
    30  H   -0.003243   0.000251  -0.000074   0.000105   0.000154   0.005848
    31  H    0.531598   0.004568   0.000126  -0.000567   0.001425   0.001881
    32  C    0.004568   5.127542   0.402338   0.421511   0.420924  -0.000611
    33  H    0.000126   0.402338   0.546652  -0.025019  -0.027636  -0.000017
    34  H   -0.000567   0.421511  -0.025019   0.501218  -0.022185   0.000025
    35  H    0.001425   0.420924  -0.027636  -0.022185   0.526410  -0.000015
    36  H    0.001881  -0.000611  -0.000017   0.000025  -0.000015   0.494880
 Mulliken charges:
               1
     1  C   -0.430502
     2  C   -0.352760
     3  C   -0.076283
     4  C   -0.081777
     5  C   -0.121874
     6  O   -0.508465
     7  N   -0.390605
     8  C   -0.218009
     9  C   -0.114800
    10  C   -0.252067
    11  C    0.294537
    12  C   -0.095002
    13  C    0.306760
    14  C   -0.253369
    15  H    0.172463
    16  H    0.173584
    17  H    0.172049
    18  F   -0.219840
    19  F   -0.214012
    20  H    0.152214
    21  H    0.146176
    22  H    0.135960
    23  H    0.152649
    24  H    0.169253
    25  H    0.130541
    26  H    0.141160
    27  H    0.140838
    28  H    0.333000
    29  H    0.163137
    30  H    0.162830
    31  H    0.167674
    32  C   -0.450832
    33  H    0.137649
    34  H    0.161723
    35  H    0.148729
    36  H    0.217268
 Sum of Mulliken charges =   0.00000
 Mulliken charges with hydrogens summed into heavy atoms:
               1
     1  C    0.003848
     2  C   -0.030858
     3  C    0.091391
     4  C    0.048764
     5  C    0.160124
     6  O   -0.175465
     7  N   -0.173337
     8  C    0.107959
     9  C    0.057663
    10  C   -0.078483
    11  C    0.294537
    12  C   -0.095002
    13  C    0.306760
    14  C   -0.081320
    18  F   -0.219840
    19  F   -0.214012
    32  C   -0.002731
 Electronic spatial extent (au):  <R**2>=           5360.5598
 Charge=              0.0000 electrons
 Dipole moment (field-independent basis, Debye):
    X=              1.6348    Y=              1.8305    Z=             -1.3619  Tot=              2.8068
 Quadrupole moment (field-independent basis, Debye-Ang):
   XX=            -88.4884   YY=           -106.7442   ZZ=            -98.8578
   XY=             -5.4420   XZ=              1.0178   YZ=              3.3450
 Traceless Quadrupole moment (field-independent basis, Debye-Ang):
   XX=              9.5417   YY=             -8.7141   ZZ=             -0.8276
   XY=             -5.4420   XZ=              1.0178   YZ=              3.3450
 Octapole moment (field-independent basis, Debye-Ang**2):
  XXX=             93.9165  YYY=             -3.7244  ZZZ=             -6.7660  XYY=             10.3963
  XXY=              3.2931  XXZ=            -44.6856  XZZ=            -19.6211  YZZ=            -14.0946
  YYZ=            -18.9933  XYZ=            -13.4816
 Hexadecapole moment (field-independent basis, Debye-Ang**3):
 XXXX=          -4596.4165 YYYY=          -1696.3738 ZZZZ=           -404.9696 XXXY=            -40.3217
 XXXZ=            -22.0685 YYYX=              2.8607 YYYZ=             38.1142 ZZZX=             70.7980
 ZZZY=             34.7411 XXYY=          -1063.6515 XXZZ=           -864.3149 YYZZ=           -306.8239
 XXYZ=             48.4411 YYXZ=             40.4586 ZZXY=             62.3752
 N-N= 1.254919180059D+03 E-N=-4.466319487310D+03  KE= 8.321559090066D+02
 1\1\GINC-CPU-E-855\SP\RM062X\def2TZVP\C13H19F2N1O1\KE291\26-Jun-2019\0
 \\# m062x/def2tzvp int=ultrafine scrf=(solvent=chloroform)\\AT3_2ginp0
 08\\0,1\C,0,-2.052027,3.195727,-0.20721\C,0,-2.553547,1.779551,-0.5194
 31\C,0,-1.894874,0.683262,0.340024\C,0,-2.672649,-0.660661,0.348941\C,
 0,-2.915637,-1.20174,-1.060853\O,0,-3.362227,-2.555925,-0.944715\N,0,-
 0.512839,0.466164,-0.129315\C,0,0.411094,0.028955,0.925332\C,0,4.46506
 1,-0.314317,-0.586594\C,0,3.86527,0.941985,-0.476791\C,0,2.567801,1.00
 6921,0.010857\C,0,1.821313,-0.10708,0.399922\C,0,2.471441,-1.334583,0.
 262377\C,0,3.770679,-1.465858,-0.216516\H,0,5.478883,-0.395069,-0.9642
 22\H,0,4.380149,1.852822,-0.75935\H,0,4.213782,-2.452042,-0.292767\F,0
 ,1.971323,2.224163,0.113434\F,0,1.806214,-2.455834,0.623696\H,0,-2.531
 259,3.932523,-0.859392\H,0,-2.276475,3.470186,0.829396\H,0,-0.969563,3
 .297701,-0.344853\H,0,-3.637946,1.752137,-0.370598\H,0,-2.380001,1.549
 792,-1.578596\H,0,-2.023559,-1.397699,0.841402\H,0,-1.980466,-1.141912
 ,-1.633244\H,0,-3.671761,-0.590937,-1.578821\H,0,-3.528609,-2.884651,-
 1.837568\H,0,0.41848,0.721446,1.786242\H,0,0.086525,-0.942157,1.304034
 \H,0,-1.890198,1.047883,1.38568\C,0,-3.97183,-0.583255,1.16231\H,0,-4.
 682596,0.129704,0.729126\H,0,-4.459997,-1.560502,1.186354\H,0,-3.77491
 9,-0.273327,2.194363\H,0,-0.15318,1.339961,-0.502632\\Version=ES64L-G0
 9RevD.01\State=1-A\HF=-836.4556124\RMSD=7.357e-09\Dipole=0.6431835,0.7
 201781,-0.535795\Quadrupole=7.0940382,-6.4787142,-0.615324,-4.0459963,
 0.7567102,2.4869047\PG=C01 [X(C13H19F2N1O1)]\\@


 WE TEND TO MEET ANY NEW SITUATION BY REORGANIZING. IT CAN BE A
 WONDERFUL METHOD FOR CREATING THE ILLUSION OF PROGRESS WHILE PRODUCING
 CONFUSION, INEFFICIENCY, AND DEMORALIZATION.
     -- PETRONIUS ARBITER, 210 B.C.
 Job cpu time:       0 days  1 hours 16 minutes 10.2 seconds.
 File lengths (MBytes):  RWF=    325 Int=      0 D2E=      0 Chk=     17 Scr=      1
 Normal termination of Gaussian 09 at Wed Jun 26 12:22:06 2019.
