 Entering Gaussian System, Link 0=/usr/local/Cluster-Apps/gaussian/g09/g09
 Initial command:
 /usr/local/Cluster-Apps/gaussian/g09/l1.exe "/home/ke291/rds/hpc-work/26Jun1158AT3NMR/Gau-19412.inp" -scrdir="/home/ke291/rds/hpc-work/26Jun1158AT3NMR/"
 Entering Link 1 = /usr/local/Cluster-Apps/gaussian/g09/l1.exe PID=     19435.
  
 Copyright (c) 1988,1990,1992,1993,1995,1998,2003,2009,2013,
            Gaussian, Inc.  All Rights Reserved.
  
 This is part of the Gaussian(R) 09 program.  It is based on
 the Gaussian(R) 03 system (copyright 2003, Gaussian, Inc.),
 the Gaussian(R) 98 system (copyright 1998, Gaussian, Inc.),
 the Gaussian(R) 94 system (copyright 1995, Gaussian, Inc.),
 the Gaussian 92(TM) system (copyright 1992, Gaussian, Inc.),
 the Gaussian 90(TM) system (copyright 1990, Gaussian, Inc.),
 the Gaussian 88(TM) system (copyright 1988, Gaussian, Inc.),
 the Gaussian 86(TM) system (copyright 1986, Carnegie Mellon
 University), and the Gaussian 82(TM) system (copyright 1983,
 Carnegie Mellon University). Gaussian is a federally registered
 trademark of Gaussian, Inc.
  
 This software contains proprietary and confidential information,
 including trade secrets, belonging to Gaussian, Inc.
  
 This software is provided under written license and may be
 used, copied, transmitted, or stored only in accord with that
 written license.
  
 The following legend is applicable only to US Government
 contracts under FAR:
  
                    RESTRICTED RIGHTS LEGEND
  
 Use, reproduction and disclosure by the US Government is
 subject to restrictions as set forth in subparagraphs (a)
 and (c) of the Commercial Computer Software - Restricted
 Rights clause in FAR 52.227-19.
  
 Gaussian, Inc.
 340 Quinnipiac St., Bldg. 40, Wallingford CT 06492
  
  
 ---------------------------------------------------------------
 Warning -- This program may not be used in any manner that
 competes with the business of Gaussian, Inc. or will provide
 assistance to any competitor of Gaussian, Inc.  The licensee
 of this program is prohibited from giving any competitor of
 Gaussian, Inc. access to this program.  By using this program,
 the user acknowledges that Gaussian, Inc. is engaged in the
 business of creating and licensing software in the field of
 computational chemistry and represents and warrants to the
 licensee that it is not a competitor of Gaussian, Inc. and that
 it will not use this program in any manner prohibited above.
 ---------------------------------------------------------------
  

 Cite this work as:
 Gaussian 09, Revision D.01,
 M. J. Frisch, G. W. Trucks, H. B. Schlegel, G. E. Scuseria, 
 M. A. Robb, J. R. Cheeseman, G. Scalmani, V. Barone, B. Mennucci, 
 G. A. Petersson, H. Nakatsuji, M. Caricato, X. Li, H. P. Hratchian, 
 A. F. Izmaylov, J. Bloino, G. Zheng, J. L. Sonnenberg, M. Hada, 
 M. Ehara, K. Toyota, R. Fukuda, J. Hasegawa, M. Ishida, T. Nakajima, 
 Y. Honda, O. Kitao, H. Nakai, T. Vreven, J. A. Montgomery, Jr., 
 J. E. Peralta, F. Ogliaro, M. Bearpark, J. J. Heyd, E. Brothers, 
 K. N. Kudin, V. N. Staroverov, T. Keith, R. Kobayashi, J. Normand, 
 K. Raghavachari, A. Rendell, J. C. Burant, S. S. Iyengar, J. Tomasi, 
 M. Cossi, N. Rega, J. M. Millam, M. Klene, J. E. Knox, J. B. Cross, 
 V. Bakken, C. Adamo, J. Jaramillo, R. Gomperts, R. E. Stratmann, 
 O. Yazyev, A. J. Austin, R. Cammi, C. Pomelli, J. W. Ochterski, 
 R. L. Martin, K. Morokuma, V. G. Zakrzewski, G. A. Voth, 
 P. Salvador, J. J. Dannenberg, S. Dapprich, A. D. Daniels, 
 O. Farkas, J. B. Foresman, J. V. Ortiz, J. Cioslowski, 
 and D. J. Fox, Gaussian, Inc., Wallingford CT, 2013.
 
 ******************************************
 Gaussian 09:  ES64L-G09RevD.01 24-Apr-2013
                26-Jun-2019 
 ******************************************
 %nprocshared=4
 Will use up to    4 processors via shared memory.
 %mem=6000MB
 %chk=AT3_2ginp009.chk
 --------------------------------------------------------
 # m062x/def2tzvp int=ultrafine scrf=(solvent=chloroform)
 --------------------------------------------------------
 1/38=1/1;
 2/12=2,17=6,18=5,40=1/2;
 3/5=44,7=101,11=2,16=1,25=1,30=1,70=2201,72=7,74=-55,75=-5/1,2,3;
 4//1;
 5/5=2,38=5,53=7/2;
 6/7=2,8=2,9=2,10=2,28=1/1;
 99/5=1,9=1/99;
 ------------
 AT3_2ginp009
 ------------
 Symbolic Z-matrix:
 Charge =  0 Multiplicity = 1
 C                    -3.97773  -1.74667  -1.17648 
 C                    -2.58512  -1.68024  -0.53719 
 C                    -2.03472  -0.25036  -0.3532 
 C                    -2.92261   0.66021   0.5366 
 C                    -2.24602   2.02648   0.78944 
 O                    -1.59254   2.57144  -0.34822 
 N                    -0.63922  -0.19276   0.12647 
 C                     0.36316  -0.80244  -0.75796 
 C                     4.33285   0.45002   0.46404 
 C                     3.48225   1.35502  -0.17519 
 C                     2.22269   0.91516  -0.55644 
 C                     1.75436  -0.38359  -0.34376 
 C                     2.6461   -1.24004   0.30319 
 C                     3.92097  -0.85959   0.7089 
 H                     5.32277   0.76925   0.77251 
 H                     3.7787    2.37742  -0.3786 
 H                     4.56172  -1.58004   1.20391 
 F                     1.39645   1.78841  -1.18592 
 F                     2.24765  -2.51177   0.54619 
 H                    -4.74752  -1.30532  -0.536 
 H                    -3.9972   -1.21207  -2.13324 
 H                    -4.2674   -2.7841   -1.37173 
 H                    -2.59209  -2.19816   0.43066 
 H                    -1.88729  -2.23833  -1.17259 
 H                    -3.84089   0.84409  -0.03554 
 H                    -1.54018   1.92727   1.62723 
 H                    -3.00832   2.75232   1.09501 
 H                    -0.79918   2.02182  -0.46015 
 H                     0.32103  -1.89814  -0.79715 
 H                     0.16908  -0.43581  -1.77192 
 H                    -2.01589   0.22356  -1.34394 
 C                    -3.32139   0.04651   1.88822 
 H                    -3.94509  -0.84407   1.7733 
 H                    -2.44428  -0.23298   2.48418 
 H                    -3.89278   0.77057   2.47986 
 H                    -0.56598  -0.61205   1.05121 
 
                          Input orientation:                          
 ---------------------------------------------------------------------
 Center     Atomic      Atomic             Coordinates (Angstroms)
 Number     Number       Type             X           Y           Z
 ---------------------------------------------------------------------
      1          6           0       -3.977728   -1.746672   -1.176480
      2          6           0       -2.585118   -1.680241   -0.537187
      3          6           0       -2.034721   -0.250357   -0.353204
      4          6           0       -2.922606    0.660214    0.536598
      5          6           0       -2.246016    2.026476    0.789440
      6          8           0       -1.592540    2.571436   -0.348220
      7          7           0       -0.639224   -0.192759    0.126469
      8          6           0        0.363162   -0.802436   -0.757960
      9          6           0        4.332849    0.450015    0.464041
     10          6           0        3.482252    1.355017   -0.175190
     11          6           0        2.222687    0.915157   -0.556442
     12          6           0        1.754359   -0.383589   -0.343762
     13          6           0        2.646096   -1.240037    0.303194
     14          6           0        3.920968   -0.859593    0.708900
     15          1           0        5.322770    0.769253    0.772510
     16          1           0        3.778697    2.377415   -0.378601
     17          1           0        4.561715   -1.580040    1.203912
     18          9           0        1.396448    1.788410   -1.185920
     19          9           0        2.247653   -2.511768    0.546190
     20          1           0       -4.747517   -1.305315   -0.535999
     21          1           0       -3.997197   -1.212072   -2.133238
     22          1           0       -4.267404   -2.784097   -1.371728
     23          1           0       -2.592087   -2.198165    0.430657
     24          1           0       -1.887289   -2.238328   -1.172593
     25          1           0       -3.840894    0.844086   -0.035543
     26          1           0       -1.540180    1.927265    1.627234
     27          1           0       -3.008317    2.752324    1.095009
     28          1           0       -0.799183    2.021817   -0.460153
     29          1           0        0.321034   -1.898143   -0.797147
     30          1           0        0.169080   -0.435809   -1.771915
     31          1           0       -2.015890    0.223562   -1.343936
     32          6           0       -3.321390    0.046513    1.888224
     33          1           0       -3.945085   -0.844066    1.773295
     34          1           0       -2.444284   -0.232975    2.484184
     35          1           0       -3.892783    0.770569    2.479864
     36          1           0       -0.565976   -0.612047    1.051208
 ---------------------------------------------------------------------
                    Distance matrix (angstroms):
                    1          2          3          4          5
     1  C    0.000000
     2  C    1.533777   0.000000
     3  C    2.586894   1.543164   0.000000
     4  C    3.137040   2.597045   1.552168   0.000000
     5  C    4.593508   3.951542   2.556218   1.545437   0.000000
     6  O    5.002119   4.370089   2.856233   2.490933   1.420663
     7  N    3.906140   2.537626   1.476758   2.471761   2.818921
     8  C    4.462070   3.084094   2.493684   3.822499   4.147891
     9  C    8.751139   7.307442   6.457891   7.258862   6.772930
    10  C    8.140906   6.793880   5.748557   6.481636   5.847600
    11  C    6.776055   5.463648   4.418739   5.266286   4.797472
    12  C    5.950482   4.533187   3.791433   4.872223   4.805784
    13  C    6.805965   5.316542   4.829117   5.888622   5.902483
    14  C    8.168902   6.674979   6.080252   7.012418   6.809374
    15  H    9.829939   8.381528   7.512623   8.249471   7.672511
    16  H    8.820818   7.549031   6.379785   6.978096   6.146922
    17  H    8.866573   7.356540   6.906927   7.840861   7.715176
    18  F    6.432625   5.320269   4.077120   4.784780   4.150454
    19  F    6.504486   5.022033   4.925608   6.065735   6.391235
    20  H    1.094343   2.194662   2.916438   2.888610   4.372085
    21  H    1.096158   2.181863   2.818640   3.433398   4.700731
    22  H    1.094662   2.178312   3.527337   4.160946   5.647855
    23  H    2.169501   1.097732   2.172338   2.879374   4.253949
    24  H    2.147481   1.096434   2.155264   3.520619   4.708164
    25  H    2.834164   2.863712   2.135644   1.097455   2.149949
    26  H    5.224966   4.334826   2.984752   2.169333   1.099975
    27  H    5.132288   4.742446   3.472939   2.167047   1.096052
    28  H    4.981745   4.111050   2.588584   2.712269   1.911761
    29  H    4.318124   2.925881   2.908929   4.341114   4.950721
    30  H    4.389638   3.264777   2.627522   4.011112   4.296053
    31  H    2.785439   2.144605   1.098410   2.132887   2.802633
    32  C    3.610914   3.066985   2.601470   1.537059   2.506793
    33  H    3.084953   2.808385   2.919585   2.199487   3.477760
    34  H    4.247728   3.353073   2.866848   2.195375   2.831358
    35  H    4.439884   4.101104   3.538497   2.174788   2.673327
    36  H    4.229659   2.782260   2.064075   2.727119   3.138927
                    6          7          8          9         10
     6  O    0.000000
     7  N    2.962248   0.000000
     8  C    3.921182   1.469251   0.000000
     9  C    6.345899   5.024801   4.338241   0.000000
    10  C    5.221411   4.412842   3.837049   1.396839   0.000000
    11  C    4.164442   3.143943   2.539403   2.389671   1.387564
    12  C    4.464742   2.446788   1.510769   2.827729   2.456986
    13  C    5.737395   3.452731   2.555255   2.393174   2.768088
    14  C    6.579379   4.645347   3.848757   1.394516   2.424579
    15  H    7.233631   6.073566   5.423122   1.084901   2.151456
    16  H    5.374826   5.136041   4.682013   2.175316   1.083768
    17  H    7.584110   5.489554   4.699091   2.172766   3.417853
    18  F    3.201393   3.129114   2.821934   3.624379   2.357962
    19  F    6.433196   3.726664   2.859008   3.623113   4.122699
    20  H    5.001834   4.307519   5.140155   9.302382   8.656596
    21  H    4.825308   4.173878   4.590416   8.882458   8.146536
    22  H    6.073236   4.703543   5.074035   9.369839   8.866856
    23  H    4.935062   2.815645   3.477696   7.414089   7.063267
    24  H    4.888793   2.725726   2.701525   6.971074   6.537500
    25  H    2.852473   3.369271   4.572418   8.198472   7.342276
    26  H    2.078489   2.749276   4.094280   6.166665   5.366658
    27  H    2.029792   3.901818   5.238004   7.719551   6.759686
    28  H    0.971610   2.296532   3.068573   5.446324   4.342409
    29  H    4.882667   2.164139   1.097217   4.816544   4.578557
    30  H    3.764802   2.077568   1.095531   4.808446   4.090684
    31  H    2.585186   2.056848   2.656300   6.605040   5.733736
    32  C    3.790230   3.217926   4.615076   7.796056   7.229067
    33  H    4.658428   3.750327   4.996997   8.480152   7.987358
    34  H    4.075868   2.969626   4.326377   7.104716   6.687138
    35  H    4.065993   4.129421   5.574129   8.475100   7.860155
    36  H    3.625851   1.017993   2.042703   5.046903   4.664927
                   11         12         13         14         15
    11  C    0.000000
    12  C    1.396891   0.000000
    13  C    2.358625   1.395439   0.000000
    14  C    2.763148   2.455376   1.390911   0.000000
    15  H    3.376080   3.912629   3.379658   2.149938   0.000000
    16  H    2.142660   3.423785   3.851440   3.417765   2.509064
    17  H    3.846545   3.421701   2.143943   1.083807   2.506889
    18  F    1.357013   2.356886   3.598690   4.120129   4.504457
    19  F    3.600033   2.358919   1.354660   2.357147   4.502518
    20  H    7.315371   6.569698   7.441372   8.768756  10.364686
    21  H    6.760055   6.080214   7.076039   8.420174   9.961466
    22  H    7.514682   6.563595   7.279146   8.664997  10.449665
    23  H    5.818005   4.773259   5.326614   6.655004   8.459751
    24  H    5.216897   4.169966   4.870946   6.259135   8.050709
    25  H    6.086329   5.736640   6.821976   7.981430   9.199526
    26  H    4.466763   4.480944   5.413852   6.199520   7.012248
    27  H    5.784970   5.881079   6.966944   7.823683   8.569923
    28  H    3.219575   3.510000   4.805449   5.652348   6.369198
    29  H    3.404244   2.133976   2.655140   4.038105   5.881852
    30  H    2.742223   2.134352   3.329935   4.517820   5.872546
    31  H    4.366232   3.947627   5.156479   6.374452   7.657222
    32  C    6.121088   5.561473   6.307014   7.393482   8.745780
    33  H    6.823778   6.097346   6.764736   7.937756   9.460312
    34  H    5.687199   5.064441   5.628753   6.637825   8.016322
    35  H    6.829278   6.418345   7.178953   8.176090   9.372378
    36  H    3.562798   2.717000   3.357276   4.506786   6.054997
                   16         17         18         19         20
    16  H    0.000000
    17  H    4.333465   0.000000
    18  F    2.583370   5.203525   0.000000
    19  F    5.206097   2.579845   4.713416   0.000000
    20  H    9.288897   9.474416   6.909547   7.180464   0.000000
    21  H    8.742293   9.193854   6.244334   6.918576   1.767158
    22  H    9.610788   9.275614   7.281591   6.796951   1.765148
    23  H    7.885285   7.221972   5.866388   4.851266   2.525368
    24  H    7.351116   6.904402   5.195934   4.486282   3.075170
    25  H    7.779907   8.832693   5.444710   6.976430   2.385864
    26  H    5.702321   7.050781   4.069017   5.934758   5.041444
    27  H    6.955260   8.722765   5.053090   7.459027   4.706319
    28  H    4.592394   6.669461   2.324223   5.554217   5.163807
    29  H    5.514618   4.699873   3.859836   2.427540   5.109780
    30  H    4.783815   5.427712   2.607100   3.742149   5.143584
    31  H    6.256852   7.280755   3.757362   5.406700   3.232957
    32  C    7.809151   8.078199   5.894282   6.273763   3.120598
    33  H    8.640915   8.557541   6.649726   6.529703   2.487868
    34  H    7.330427   7.248290   5.683914   5.564440   3.946682
    35  H    8.342924   8.867466   6.515362   7.226187   3.759693
    36  H    5.464194   5.220493   3.823355   3.432272   4.526050
                   21         22         23         24         25
    21  H    0.000000
    22  H    1.767533   0.000000
    23  H    3.085494   2.529544   0.000000
    24  H    2.535301   2.449993   1.751789   0.000000
    25  H    2.941520   3.889860   3.321468   3.822399   0.000000
    26  H    5.480285   6.215179   4.422384   5.031072   3.038320
    27  H    5.207293   6.190481   5.012180   5.595117   2.369115
    28  H    4.846086   5.996360   4.670792   4.454254   3.289278
    29  H    4.571975   4.708378   3.175498   2.265695   5.041974
    30  H    4.253352   5.035573   3.947311   2.799449   4.553352
    31  H    2.570918   3.757140   3.057114   2.471194   2.329717
    32  C    4.267658   4.419794   2.773980   4.079920   2.146366
    33  H    3.924174   3.709283   2.338133   3.854445   2.476410
    34  H    4.968979   4.969914   2.846189   4.207577   3.075647
    35  H    5.022198   5.254593   3.834637   5.139641   2.517016
    36  H    4.719534   4.928386   2.646881   3.055478   3.745189
                   26         27         28         29         30
    26  H    0.000000
    27  H    1.766186   0.000000
    28  H    2.217025   2.798650   0.000000
    29  H    4.896477   6.024257   4.090787   0.000000
    30  H    4.478828   5.336600   2.949267   1.763996   0.000000
    31  H    3.457854   3.650754   2.344178   3.203408   2.322075
    32  C    2.603469   2.837009   3.972182   4.925460   5.080613
    33  H    3.672217   3.777781   4.806066   5.090975   5.446241
    34  H    2.493673   3.340651   4.057039   4.602923   4.998519
    35  H    2.756749   2.574385   4.447435   5.968005   6.002641
    36  H    2.780105   4.157636   3.045626   2.420175   2.922566
                   31         32         33         34         35
    31  H    0.000000
    32  C    3.490349   0.000000
    33  H    3.818213   1.093314   0.000000
    34  H    3.878975   1.096630   1.769519   0.000000
    35  H    4.294577   1.095803   1.763242   1.762177   0.000000
    36  H    2.921850   2.954082   3.463181   2.392730   3.875607
                   36
    36  H    0.000000
 Stoichiometry    C13H19F2NO
 Framework group  C1[X(C13H19F2NO)]
 Deg. of freedom   102
 Full point group                 C1      NOp   1
 Largest Abelian subgroup         C1      NOp   1
 Largest concise Abelian subgroup C1      NOp   1
                         Standard orientation:                         
 ---------------------------------------------------------------------
 Center     Atomic      Atomic             Coordinates (Angstroms)
 Number     Number       Type             X           Y           Z
 ---------------------------------------------------------------------
      1          6           0       -3.977728   -1.746672   -1.176480
      2          6           0       -2.585118   -1.680241   -0.537187
      3          6           0       -2.034721   -0.250357   -0.353204
      4          6           0       -2.922606    0.660214    0.536598
      5          6           0       -2.246016    2.026476    0.789440
      6          8           0       -1.592540    2.571436   -0.348220
      7          7           0       -0.639224   -0.192759    0.126469
      8          6           0        0.363162   -0.802436   -0.757960
      9          6           0        4.332849    0.450015    0.464041
     10          6           0        3.482252    1.355017   -0.175190
     11          6           0        2.222687    0.915157   -0.556442
     12          6           0        1.754359   -0.383589   -0.343762
     13          6           0        2.646096   -1.240037    0.303194
     14          6           0        3.920968   -0.859593    0.708900
     15          1           0        5.322770    0.769253    0.772510
     16          1           0        3.778697    2.377415   -0.378601
     17          1           0        4.561715   -1.580040    1.203912
     18          9           0        1.396448    1.788410   -1.185920
     19          9           0        2.247653   -2.511768    0.546190
     20          1           0       -4.747517   -1.305315   -0.535999
     21          1           0       -3.997197   -1.212072   -2.133238
     22          1           0       -4.267404   -2.784097   -1.371728
     23          1           0       -2.592087   -2.198165    0.430657
     24          1           0       -1.887289   -2.238328   -1.172593
     25          1           0       -3.840894    0.844086   -0.035543
     26          1           0       -1.540180    1.927265    1.627234
     27          1           0       -3.008317    2.752324    1.095009
     28          1           0       -0.799183    2.021817   -0.460153
     29          1           0        0.321034   -1.898143   -0.797147
     30          1           0        0.169080   -0.435809   -1.771915
     31          1           0       -2.015890    0.223562   -1.343936
     32          6           0       -3.321390    0.046513    1.888224
     33          1           0       -3.945085   -0.844066    1.773295
     34          1           0       -2.444284   -0.232975    2.484184
     35          1           0       -3.892783    0.770569    2.479864
     36          1           0       -0.565976   -0.612047    1.051208
 ---------------------------------------------------------------------
 Rotational constants (GHZ):      0.7180186      0.2664274      0.2231814
 Standard basis: def2TZVP (5D, 7F)
 There are   726 symmetry adapted cartesian basis functions of A   symmetry.
 There are   641 symmetry adapted basis functions of A   symmetry.
   641 basis functions,  1019 primitive gaussians,   726 cartesian basis functions
    65 alpha electrons       65 beta electrons
       nuclear repulsion energy      1276.9208583361 Hartrees.
 NAtoms=   36 NActive=   36 NUniq=   36 SFac= 1.00D+00 NAtFMM=   60 NAOKFM=F Big=F
 Integral buffers will be    131072 words long.
 Raffenetti 2 integral format.
 Two-electron integral symmetry is turned on.
 ------------------------------------------------------------------------------
 Polarizable Continuum Model (PCM)
 =================================
 Model                : PCM (using non-symmetric T matrix).
 Atomic radii         : UFF (Universal Force Field).
 Polarization charges : Total charges.
 Charge compensation  : None.
 Solution method      : On-the-fly selection.
 Cavity type          : Scaled VdW (van der Waals Surface) (Alpha=1.100).
 Cavity algorithm     : GePol (No added spheres)
                        Default sphere list used, NSphG=   36.
                        Lebedev-Laikov grids with approx.  5.0 points / Ang**2.
                        Smoothing algorithm: Karplus/York (Gamma=1.0000).
                        Polarization charges: spherical gaussians, with
                                              point-specific exponents (IZeta= 3).
                        Self-potential: point-specific (ISelfS= 7).
                        Self-field    : sphere-specific E.n sum rule (ISelfD= 2).
 Solvent              : Chloroform, Eps=   4.711300 Eps(inf)=   2.090627
 ------------------------------------------------------------------------------
 One-electron integrals computed using PRISM.
   1 Symmetry operations used in ECPInt.
 ECPInt:  NShTT=   34716 NPrTT=  103716 LenC2=   31028 LenP2D=   67385.
 LDataN:  DoStor=T MaxTD1= 6 Len=  172
 NBasis=   641 RedAO= T EigKep=  1.13D-05  NBF=   641
 NBsUse=   641 1.00D-06 EigRej= -1.00D+00 NBFU=   641
 ExpMin= 9.52D-02 ExpMax= 3.55D+04 ExpMxC= 1.21D+03 IAcc=3 IRadAn=         5 AccDes= 0.00D+00
 Harris functional with IExCor= 1009 and IRadAn=       5 diagonalized for initial guess.
 HarFok:  IExCor= 1009 AccDes= 0.00D+00 IRadAn=         5 IDoV= 1 UseB2=F ITyADJ=14
 ICtDFT=  3500011 ScaDFX=  1.000000  1.000000  1.000000  1.000000
 FoFCou: FMM=F IPFlag=           0 FMFlag=      100000 FMFlg1=           0
         NFxFlg=           0 DoJE=T BraDBF=F KetDBF=T FulRan=T
         wScrn=  0.000000 ICntrl=     500 IOpCl=  0 I1Cent=   200000004 NGrid=           0
         NMat0=    1 NMatS0=      1 NMatT0=    0 NMatD0=    1 NMtDS0=    0 NMtDT0=    0
 Petite list used in FoFCou.
 Requested convergence on RMS density matrix=1.00D-08 within 128 cycles.
 Requested convergence on MAX density matrix=1.00D-06.
 Requested convergence on             energy=1.00D-06.
 No special actions if energy rises.
 Inv3:  Mode=1 IEnd=    18525675.
 Iteration    1 A*A^-1 deviation from unit magnitude is 4.44D-15 for   2475.
 Iteration    1 A*A^-1 deviation from orthogonality  is 3.72D-15 for   2086    782.
 Iteration    1 A^-1*A deviation from unit magnitude is 5.33D-15 for   2475.
 Iteration    1 A^-1*A deviation from orthogonality  is 1.91D-11 for   2352   2345.
 Error on total polarization charges =  0.01256
 SCF Done:  E(RM062X) =  -836.460738875     A.U. after   12 cycles
            NFock= 12  Conv=0.80D-08     -V/T= 2.0052

 **********************************************************************

            Population analysis using the SCF density.

 **********************************************************************

 Orbital symmetries:
       Occupied  (A) (A) (A) (A) (A) (A) (A) (A) (A) (A) (A) (A)
                 (A) (A) (A) (A) (A) (A) (A) (A) (A) (A) (A) (A)
                 (A) (A) (A) (A) (A) (A) (A) (A) (A) (A) (A) (A)
                 (A) (A) (A) (A) (A) (A) (A) (A) (A) (A) (A) (A)
                 (A) (A) (A) (A) (A) (A) (A) (A) (A) (A) (A) (A)
                 (A) (A) (A) (A) (A)
       Virtual   (A) (A) (A) (A) (A) (A) (A) (A) (A) (A) (A) (A)
                 (A) (A) (A) (A) (A) (A) (A) (A) (A) (A) (A) (A)
                 (A) (A) (A) (A) (A) (A) (A) (A) (A) (A) (A) (A)
                 (A) (A) (A) (A) (A) (A) (A) (A) (A) (A) (A) (A)
                 (A) (A) (A) (A) (A) (A) (A) (A) (A) (A) (A) (A)
                 (A) (A) (A) (A) (A) (A) (A) (A) (A) (A) (A) (A)
                 (A) (A) (A) (A) (A) (A) (A) (A) (A) (A) (A) (A)
                 (A) (A) (A) (A) (A) (A) (A) (A) (A) (A) (A) (A)
                 (A) (A) (A) (A) (A) (A) (A) (A) (A) (A) (A) (A)
                 (A) (A) (A) (A) (A) (A) (A) (A) (A) (A) (A) (A)
                 (A) (A) (A) (A) (A) (A) (A) (A) (A) (A) (A) (A)
                 (A) (A) (A) (A) (A) (A) (A) (A) (A) (A) (A) (A)
                 (A) (A) (A) (A) (A) (A) (A) (A) (A) (A) (A) (A)
                 (A) (A) (A) (A) (A) (A) (A) (A) (A) (A) (A) (A)
                 (A) (A) (A) (A) (A) (A) (A) (A) (A) (A) (A) (A)
                 (A) (A) (A) (A) (A) (A) (A) (A) (A) (A) (A) (A)
                 (A) (A) (A) (A) (A) (A) (A) (A) (A) (A) (A) (A)
                 (A) (A) (A) (A) (A) (A) (A) (A) (A) (A) (A) (A)
                 (A) (A) (A) (A) (A) (A) (A) (A) (A) (A) (A) (A)
                 (A) (A) (A) (A) (A) (A) (A) (A) (A) (A) (A) (A)
                 (A) (A) (A) (A) (A) (A) (A) (A) (A) (A) (A) (A)
                 (A) (A) (A) (A) (A) (A) (A) (A) (A) (A) (A) (A)
                 (A) (A) (A) (A) (A) (A) (A) (A) (A) (A) (A) (A)
                 (A) (A) (A) (A) (A) (A) (A) (A) (A) (A) (A) (A)
                 (A) (A) (A) (A) (A) (A) (A) (A) (A) (A) (A) (A)
                 (A) (A) (A) (A) (A) (A) (A) (A) (A) (A) (A) (A)
                 (A) (A) (A) (A) (A) (A) (A) (A) (A) (A) (A) (A)
                 (A) (A) (A) (A) (A) (A) (A) (A) (A) (A) (A) (A)
                 (A) (A) (A) (A) (A) (A) (A) (A) (A) (A) (A) (A)
                 (A) (A) (A) (A) (A) (A) (A) (A) (A) (A) (A) (A)
                 (A) (A) (A) (A) (A) (A) (A) (A) (A) (A) (A) (A)
                 (A) (A) (A) (A) (A) (A) (A) (A) (A) (A) (A) (A)
                 (A) (A) (A) (A) (A) (A) (A) (A) (A) (A) (A) (A)
                 (A) (A) (A) (A) (A) (A) (A) (A) (A) (A) (A) (A)
                 (A) (A) (A) (A) (A) (A) (A) (A) (A) (A) (A) (A)
                 (A) (A) (A) (A) (A) (A) (A) (A) (A) (A) (A) (A)
                 (A) (A) (A) (A) (A) (A) (A) (A) (A) (A) (A) (A)
                 (A) (A) (A) (A) (A) (A) (A) (A) (A) (A) (A) (A)
                 (A) (A) (A) (A) (A) (A) (A) (A) (A) (A) (A) (A)
                 (A) (A) (A) (A) (A) (A) (A) (A) (A) (A) (A) (A)
                 (A) (A) (A) (A) (A) (A) (A) (A) (A) (A) (A) (A)
                 (A) (A) (A) (A) (A) (A) (A) (A) (A) (A) (A) (A)
                 (A) (A) (A) (A) (A) (A) (A) (A) (A) (A) (A) (A)
                 (A) (A) (A) (A) (A) (A) (A) (A) (A) (A) (A) (A)
                 (A) (A) (A) (A) (A) (A) (A) (A) (A) (A) (A) (A)
                 (A) (A) (A) (A) (A) (A) (A) (A) (A) (A) (A) (A)
                 (A) (A) (A) (A) (A) (A) (A) (A) (A) (A) (A) (A)
                 (A) (A) (A) (A) (A) (A) (A) (A) (A) (A) (A) (A)
 The electronic state is 1-A.
 Alpha  occ. eigenvalues --  -25.27045 -25.26882 -19.61225 -14.74282 -10.64400
 Alpha  occ. eigenvalues --  -10.64349 -10.57951 -10.57235 -10.57043 -10.56639
 Alpha  occ. eigenvalues --  -10.56626 -10.55824 -10.55802 -10.53705 -10.53165
 Alpha  occ. eigenvalues --  -10.52663 -10.52507  -1.38208  -1.38154  -1.13210
 Alpha  occ. eigenvalues --   -1.02484  -0.98337  -0.90656  -0.87353  -0.86149
 Alpha  occ. eigenvalues --   -0.85408  -0.78931  -0.75776  -0.74563  -0.72823
 Alpha  occ. eigenvalues --   -0.70707  -0.69354  -0.65455  -0.63466  -0.62449
 Alpha  occ. eigenvalues --   -0.58820  -0.58528  -0.58011  -0.57418  -0.57267
 Alpha  occ. eigenvalues --   -0.55599  -0.54593  -0.53302  -0.52503  -0.51858
 Alpha  occ. eigenvalues --   -0.49486  -0.48639  -0.47830  -0.47705  -0.47193
 Alpha  occ. eigenvalues --   -0.46165  -0.45189  -0.44606  -0.43898  -0.43035
 Alpha  occ. eigenvalues --   -0.42615  -0.41467  -0.41002  -0.40255  -0.37856
 Alpha  occ. eigenvalues --   -0.36903  -0.33749  -0.31965  -0.31404  -0.29880
 Alpha virt. eigenvalues --    0.00280   0.01780   0.05950   0.07115   0.07506
 Alpha virt. eigenvalues --    0.08658   0.08979   0.11449   0.11609   0.11995
 Alpha virt. eigenvalues --    0.12303   0.12433   0.13077   0.14014   0.14634
 Alpha virt. eigenvalues --    0.15068   0.15482   0.16240   0.16621   0.17151
 Alpha virt. eigenvalues --    0.17953   0.18050   0.18328   0.19302   0.19819
 Alpha virt. eigenvalues --    0.20928   0.21597   0.21681   0.21997   0.22806
 Alpha virt. eigenvalues --    0.23186   0.23584   0.24159   0.24712   0.25390
 Alpha virt. eigenvalues --    0.25571   0.26147   0.26735   0.27820   0.28611
 Alpha virt. eigenvalues --    0.29232   0.29565   0.30217   0.31012   0.31485
 Alpha virt. eigenvalues --    0.33023   0.33795   0.34431   0.34721   0.35040
 Alpha virt. eigenvalues --    0.35408   0.36516   0.36835   0.37249   0.37569
 Alpha virt. eigenvalues --    0.38082   0.38998   0.39295   0.39881   0.40320
 Alpha virt. eigenvalues --    0.40717   0.41218   0.41663   0.42596   0.43340
 Alpha virt. eigenvalues --    0.43949   0.44572   0.44990   0.45307   0.45824
 Alpha virt. eigenvalues --    0.46269   0.46677   0.46932   0.47352   0.47557
 Alpha virt. eigenvalues --    0.48031   0.48304   0.48698   0.49123   0.49585
 Alpha virt. eigenvalues --    0.50147   0.50960   0.51509   0.51744   0.51911
 Alpha virt. eigenvalues --    0.52772   0.52996   0.53787   0.53998   0.55115
 Alpha virt. eigenvalues --    0.55259   0.55826   0.56541   0.57049   0.57913
 Alpha virt. eigenvalues --    0.58524   0.58798   0.59928   0.60623   0.63348
 Alpha virt. eigenvalues --    0.64036   0.64106   0.65642   0.66696   0.67710
 Alpha virt. eigenvalues --    0.68519   0.68926   0.69700   0.70524   0.71228
 Alpha virt. eigenvalues --    0.72097   0.72862   0.73519   0.75348   0.75845
 Alpha virt. eigenvalues --    0.76979   0.77721   0.78482   0.78714   0.79559
 Alpha virt. eigenvalues --    0.81341   0.81507   0.83129   0.83776   0.84745
 Alpha virt. eigenvalues --    0.85334   0.86665   0.87449   0.88710   0.89746
 Alpha virt. eigenvalues --    0.89874   0.90369   0.91298   0.92087   0.92309
 Alpha virt. eigenvalues --    0.93904   0.94560   0.94761   0.96076   0.97579
 Alpha virt. eigenvalues --    0.99188   0.99271   0.99787   1.00434   1.02071
 Alpha virt. eigenvalues --    1.02306   1.03614   1.04758   1.06372   1.07223
 Alpha virt. eigenvalues --    1.08247   1.08684   1.10350   1.10970   1.12566
 Alpha virt. eigenvalues --    1.12670   1.13498   1.14611   1.15422   1.16591
 Alpha virt. eigenvalues --    1.16865   1.18611   1.19440   1.20468   1.21539
 Alpha virt. eigenvalues --    1.22110   1.23094   1.23652   1.24458   1.24699
 Alpha virt. eigenvalues --    1.25966   1.26501   1.27674   1.29590   1.31405
 Alpha virt. eigenvalues --    1.31792   1.32458   1.34460   1.35979   1.36497
 Alpha virt. eigenvalues --    1.37676   1.38428   1.39928   1.41088   1.41579
 Alpha virt. eigenvalues --    1.43673   1.44788   1.46136   1.48251   1.50087
 Alpha virt. eigenvalues --    1.50769   1.51241   1.52594   1.53940   1.54487
 Alpha virt. eigenvalues --    1.55352   1.55607   1.56317   1.57939   1.58318
 Alpha virt. eigenvalues --    1.58827   1.60047   1.60797   1.61592   1.61749
 Alpha virt. eigenvalues --    1.62260   1.64021   1.64238   1.64938   1.66081
 Alpha virt. eigenvalues --    1.66240   1.66564   1.67690   1.68761   1.69913
 Alpha virt. eigenvalues --    1.70495   1.70834   1.71003   1.71690   1.72995
 Alpha virt. eigenvalues --    1.73882   1.75086   1.76428   1.78058   1.79102
 Alpha virt. eigenvalues --    1.79770   1.82056   1.82858   1.85444   1.86078
 Alpha virt. eigenvalues --    1.88308   1.89194   1.89518   1.90404   1.91877
 Alpha virt. eigenvalues --    1.92591   1.92725   1.93173   1.95260   1.96753
 Alpha virt. eigenvalues --    1.97310   1.98024   1.99004   1.99282   2.00383
 Alpha virt. eigenvalues --    2.02298   2.03465   2.04314   2.05462   2.06806
 Alpha virt. eigenvalues --    2.08546   2.09840   2.10599   2.10846   2.11480
 Alpha virt. eigenvalues --    2.12491   2.14133   2.14950   2.15657   2.16565
 Alpha virt. eigenvalues --    2.17336   2.17729   2.18124   2.19829   2.20591
 Alpha virt. eigenvalues --    2.21032   2.23203   2.24277   2.26348   2.27788
 Alpha virt. eigenvalues --    2.28897   2.29363   2.29875   2.31511   2.32535
 Alpha virt. eigenvalues --    2.32775   2.33469   2.35580   2.36828   2.37300
 Alpha virt. eigenvalues --    2.38115   2.39319   2.40000   2.41075   2.42926
 Alpha virt. eigenvalues --    2.43680   2.44139   2.44775   2.44992   2.46711
 Alpha virt. eigenvalues --    2.47460   2.48775   2.50600   2.51678   2.51939
 Alpha virt. eigenvalues --    2.52804   2.54885   2.55548   2.56100   2.56789
 Alpha virt. eigenvalues --    2.57623   2.58105   2.58916   2.59576   2.60551
 Alpha virt. eigenvalues --    2.61120   2.61842   2.62273   2.63654   2.63881
 Alpha virt. eigenvalues --    2.64806   2.65909   2.66809   2.67154   2.67526
 Alpha virt. eigenvalues --    2.68085   2.68905   2.69155   2.69995   2.70224
 Alpha virt. eigenvalues --    2.71788   2.72119   2.74374   2.74739   2.75795
 Alpha virt. eigenvalues --    2.76122   2.77034   2.77466   2.78427   2.79519
 Alpha virt. eigenvalues --    2.81116   2.81313   2.82702   2.83959   2.84481
 Alpha virt. eigenvalues --    2.85359   2.86219   2.87929   2.88159   2.88909
 Alpha virt. eigenvalues --    2.90090   2.90621   2.92188   2.92286   2.93013
 Alpha virt. eigenvalues --    2.94118   2.95783   2.96443   2.96762   2.98287
 Alpha virt. eigenvalues --    3.00099   3.01698   3.02992   3.03225   3.04479
 Alpha virt. eigenvalues --    3.05406   3.06095   3.07293   3.08173   3.09482
 Alpha virt. eigenvalues --    3.10583   3.10916   3.11681   3.12306   3.12735
 Alpha virt. eigenvalues --    3.13423   3.14133   3.15540   3.15880   3.17193
 Alpha virt. eigenvalues --    3.17844   3.18897   3.19554   3.20300   3.21171
 Alpha virt. eigenvalues --    3.21653   3.23012   3.23435   3.24144   3.25521
 Alpha virt. eigenvalues --    3.25964   3.26999   3.27420   3.28195   3.29473
 Alpha virt. eigenvalues --    3.30234   3.30943   3.32332   3.32743   3.33997
 Alpha virt. eigenvalues --    3.35173   3.35845   3.36225   3.36838   3.38618
 Alpha virt. eigenvalues --    3.39251   3.39846   3.39947   3.41620   3.42205
 Alpha virt. eigenvalues --    3.43433   3.43906   3.45157   3.45694   3.46195
 Alpha virt. eigenvalues --    3.47888   3.48307   3.49170   3.50263   3.51105
 Alpha virt. eigenvalues --    3.51883   3.52374   3.53849   3.54797   3.55616
 Alpha virt. eigenvalues --    3.57022   3.57781   3.58333   3.59037   3.60082
 Alpha virt. eigenvalues --    3.61459   3.61548   3.62276   3.63571   3.64809
 Alpha virt. eigenvalues --    3.65519   3.66764   3.68685   3.70225   3.72014
 Alpha virt. eigenvalues --    3.72872   3.73640   3.76874   3.77391   3.78405
 Alpha virt. eigenvalues --    3.79984   3.81540   3.83124   3.85480   3.87014
 Alpha virt. eigenvalues --    3.87550   3.89470   3.92343   3.93011   3.93745
 Alpha virt. eigenvalues --    3.94762   3.98367   3.99062   4.00819   4.02527
 Alpha virt. eigenvalues --    4.02867   4.03465   4.04247   4.04914   4.05838
 Alpha virt. eigenvalues --    4.08291   4.10321   4.10662   4.11018   4.13117
 Alpha virt. eigenvalues --    4.14223   4.14681   4.16311   4.17070   4.17915
 Alpha virt. eigenvalues --    4.18849   4.20003   4.20766   4.22301   4.23215
 Alpha virt. eigenvalues --    4.24363   4.27944   4.31263   4.32425   4.34325
 Alpha virt. eigenvalues --    4.34919   4.36400   4.37347   4.39274   4.41191
 Alpha virt. eigenvalues --    4.42342   4.44159   4.47001   4.47993   4.50932
 Alpha virt. eigenvalues --    4.52655   4.54883   4.56611   4.57562   4.60101
 Alpha virt. eigenvalues --    4.62650   4.64322   4.64634   4.67131   4.71661
 Alpha virt. eigenvalues --    4.75476   4.76689   4.77419   4.78744   4.83732
 Alpha virt. eigenvalues --    4.88138   4.88702   4.92251   4.95304   4.96505
 Alpha virt. eigenvalues --    5.00514   5.01349   5.08729   5.09913   5.13018
 Alpha virt. eigenvalues --    5.16247   5.24024   5.27140   5.29908   5.31274
 Alpha virt. eigenvalues --    5.32037   5.36484   5.41851   5.42438   5.43761
 Alpha virt. eigenvalues --    5.49759   5.52733   5.59747   5.61845   5.66277
 Alpha virt. eigenvalues --    5.72597   5.79687   5.86932   5.93972   6.25847
 Alpha virt. eigenvalues --    6.51555   6.72781   6.79890   6.90146   6.90420
 Alpha virt. eigenvalues --    6.91019   6.92168   6.98135   6.99704   7.00460
 Alpha virt. eigenvalues --    7.08183   7.09730   7.16921   7.21920   7.24628
 Alpha virt. eigenvalues --    7.36040   7.39137   7.53560   7.55491   8.35851
 Alpha virt. eigenvalues --    8.37855   8.53190   8.55305   8.74195   8.75354
 Alpha virt. eigenvalues --    8.95976   8.97244   9.00000   9.02801  22.21084
 Alpha virt. eigenvalues --   22.42938  22.48043  22.58666  22.61439  22.63518
 Alpha virt. eigenvalues --   22.73815  22.74160  22.76737  22.82193  22.93450
 Alpha virt. eigenvalues --   23.02434  23.47303  32.62820  44.07478  57.48517
 Alpha virt. eigenvalues --   57.56412
          Condensed to atoms (all electrons):
               1          2          3          4          5          6
     1  C    5.093971   0.193834  -0.041414   0.035556  -0.000424  -0.000152
     2  C    0.193834   5.454515   0.055303  -0.069898   0.017524   0.005231
     3  C   -0.041414   0.055303   5.799556  -0.008403  -0.040788   0.054481
     4  C    0.035556  -0.069898  -0.008403   5.818600   0.138769  -0.100018
     5  C   -0.000424   0.017524  -0.040788   0.138769   4.984437   0.239715
     6  O   -0.000152   0.005231   0.054481  -0.100018   0.239715   8.080472
     7  N    0.008840  -0.044812   0.042464   0.029907  -0.033188  -0.032321
     8  C    0.000034   0.002127  -0.024664   0.000717   0.003576   0.002442
     9  C    0.000000  -0.000005   0.000017  -0.000013  -0.000005  -0.000001
    10  C    0.000000   0.000036   0.000271  -0.000096   0.000019  -0.000061
    11  C   -0.000033   0.000480   0.001098  -0.001502   0.000332   0.000864
    12  C   -0.000177   0.005060  -0.009923   0.004299  -0.001293  -0.000887
    13  C    0.000040  -0.000639   0.001757  -0.000007   0.000105   0.000021
    14  C    0.000000   0.000009   0.000006   0.000015   0.000006  -0.000003
    15  H    0.000000   0.000000   0.000000   0.000000   0.000000   0.000000
    16  H    0.000000   0.000000  -0.000009   0.000004  -0.000005   0.000007
    17  H    0.000000   0.000000  -0.000003   0.000000   0.000000   0.000000
    18  F    0.000000   0.000105  -0.001770   0.000149  -0.000530  -0.003342
    19  F   -0.000001  -0.000214   0.000391   0.000009  -0.000002   0.000000
    20  H    0.420796  -0.038173  -0.024670   0.022167   0.000592  -0.000078
    21  H    0.413783  -0.049904   0.012501  -0.011222  -0.000365   0.000010
    22  H    0.416407  -0.043808   0.012376  -0.001200   0.000029   0.000002
    23  H   -0.033557   0.396698  -0.011424  -0.025397  -0.001198  -0.000030
    24  H   -0.035030   0.441605  -0.066383   0.012178  -0.000196  -0.000080
    25  H   -0.001451  -0.004725  -0.062855   0.413992  -0.022466   0.006731
    26  H   -0.000115   0.002777  -0.018436  -0.087460   0.468343  -0.049375
    27  H   -0.000036  -0.000547   0.017241  -0.053423   0.422128  -0.028517
    28  H   -0.000123  -0.000023   0.009044  -0.005649  -0.051063   0.312866
    29  H   -0.000926   0.007128  -0.012705   0.000096  -0.000237  -0.000105
    30  H    0.000686  -0.009490   0.013789   0.000346   0.000230  -0.000028
    31  H    0.001441  -0.051576   0.468921  -0.057340  -0.005441   0.007807
    32  C   -0.013275   0.021605  -0.018955   0.194364  -0.034170   0.006062
    33  H   -0.005006   0.017047  -0.027575  -0.026418   0.007437  -0.000234
    34  H    0.001131  -0.010040   0.007698  -0.030710  -0.015472   0.000082
    35  H    0.000283  -0.000963   0.013345  -0.053581   0.001769   0.000086
    36  H    0.000749  -0.016094  -0.010783  -0.001284  -0.001170   0.000482
               7          8          9         10         11         12
     1  C    0.008840   0.000034   0.000000   0.000000  -0.000033  -0.000177
     2  C   -0.044812   0.002127  -0.000005   0.000036   0.000480   0.005060
     3  C    0.042464  -0.024664   0.000017   0.000271   0.001098  -0.009923
     4  C    0.029907   0.000717  -0.000013  -0.000096  -0.001502   0.004299
     5  C   -0.033188   0.003576  -0.000005   0.000019   0.000332  -0.001293
     6  O   -0.032321   0.002442  -0.000001  -0.000061   0.000864  -0.000887
     7  N    7.117683   0.140766   0.000598  -0.000874   0.034208  -0.043903
     8  C    0.140766   5.197590  -0.004299   0.006242  -0.099786   0.255976
     9  C    0.000598  -0.004299   5.027598   0.435276  -0.024280  -0.081774
    10  C   -0.000874   0.006242   0.435276   5.036167   0.527322   0.005891
    11  C    0.034208  -0.099786  -0.024280   0.527322   4.855755   0.282434
    12  C   -0.043903   0.255976  -0.081774   0.005891   0.282434   5.591633
    13  C   -0.005956  -0.055928  -0.021216  -0.075024   0.015023   0.268424
    14  C   -0.001134   0.009819   0.423908  -0.027746  -0.081536   0.001772
    15  H   -0.000001   0.000091   0.403966  -0.025580   0.002876  -0.000478
    16  H    0.000035  -0.000344  -0.029386   0.409461  -0.038165   0.012062
    17  H    0.000015  -0.000386  -0.034210   0.004821  -0.001087   0.014715
    18  F   -0.002833   0.022713   0.008008  -0.047317   0.240861  -0.082462
    19  F   -0.001026   0.008928   0.010229  -0.001095   0.006621  -0.083901
    20  H   -0.000177  -0.000050   0.000000   0.000000  -0.000001   0.000002
    21  H    0.000168  -0.000018   0.000000   0.000000  -0.000001  -0.000002
    22  H   -0.000448  -0.000005   0.000000   0.000000   0.000001   0.000002
    23  H    0.001292  -0.002216   0.000000  -0.000001  -0.000035  -0.000681
    24  H   -0.003445   0.002825  -0.000001   0.000000  -0.000253   0.002154
    25  H    0.005495  -0.000541   0.000000   0.000001   0.000016   0.000015
    26  H    0.011015  -0.000461  -0.000005   0.000069  -0.000075   0.000168
    27  H    0.001340  -0.000002   0.000000   0.000000   0.000065  -0.000035
    28  H    0.025884  -0.002966   0.000028  -0.000343   0.000384  -0.002794
    29  H   -0.037243   0.399128  -0.000199   0.000025   0.022816  -0.003021
    30  H   -0.056828   0.440378  -0.000355  -0.000153  -0.024204  -0.031054
    31  H   -0.047325  -0.009187   0.000000   0.000009   0.000062  -0.002447
    32  C   -0.010114   0.000592   0.000001   0.000000  -0.000013  -0.000393
    33  H    0.001214  -0.000060   0.000000   0.000000  -0.000003   0.000016
    34  H   -0.000432  -0.000286   0.000000   0.000000   0.000051   0.000175
    35  H   -0.000384   0.000047   0.000000   0.000000  -0.000001   0.000004
    36  H    0.343951  -0.029178  -0.000061  -0.000192  -0.001807  -0.009446
              13         14         15         16         17         18
     1  C    0.000040   0.000000   0.000000   0.000000   0.000000   0.000000
     2  C   -0.000639   0.000009   0.000000   0.000000   0.000000   0.000105
     3  C    0.001757   0.000006   0.000000  -0.000009  -0.000003  -0.001770
     4  C   -0.000007   0.000015   0.000000   0.000004   0.000000   0.000149
     5  C    0.000105   0.000006   0.000000  -0.000005   0.000000  -0.000530
     6  O    0.000021  -0.000003   0.000000   0.000007   0.000000  -0.003342
     7  N   -0.005956  -0.001134  -0.000001   0.000035   0.000015  -0.002833
     8  C   -0.055928   0.009819   0.000091  -0.000344  -0.000386   0.022713
     9  C   -0.021216   0.423908   0.403966  -0.029386  -0.034210   0.008008
    10  C   -0.075024  -0.027746  -0.025580   0.409461   0.004821  -0.047317
    11  C    0.015023  -0.081536   0.002876  -0.038165  -0.001087   0.240861
    12  C    0.268424   0.001772  -0.000478   0.012062   0.014715  -0.082462
    13  C    4.833076   0.520616   0.002034  -0.000568  -0.042205   0.004650
    14  C    0.520616   5.064502  -0.024458   0.003701   0.413784  -0.000535
    15  H    0.002034  -0.024458   0.475405  -0.003197  -0.003330  -0.000110
    16  H   -0.000568   0.003701  -0.003197   0.469393  -0.000136   0.002018
    17  H   -0.042205   0.413784  -0.003330  -0.000136   0.474620   0.000012
    18  F    0.004650  -0.000535  -0.000110   0.002018   0.000012   9.068650
    19  F    0.256018  -0.048769  -0.000104   0.000009   0.001352  -0.000032
    20  H    0.000000   0.000000   0.000000   0.000000   0.000000   0.000000
    21  H    0.000000   0.000000   0.000000   0.000000   0.000000   0.000000
    22  H   -0.000001   0.000000   0.000000   0.000000   0.000000   0.000000
    23  H    0.000098   0.000005   0.000000   0.000000   0.000000   0.000000
    24  H    0.000229   0.000008   0.000000   0.000000   0.000000  -0.000008
    25  H   -0.000004   0.000000   0.000000   0.000000   0.000000  -0.000001
    26  H   -0.000093   0.000008   0.000000   0.000000   0.000000   0.000028
    27  H   -0.000004   0.000000   0.000000   0.000000   0.000000  -0.000006
    28  H   -0.000173  -0.000012   0.000001   0.000020   0.000000   0.010257
    29  H   -0.042748  -0.002098   0.000004   0.000005   0.000011   0.000514
    30  H    0.008518   0.000587   0.000001  -0.000004   0.000006   0.000337
    31  H    0.000105   0.000009   0.000000  -0.000001   0.000000   0.000333
    32  C    0.000033   0.000000   0.000000   0.000000   0.000000   0.000007
    33  H    0.000000   0.000000   0.000000   0.000000   0.000000   0.000000
    34  H   -0.000024  -0.000002   0.000000   0.000000   0.000000  -0.000001
    35  H    0.000000   0.000000   0.000000   0.000000   0.000000   0.000000
    36  H    0.004699   0.000246   0.000000  -0.000001   0.000000  -0.000008
              19         20         21         22         23         24
     1  C   -0.000001   0.420796   0.413783   0.416407  -0.033557  -0.035030
     2  C   -0.000214  -0.038173  -0.049904  -0.043808   0.396698   0.441605
     3  C    0.000391  -0.024670   0.012501   0.012376  -0.011424  -0.066383
     4  C    0.000009   0.022167  -0.011222  -0.001200  -0.025397   0.012178
     5  C   -0.000002   0.000592  -0.000365   0.000029  -0.001198  -0.000196
     6  O    0.000000  -0.000078   0.000010   0.000002  -0.000030  -0.000080
     7  N   -0.001026  -0.000177   0.000168  -0.000448   0.001292  -0.003445
     8  C    0.008928  -0.000050  -0.000018  -0.000005  -0.002216   0.002825
     9  C    0.010229   0.000000   0.000000   0.000000   0.000000  -0.000001
    10  C   -0.001095   0.000000   0.000000   0.000000  -0.000001   0.000000
    11  C    0.006621  -0.000001  -0.000001   0.000001  -0.000035  -0.000253
    12  C   -0.083901   0.000002  -0.000002   0.000002  -0.000681   0.002154
    13  C    0.256018   0.000000   0.000000  -0.000001   0.000098   0.000229
    14  C   -0.048769   0.000000   0.000000   0.000000   0.000005   0.000008
    15  H   -0.000104   0.000000   0.000000   0.000000   0.000000   0.000000
    16  H    0.000009   0.000000   0.000000   0.000000   0.000000   0.000000
    17  H    0.001352   0.000000   0.000000   0.000000   0.000000   0.000000
    18  F   -0.000032   0.000000   0.000000   0.000000   0.000000  -0.000008
    19  F    9.058990   0.000000   0.000000   0.000000   0.000022  -0.000025
    20  H    0.000000   0.532384  -0.028689  -0.024371  -0.004211   0.006539
    21  H    0.000000  -0.028689   0.528969  -0.022700   0.006517  -0.003419
    22  H    0.000000  -0.024371  -0.022700   0.521487  -0.004045  -0.006163
    23  H    0.000022  -0.004211   0.006517  -0.004045   0.535579  -0.023443
    24  H   -0.000025   0.006539  -0.003419  -0.006163  -0.023443   0.529766
    25  H    0.000000  -0.010035   0.000879   0.000513   0.001242  -0.000910
    26  H    0.000000  -0.000055  -0.000004   0.000002  -0.000095  -0.000047
    27  H    0.000000   0.000020   0.000009   0.000000  -0.000013   0.000012
    28  H    0.000001   0.000004   0.000008   0.000003  -0.000059   0.000038
    29  H    0.007529  -0.000031   0.000014   0.000091  -0.001164  -0.005640
    30  H    0.000560   0.000000   0.000096  -0.000026   0.000511   0.000404
    31  H   -0.000004   0.000698   0.001310  -0.000440   0.005807  -0.002412
    32  C    0.000001  -0.004828   0.001165   0.000187   0.003799  -0.000748
    33  H    0.000000   0.002499  -0.000058   0.000057  -0.009302   0.000638
    34  H   -0.000006  -0.000115  -0.000028   0.000009   0.000403  -0.000220
    35  H    0.000000   0.000111   0.000000  -0.000006   0.000271   0.000026
    36  H    0.000732   0.000040   0.000005  -0.000014   0.004785   0.000444
              25         26         27         28         29         30
     1  C   -0.001451  -0.000115  -0.000036  -0.000123  -0.000926   0.000686
     2  C   -0.004725   0.002777  -0.000547  -0.000023   0.007128  -0.009490
     3  C   -0.062855  -0.018436   0.017241   0.009044  -0.012705   0.013789
     4  C    0.413992  -0.087460  -0.053423  -0.005649   0.000096   0.000346
     5  C   -0.022466   0.468343   0.422128  -0.051063  -0.000237   0.000230
     6  O    0.006731  -0.049375  -0.028517   0.312866  -0.000105  -0.000028
     7  N    0.005495   0.011015   0.001340   0.025884  -0.037243  -0.056828
     8  C   -0.000541  -0.000461  -0.000002  -0.002966   0.399128   0.440378
     9  C    0.000000  -0.000005   0.000000   0.000028  -0.000199  -0.000355
    10  C    0.000001   0.000069   0.000000  -0.000343   0.000025  -0.000153
    11  C    0.000016  -0.000075   0.000065   0.000384   0.022816  -0.024204
    12  C    0.000015   0.000168  -0.000035  -0.002794  -0.003021  -0.031054
    13  C   -0.000004  -0.000093  -0.000004  -0.000173  -0.042748   0.008518
    14  C    0.000000   0.000008   0.000000  -0.000012  -0.002098   0.000587
    15  H    0.000000   0.000000   0.000000   0.000001   0.000004   0.000001
    16  H    0.000000   0.000000   0.000000   0.000020   0.000005  -0.000004
    17  H    0.000000   0.000000   0.000000   0.000000   0.000011   0.000006
    18  F   -0.000001   0.000028  -0.000006   0.010257   0.000514   0.000337
    19  F    0.000000   0.000000   0.000000   0.000001   0.007529   0.000560
    20  H   -0.010035  -0.000055   0.000020   0.000004  -0.000031   0.000000
    21  H    0.000879  -0.000004   0.000009   0.000008   0.000014   0.000096
    22  H    0.000513   0.000002   0.000000   0.000003   0.000091  -0.000026
    23  H    0.001242  -0.000095  -0.000013  -0.000059  -0.001164   0.000511
    24  H   -0.000910  -0.000047   0.000012   0.000038  -0.005640   0.000404
    25  H    0.564137   0.011019  -0.011388  -0.000942   0.000073  -0.000150
    26  H    0.011019   0.571289  -0.039469  -0.010506   0.000131  -0.000245
    27  H   -0.011388  -0.039469   0.546985   0.008496   0.000007  -0.000004
    28  H   -0.000942  -0.010506   0.008496   0.390006   0.000442  -0.001950
    29  H    0.000073   0.000131   0.000007   0.000442   0.550197  -0.031873
    30  H   -0.000150  -0.000245  -0.000004  -0.001950  -0.031873   0.481293
    31  H    0.000009   0.001511  -0.000749  -0.006487  -0.000718   0.001221
    32  C   -0.040739   0.005376  -0.007169  -0.001624  -0.000155   0.000025
    33  H   -0.005279   0.000180  -0.000417   0.000011  -0.000002  -0.000001
    34  H    0.007621   0.005104   0.000444   0.000103   0.000114  -0.000034
    35  H   -0.006145  -0.003212   0.002551   0.000007  -0.000001   0.000003
    36  H   -0.000069  -0.001380  -0.000122  -0.001117  -0.007360   0.006969
              31         32         33         34         35         36
     1  C    0.001441  -0.013275  -0.005006   0.001131   0.000283   0.000749
     2  C   -0.051576   0.021605   0.017047  -0.010040  -0.000963  -0.016094
     3  C    0.468921  -0.018955  -0.027575   0.007698   0.013345  -0.010783
     4  C   -0.057340   0.194364  -0.026418  -0.030710  -0.053581  -0.001284
     5  C   -0.005441  -0.034170   0.007437  -0.015472   0.001769  -0.001170
     6  O    0.007807   0.006062  -0.000234   0.000082   0.000086   0.000482
     7  N   -0.047325  -0.010114   0.001214  -0.000432  -0.000384   0.343951
     8  C   -0.009187   0.000592  -0.000060  -0.000286   0.000047  -0.029178
     9  C    0.000000   0.000001   0.000000   0.000000   0.000000  -0.000061
    10  C    0.000009   0.000000   0.000000   0.000000   0.000000  -0.000192
    11  C    0.000062  -0.000013  -0.000003   0.000051  -0.000001  -0.001807
    12  C   -0.002447  -0.000393   0.000016   0.000175   0.000004  -0.009446
    13  C    0.000105   0.000033   0.000000  -0.000024   0.000000   0.004699
    14  C    0.000009   0.000000   0.000000  -0.000002   0.000000   0.000246
    15  H    0.000000   0.000000   0.000000   0.000000   0.000000   0.000000
    16  H   -0.000001   0.000000   0.000000   0.000000   0.000000  -0.000001
    17  H    0.000000   0.000000   0.000000   0.000000   0.000000   0.000000
    18  F    0.000333   0.000007   0.000000  -0.000001   0.000000  -0.000008
    19  F   -0.000004   0.000001   0.000000  -0.000006   0.000000   0.000732
    20  H    0.000698  -0.004828   0.002499  -0.000115   0.000111   0.000040
    21  H    0.001310   0.001165  -0.000058  -0.000028   0.000000   0.000005
    22  H   -0.000440   0.000187   0.000057   0.000009  -0.000006  -0.000014
    23  H    0.005807   0.003799  -0.009302   0.000403   0.000271   0.004785
    24  H   -0.002412  -0.000748   0.000638  -0.000220   0.000026   0.000444
    25  H    0.000009  -0.040739  -0.005279   0.007621  -0.006145  -0.000069
    26  H    0.001511   0.005376   0.000180   0.005104  -0.003212  -0.001380
    27  H   -0.000749  -0.007169  -0.000417   0.000444   0.002551  -0.000122
    28  H   -0.006487  -0.001624   0.000011   0.000103   0.000007  -0.001117
    29  H   -0.000718  -0.000155  -0.000002   0.000114  -0.000001  -0.007360
    30  H    0.001221   0.000025  -0.000001  -0.000034   0.000003   0.006969
    31  H    0.486418   0.008387  -0.000546  -0.000096  -0.000212   0.006285
    32  C    0.008387   5.136210   0.416736   0.404625   0.423028   0.001203
    33  H   -0.000546   0.416736   0.515215  -0.026226  -0.020263  -0.000167
    34  H   -0.000096   0.404625  -0.026226   0.529952  -0.025212  -0.000335
    35  H   -0.000212   0.423028  -0.020263  -0.025212   0.508258  -0.000086
    36  H    0.006285   0.001203  -0.000167  -0.000335  -0.000086   0.471991
 Mulliken charges:
               1
     1  C   -0.455829
     2  C   -0.280173
     3  C   -0.129499
     4  C   -0.137549
     5  C   -0.076997
     6  O   -0.502128
     7  N   -0.442429
     8  C   -0.263616
     9  C   -0.113817
    10  C   -0.247128
    11  C    0.281510
    12  C   -0.090132
    13  C    0.329145
    14  C   -0.252707
    15  H    0.172882
    16  H    0.175101
    17  H    0.172023
    18  F   -0.219689
    19  F   -0.216212
    20  H    0.149632
    21  H    0.150974
    22  H    0.152061
    23  H    0.159840
    24  H    0.151558
    25  H    0.155956
    26  H    0.134012
    27  H    0.142603
    28  H    0.328233
    29  H    0.157904
    30  H    0.200441
    31  H    0.194649
    32  C   -0.491221
    33  H    0.160506
    34  H    0.151727
    35  H    0.160277
    36  H    0.238094
 Sum of Mulliken charges =   0.00000
 Mulliken charges with hydrogens summed into heavy atoms:
               1
     1  C   -0.003162
     2  C    0.031225
     3  C    0.065150
     4  C    0.018407
     5  C    0.199618
     6  O   -0.173895
     7  N   -0.204335
     8  C    0.094728
     9  C    0.059065
    10  C   -0.072028
    11  C    0.281510
    12  C   -0.090132
    13  C    0.329145
    14  C   -0.080684
    18  F   -0.219689
    19  F   -0.216212
    32  C   -0.018711
 Electronic spatial extent (au):  <R**2>=           5048.6882
 Charge=              0.0000 electrons
 Dipole moment (field-independent basis, Debye):
    X=              1.5446    Y=             -2.6693    Z=              1.3647  Tot=              3.3724
 Quadrupole moment (field-independent basis, Debye-Ang):
   XX=            -86.4659   YY=           -112.9809   ZZ=           -102.0605
   XY=              8.4142   XZ=              0.4139   YZ=              3.7987
 Traceless Quadrupole moment (field-independent basis, Debye-Ang):
   XX=             14.0365   YY=            -12.4785   ZZ=             -1.5581
   XY=              8.4142   XZ=              0.4139   YZ=              3.7987
 Octapole moment (field-independent basis, Debye-Ang**2):
  XXX=             76.4105  YYY=            -15.8539  ZZZ=             -6.6708  XYY=             17.9298
  XXY=             12.2804  XXZ=             24.9035  XZZ=             -0.8923  YZZ=             -3.0907
  YYZ=              5.7472  XYZ=            -10.0408
 Hexadecapole moment (field-independent basis, Debye-Ang**3):
 XXXX=          -4356.0760 YYYY=          -1455.9454 ZZZZ=           -586.2118 XXXY=              5.8875
 XXXZ=             87.1406 YYYX=             52.4880 YYYZ=              3.0728 ZZZX=              2.2598
 ZZZY=            -28.6020 XXYY=           -988.1622 XXZZ=           -905.8385 YYZZ=           -326.7694
 XXYZ=             -8.4613 YYXZ=            -18.5003 ZZXY=            -22.8844
 N-N= 1.276920858336D+03 E-N=-4.509923162288D+03  KE= 8.321490405077D+02
 1\1\GINC-CPU-E-855\SP\RM062X\def2TZVP\C13H19F2N1O1\KE291\26-Jun-2019\0
 \\# m062x/def2tzvp int=ultrafine scrf=(solvent=chloroform)\\AT3_2ginp0
 09\\0,1\C,0,-3.977728,-1.746672,-1.17648\C,0,-2.585118,-1.680241,-0.53
 7187\C,0,-2.034721,-0.250357,-0.353204\C,0,-2.922606,0.660214,0.536598
 \C,0,-2.246016,2.026476,0.78944\O,0,-1.59254,2.571436,-0.34822\N,0,-0.
 639224,-0.192759,0.126469\C,0,0.363162,-0.802436,-0.75796\C,0,4.332849
 ,0.450015,0.464041\C,0,3.482252,1.355017,-0.17519\C,0,2.222687,0.91515
 7,-0.556442\C,0,1.754359,-0.383589,-0.343762\C,0,2.646096,-1.240037,0.
 303194\C,0,3.920968,-0.859593,0.7089\H,0,5.32277,0.769253,0.77251\H,0,
 3.778697,2.377415,-0.378601\H,0,4.561715,-1.58004,1.203912\F,0,1.39644
 8,1.78841,-1.18592\F,0,2.247653,-2.511768,0.54619\H,0,-4.747517,-1.305
 315,-0.535999\H,0,-3.997197,-1.212072,-2.133238\H,0,-4.267404,-2.78409
 7,-1.371728\H,0,-2.592087,-2.198165,0.430657\H,0,-1.887289,-2.238328,-
 1.172593\H,0,-3.840894,0.844086,-0.035543\H,0,-1.54018,1.927265,1.6272
 34\H,0,-3.008317,2.752324,1.095009\H,0,-0.799183,2.021817,-0.460153\H,
 0,0.321034,-1.898143,-0.797147\H,0,0.16908,-0.435809,-1.771915\H,0,-2.
 01589,0.223562,-1.343936\C,0,-3.32139,0.046513,1.888224\H,0,-3.945085,
 -0.844066,1.773295\H,0,-2.444284,-0.232975,2.484184\H,0,-3.892783,0.77
 0569,2.479864\H,0,-0.565976,-0.612047,1.051208\\Version=ES64L-G09RevD.
 01\State=1-A\HF=-836.4607389\RMSD=8.020e-09\Dipole=0.6076729,-1.050171
 1,0.5369257\Quadrupole=10.4358266,-9.2774412,-1.1583853,6.2557326,0.30
 77176,2.8242425\PG=C01 [X(C13H19F2N1O1)]\\@


 WE ARE REACHING THE STAGE WHERE THE PROBLEMS WE MUST SOLVE ARE 
 GOING TO BECOME INSOLUBLE WITHOUT COMPUTERS.
 I DO NOT FEAR COMPUTERS.  I FEAR THE LACK OF THEM.

                                   -- ISSAC ASIMOV
 Job cpu time:       0 days  1 hours 18 minutes 46.8 seconds.
 File lengths (MBytes):  RWF=    317 Int=      0 D2E=      0 Chk=     17 Scr=      1
 Normal termination of Gaussian 09 at Wed Jun 26 12:22:45 2019.
