 Entering Gaussian System, Link 0=/usr/local/Cluster-Apps/gaussian/g09/g09
 Initial command:
 /usr/local/Cluster-Apps/gaussian/g09/l1.exe "/home/ke291/rds/hpc-work/26Jun1158AT3NMR/Gau-109905.inp" -scrdir="/home/ke291/rds/hpc-work/26Jun1158AT3NMR/"
 Entering Link 1 = /usr/local/Cluster-Apps/gaussian/g09/l1.exe PID=    109927.
  
 Copyright (c) 1988,1990,1992,1993,1995,1998,2003,2009,2013,
            Gaussian, Inc.  All Rights Reserved.
  
 This is part of the Gaussian(R) 09 program.  It is based on
 the Gaussian(R) 03 system (copyright 2003, Gaussian, Inc.),
 the Gaussian(R) 98 system (copyright 1998, Gaussian, Inc.),
 the Gaussian(R) 94 system (copyright 1995, Gaussian, Inc.),
 the Gaussian 92(TM) system (copyright 1992, Gaussian, Inc.),
 the Gaussian 90(TM) system (copyright 1990, Gaussian, Inc.),
 the Gaussian 88(TM) system (copyright 1988, Gaussian, Inc.),
 the Gaussian 86(TM) system (copyright 1986, Carnegie Mellon
 University), and the Gaussian 82(TM) system (copyright 1983,
 Carnegie Mellon University). Gaussian is a federally registered
 trademark of Gaussian, Inc.
  
 This software contains proprietary and confidential information,
 including trade secrets, belonging to Gaussian, Inc.
  
 This software is provided under written license and may be
 used, copied, transmitted, or stored only in accord with that
 written license.
  
 The following legend is applicable only to US Government
 contracts under FAR:
  
                    RESTRICTED RIGHTS LEGEND
  
 Use, reproduction and disclosure by the US Government is
 subject to restrictions as set forth in subparagraphs (a)
 and (c) of the Commercial Computer Software - Restricted
 Rights clause in FAR 52.227-19.
  
 Gaussian, Inc.
 340 Quinnipiac St., Bldg. 40, Wallingford CT 06492
  
  
 ---------------------------------------------------------------
 Warning -- This program may not be used in any manner that
 competes with the business of Gaussian, Inc. or will provide
 assistance to any competitor of Gaussian, Inc.  The licensee
 of this program is prohibited from giving any competitor of
 Gaussian, Inc. access to this program.  By using this program,
 the user acknowledges that Gaussian, Inc. is engaged in the
 business of creating and licensing software in the field of
 computational chemistry and represents and warrants to the
 licensee that it is not a competitor of Gaussian, Inc. and that
 it will not use this program in any manner prohibited above.
 ---------------------------------------------------------------
  

 Cite this work as:
 Gaussian 09, Revision D.01,
 M. J. Frisch, G. W. Trucks, H. B. Schlegel, G. E. Scuseria, 
 M. A. Robb, J. R. Cheeseman, G. Scalmani, V. Barone, B. Mennucci, 
 G. A. Petersson, H. Nakatsuji, M. Caricato, X. Li, H. P. Hratchian, 
 A. F. Izmaylov, J. Bloino, G. Zheng, J. L. Sonnenberg, M. Hada, 
 M. Ehara, K. Toyota, R. Fukuda, J. Hasegawa, M. Ishida, T. Nakajima, 
 Y. Honda, O. Kitao, H. Nakai, T. Vreven, J. A. Montgomery, Jr., 
 J. E. Peralta, F. Ogliaro, M. Bearpark, J. J. Heyd, E. Brothers, 
 K. N. Kudin, V. N. Staroverov, T. Keith, R. Kobayashi, J. Normand, 
 K. Raghavachari, A. Rendell, J. C. Burant, S. S. Iyengar, J. Tomasi, 
 M. Cossi, N. Rega, J. M. Millam, M. Klene, J. E. Knox, J. B. Cross, 
 V. Bakken, C. Adamo, J. Jaramillo, R. Gomperts, R. E. Stratmann, 
 O. Yazyev, A. J. Austin, R. Cammi, C. Pomelli, J. W. Ochterski, 
 R. L. Martin, K. Morokuma, V. G. Zakrzewski, G. A. Voth, 
 P. Salvador, J. J. Dannenberg, S. Dapprich, A. D. Daniels, 
 O. Farkas, J. B. Foresman, J. V. Ortiz, J. Cioslowski, 
 and D. J. Fox, Gaussian, Inc., Wallingford CT, 2013.
 
 ******************************************
 Gaussian 09:  ES64L-G09RevD.01 24-Apr-2013
                26-Jun-2019 
 ******************************************
 %nprocshared=4
 Will use up to    4 processors via shared memory.
 %mem=6000MB
 %chk=AT3_1ginp009.chk
 --------------------------------------------------------
 # m062x/def2tzvp int=ultrafine scrf=(solvent=chloroform)
 --------------------------------------------------------
 1/38=1/1;
 2/12=2,17=6,18=5,40=1/2;
 3/5=44,7=101,11=2,16=1,25=1,30=1,70=2201,72=7,74=-55,75=-5/1,2,3;
 4//1;
 5/5=2,38=5,53=7/2;
 6/7=2,8=2,9=2,10=2,28=1/1;
 99/5=1,9=1/99;
 ------------
 AT3_1ginp009
 ------------
 Symbolic Z-matrix:
 Charge =  0 Multiplicity = 1
 C                     2.18726   2.96498  -0.03877 
 C                     2.55249   1.62666  -0.69505 
 C                     1.91347   0.40693  -0.00708 
 C                     2.58059  -0.94538  -0.37986 
 C                     3.93904  -1.13605   0.29804 
 O                     3.75632  -1.13826   1.71429 
 N                     0.47603   0.35455  -0.34846 
 C                    -0.36094  -0.20879   0.71931 
 C                    -4.56647  -0.06372  -0.34626 
 C                    -3.91998  -1.29725  -0.2711 
 C                    -2.57129  -1.32236   0.06809 
 C                    -1.825    -0.17619   0.34618 
 C                    -2.52793   1.02664   0.25193 
 C                    -3.87101   1.11865  -0.08473 
 H                    -5.61769  -0.02228  -0.61126 
 H                    -4.43734  -2.22871  -0.46978 
 H                    -4.34702   2.09083  -0.13806 
 F                    -1.95269  -2.52352   0.1421 
 F                    -1.84012   2.17239   0.5009 
 H                     2.63992   3.80294  -0.57831 
 H                     1.10528   3.13867  -0.01956 
 H                     2.54142   3.00216   0.99723 
 H                     2.25319   1.63601  -1.75065 
 H                     3.64286   1.51914  -0.68547 
 H                     1.93202  -1.73387   0.02536 
 H                     4.63578  -0.33933  -0.00696 
 H                     4.37514  -2.08903  -0.03987 
 H                     4.62936  -1.18933   2.1243 
 H                    -0.06761  -1.24639   0.89218 
 H                    -0.22805   0.32276   1.67829 
 H                     2.04475   0.53381   1.08084 
 C                     2.69386  -1.16676  -1.89402 
 H                     1.73024  -0.97742  -2.37326 
 H                     3.43761  -0.50347  -2.34988 
 H                     2.99087  -2.19691  -2.1173 
 H                     0.14736   1.30057  -0.52006 
 
                          Input orientation:                          
 ---------------------------------------------------------------------
 Center     Atomic      Atomic             Coordinates (Angstroms)
 Number     Number       Type             X           Y           Z
 ---------------------------------------------------------------------
      1          6           0        2.187260    2.964984   -0.038773
      2          6           0        2.552485    1.626662   -0.695052
      3          6           0        1.913467    0.406928   -0.007079
      4          6           0        2.580586   -0.945379   -0.379857
      5          6           0        3.939044   -1.136049    0.298039
      6          8           0        3.756315   -1.138262    1.714294
      7          7           0        0.476031    0.354546   -0.348462
      8          6           0       -0.360944   -0.208785    0.719312
      9          6           0       -4.566471   -0.063718   -0.346259
     10          6           0       -3.919979   -1.297254   -0.271096
     11          6           0       -2.571287   -1.322359    0.068093
     12          6           0       -1.825004   -0.176185    0.346176
     13          6           0       -2.527930    1.026641    0.251934
     14          6           0       -3.871005    1.118646   -0.084729
     15          1           0       -5.617693   -0.022282   -0.611255
     16          1           0       -4.437343   -2.228709   -0.469775
     17          1           0       -4.347021    2.090830   -0.138061
     18          9           0       -1.952692   -2.523518    0.142097
     19          9           0       -1.840122    2.172395    0.500895
     20          1           0        2.639916    3.802939   -0.578306
     21          1           0        1.105279    3.138670   -0.019564
     22          1           0        2.541419    3.002157    0.997228
     23          1           0        2.253193    1.636009   -1.750647
     24          1           0        3.642863    1.519141   -0.685471
     25          1           0        1.932018   -1.733868    0.025355
     26          1           0        4.635781   -0.339334   -0.006961
     27          1           0        4.375136   -2.089029   -0.039869
     28          1           0        4.629363   -1.189329    2.124304
     29          1           0       -0.067613   -1.246394    0.892177
     30          1           0       -0.228048    0.322760    1.678293
     31          1           0        2.044748    0.533814    1.080844
     32          6           0        2.693863   -1.166761   -1.894015
     33          1           0        1.730239   -0.977416   -2.373257
     34          1           0        3.437613   -0.503469   -2.349877
     35          1           0        2.990872   -2.196905   -2.117299
     36          1           0        0.147356    1.300573   -0.520064
 ---------------------------------------------------------------------
                    Distance matrix (angstroms):
                    1          2          3          4          5
     1  C    0.000000
     2  C    1.534665   0.000000
     3  C    2.572862   1.539286   0.000000
     4  C    3.944868   2.591434   1.553301   0.000000
     5  C    4.472210   3.246744   2.564534   1.530133   0.000000
     6  O    4.729884   3.859917   2.957503   2.409359   1.427996
     7  N    3.136654   2.459688   1.478347   2.473852   3.825218
     8  C    4.140150   3.722547   2.465703   3.225421   4.418958
     9  C    7.408135   7.325201   6.505855   7.201311   8.597023
    10  C    7.451108   7.114901   6.083012   6.510990   7.881253
    11  C    6.405974   5.960885   4.807193   5.185033   6.517054
    12  C    5.110126   4.847352   3.800128   4.530784   5.843621
    13  C    5.106339   5.202636   4.491897   5.512255   6.819172
    14  C    6.333534   6.472387   5.828609   6.780142   8.137999
    15  H    8.376681   8.335337   7.567537   8.253329   9.664291
    16  H    8.428854   7.985758   6.891550   7.134869   8.482176
    17  H    6.593241   6.937498   6.484319   7.567613   8.902910
    18  F    6.877178   6.182348   4.853551   4.828413   6.054911
    19  F    4.139957   4.585097   4.179036   5.480775   6.662260
    20  H    1.094606   2.181159   3.519506   4.752833   5.181633
    21  H    1.096001   2.199286   2.848813   4.357270   5.138513
    22  H    1.095495   2.180807   2.852748   4.181021   4.423457
    23  H    2.168187   1.097244   2.160112   2.941057   3.837123
    24  H    2.151153   1.095708   2.165189   2.701054   2.846937
    25  H    4.706216   3.492439   2.141122   1.098432   2.111847
    26  H    4.112759   2.945969   2.822747   2.174895   1.101464
    27  H    5.507254   4.190189   3.505808   2.154980   1.101149
    28  H    5.282148   4.493550   3.803541   3.244660   1.953106
    29  H    4.866911   4.199840   2.732547   2.953242   4.051972
    30  H    3.970312   3.881274   2.726472   3.705750   4.625784
    31  H    2.680380   2.146141   1.103137   2.146807   2.643782
    32  C    4.557399   3.043142   2.577992   1.534443   2.521214
    33  H    4.604476   3.205259   2.747504   2.167432   3.469842
    34  H    4.351408   2.838900   2.939481   2.193344   2.768221
    35  H    5.622380   4.103003   3.520480   2.180219   2.803267
    36  H    2.676399   2.433434   2.044726   3.314297   4.580755
                    6          7          8          9         10
     6  O    0.000000
     7  N    4.152554   0.000000
     8  C    4.336558   1.469017   0.000000
     9  C    8.641139   5.059820   4.340846   0.000000
    10  C    7.930482   4.696736   3.851286   1.394709   0.000000
    11  C    6.540827   3.503095   2.559248   2.395125   1.390917
    12  C    5.826531   2.461495   1.511213   2.829798   2.454942
    13  C    6.805662   3.136235   2.537823   2.387963   2.758958
    14  C    8.155129   4.421552   3.837849   1.396444   2.423573
    15  H    9.722428   6.111017   5.425735   1.084900   2.150231
    16  H    8.549577   5.552402   4.702239   2.172353   1.083858
    17  H    8.917528   5.130378   4.681039   2.175680   3.417481
    18  F    6.081406   3.797709   2.867896   3.622285   2.354712
    19  F    6.614597   3.064400   2.811706   3.626410   4.118281
    20  H    5.560380   4.077578   5.175220   8.181497   8.314961
    21  H    5.322255   2.873234   3.728432   6.521562   6.707750
    22  H    4.374154   3.617534   4.337176   7.856631   7.864048
    23  H    4.686339   2.601264   4.041989   7.167231   6.992936
    24  H    3.582392   3.390971   4.581442   8.367417   8.080864
    25  H    2.556427   2.573152   2.839917   6.719960   5.875745
    26  H    2.091522   4.231030   5.050918   9.212629   8.613269
    27  H    2.089015   4.611866   5.151905   9.173227   8.336025
    28  H    0.965882   5.074277   5.276233   9.588224   8.879236
    29  H    3.912799   2.097080   1.092043   4.813748   4.024489
    30  H    4.243940   2.145804   1.104466   4.803133   4.478272
    31  H    2.475189   2.129771   2.543524   6.789837   6.384240
    32  C    3.761583   3.101917   4.132680   7.504979   6.811299
    33  H    4.564968   2.728911   3.811538   6.677733   6.037080
    34  H    4.125775   3.675979   4.892422   8.262761   7.686715
    35  H    4.048176   3.995386   4.820130   8.049876   7.209556
    36  H    4.895391   1.016091   2.018064   4.910363   4.832588
                   11         12         13         14         15
    11  C    0.000000
    12  C    1.395702   0.000000
    13  C    2.356582   1.396344   0.000000
    14  C    2.769680   2.459347   1.387681   0.000000
    15  H    3.381169   3.914697   3.375199   2.151712   0.000000
    16  H    2.143114   3.420957   3.842398   3.416692   2.506305
    17  H    3.852998   3.425553   2.143289   1.083779   2.510729
    18  F    1.353115   2.359645   3.598137   4.122709   4.500661
    19  F    3.596557   2.353719   1.359343   2.361743   4.508162
    20  H    7.337789   6.051744   5.924843   7.059826   9.100632
    21  H    5.781488   4.439436   4.211245   5.371047   7.452521
    22  H    6.760510   5.439796   5.491487   6.770334   8.849043
    23  H    5.944356   4.930761   5.219272   6.367790   8.123976
    24  H    6.874419   5.816872   6.260988   7.548477   9.388258
    25  H    4.522270   4.079769   5.250037   6.467150   7.767428
    26  H    7.274187   6.472485   7.297374   8.631174  10.276158
    27  H    6.989437   6.499980   7.579239   8.848166  10.220301
    28  H    7.489664   6.771045   7.722897   9.080905  10.669932
    29  H    2.636905   2.128823   3.410243   4.584054   5.878958
    30  H    3.284803   2.138633   2.796320   4.124660   5.865949
    31  H    5.077285   4.002351   4.673259   6.057782   7.866730
    32  C    5.621022   5.140025   6.056668   7.182903   8.487477
    33  H    4.958054   4.547201   5.388866   6.403497   7.616366
    34  H    6.528709   5.922073   6.685683   7.821640   9.233250
    35  H    6.039734   5.774485   6.816281   7.887305   9.005806
    36  H    3.823182   2.611779   2.797888   4.045966   5.915577
                   16         17         18         19         20
    16  H    0.000000
    17  H    4.333199   0.000000
    18  F    2.575809   5.206103   0.000000
    19  F    5.201680   2.588332   4.710945   0.000000
    20  H    9.299470   7.207109   7.850802   4.888158   0.000000
    21  H    7.728655   5.553340   6.437212   3.143239   1.763110
    22  H    8.844047   7.040597   7.173658   4.486954   1.770102
    23  H    7.831983   6.809561   6.210766   4.702380   2.493897
    24  H    8.909693   8.028993   6.952568   5.647772   2.496622
    25  H    6.407713   7.354002   3.965873   5.451061   5.614424
    26  H    9.279306   9.306644   6.942684   6.964483   4.633394
    27  H    8.824065   9.672481   6.345337   7.555236   6.165727
    28  H    9.487608   9.821059   7.002332   7.469329   6.015375
    29  H    4.681281   5.523748   2.397329   3.870789   5.915133
    30  H    5.370508   4.836440   3.665460   2.721433   5.042728
    31  H    7.214808   6.690646   5.119380   4.255996   3.714052
    32  C    7.349169   7.954201   5.251382   6.119034   5.141198
    33  H    6.574804   7.165426   4.720320   5.561433   5.186632
    34  H    8.278053   8.498414   6.272633   6.568229   4.724398
    35  H    7.608793   8.726209   5.445215   7.020272   6.204015
    36  H    5.786003   4.579286   4.412746   2.398437   3.532433
                   21         22         23         24         25
    21  H    0.000000
    22  H    1.764936   0.000000
    23  H    2.563659   3.082248   0.000000
    24  H    3.083122   2.498798   1.754834   0.000000
    25  H    4.942382   4.872970   3.822749   3.743572   0.000000
    26  H    4.955917   4.069436   3.552344   2.213638   3.042385
    27  H    6.166134   5.509833   4.615768   3.737903   2.469660
    28  H    5.978872   4.816468   5.352006   4.025398   3.460893
    29  H    4.629874   4.986810   4.547407   4.889252   2.233279
    30  H    3.548215   3.913178   4.431570   4.690699   3.409957
    31  H    2.979727   2.519204   3.045591   2.577733   2.503826
    32  C    4.957207   5.075668   2.840821   3.094390   2.141495
    33  H    4.782532   5.277801   2.736990   3.569250   2.523148
    34  H    4.912771   4.929066   2.517795   2.627418   3.069597
    35  H    6.035256   6.077214   3.920438   4.035371   2.434449
    36  H    2.132303   3.305919   2.461991   3.506237   3.562349
                   26         27         28         29         30
    26  H    0.000000
    27  H    1.769308   0.000000
    28  H    2.294520   2.357485   0.000000
    29  H    4.873717   4.617008   4.856231   0.000000
    30  H    5.189921   5.473400   5.106837   1.762374   0.000000
    31  H    2.942645   3.683207   3.276929   2.768900   2.359468
    32  C    2.831370   2.667417   4.460219   3.923641   4.849497
    33  H    3.801142   3.698089   5.355173   3.737336   4.684058
    34  H    2.636627   2.954503   4.680702   4.832128   5.508709
    35  H    3.257272   2.498708   4.657366   4.394855   5.578232
    36  H    4.806093   5.440047   5.768941   2.920219   2.435122
                   31         32         33         34         35
    31  H    0.000000
    32  C    3.487562   0.000000
    33  H    3.783325   1.092747   0.000000
    34  H    3.845241   1.095870   1.772089   0.000000
    35  H    4.310463   1.095110   1.772530   1.766747   0.000000
    36  H    2.598254   3.802654   3.336027   4.174754   4.782164
                   36
    36  H    0.000000
 Stoichiometry    C13H19F2NO
 Framework group  C1[X(C13H19F2NO)]
 Deg. of freedom   102
 Full point group                 C1      NOp   1
 Largest Abelian subgroup         C1      NOp   1
 Largest concise Abelian subgroup C1      NOp   1
                         Standard orientation:                         
 ---------------------------------------------------------------------
 Center     Atomic      Atomic             Coordinates (Angstroms)
 Number     Number       Type             X           Y           Z
 ---------------------------------------------------------------------
      1          6           0       -2.187260    2.964984    0.038773
      2          6           0       -2.552485    1.626662    0.695052
      3          6           0       -1.913467    0.406928    0.007079
      4          6           0       -2.580586   -0.945379    0.379857
      5          6           0       -3.939044   -1.136049   -0.298039
      6          8           0       -3.756315   -1.138262   -1.714294
      7          7           0       -0.476031    0.354546    0.348462
      8          6           0        0.360944   -0.208785   -0.719312
      9          6           0        4.566471   -0.063718    0.346259
     10          6           0        3.919979   -1.297254    0.271096
     11          6           0        2.571287   -1.322359   -0.068093
     12          6           0        1.825004   -0.176185   -0.346176
     13          6           0        2.527930    1.026641   -0.251934
     14          6           0        3.871005    1.118646    0.084729
     15          1           0        5.617693   -0.022282    0.611255
     16          1           0        4.437343   -2.228709    0.469775
     17          1           0        4.347021    2.090830    0.138061
     18          9           0        1.952692   -2.523518   -0.142097
     19          9           0        1.840122    2.172395   -0.500895
     20          1           0       -2.639916    3.802939    0.578306
     21          1           0       -1.105279    3.138670    0.019564
     22          1           0       -2.541419    3.002157   -0.997228
     23          1           0       -2.253193    1.636009    1.750647
     24          1           0       -3.642863    1.519141    0.685471
     25          1           0       -1.932018   -1.733868   -0.025355
     26          1           0       -4.635781   -0.339334    0.006961
     27          1           0       -4.375136   -2.089029    0.039869
     28          1           0       -4.629363   -1.189329   -2.124304
     29          1           0        0.067613   -1.246394   -0.892177
     30          1           0        0.228048    0.322760   -1.678293
     31          1           0       -2.044748    0.533814   -1.080844
     32          6           0       -2.693863   -1.166761    1.894015
     33          1           0       -1.730239   -0.977416    2.373257
     34          1           0       -3.437613   -0.503469    2.349877
     35          1           0       -2.990872   -2.196905    2.117299
     36          1           0       -0.147356    1.300573    0.520064
 ---------------------------------------------------------------------
 Rotational constants (GHZ):      0.7235335      0.2461639      0.2056739
 Standard basis: def2TZVP (5D, 7F)
 There are   726 symmetry adapted cartesian basis functions of A   symmetry.
 There are   641 symmetry adapted basis functions of A   symmetry.
   641 basis functions,  1019 primitive gaussians,   726 cartesian basis functions
    65 alpha electrons       65 beta electrons
       nuclear repulsion energy      1256.8250196492 Hartrees.
 NAtoms=   36 NActive=   36 NUniq=   36 SFac= 1.00D+00 NAtFMM=   60 NAOKFM=F Big=F
 Integral buffers will be    131072 words long.
 Raffenetti 2 integral format.
 Two-electron integral symmetry is turned on.
 ------------------------------------------------------------------------------
 Polarizable Continuum Model (PCM)
 =================================
 Model                : PCM (using non-symmetric T matrix).
 Atomic radii         : UFF (Universal Force Field).
 Polarization charges : Total charges.
 Charge compensation  : None.
 Solution method      : On-the-fly selection.
 Cavity type          : Scaled VdW (van der Waals Surface) (Alpha=1.100).
 Cavity algorithm     : GePol (No added spheres)
                        Default sphere list used, NSphG=   36.
                        Lebedev-Laikov grids with approx.  5.0 points / Ang**2.
                        Smoothing algorithm: Karplus/York (Gamma=1.0000).
                        Polarization charges: spherical gaussians, with
                                              point-specific exponents (IZeta= 3).
                        Self-potential: point-specific (ISelfS= 7).
                        Self-field    : sphere-specific E.n sum rule (ISelfD= 2).
 Solvent              : Chloroform, Eps=   4.711300 Eps(inf)=   2.090627
 ------------------------------------------------------------------------------
 One-electron integrals computed using PRISM.
   1 Symmetry operations used in ECPInt.
 ECPInt:  NShTT=   34716 NPrTT=  103716 LenC2=   30758 LenP2D=   66565.
 LDataN:  DoStor=T MaxTD1= 6 Len=  172
 NBasis=   641 RedAO= T EigKep=  1.16D-05  NBF=   641
 NBsUse=   641 1.00D-06 EigRej= -1.00D+00 NBFU=   641
 ExpMin= 9.52D-02 ExpMax= 3.55D+04 ExpMxC= 1.21D+03 IAcc=3 IRadAn=         5 AccDes= 0.00D+00
 Harris functional with IExCor= 1009 and IRadAn=       5 diagonalized for initial guess.
 HarFok:  IExCor= 1009 AccDes= 0.00D+00 IRadAn=         5 IDoV= 1 UseB2=F ITyADJ=14
 ICtDFT=  3500011 ScaDFX=  1.000000  1.000000  1.000000  1.000000
 FoFCou: FMM=F IPFlag=           0 FMFlag=      100000 FMFlg1=           0
         NFxFlg=           0 DoJE=T BraDBF=F KetDBF=T FulRan=T
         wScrn=  0.000000 ICntrl=     500 IOpCl=  0 I1Cent=   200000004 NGrid=           0
         NMat0=    1 NMatS0=      1 NMatT0=    0 NMatD0=    1 NMtDS0=    0 NMtDT0=    0
 Petite list used in FoFCou.
 Requested convergence on RMS density matrix=1.00D-08 within 128 cycles.
 Requested convergence on MAX density matrix=1.00D-06.
 Requested convergence on             energy=1.00D-06.
 No special actions if energy rises.
 Inv3:  Mode=1 IEnd=    19584075.
 Iteration    1 A*A^-1 deviation from unit magnitude is 7.22D-15 for    616.
 Iteration    1 A*A^-1 deviation from orthogonality  is 4.79D-15 for   2546   1170.
 Iteration    1 A^-1*A deviation from unit magnitude is 5.77D-15 for    631.
 Iteration    1 A^-1*A deviation from orthogonality  is 1.10D-12 for   2516   2449.
 Error on total polarization charges =  0.01250
 SCF Done:  E(RM062X) =  -836.455893987     A.U. after   12 cycles
            NFock= 12  Conv=0.65D-08     -V/T= 2.0052

 **********************************************************************

            Population analysis using the SCF density.

 **********************************************************************

 Orbital symmetries:
       Occupied  (A) (A) (A) (A) (A) (A) (A) (A) (A) (A) (A) (A)
                 (A) (A) (A) (A) (A) (A) (A) (A) (A) (A) (A) (A)
                 (A) (A) (A) (A) (A) (A) (A) (A) (A) (A) (A) (A)
                 (A) (A) (A) (A) (A) (A) (A) (A) (A) (A) (A) (A)
                 (A) (A) (A) (A) (A) (A) (A) (A) (A) (A) (A) (A)
                 (A) (A) (A) (A) (A)
       Virtual   (A) (A) (A) (A) (A) (A) (A) (A) (A) (A) (A) (A)
                 (A) (A) (A) (A) (A) (A) (A) (A) (A) (A) (A) (A)
                 (A) (A) (A) (A) (A) (A) (A) (A) (A) (A) (A) (A)
                 (A) (A) (A) (A) (A) (A) (A) (A) (A) (A) (A) (A)
                 (A) (A) (A) (A) (A) (A) (A) (A) (A) (A) (A) (A)
                 (A) (A) (A) (A) (A) (A) (A) (A) (A) (A) (A) (A)
                 (A) (A) (A) (A) (A) (A) (A) (A) (A) (A) (A) (A)
                 (A) (A) (A) (A) (A) (A) (A) (A) (A) (A) (A) (A)
                 (A) (A) (A) (A) (A) (A) (A) (A) (A) (A) (A) (A)
                 (A) (A) (A) (A) (A) (A) (A) (A) (A) (A) (A) (A)
                 (A) (A) (A) (A) (A) (A) (A) (A) (A) (A) (A) (A)
                 (A) (A) (A) (A) (A) (A) (A) (A) (A) (A) (A) (A)
                 (A) (A) (A) (A) (A) (A) (A) (A) (A) (A) (A) (A)
                 (A) (A) (A) (A) (A) (A) (A) (A) (A) (A) (A) (A)
                 (A) (A) (A) (A) (A) (A) (A) (A) (A) (A) (A) (A)
                 (A) (A) (A) (A) (A) (A) (A) (A) (A) (A) (A) (A)
                 (A) (A) (A) (A) (A) (A) (A) (A) (A) (A) (A) (A)
                 (A) (A) (A) (A) (A) (A) (A) (A) (A) (A) (A) (A)
                 (A) (A) (A) (A) (A) (A) (A) (A) (A) (A) (A) (A)
                 (A) (A) (A) (A) (A) (A) (A) (A) (A) (A) (A) (A)
                 (A) (A) (A) (A) (A) (A) (A) (A) (A) (A) (A) (A)
                 (A) (A) (A) (A) (A) (A) (A) (A) (A) (A) (A) (A)
                 (A) (A) (A) (A) (A) (A) (A) (A) (A) (A) (A) (A)
                 (A) (A) (A) (A) (A) (A) (A) (A) (A) (A) (A) (A)
                 (A) (A) (A) (A) (A) (A) (A) (A) (A) (A) (A) (A)
                 (A) (A) (A) (A) (A) (A) (A) (A) (A) (A) (A) (A)
                 (A) (A) (A) (A) (A) (A) (A) (A) (A) (A) (A) (A)
                 (A) (A) (A) (A) (A) (A) (A) (A) (A) (A) (A) (A)
                 (A) (A) (A) (A) (A) (A) (A) (A) (A) (A) (A) (A)
                 (A) (A) (A) (A) (A) (A) (A) (A) (A) (A) (A) (A)
                 (A) (A) (A) (A) (A) (A) (A) (A) (A) (A) (A) (A)
                 (A) (A) (A) (A) (A) (A) (A) (A) (A) (A) (A) (A)
                 (A) (A) (A) (A) (A) (A) (A) (A) (A) (A) (A) (A)
                 (A) (A) (A) (A) (A) (A) (A) (A) (A) (A) (A) (A)
                 (A) (A) (A) (A) (A) (A) (A) (A) (A) (A) (A) (A)
                 (A) (A) (A) (A) (A) (A) (A) (A) (A) (A) (A) (A)
                 (A) (A) (A) (A) (A) (A) (A) (A) (A) (A) (A) (A)
                 (A) (A) (A) (A) (A) (A) (A) (A) (A) (A) (A) (A)
                 (A) (A) (A) (A) (A) (A) (A) (A) (A) (A) (A) (A)
                 (A) (A) (A) (A) (A) (A) (A) (A) (A) (A) (A) (A)
                 (A) (A) (A) (A) (A) (A) (A) (A) (A) (A) (A) (A)
                 (A) (A) (A) (A) (A) (A) (A) (A) (A) (A) (A) (A)
                 (A) (A) (A) (A) (A) (A) (A) (A) (A) (A) (A) (A)
                 (A) (A) (A) (A) (A) (A) (A) (A) (A) (A) (A) (A)
                 (A) (A) (A) (A) (A) (A) (A) (A) (A) (A) (A) (A)
                 (A) (A) (A) (A) (A) (A) (A) (A) (A) (A) (A) (A)
                 (A) (A) (A) (A) (A) (A) (A) (A) (A) (A) (A) (A)
                 (A) (A) (A) (A) (A) (A) (A) (A) (A) (A) (A) (A)
 The electronic state is 1-A.
 Alpha  occ. eigenvalues --  -25.26945 -25.26564 -19.62557 -14.73400 -10.64171
 Alpha  occ. eigenvalues --  -10.64166 -10.57963 -10.57298 -10.56866 -10.56472
 Alpha  occ. eigenvalues --  -10.56005 -10.55701 -10.55632 -10.53463 -10.53125
 Alpha  occ. eigenvalues --  -10.52445 -10.51857  -1.38079  -1.37888  -1.14240
 Alpha  occ. eigenvalues --   -1.01972  -0.98141  -0.90427  -0.87306  -0.85963
 Alpha  occ. eigenvalues --   -0.85395  -0.78202  -0.76298  -0.74141  -0.72607
 Alpha  occ. eigenvalues --   -0.70367  -0.69014  -0.65213  -0.62441  -0.61972
 Alpha  occ. eigenvalues --   -0.58882  -0.58510  -0.57790  -0.57291  -0.57118
 Alpha  occ. eigenvalues --   -0.55355  -0.55029  -0.54352  -0.53519  -0.50731
 Alpha  occ. eigenvalues --   -0.49261  -0.48546  -0.48178  -0.47635  -0.47113
 Alpha  occ. eigenvalues --   -0.45858  -0.44265  -0.43932  -0.43811  -0.43129
 Alpha  occ. eigenvalues --   -0.42481  -0.41643  -0.40154  -0.38969  -0.37554
 Alpha  occ. eigenvalues --   -0.36674  -0.35203  -0.31724  -0.31215  -0.29476
 Alpha virt. eigenvalues --    0.00571   0.01915   0.06313   0.06942   0.07919
 Alpha virt. eigenvalues --    0.08407   0.09132   0.10827   0.11455   0.12041
 Alpha virt. eigenvalues --    0.12810   0.12926   0.13349   0.13968   0.14067
 Alpha virt. eigenvalues --    0.14541   0.15730   0.16298   0.16891   0.17533
 Alpha virt. eigenvalues --    0.17700   0.18364   0.18770   0.19528   0.19907
 Alpha virt. eigenvalues --    0.20275   0.20774   0.21611   0.21948   0.22150
 Alpha virt. eigenvalues --    0.22557   0.23760   0.23953   0.24831   0.25213
 Alpha virt. eigenvalues --    0.26360   0.26859   0.26896   0.27701   0.28252
 Alpha virt. eigenvalues --    0.28409   0.29947   0.30578   0.30894   0.32251
 Alpha virt. eigenvalues --    0.33239   0.33672   0.34482   0.34984   0.35140
 Alpha virt. eigenvalues --    0.36227   0.37075   0.37357   0.37395   0.37863
 Alpha virt. eigenvalues --    0.38440   0.38714   0.39184   0.39588   0.39701
 Alpha virt. eigenvalues --    0.40787   0.41473   0.42144   0.42759   0.43127
 Alpha virt. eigenvalues --    0.44008   0.44459   0.44733   0.45000   0.45412
 Alpha virt. eigenvalues --    0.45842   0.46180   0.47033   0.47869   0.48075
 Alpha virt. eigenvalues --    0.48316   0.49056   0.49152   0.49866   0.50673
 Alpha virt. eigenvalues --    0.51173   0.51630   0.51841   0.52231   0.52734
 Alpha virt. eigenvalues --    0.53215   0.53692   0.54127   0.54831   0.55448
 Alpha virt. eigenvalues --    0.55775   0.56310   0.56842   0.57128   0.58256
 Alpha virt. eigenvalues --    0.58779   0.60272   0.60666   0.61563   0.62479
 Alpha virt. eigenvalues --    0.63406   0.64500   0.65457   0.65654   0.66390
 Alpha virt. eigenvalues --    0.67560   0.68240   0.69410   0.69779   0.70630
 Alpha virt. eigenvalues --    0.71096   0.71899   0.72822   0.73185   0.75473
 Alpha virt. eigenvalues --    0.76580   0.77569   0.78105   0.79012   0.79756
 Alpha virt. eigenvalues --    0.80589   0.81466   0.82641   0.83497   0.85009
 Alpha virt. eigenvalues --    0.85504   0.86539   0.87202   0.89042   0.89290
 Alpha virt. eigenvalues --    0.89746   0.90521   0.91049   0.91802   0.92175
 Alpha virt. eigenvalues --    0.93069   0.93756   0.94963   0.95489   0.96056
 Alpha virt. eigenvalues --    0.97647   0.98823   1.00241   1.00968   1.01149
 Alpha virt. eigenvalues --    1.02388   1.03952   1.05033   1.06896   1.07482
 Alpha virt. eigenvalues --    1.07950   1.09071   1.09685   1.10071   1.11768
 Alpha virt. eigenvalues --    1.12728   1.13742   1.13841   1.14245   1.15180
 Alpha virt. eigenvalues --    1.16515   1.17929   1.18602   1.19621   1.21052
 Alpha virt. eigenvalues --    1.21600   1.22436   1.23778   1.24599   1.25440
 Alpha virt. eigenvalues --    1.26084   1.26827   1.28339   1.29615   1.30413
 Alpha virt. eigenvalues --    1.31124   1.32839   1.33892   1.35439   1.36870
 Alpha virt. eigenvalues --    1.37201   1.38217   1.39348   1.40504   1.42330
 Alpha virt. eigenvalues --    1.42984   1.44962   1.45364   1.46639   1.48425
 Alpha virt. eigenvalues --    1.50160   1.51536   1.52143   1.53746   1.54814
 Alpha virt. eigenvalues --    1.55300   1.56223   1.56836   1.58022   1.58385
 Alpha virt. eigenvalues --    1.58561   1.60393   1.60705   1.61544   1.62594
 Alpha virt. eigenvalues --    1.63701   1.63961   1.64207   1.64872   1.65821
 Alpha virt. eigenvalues --    1.65890   1.66729   1.66837   1.67706   1.68688
 Alpha virt. eigenvalues --    1.69780   1.70160   1.70880   1.71673   1.72130
 Alpha virt. eigenvalues --    1.72587   1.74040   1.74853   1.76147   1.76564
 Alpha virt. eigenvalues --    1.78748   1.80213   1.84232   1.85131   1.86589
 Alpha virt. eigenvalues --    1.87723   1.88899   1.89043   1.90089   1.91598
 Alpha virt. eigenvalues --    1.92666   1.93354   1.94551   1.95693   1.96449
 Alpha virt. eigenvalues --    1.97405   1.98133   1.98544   1.98801   1.99969
 Alpha virt. eigenvalues --    2.01439   2.04218   2.04488   2.06367   2.07003
 Alpha virt. eigenvalues --    2.08465   2.10098   2.10847   2.11329   2.12176
 Alpha virt. eigenvalues --    2.12670   2.13807   2.14819   2.15203   2.16695
 Alpha virt. eigenvalues --    2.17067   2.18332   2.18933   2.20455   2.21004
 Alpha virt. eigenvalues --    2.21973   2.22652   2.24076   2.25631   2.26561
 Alpha virt. eigenvalues --    2.28135   2.29028   2.29948   2.30111   2.31308
 Alpha virt. eigenvalues --    2.31906   2.32017   2.33332   2.33756   2.34891
 Alpha virt. eigenvalues --    2.35694   2.37367   2.39179   2.39839   2.41045
 Alpha virt. eigenvalues --    2.41523   2.42475   2.43813   2.44954   2.45496
 Alpha virt. eigenvalues --    2.46023   2.47991   2.48393   2.49303   2.51934
 Alpha virt. eigenvalues --    2.52589   2.54089   2.54736   2.55583   2.56637
 Alpha virt. eigenvalues --    2.57221   2.57661   2.59138   2.59203   2.60275
 Alpha virt. eigenvalues --    2.60855   2.61059   2.62494   2.63402   2.63546
 Alpha virt. eigenvalues --    2.64424   2.65067   2.65905   2.66622   2.67220
 Alpha virt. eigenvalues --    2.68261   2.68828   2.69182   2.70442   2.71081
 Alpha virt. eigenvalues --    2.72132   2.72301   2.73668   2.74329   2.75878
 Alpha virt. eigenvalues --    2.76037   2.76555   2.77416   2.78538   2.79251
 Alpha virt. eigenvalues --    2.80955   2.81064   2.81373   2.82090   2.83570
 Alpha virt. eigenvalues --    2.84776   2.85274   2.86589   2.87982   2.89101
 Alpha virt. eigenvalues --    2.89932   2.90758   2.91015   2.92781   2.92978
 Alpha virt. eigenvalues --    2.93540   2.95167   2.95881   2.97510   2.98282
 Alpha virt. eigenvalues --    2.99225   2.99724   3.01832   3.02389   3.03219
 Alpha virt. eigenvalues --    3.04100   3.05444   3.05976   3.08084   3.08981
 Alpha virt. eigenvalues --    3.09511   3.10231   3.10920   3.12133   3.12616
 Alpha virt. eigenvalues --    3.12788   3.13439   3.14248   3.15288   3.16680
 Alpha virt. eigenvalues --    3.17322   3.17641   3.18415   3.19504   3.21095
 Alpha virt. eigenvalues --    3.22236   3.22874   3.23061   3.24720   3.25072
 Alpha virt. eigenvalues --    3.25698   3.26897   3.27579   3.28606   3.29810
 Alpha virt. eigenvalues --    3.30825   3.31417   3.32175   3.32985   3.33485
 Alpha virt. eigenvalues --    3.34317   3.35416   3.35642   3.37525   3.38560
 Alpha virt. eigenvalues --    3.39030   3.39750   3.41294   3.41515   3.42422
 Alpha virt. eigenvalues --    3.42860   3.43235   3.44327   3.45817   3.46547
 Alpha virt. eigenvalues --    3.47337   3.48315   3.48776   3.50184   3.51273
 Alpha virt. eigenvalues --    3.52576   3.53963   3.54428   3.55587   3.56302
 Alpha virt. eigenvalues --    3.56625   3.56735   3.59096   3.59507   3.60317
 Alpha virt. eigenvalues --    3.61644   3.62568   3.63066   3.63860   3.65360
 Alpha virt. eigenvalues --    3.66101   3.66716   3.67230   3.70501   3.71168
 Alpha virt. eigenvalues --    3.72726   3.74754   3.75121   3.78159   3.78963
 Alpha virt. eigenvalues --    3.80778   3.82518   3.83440   3.84173   3.87113
 Alpha virt. eigenvalues --    3.88305   3.89141   3.90231   3.93370   3.93870
 Alpha virt. eigenvalues --    3.94588   3.97830   3.99024   4.01135   4.01606
 Alpha virt. eigenvalues --    4.02976   4.03919   4.05056   4.05982   4.07151
 Alpha virt. eigenvalues --    4.09258   4.09569   4.10522   4.11510   4.12655
 Alpha virt. eigenvalues --    4.13951   4.15636   4.16188   4.16911   4.18375
 Alpha virt. eigenvalues --    4.19718   4.20125   4.21560   4.21924   4.22443
 Alpha virt. eigenvalues --    4.24300   4.27600   4.30250   4.33419   4.35120
 Alpha virt. eigenvalues --    4.36300   4.37533   4.39424   4.39943   4.41566
 Alpha virt. eigenvalues --    4.44737   4.45533   4.47892   4.50152   4.50611
 Alpha virt. eigenvalues --    4.53815   4.55202   4.56968   4.58433   4.61741
 Alpha virt. eigenvalues --    4.64084   4.64616   4.65608   4.66894   4.71457
 Alpha virt. eigenvalues --    4.73665   4.76570   4.78561   4.82101   4.84153
 Alpha virt. eigenvalues --    4.87142   4.89978   4.92191   4.93073   4.96004
 Alpha virt. eigenvalues --    5.01049   5.04800   5.08902   5.09451   5.13235
 Alpha virt. eigenvalues --    5.16715   5.21900   5.28550   5.29463   5.29740
 Alpha virt. eigenvalues --    5.31463   5.37698   5.39074   5.42278   5.44010
 Alpha virt. eigenvalues --    5.48115   5.52326   5.59386   5.64053   5.68640
 Alpha virt. eigenvalues --    5.73099   5.75471   5.87275   5.90144   6.26151
 Alpha virt. eigenvalues --    6.47709   6.68189   6.72913   6.90469   6.90684
 Alpha virt. eigenvalues --    6.91174   6.92359   6.97306   6.99661   7.00668
 Alpha virt. eigenvalues --    7.08384   7.09973   7.14058   7.21596   7.24309
 Alpha virt. eigenvalues --    7.35934   7.39336   7.53459   7.55654   8.35915
 Alpha virt. eigenvalues --    8.37644   8.52695   8.55502   8.74247   8.75263
 Alpha virt. eigenvalues --    8.96428   8.96546   9.00357   9.03188  22.20694
 Alpha virt. eigenvalues --   22.43184  22.48731  22.54033  22.62881  22.66521
 Alpha virt. eigenvalues --   22.74074  22.75958  22.78261  22.79292  22.93687
 Alpha virt. eigenvalues --   23.02814  23.47922  32.61747  43.97552  57.46817
 Alpha virt. eigenvalues --   57.55706
          Condensed to atoms (all electrons):
               1          2          3          4          5          6
     1  C    5.058181   0.241397  -0.057075   0.012545  -0.001743  -0.000697
     2  C    0.241397   5.329852   0.123243  -0.004173  -0.008054   0.009167
     3  C   -0.057075   0.123243   5.635575   0.100030  -0.018264  -0.028702
     4  C    0.012545  -0.004173   0.100030   5.454087   0.212478  -0.074534
     5  C   -0.001743  -0.008054  -0.018264   0.212478   4.929112   0.257329
     6  O   -0.000697   0.009167  -0.028702  -0.074534   0.257329   8.100670
     7  N    0.009022  -0.024305   0.119289  -0.002875   0.003922   0.000571
     8  C   -0.001823   0.006468  -0.044728   0.002781  -0.000028   0.000170
     9  C   -0.000004   0.000001   0.000011  -0.000005   0.000000   0.000000
    10  C    0.000004  -0.000007  -0.000083   0.000020   0.000000   0.000000
    11  C   -0.000191   0.000020  -0.000469   0.000134   0.000063  -0.000008
    12  C   -0.000751  -0.000020   0.003055  -0.000066   0.000236   0.000122
    13  C    0.000438   0.000203   0.001875  -0.000322  -0.000017   0.000001
    14  C    0.000039   0.000028  -0.000291   0.000054  -0.000001   0.000000
    15  H    0.000000   0.000000   0.000000   0.000000   0.000000   0.000000
    16  H    0.000000   0.000000  -0.000002   0.000000   0.000000   0.000000
    17  H   -0.000001   0.000000  -0.000001   0.000000   0.000000   0.000000
    18  F    0.000000   0.000002   0.000640  -0.000469   0.000011   0.000000
    19  F   -0.000734  -0.000644  -0.000335  -0.000031   0.000000   0.000000
    20  H    0.425069  -0.051310   0.011686  -0.000387   0.000005   0.000004
    21  H    0.415009  -0.040129  -0.009913   0.000233   0.000051   0.000005
    22  H    0.415508  -0.045241   0.001575  -0.001120  -0.000030   0.000223
    23  H   -0.043708   0.425906  -0.028956  -0.018562   0.001548  -0.000059
    24  H   -0.027303   0.425182  -0.075894   0.024049  -0.006443  -0.002131
    25  H   -0.000382   0.007140  -0.093773   0.458406  -0.043566   0.005607
    26  H    0.000810  -0.009162  -0.024975  -0.014639   0.416374  -0.050164
    27  H    0.000013   0.002097   0.011359  -0.072123   0.452137  -0.043136
    28  H   -0.000050  -0.000052   0.000878   0.013534  -0.035878   0.300808
    29  H    0.000435   0.000022   0.005662  -0.001497  -0.000869   0.000368
    30  H   -0.002386   0.002390   0.008626  -0.004504   0.000853  -0.000147
    31  H   -0.017873  -0.032746   0.488742  -0.091187   0.003775   0.022959
    32  C    0.000381   0.001311  -0.018462   0.213981  -0.046624   0.006477
    33  H   -0.000410  -0.008500   0.016720  -0.058833   0.011125  -0.000172
    34  H   -0.000011   0.009078  -0.034358  -0.012851  -0.010535  -0.000081
    35  H    0.000043  -0.000340   0.012615  -0.041456  -0.007794  -0.000020
    36  H    0.005025  -0.006977  -0.052564   0.004096  -0.000658   0.000003
               7          8          9         10         11         12
     1  C    0.009022  -0.001823  -0.000004   0.000004  -0.000191  -0.000751
     2  C   -0.024305   0.006468   0.000001  -0.000007   0.000020  -0.000020
     3  C    0.119289  -0.044728   0.000011  -0.000083  -0.000469   0.003055
     4  C   -0.002875   0.002781  -0.000005   0.000020   0.000134  -0.000066
     5  C    0.003922  -0.000028   0.000000   0.000000   0.000063   0.000236
     6  O    0.000571   0.000170   0.000000   0.000000  -0.000008   0.000122
     7  N    6.866428   0.229859   0.000678  -0.000706   0.032394  -0.043317
     8  C    0.229859   5.142902  -0.007105   0.008764  -0.117290   0.264617
     9  C    0.000678  -0.007105   5.042971   0.413307   0.002464  -0.092581
    10  C   -0.000706   0.008764   0.413307   5.059846   0.503796   0.020627
    11  C    0.032394  -0.117290   0.002464   0.503796   4.940184   0.223341
    12  C   -0.043317   0.264617  -0.092581   0.020627   0.223341   5.600293
    13  C   -0.002612  -0.062920  -0.019855  -0.078746   0.020964   0.284876
    14  C   -0.000431   0.013908   0.416141  -0.015509  -0.110446   0.011728
    15  H    0.000001   0.000092   0.403554  -0.024043   0.001743  -0.000391
    16  H   -0.000007  -0.000231  -0.033771   0.413367  -0.041527   0.014124
    17  H    0.000023  -0.000166  -0.029549   0.003616  -0.000677   0.012085
    18  F   -0.000631   0.009887   0.009997  -0.048509   0.253632  -0.081756
    19  F   -0.004365   0.018507   0.008739  -0.000759   0.006231  -0.077800
    20  H    0.000169   0.000141   0.000000   0.000000  -0.000001  -0.000035
    21  H    0.000609  -0.001600  -0.000015   0.000009  -0.000071   0.000787
    22  H   -0.001494   0.000135   0.000000   0.000000   0.000010   0.000052
    23  H   -0.002194  -0.000605   0.000003  -0.000003   0.000112   0.000253
    24  H    0.006807  -0.000863   0.000000   0.000000  -0.000006   0.000061
    25  H    0.003597   0.002060  -0.000002   0.000014   0.000964   0.000239
    26  H    0.000471   0.000104   0.000000   0.000000   0.000000   0.000021
    27  H   -0.000375  -0.000128   0.000000   0.000000  -0.000004  -0.000008
    28  H   -0.000033  -0.000003   0.000000   0.000000   0.000001  -0.000004
    29  H   -0.039423   0.432701  -0.000827   0.000145  -0.049923  -0.028471
    30  H   -0.073252   0.403439   0.000854  -0.001006   0.029220  -0.013492
    31  H   -0.055519  -0.021423   0.000006  -0.000008   0.000579   0.003911
    32  C   -0.037753   0.000630  -0.000004   0.000007  -0.000867   0.000135
    33  H    0.016648  -0.001356   0.000009  -0.000016   0.000705   0.000103
    34  H    0.002289   0.000053   0.000000   0.000000   0.000015   0.000004
    35  H    0.000034  -0.000076   0.000000   0.000000   0.000002  -0.000012
    36  H    0.388986  -0.050655  -0.000045   0.000102  -0.000770  -0.013457
              13         14         15         16         17         18
     1  C    0.000438   0.000039   0.000000   0.000000  -0.000001   0.000000
     2  C    0.000203   0.000028   0.000000   0.000000   0.000000   0.000002
     3  C    0.001875  -0.000291   0.000000  -0.000002  -0.000001   0.000640
     4  C   -0.000322   0.000054   0.000000   0.000000   0.000000  -0.000469
     5  C   -0.000017  -0.000001   0.000000   0.000000   0.000000   0.000011
     6  O    0.000001   0.000000   0.000000   0.000000   0.000000   0.000000
     7  N   -0.002612  -0.000431   0.000001  -0.000007   0.000023  -0.000631
     8  C   -0.062920   0.013908   0.000092  -0.000231  -0.000166   0.009887
     9  C   -0.019855   0.416141   0.403554  -0.033771  -0.029549   0.009997
    10  C   -0.078746  -0.015509  -0.024043   0.413367   0.003616  -0.048509
    11  C    0.020964  -0.110446   0.001743  -0.041527  -0.000677   0.253632
    12  C    0.284876   0.011728  -0.000391   0.014124   0.012085  -0.081756
    13  C    4.864384   0.500802   0.002747  -0.001070  -0.040575   0.007019
    14  C    0.500802   5.098296  -0.025309   0.004664   0.411888  -0.000788
    15  H    0.002747  -0.025309   0.476312  -0.003352  -0.003211  -0.000109
    16  H   -0.001070   0.004664  -0.003352   0.474889  -0.000148   0.001606
    17  H   -0.040575   0.411888  -0.003211  -0.000148   0.471755   0.000010
    18  F    0.007019  -0.000788  -0.000109   0.001606   0.000010   9.055307
    19  F    0.239487  -0.048765  -0.000108   0.000012   0.001748  -0.000033
    20  H    0.000019   0.000002   0.000000   0.000000   0.000000   0.000000
    21  H   -0.000956   0.000071   0.000000   0.000000   0.000009   0.000000
    22  H   -0.000010  -0.000003   0.000000   0.000000   0.000000   0.000000
    23  H   -0.000077  -0.000025   0.000000   0.000000   0.000000   0.000000
    24  H    0.000004   0.000000   0.000000   0.000000   0.000000   0.000000
    25  H   -0.000317   0.000000   0.000000   0.000000   0.000000   0.000506
    26  H    0.000000   0.000000   0.000000   0.000000   0.000000   0.000000
    27  H    0.000000   0.000000   0.000000   0.000000   0.000000   0.000000
    28  H    0.000000   0.000000   0.000000   0.000000   0.000000   0.000000
    29  H    0.017495   0.001434   0.000001  -0.000003   0.000006   0.008597
    30  H   -0.029096  -0.004967   0.000004  -0.000002  -0.000033   0.000252
    31  H   -0.000548  -0.000050   0.000000   0.000000   0.000000  -0.000008
    32  C    0.000191   0.000014   0.000000   0.000000   0.000000  -0.000016
    33  H   -0.000115  -0.000032   0.000000   0.000000   0.000000   0.000009
    34  H   -0.000009   0.000000   0.000000   0.000000   0.000000   0.000000
    35  H    0.000000   0.000000   0.000000   0.000000   0.000000   0.000000
    36  H    0.001802   0.000275   0.000000   0.000002   0.000025  -0.000061
              19         20         21         22         23         24
     1  C   -0.000734   0.425069   0.415009   0.415508  -0.043708  -0.027303
     2  C   -0.000644  -0.051310  -0.040129  -0.045241   0.425906   0.425182
     3  C   -0.000335   0.011686  -0.009913   0.001575  -0.028956  -0.075894
     4  C   -0.000031  -0.000387   0.000233  -0.001120  -0.018562   0.024049
     5  C    0.000000   0.000005   0.000051  -0.000030   0.001548  -0.006443
     6  O    0.000000   0.000004   0.000005   0.000223  -0.000059  -0.002131
     7  N   -0.004365   0.000169   0.000609  -0.001494  -0.002194   0.006807
     8  C    0.018507   0.000141  -0.001600   0.000135  -0.000605  -0.000863
     9  C    0.008739   0.000000  -0.000015   0.000000   0.000003   0.000000
    10  C   -0.000759   0.000000   0.000009   0.000000  -0.000003   0.000000
    11  C    0.006231  -0.000001  -0.000071   0.000010   0.000112  -0.000006
    12  C   -0.077800  -0.000035   0.000787   0.000052   0.000253   0.000061
    13  C    0.239487   0.000019  -0.000956  -0.000010  -0.000077   0.000004
    14  C   -0.048765   0.000002   0.000071  -0.000003  -0.000025   0.000000
    15  H   -0.000108   0.000000   0.000000   0.000000   0.000000   0.000000
    16  H    0.000012   0.000000   0.000000   0.000000   0.000000   0.000000
    17  H    0.001748   0.000000   0.000009   0.000000   0.000000   0.000000
    18  F   -0.000033   0.000000   0.000000   0.000000   0.000000   0.000000
    19  F    9.069008   0.000026   0.002274  -0.000009   0.000019  -0.000004
    20  H    0.000026   0.521317  -0.023992  -0.024380  -0.004599  -0.004341
    21  H    0.002274  -0.023992   0.544501  -0.029851  -0.003990   0.006691
    22  H   -0.000009  -0.024380  -0.029851   0.534530   0.007259  -0.006365
    23  H    0.000019  -0.004599  -0.003990   0.007259   0.523800  -0.024312
    24  H   -0.000004  -0.004341   0.006691  -0.006365  -0.024312   0.546024
    25  H   -0.000005   0.000012  -0.000004  -0.000038  -0.000191   0.000514
    26  H    0.000000   0.000048  -0.000042   0.000020   0.000337   0.002749
    27  H    0.000000   0.000000   0.000002  -0.000005  -0.000183  -0.000213
    28  H    0.000000  -0.000001  -0.000001   0.000029   0.000015  -0.000052
    29  H    0.000502   0.000007  -0.000004  -0.000028  -0.000168   0.000013
    30  H    0.000733  -0.000053   0.000094   0.000244   0.000321   0.000017
    31  H    0.000065  -0.000091   0.000449   0.003521   0.006146  -0.000506
    32  C    0.000002   0.000035   0.000016  -0.000030  -0.001467  -0.008471
    33  H    0.000000  -0.000015   0.000007   0.000015   0.001728   0.000463
    34  H    0.000000   0.000022   0.000004  -0.000034  -0.005189  -0.000651
    35  H    0.000000  -0.000002  -0.000001   0.000001   0.000262  -0.000111
    36  H    0.005670  -0.000195   0.004938  -0.000440  -0.003052   0.001017
              25         26         27         28         29         30
     1  C   -0.000382   0.000810   0.000013  -0.000050   0.000435  -0.002386
     2  C    0.007140  -0.009162   0.002097  -0.000052   0.000022   0.002390
     3  C   -0.093773  -0.024975   0.011359   0.000878   0.005662   0.008626
     4  C    0.458406  -0.014639  -0.072123   0.013534  -0.001497  -0.004504
     5  C   -0.043566   0.416374   0.452137  -0.035878  -0.000869   0.000853
     6  O    0.005607  -0.050164  -0.043136   0.300808   0.000368  -0.000147
     7  N    0.003597   0.000471  -0.000375  -0.000033  -0.039423  -0.073252
     8  C    0.002060   0.000104  -0.000128  -0.000003   0.432701   0.403439
     9  C   -0.000002   0.000000   0.000000   0.000000  -0.000827   0.000854
    10  C    0.000014   0.000000   0.000000   0.000000   0.000145  -0.001006
    11  C    0.000964   0.000000  -0.000004   0.000001  -0.049923   0.029220
    12  C    0.000239   0.000021  -0.000008  -0.000004  -0.028471  -0.013492
    13  C   -0.000317   0.000000   0.000000   0.000000   0.017495  -0.029096
    14  C    0.000000   0.000000   0.000000   0.000000   0.001434  -0.004967
    15  H    0.000000   0.000000   0.000000   0.000000   0.000001   0.000004
    16  H    0.000000   0.000000   0.000000   0.000000  -0.000003  -0.000002
    17  H    0.000000   0.000000   0.000000   0.000000   0.000006  -0.000033
    18  F    0.000506   0.000000   0.000000   0.000000   0.008597   0.000252
    19  F   -0.000005   0.000000   0.000000   0.000000   0.000502   0.000733
    20  H    0.000012   0.000048   0.000000  -0.000001   0.000007  -0.000053
    21  H   -0.000004  -0.000042   0.000002  -0.000001  -0.000004   0.000094
    22  H   -0.000038   0.000020  -0.000005   0.000029  -0.000028   0.000244
    23  H   -0.000191   0.000337  -0.000183   0.000015  -0.000168   0.000321
    24  H    0.000514   0.002749  -0.000213  -0.000052   0.000013   0.000017
    25  H    0.582890   0.012841  -0.017093  -0.000560  -0.006915   0.001569
    26  H    0.012841   0.596592  -0.057007  -0.007381  -0.000073  -0.000002
    27  H   -0.017093  -0.057007   0.588247  -0.003171   0.000207  -0.000022
    28  H   -0.000560  -0.007381  -0.003171   0.399525  -0.000033   0.000016
    29  H   -0.006915  -0.000073   0.000207  -0.000033   0.535510  -0.042583
    30  H    0.001569  -0.000002  -0.000022   0.000016  -0.042583   0.554530
    31  H   -0.001407  -0.000430   0.001121  -0.001261  -0.002460   0.007249
    32  C   -0.043356  -0.003342   0.005971  -0.001213   0.001950  -0.000776
    33  H   -0.003558  -0.000471  -0.000295   0.000034  -0.000710   0.000340
    34  H    0.009128   0.005527  -0.002015  -0.000010  -0.000124   0.000022
    35  H   -0.008481  -0.000215   0.002573  -0.000010   0.000075   0.000006
    36  H   -0.000347  -0.000035   0.000025  -0.000002   0.006286  -0.004435
              31         32         33         34         35         36
     1  C   -0.017873   0.000381  -0.000410  -0.000011   0.000043   0.005025
     2  C   -0.032746   0.001311  -0.008500   0.009078  -0.000340  -0.006977
     3  C    0.488742  -0.018462   0.016720  -0.034358   0.012615  -0.052564
     4  C   -0.091187   0.213981  -0.058833  -0.012851  -0.041456   0.004096
     5  C    0.003775  -0.046624   0.011125  -0.010535  -0.007794  -0.000658
     6  O    0.022959   0.006477  -0.000172  -0.000081  -0.000020   0.000003
     7  N   -0.055519  -0.037753   0.016648   0.002289   0.000034   0.388986
     8  C   -0.021423   0.000630  -0.001356   0.000053  -0.000076  -0.050655
     9  C    0.000006  -0.000004   0.000009   0.000000   0.000000  -0.000045
    10  C   -0.000008   0.000007  -0.000016   0.000000   0.000000   0.000102
    11  C    0.000579  -0.000867   0.000705   0.000015   0.000002  -0.000770
    12  C    0.003911   0.000135   0.000103   0.000004  -0.000012  -0.013457
    13  C   -0.000548   0.000191  -0.000115  -0.000009   0.000000   0.001802
    14  C   -0.000050   0.000014  -0.000032   0.000000   0.000000   0.000275
    15  H    0.000000   0.000000   0.000000   0.000000   0.000000   0.000000
    16  H    0.000000   0.000000   0.000000   0.000000   0.000000   0.000002
    17  H    0.000000   0.000000   0.000000   0.000000   0.000000   0.000025
    18  F   -0.000008  -0.000016   0.000009   0.000000   0.000000  -0.000061
    19  F    0.000065   0.000002   0.000000   0.000000   0.000000   0.005670
    20  H   -0.000091   0.000035  -0.000015   0.000022  -0.000002  -0.000195
    21  H    0.000449   0.000016   0.000007   0.000004  -0.000001   0.004938
    22  H    0.003521  -0.000030   0.000015  -0.000034   0.000001  -0.000440
    23  H    0.006146  -0.001467   0.001728  -0.005189   0.000262  -0.003052
    24  H   -0.000506  -0.008471   0.000463  -0.000651  -0.000111   0.001017
    25  H   -0.001407  -0.043356  -0.003558   0.009128  -0.008481  -0.000347
    26  H   -0.000430  -0.003342  -0.000471   0.005527  -0.000215  -0.000035
    27  H    0.001121   0.005971  -0.000295  -0.002015   0.002573   0.000025
    28  H   -0.001261  -0.001213   0.000034  -0.000010  -0.000010  -0.000002
    29  H   -0.002460   0.001950  -0.000710  -0.000124   0.000075   0.006286
    30  H    0.007249  -0.000776   0.000340   0.000022   0.000006  -0.004435
    31  H    0.497859   0.006432   0.000715  -0.000173  -0.000212   0.002845
    32  C    0.006432   5.178828   0.409367   0.403251   0.419054   0.000090
    33  H    0.000715   0.409367   0.500176  -0.023906  -0.020389  -0.000600
    34  H   -0.000173   0.403251  -0.023906   0.531934  -0.025970  -0.000044
    35  H   -0.000212   0.419054  -0.020389  -0.025970   0.515276   0.000049
    36  H    0.002845   0.000090  -0.000600  -0.000044   0.000049   0.495629
 Mulliken charges:
               1
     1  C   -0.428774
     2  C   -0.351846
     3  C   -0.052735
     4  C   -0.096794
     5  C   -0.108515
     6  O   -0.504631
     7  N   -0.392505
     8  C   -0.226220
     9  C   -0.114972
    10  C   -0.254228
    11  C    0.305680
    12  C   -0.088512
    13  C    0.294939
    14  C   -0.252727
    15  H    0.172068
    16  H    0.171450
    17  H    0.173196
    18  F   -0.215094
    19  F   -0.219430
    20  H    0.150842
    21  H    0.134810
    22  H    0.145956
    23  H    0.169633
    24  H    0.144075
    25  H    0.134506
    26  H    0.132045
    27  H    0.132025
    28  H    0.334875
    29  H    0.162698
    30  H    0.165978
    31  H    0.179528
    32  C   -0.485740
    33  H    0.161212
    34  H    0.154632
    35  H    0.155101
    36  H    0.217474
 Sum of Mulliken charges =   0.00000
 Mulliken charges with hydrogens summed into heavy atoms:
               1
     1  C    0.002833
     2  C   -0.038139
     3  C    0.126793
     4  C    0.037712
     5  C    0.155556
     6  O   -0.169756
     7  N   -0.175031
     8  C    0.102456
     9  C    0.057096
    10  C   -0.082778
    11  C    0.305680
    12  C   -0.088512
    13  C    0.294939
    14  C   -0.079530
    18  F   -0.215094
    19  F   -0.219430
    32  C   -0.014794
 Electronic spatial extent (au):  <R**2>=           5353.2165
 Charge=              0.0000 electrons
 Dipole moment (field-independent basis, Debye):
    X=             -0.4528    Y=              0.8029    Z=              0.2260  Tot=              0.9491
 Quadrupole moment (field-independent basis, Debye-Ang):
   XX=            -71.7757   YY=           -103.9522   ZZ=           -106.2383
   XY=              1.7338   XZ=              4.0420   YZ=              0.4583
 Traceless Quadrupole moment (field-independent basis, Debye-Ang):
   XX=             22.2130   YY=             -9.9635   ZZ=            -12.2496
   XY=              1.7338   XZ=              4.0420   YZ=              0.4583
 Octapole moment (field-independent basis, Debye-Ang**2):
  XXX=             -1.6839  YYY=             -3.1144  ZZZ=            -18.0530  XYY=             -1.0217
  XXY=            -16.4023  XXZ=             -7.9467  XZZ=            -11.1883  YZZ=             -0.6781
  YYZ=              3.8199  XYZ=             -4.0114
 Hexadecapole moment (field-independent basis, Debye-Ang**3):
 XXXX=          -4091.8199 YYYY=          -1457.5577 ZZZZ=           -520.8952 XXXY=            111.3991
 XXXZ=            272.8581 YYYX=             23.2092 YYYZ=              7.1303 ZZZX=             47.4257
 ZZZY=              8.4041 XXYY=          -1004.2855 XXZZ=           -918.4209 YYZZ=           -329.1108
 XXYZ=             23.7987 YYXZ=             14.6056 ZZXY=              7.2518
 N-N= 1.256825019649D+03 E-N=-4.470418498146D+03  KE= 8.321549112397D+02
 1\1\GINC-CPU-E-160\SP\RM062X\def2TZVP\C13H19F2N1O1\KE291\26-Jun-2019\0
 \\# m062x/def2tzvp int=ultrafine scrf=(solvent=chloroform)\\AT3_1ginp0
 09\\0,1\C,0,2.18726,2.964984,-0.038773\C,0,2.552485,1.626662,-0.695052
 \C,0,1.913467,0.406928,-0.007079\C,0,2.580586,-0.945379,-0.379857\C,0,
 3.939044,-1.136049,0.298039\O,0,3.756315,-1.138262,1.714294\N,0,0.4760
 31,0.354546,-0.348462\C,0,-0.360944,-0.208785,0.719312\C,0,-4.566471,-
 0.063718,-0.346259\C,0,-3.919979,-1.297254,-0.271096\C,0,-2.571287,-1.
 322359,0.068093\C,0,-1.825004,-0.176185,0.346176\C,0,-2.52793,1.026641
 ,0.251934\C,0,-3.871005,1.118646,-0.084729\H,0,-5.617693,-0.022282,-0.
 611255\H,0,-4.437343,-2.228709,-0.469775\H,0,-4.347021,2.09083,-0.1380
 61\F,0,-1.952692,-2.523518,0.142097\F,0,-1.840122,2.172395,0.500895\H,
 0,2.639916,3.802939,-0.578306\H,0,1.105279,3.13867,-0.019564\H,0,2.541
 419,3.002157,0.997228\H,0,2.253193,1.636009,-1.750647\H,0,3.642863,1.5
 19141,-0.685471\H,0,1.932018,-1.733868,0.025355\H,0,4.635781,-0.339334
 ,-0.006961\H,0,4.375136,-2.089029,-0.039869\H,0,4.629363,-1.189329,2.1
 24304\H,0,-0.067613,-1.246394,0.892177\H,0,-0.228048,0.32276,1.678293\
 H,0,2.044748,0.533814,1.080844\C,0,2.693863,-1.166761,-1.894015\H,0,1.
 730239,-0.977416,-2.373257\H,0,3.437613,-0.503469,-2.349877\H,0,2.9908
 72,-2.196905,-2.117299\H,0,0.147356,1.300573,-0.520064\\Version=ES64L-
 G09RevD.01\State=1-A\HF=-836.455894\RMSD=6.466e-09\Dipole=0.178132,0.3
 159041,-0.0889074\Quadrupole=16.51483,-7.4075856,-9.1072444,-1.289021,
 3.005122,-0.3406995\PG=C01 [X(C13H19F2N1O1)]\\@


 THERE ARE PEOPLE SO ADDICTED TO EXAGERATING THEY
 CAN'T TELL THE TRUTH WITHOUT LYING. -- FORTUNE COOKIE
 Job cpu time:       0 days  1 hours 16 minutes 58.0 seconds.
 File lengths (MBytes):  RWF=    323 Int=      0 D2E=      0 Chk=     17 Scr=      1
 Normal termination of Gaussian 09 at Wed Jun 26 12:22:20 2019.
