 Entering Gaussian System, Link 0=/usr/local/Cluster-Apps/gaussian/g09/g09
 Initial command:
 /usr/local/Cluster-Apps/gaussian/g09/l1.exe "/home/ke291/rds/hpc-work/26Jun1158AT3NMR/Gau-37378.inp" -scrdir="/home/ke291/rds/hpc-work/26Jun1158AT3NMR/"
 Entering Link 1 = /usr/local/Cluster-Apps/gaussian/g09/l1.exe PID=     37396.
  
 Copyright (c) 1988,1990,1992,1993,1995,1998,2003,2009,2013,
            Gaussian, Inc.  All Rights Reserved.
  
 This is part of the Gaussian(R) 09 program.  It is based on
 the Gaussian(R) 03 system (copyright 2003, Gaussian, Inc.),
 the Gaussian(R) 98 system (copyright 1998, Gaussian, Inc.),
 the Gaussian(R) 94 system (copyright 1995, Gaussian, Inc.),
 the Gaussian 92(TM) system (copyright 1992, Gaussian, Inc.),
 the Gaussian 90(TM) system (copyright 1990, Gaussian, Inc.),
 the Gaussian 88(TM) system (copyright 1988, Gaussian, Inc.),
 the Gaussian 86(TM) system (copyright 1986, Carnegie Mellon
 University), and the Gaussian 82(TM) system (copyright 1983,
 Carnegie Mellon University). Gaussian is a federally registered
 trademark of Gaussian, Inc.
  
 This software contains proprietary and confidential information,
 including trade secrets, belonging to Gaussian, Inc.
  
 This software is provided under written license and may be
 used, copied, transmitted, or stored only in accord with that
 written license.
  
 The following legend is applicable only to US Government
 contracts under FAR:
  
                    RESTRICTED RIGHTS LEGEND
  
 Use, reproduction and disclosure by the US Government is
 subject to restrictions as set forth in subparagraphs (a)
 and (c) of the Commercial Computer Software - Restricted
 Rights clause in FAR 52.227-19.
  
 Gaussian, Inc.
 340 Quinnipiac St., Bldg. 40, Wallingford CT 06492
  
  
 ---------------------------------------------------------------
 Warning -- This program may not be used in any manner that
 competes with the business of Gaussian, Inc. or will provide
 assistance to any competitor of Gaussian, Inc.  The licensee
 of this program is prohibited from giving any competitor of
 Gaussian, Inc. access to this program.  By using this program,
 the user acknowledges that Gaussian, Inc. is engaged in the
 business of creating and licensing software in the field of
 computational chemistry and represents and warrants to the
 licensee that it is not a competitor of Gaussian, Inc. and that
 it will not use this program in any manner prohibited above.
 ---------------------------------------------------------------
  

 Cite this work as:
 Gaussian 09, Revision D.01,
 M. J. Frisch, G. W. Trucks, H. B. Schlegel, G. E. Scuseria, 
 M. A. Robb, J. R. Cheeseman, G. Scalmani, V. Barone, B. Mennucci, 
 G. A. Petersson, H. Nakatsuji, M. Caricato, X. Li, H. P. Hratchian, 
 A. F. Izmaylov, J. Bloino, G. Zheng, J. L. Sonnenberg, M. Hada, 
 M. Ehara, K. Toyota, R. Fukuda, J. Hasegawa, M. Ishida, T. Nakajima, 
 Y. Honda, O. Kitao, H. Nakai, T. Vreven, J. A. Montgomery, Jr., 
 J. E. Peralta, F. Ogliaro, M. Bearpark, J. J. Heyd, E. Brothers, 
 K. N. Kudin, V. N. Staroverov, T. Keith, R. Kobayashi, J. Normand, 
 K. Raghavachari, A. Rendell, J. C. Burant, S. S. Iyengar, J. Tomasi, 
 M. Cossi, N. Rega, J. M. Millam, M. Klene, J. E. Knox, J. B. Cross, 
 V. Bakken, C. Adamo, J. Jaramillo, R. Gomperts, R. E. Stratmann, 
 O. Yazyev, A. J. Austin, R. Cammi, C. Pomelli, J. W. Ochterski, 
 R. L. Martin, K. Morokuma, V. G. Zakrzewski, G. A. Voth, 
 P. Salvador, J. J. Dannenberg, S. Dapprich, A. D. Daniels, 
 O. Farkas, J. B. Foresman, J. V. Ortiz, J. Cioslowski, 
 and D. J. Fox, Gaussian, Inc., Wallingford CT, 2013.
 
 ******************************************
 Gaussian 09:  ES64L-G09RevD.01 24-Apr-2013
                26-Jun-2019 
 ******************************************
 %nprocshared=4
 Will use up to    4 processors via shared memory.
 %mem=6000MB
 %chk=AT3_1ginp004.chk
 --------------------------------------------------------
 # m062x/def2tzvp int=ultrafine scrf=(solvent=chloroform)
 --------------------------------------------------------
 1/38=1/1;
 2/12=2,17=6,18=5,40=1/2;
 3/5=44,7=101,11=2,16=1,25=1,30=1,70=2201,72=7,74=-55,75=-5/1,2,3;
 4//1;
 5/5=2,38=5,53=7/2;
 6/7=2,8=2,9=2,10=2,28=1/1;
 99/5=1,9=1/99;
 ------------
 AT3_1ginp004
 ------------
 Symbolic Z-matrix:
 Charge =  0 Multiplicity = 1
 C                     1.87968   2.71764   1.11043 
 C                     1.4143    1.81655  -0.03967 
 C                     1.29075   0.32597   0.32987 
 C                     2.59647  -0.28888   0.90727 
 C                     3.78837  -0.18842  -0.06441 
 O                     3.60748  -0.93361  -1.26274 
 N                     0.88335  -0.46844  -0.85737 
 C                    -0.38205  -0.10893  -1.5202 
 C                    -3.93471  -0.2365    0.98874 
 C                    -3.52267   0.98054   0.44619 
 C                    -2.38303   0.99883  -0.35034 
 C                    -1.62189  -0.13433  -0.64033 
 C                    -2.08606  -1.32043  -0.06643 
 C                    -3.21435  -1.4063    0.73645 
 H                    -4.82102  -0.27497   1.61307 
 H                    -4.06376   1.90213   0.62675 
 H                    -3.51227  -2.36503   1.14473 
 F                    -1.98924   2.186    -0.87645 
 F                    -1.37776  -2.45195  -0.31751 
 H                     2.9193    2.5292    1.39428 
 H                     1.80555   3.77093   0.8229 
 H                     1.25933   2.57492   2.00279 
 H                     0.43401   2.17334  -0.3697 
 H                     2.08534   1.92616  -0.90054 
 H                     2.85495   0.31288   1.78753 
 H                     4.68513  -0.5861    0.42681 
 H                     3.99571   0.87049  -0.28769 
 H                     2.68748  -0.74241  -1.54072 
 H                    -0.28965   0.87682  -1.97537 
 H                    -0.51749  -0.82406  -2.33775 
 H                     0.52564   0.25464   1.12461 
 C                     2.398    -1.73705   1.38663 
 H                     1.49749  -1.83914   2.00233 
 H                     2.3263   -2.43349   0.54564 
 H                     3.25311  -2.05773   1.99048 
 H                     0.79775  -1.43917  -0.5663 
 
                          Input orientation:                          
 ---------------------------------------------------------------------
 Center     Atomic      Atomic             Coordinates (Angstroms)
 Number     Number       Type             X           Y           Z
 ---------------------------------------------------------------------
      1          6           0        1.879676    2.717636    1.110429
      2          6           0        1.414298    1.816545   -0.039667
      3          6           0        1.290748    0.325974    0.329872
      4          6           0        2.596465   -0.288882    0.907267
      5          6           0        3.788370   -0.188415   -0.064407
      6          8           0        3.607476   -0.933611   -1.262743
      7          7           0        0.883351   -0.468441   -0.857368
      8          6           0       -0.382050   -0.108927   -1.520198
      9          6           0       -3.934709   -0.236499    0.988739
     10          6           0       -3.522667    0.980538    0.446188
     11          6           0       -2.383026    0.998828   -0.350337
     12          6           0       -1.621885   -0.134334   -0.640333
     13          6           0       -2.086059   -1.320429   -0.066425
     14          6           0       -3.214348   -1.406302    0.736445
     15          1           0       -4.821024   -0.274965    1.613070
     16          1           0       -4.063762    1.902128    0.626746
     17          1           0       -3.512266   -2.365027    1.144732
     18          9           0       -1.989244    2.186001   -0.876445
     19          9           0       -1.377759   -2.451953   -0.317507
     20          1           0        2.919304    2.529196    1.394278
     21          1           0        1.805548    3.770931    0.822901
     22          1           0        1.259330    2.574924    2.002789
     23          1           0        0.434006    2.173339   -0.369704
     24          1           0        2.085337    1.926155   -0.900535
     25          1           0        2.854950    0.312880    1.787530
     26          1           0        4.685126   -0.586098    0.426813
     27          1           0        3.995709    0.870493   -0.287686
     28          1           0        2.687480   -0.742406   -1.540721
     29          1           0       -0.289650    0.876822   -1.975374
     30          1           0       -0.517486   -0.824062   -2.337749
     31          1           0        0.525635    0.254644    1.124612
     32          6           0        2.397998   -1.737047    1.386634
     33          1           0        1.497492   -1.839142    2.002327
     34          1           0        2.326304   -2.433485    0.545640
     35          1           0        3.253108   -2.057733    1.990478
     36          1           0        0.797750   -1.439174   -0.566302
 ---------------------------------------------------------------------
                    Distance matrix (angstroms):
                    1          2          3          4          5
     1  C    0.000000
     2  C    1.533383   0.000000
     3  C    2.583825   1.540658   0.000000
     4  C    3.097452   2.593651   1.554455   0.000000
     5  C    3.669943   3.107522   2.580343   1.541065   0.000000
     6  O    4.684959   3.724151   3.080618   2.479266   1.422691
     7  N    3.875045   2.484291   1.485465   2.465956   3.024291
     8  C    4.474937   3.020973   2.531828   3.846625   4.417924
     9  C    6.522944   5.821038   5.296780   6.531892   7.794702
    10  C    5.713496   5.030764   4.859110   6.266402   7.421484
    11  C    4.822734   3.896774   3.796318   5.294818   6.291060
    12  C    4.843535   3.658570   3.104289   4.495935   5.441091
    13  C    5.780831   4.700406   3.777634   4.892668   5.982506
    14  C    6.564740   5.693282   4.843756   5.919743   7.152809
    15  H    7.355793   6.781238   6.273873   7.451006   8.771721
    16  H    6.018593   5.519110   5.589559   7.016968   8.155001
    17  H    7.409972   6.569580   5.565467   6.456265   7.713556
    18  F    4.381649   3.524315   3.958945   5.507758   6.299054
    19  F    6.274913   5.108116   3.906009   4.687580   5.645932
    20  H    1.094032   2.197524   2.939276   2.878015   3.204442
    21  H    1.094348   2.171802   3.517929   4.136998   4.516118
    22  H    1.096131   2.184212   2.803108   3.345068   4.278479
    23  H    2.139396   1.094166   2.153177   3.517018   4.113739
    24  H    2.170879   1.096997   2.169298   2.904443   2.840922
    25  H    2.681879   2.770403   2.138146   1.097176   2.133598
    26  H    4.387772   4.085170   3.516116   2.163719   1.097096
    27  H    3.137556   2.760473   2.827489   2.174844   1.101875
    28  H    4.433174   3.228372   2.567375   2.491307   1.923114
    29  H    4.197231   2.744719   2.848728   4.242422   4.627826
    30  H    5.493627   3.998222   3.421768   4.529154   4.910451
    31  H    2.810686   2.141215   1.105485   2.151975   3.500787
    32  C    4.493234   3.953482   2.568814   1.538299   2.537108
    33  H    4.658945   4.188163   2.743643   2.193218   3.499201
    34  H    5.201203   4.386011   2.955257   2.191594   2.747751
    35  H    5.046281   4.744759   3.505785   2.175629   2.829029
    36  H    4.610972   3.355172   2.040079   2.594215   3.280260
                    6          7          8          9         10
     6  O    0.000000
     7  N    2.793129   0.000000
     8  C    4.081998   1.473036   0.000000
     9  C    7.901879   5.164844   4.351141   0.000000
    10  C    7.577820   4.817862   3.862264   1.394747   0.000000
    11  C    6.360261   3.616515   2.568969   2.393090   1.390528
    12  C    5.326580   2.536718   1.520526   2.830807   2.456917
    13  C    5.830707   3.188867   2.546535   2.388678   2.760627
    14  C    7.124428   4.495660   3.846756   1.396786   2.424111
    15  H    8.929934   6.219356   5.435938   1.084815   2.150263
    16  H    8.394014   5.682967   4.712612   2.172883   1.083842
    17  H    7.650857   5.189113   4.689359   2.175643   3.417730
    18  F    6.419072   3.911295   2.874750   3.623845   2.356668
    19  F    5.296357   3.055878   2.815612   3.626639   4.118963
    20  H    4.418639   4.266244   5.133498   7.402096   6.692997
    21  H    5.452483   4.652529   5.032792   7.002681   6.026448
    22  H    5.337350   4.193320   4.723200   5.992532   5.275658
    23  H    4.530074   2.723734   2.682969   5.170915   4.212329
    24  H    3.259810   2.679687   3.257843   6.669886   5.844447
    25  H    3.379970   3.390155   4.647274   6.858524   6.551257
    26  H    2.033886   4.014531   5.449295   8.645203   8.355991
    27  H    2.087164   3.435703   4.652217   8.108404   7.554910
    28  H    0.979910   1.948566   3.134283   7.106863   6.744054
    29  H    4.355812   2.106087   1.089690   4.828240   4.040683
    30  H    4.264147   2.068898   1.094601   4.805015   4.476382
    31  H    4.075433   2.139873   2.819769   4.489360   4.168445
    32  C    3.021183   2.989826   4.339253   6.520210   6.582095
    33  H    3.991579   3.230146   4.351380   5.753663   5.964408
    34  H    2.676055   2.812818   4.123886   6.650065   6.773175
    35  H    3.460155   4.031355   5.416370   7.482318   7.584659
    36  H    2.938568   1.017040   2.017772   5.124524   5.054319
                   11         12         13         14         15
    11  C    0.000000
    12  C    1.395525   0.000000
    13  C    2.355366   1.397014   0.000000
    14  C    2.767100   2.459544   1.387447   0.000000
    15  H    3.379549   3.915622   3.375460   2.151698   0.000000
    16  H    2.143715   3.422781   3.844043   3.417491   2.507193
    17  H    3.850446   3.425783   2.142931   1.083793   2.510089
    18  F    1.356921   2.361071   3.600077   4.123947   4.502557
    19  F    3.594375   2.352695   1.358336   2.361622   4.508046
    20  H    5.787954   5.644150   6.481275   7.317279   8.235525
    21  H    5.158022   5.398096   6.469734   7.211836   7.804172
    22  H    4.613896   4.756845   5.535978   6.121077   6.726400
    23  H    3.052134   3.102464   4.318463   5.229520   6.127065
    24  H    4.596621   4.249331   5.351317   6.470829   7.672090
    25  H    5.698894   5.112394   5.524348   6.395056   7.700427
    26  H    7.285240   6.412588   6.828724   7.947974   9.584931
    27  H    6.380333   5.717639   6.468153   7.630043   9.091740
    28  H    5.491716   4.444218   5.029347   6.360646   8.157361
    29  H    2.652895   2.140005   3.420392   4.595702   5.893801
    30  H    3.279173   2.139309   2.804588   4.130707   5.867786
    31  H    3.345085   2.806809   3.274198   4.110582   5.394983
    32  C    5.775835   4.778781   4.731989   5.659555   7.369073
    33  H    5.352338   4.429507   4.170208   4.898086   6.520875
    34  H    5.895875   4.720257   4.591564   5.638292   7.542076
    35  H    6.825539   5.863974   5.768984   6.620041   8.277216
    36  H    4.013456   2.750040   2.929220   4.218431   6.138051
                   16         17         18         19         20
    16  H    0.000000
    17  H    4.333713   0.000000
    18  F    2.577555   5.207361   0.000000
    19  F    5.202331   2.588787   4.711363   0.000000
    20  H    7.053051   8.085839   5.419207   6.797559   0.000000
    21  H    6.162767   8.126051   4.449745   7.082250   1.763187
    22  H    5.539085   6.921525   4.358266   6.132496   1.768584
    23  H    4.614801   6.201882   2.475699   4.967750   3.068383
    24  H    6.335975   7.343740   4.082929   5.612556   2.515020
    25  H    7.193171   6.937277   5.837085   5.476432   2.251854
    26  H    9.098037   8.418862   7.343720   6.387018   3.709336
    27  H    8.176523   8.300006   6.156043   6.317729   2.595948
    28  H    7.567744   6.948482   5.557749   4.576568   4.401289
    29  H    4.697468   5.534429   2.410439   3.874693   4.937842
    30  H    5.366229   4.844683   3.655402   2.733400   6.081438
    31  H    4.901494   4.813286   3.749531   3.609471   3.312998
    32  C    7.454889   5.948453   6.305531   4.203752   4.297982
    33  H    6.842285   5.109765   6.053630   3.744895   4.633967
    34  H    7.722504   5.869625   6.479655   3.803347   5.069521
    35  H    8.430709   6.824954   7.328764   5.189136   4.637542
    36  H    6.018468   4.728750   4.583167   2.412563   4.908444
                   21         22         23         24         25
    21  H    0.000000
    22  H    1.766613   0.000000
    23  H    2.419862   2.543846   0.000000
    24  H    2.540022   3.087471   1.752077   0.000000
    25  H    3.740304   2.776541   3.738440   3.228104   0.000000
    26  H    5.237610   4.920553   5.130395   3.851256   2.451378
    27  H    3.800362   3.954634   3.793397   2.267053   2.432855
    28  H    5.170563   5.059719   3.866652   2.809561   3.495559
    29  H    4.538289   4.594417   2.186964   2.810150   4.936191
    30  H    6.041536   5.792275   3.709845   4.050181   5.448292
    31  H    3.754129   2.587122   2.433673   3.054151   2.422511
    32  C    5.568358   4.502145   4.715200   4.329890   2.138159
    33  H    5.740981   4.420486   4.780956   4.790577   2.553435
    34  H    6.232402   5.324085   5.063741   4.599560   3.060111
    35  H    6.118169   5.043492   5.605334   5.058953   2.412369
    36  H    5.485502   4.788138   3.636098   3.618706   3.583614
                   26         27         28         29         30
    26  H    0.000000
    27  H    1.762799   0.000000
    28  H    2.808240   2.425490   0.000000
    29  H    5.714808   4.605717   3.416742   0.000000
    30  H    5.896321   5.238626   3.303593   1.753919   0.000000
    31  H    4.300597   3.796745   3.573749   3.265227   3.773546
    32  C    2.734391   3.486444   3.105240   5.035758   4.817117
    33  H    3.770063   4.339052   3.895137   5.137358   4.891501
    34  H    2.998500   3.794419   2.709815   4.914963   4.357903
    35  H    2.580975   3.783648   3.810431   6.073774   5.871360
    36  H    4.101915   3.954634   2.237422   2.920918   2.290466
                   31         32         33         34         35
    31  H    0.000000
    32  C    2.746130   0.000000
    33  H    2.469581   1.095633   0.000000
    34  H    3.286891   1.094275   1.778232   0.000000
    35  H    3.679119   1.094843   1.769212   1.757189   0.000000
    36  H    2.408787   2.542338   2.692112   2.135778   3.598405
                   36
    36  H    0.000000
 Stoichiometry    C13H19F2NO
 Framework group  C1[X(C13H19F2NO)]
 Deg. of freedom   102
 Full point group                 C1      NOp   1
 Largest Abelian subgroup         C1      NOp   1
 Largest concise Abelian subgroup C1      NOp   1
                         Standard orientation:                         
 ---------------------------------------------------------------------
 Center     Atomic      Atomic             Coordinates (Angstroms)
 Number     Number       Type             X           Y           Z
 ---------------------------------------------------------------------
      1          6           0        1.879676    2.717636    1.110429
      2          6           0        1.414298    1.816545   -0.039667
      3          6           0        1.290748    0.325974    0.329872
      4          6           0        2.596465   -0.288882    0.907267
      5          6           0        3.788370   -0.188415   -0.064407
      6          8           0        3.607476   -0.933611   -1.262743
      7          7           0        0.883351   -0.468441   -0.857368
      8          6           0       -0.382050   -0.108927   -1.520198
      9          6           0       -3.934709   -0.236499    0.988739
     10          6           0       -3.522667    0.980538    0.446188
     11          6           0       -2.383026    0.998828   -0.350337
     12          6           0       -1.621885   -0.134334   -0.640333
     13          6           0       -2.086059   -1.320429   -0.066425
     14          6           0       -3.214348   -1.406302    0.736445
     15          1           0       -4.821024   -0.274965    1.613070
     16          1           0       -4.063762    1.902128    0.626746
     17          1           0       -3.512266   -2.365027    1.144732
     18          9           0       -1.989244    2.186001   -0.876445
     19          9           0       -1.377759   -2.451953   -0.317507
     20          1           0        2.919304    2.529196    1.394278
     21          1           0        1.805548    3.770931    0.822901
     22          1           0        1.259330    2.574924    2.002789
     23          1           0        0.434006    2.173339   -0.369704
     24          1           0        2.085337    1.926155   -0.900535
     25          1           0        2.854950    0.312880    1.787530
     26          1           0        4.685126   -0.586098    0.426813
     27          1           0        3.995709    0.870493   -0.287686
     28          1           0        2.687480   -0.742406   -1.540721
     29          1           0       -0.289650    0.876822   -1.975374
     30          1           0       -0.517486   -0.824062   -2.337749
     31          1           0        0.525635    0.254644    1.124612
     32          6           0        2.397998   -1.737047    1.386634
     33          1           0        1.497492   -1.839142    2.002327
     34          1           0        2.326304   -2.433485    0.545640
     35          1           0        3.253108   -2.057733    1.990478
     36          1           0        0.797750   -1.439174   -0.566302
 ---------------------------------------------------------------------
 Rotational constants (GHZ):      0.7061869      0.2996610      0.2506978
 Standard basis: def2TZVP (5D, 7F)
 There are   726 symmetry adapted cartesian basis functions of A   symmetry.
 There are   641 symmetry adapted basis functions of A   symmetry.
   641 basis functions,  1019 primitive gaussians,   726 cartesian basis functions
    65 alpha electrons       65 beta electrons
       nuclear repulsion energy      1302.0945190811 Hartrees.
 NAtoms=   36 NActive=   36 NUniq=   36 SFac= 1.00D+00 NAtFMM=   60 NAOKFM=F Big=F
 Integral buffers will be    131072 words long.
 Raffenetti 2 integral format.
 Two-electron integral symmetry is turned on.
 ------------------------------------------------------------------------------
 Polarizable Continuum Model (PCM)
 =================================
 Model                : PCM (using non-symmetric T matrix).
 Atomic radii         : UFF (Universal Force Field).
 Polarization charges : Total charges.
 Charge compensation  : None.
 Solution method      : On-the-fly selection.
 Cavity type          : Scaled VdW (van der Waals Surface) (Alpha=1.100).
 Cavity algorithm     : GePol (No added spheres)
                        Default sphere list used, NSphG=   36.
                        Lebedev-Laikov grids with approx.  5.0 points / Ang**2.
                        Smoothing algorithm: Karplus/York (Gamma=1.0000).
                        Polarization charges: spherical gaussians, with
                                              point-specific exponents (IZeta= 3).
                        Self-potential: point-specific (ISelfS= 7).
                        Self-field    : sphere-specific E.n sum rule (ISelfD= 2).
 Solvent              : Chloroform, Eps=   4.711300 Eps(inf)=   2.090627
 ------------------------------------------------------------------------------
 One-electron integrals computed using PRISM.
   1 Symmetry operations used in ECPInt.
 ECPInt:  NShTT=   34716 NPrTT=  103716 LenC2=   31700 LenP2D=   69219.
 LDataN:  DoStor=T MaxTD1= 6 Len=  172
 NBasis=   641 RedAO= T EigKep=  1.09D-05  NBF=   641
 NBsUse=   641 1.00D-06 EigRej= -1.00D+00 NBFU=   641
 ExpMin= 9.52D-02 ExpMax= 3.55D+04 ExpMxC= 1.21D+03 IAcc=3 IRadAn=         5 AccDes= 0.00D+00
 Harris functional with IExCor= 1009 and IRadAn=       5 diagonalized for initial guess.
 HarFok:  IExCor= 1009 AccDes= 0.00D+00 IRadAn=         5 IDoV= 1 UseB2=F ITyADJ=14
 ICtDFT=  3500011 ScaDFX=  1.000000  1.000000  1.000000  1.000000
 FoFCou: FMM=F IPFlag=           0 FMFlag=      100000 FMFlg1=           0
         NFxFlg=           0 DoJE=T BraDBF=F KetDBF=T FulRan=T
         wScrn=  0.000000 ICntrl=     500 IOpCl=  0 I1Cent=   200000004 NGrid=           0
         NMat0=    1 NMatS0=      1 NMatT0=    0 NMatD0=    1 NMtDS0=    0 NMtDT0=    0
 Petite list used in FoFCou.
 Requested convergence on RMS density matrix=1.00D-08 within 128 cycles.
 Requested convergence on MAX density matrix=1.00D-06.
 Requested convergence on             energy=1.00D-06.
 No special actions if energy rises.
 Inv3:  Mode=1 IEnd=    17963427.
 Iteration    1 A*A^-1 deviation from unit magnitude is 4.88D-15 for   2446.
 Iteration    1 A*A^-1 deviation from orthogonality  is 3.70D-15 for   2446   2310.
 Iteration    1 A^-1*A deviation from unit magnitude is 4.88D-15 for   2446.
 Iteration    1 A^-1*A deviation from orthogonality  is 4.64D-13 for   2130   2123.
 Error on total polarization charges =  0.01211
 SCF Done:  E(RM062X) =  -836.462854654     A.U. after   12 cycles
            NFock= 12  Conv=0.91D-08     -V/T= 2.0052

 **********************************************************************

            Population analysis using the SCF density.

 **********************************************************************

 Orbital symmetries:
       Occupied  (A) (A) (A) (A) (A) (A) (A) (A) (A) (A) (A) (A)
                 (A) (A) (A) (A) (A) (A) (A) (A) (A) (A) (A) (A)
                 (A) (A) (A) (A) (A) (A) (A) (A) (A) (A) (A) (A)
                 (A) (A) (A) (A) (A) (A) (A) (A) (A) (A) (A) (A)
                 (A) (A) (A) (A) (A) (A) (A) (A) (A) (A) (A) (A)
                 (A) (A) (A) (A) (A)
       Virtual   (A) (A) (A) (A) (A) (A) (A) (A) (A) (A) (A) (A)
                 (A) (A) (A) (A) (A) (A) (A) (A) (A) (A) (A) (A)
                 (A) (A) (A) (A) (A) (A) (A) (A) (A) (A) (A) (A)
                 (A) (A) (A) (A) (A) (A) (A) (A) (A) (A) (A) (A)
                 (A) (A) (A) (A) (A) (A) (A) (A) (A) (A) (A) (A)
                 (A) (A) (A) (A) (A) (A) (A) (A) (A) (A) (A) (A)
                 (A) (A) (A) (A) (A) (A) (A) (A) (A) (A) (A) (A)
                 (A) (A) (A) (A) (A) (A) (A) (A) (A) (A) (A) (A)
                 (A) (A) (A) (A) (A) (A) (A) (A) (A) (A) (A) (A)
                 (A) (A) (A) (A) (A) (A) (A) (A) (A) (A) (A) (A)
                 (A) (A) (A) (A) (A) (A) (A) (A) (A) (A) (A) (A)
                 (A) (A) (A) (A) (A) (A) (A) (A) (A) (A) (A) (A)
                 (A) (A) (A) (A) (A) (A) (A) (A) (A) (A) (A) (A)
                 (A) (A) (A) (A) (A) (A) (A) (A) (A) (A) (A) (A)
                 (A) (A) (A) (A) (A) (A) (A) (A) (A) (A) (A) (A)
                 (A) (A) (A) (A) (A) (A) (A) (A) (A) (A) (A) (A)
                 (A) (A) (A) (A) (A) (A) (A) (A) (A) (A) (A) (A)
                 (A) (A) (A) (A) (A) (A) (A) (A) (A) (A) (A) (A)
                 (A) (A) (A) (A) (A) (A) (A) (A) (A) (A) (A) (A)
                 (A) (A) (A) (A) (A) (A) (A) (A) (A) (A) (A) (A)
                 (A) (A) (A) (A) (A) (A) (A) (A) (A) (A) (A) (A)
                 (A) (A) (A) (A) (A) (A) (A) (A) (A) (A) (A) (A)
                 (A) (A) (A) (A) (A) (A) (A) (A) (A) (A) (A) (A)
                 (A) (A) (A) (A) (A) (A) (A) (A) (A) (A) (A) (A)
                 (A) (A) (A) (A) (A) (A) (A) (A) (A) (A) (A) (A)
                 (A) (A) (A) (A) (A) (A) (A) (A) (A) (A) (A) (A)
                 (A) (A) (A) (A) (A) (A) (A) (A) (A) (A) (A) (A)
                 (A) (A) (A) (A) (A) (A) (A) (A) (A) (A) (A) (A)
                 (A) (A) (A) (A) (A) (A) (A) (A) (A) (A) (A) (A)
                 (A) (A) (A) (A) (A) (A) (A) (A) (A) (A) (A) (A)
                 (A) (A) (A) (A) (A) (A) (A) (A) (A) (A) (A) (A)
                 (A) (A) (A) (A) (A) (A) (A) (A) (A) (A) (A) (A)
                 (A) (A) (A) (A) (A) (A) (A) (A) (A) (A) (A) (A)
                 (A) (A) (A) (A) (A) (A) (A) (A) (A) (A) (A) (A)
                 (A) (A) (A) (A) (A) (A) (A) (A) (A) (A) (A) (A)
                 (A) (A) (A) (A) (A) (A) (A) (A) (A) (A) (A) (A)
                 (A) (A) (A) (A) (A) (A) (A) (A) (A) (A) (A) (A)
                 (A) (A) (A) (A) (A) (A) (A) (A) (A) (A) (A) (A)
                 (A) (A) (A) (A) (A) (A) (A) (A) (A) (A) (A) (A)
                 (A) (A) (A) (A) (A) (A) (A) (A) (A) (A) (A) (A)
                 (A) (A) (A) (A) (A) (A) (A) (A) (A) (A) (A) (A)
                 (A) (A) (A) (A) (A) (A) (A) (A) (A) (A) (A) (A)
                 (A) (A) (A) (A) (A) (A) (A) (A) (A) (A) (A) (A)
                 (A) (A) (A) (A) (A) (A) (A) (A) (A) (A) (A) (A)
                 (A) (A) (A) (A) (A) (A) (A) (A) (A) (A) (A) (A)
                 (A) (A) (A) (A) (A) (A) (A) (A) (A) (A) (A) (A)
                 (A) (A) (A) (A) (A) (A) (A) (A) (A) (A) (A) (A)
                 (A) (A) (A) (A) (A) (A) (A) (A) (A) (A) (A) (A)
 The electronic state is 1-A.
 Alpha  occ. eigenvalues --  -25.27278 -25.27060 -19.60450 -14.75004 -10.64609
 Alpha  occ. eigenvalues --  -10.64572 -10.58170 -10.57325 -10.57182 -10.57130
 Alpha  occ. eigenvalues --  -10.56845 -10.56067 -10.56034 -10.54092 -10.53292
 Alpha  occ. eigenvalues --  -10.52606 -10.52428  -1.38438  -1.38279  -1.12597
 Alpha  occ. eigenvalues --   -1.02850  -0.98532  -0.90657  -0.87580  -0.86355
 Alpha  occ. eigenvalues --   -0.85652  -0.79172  -0.76537  -0.74654  -0.72959
 Alpha  occ. eigenvalues --   -0.71092  -0.68737  -0.65643  -0.63446  -0.62523
 Alpha  occ. eigenvalues --   -0.59108  -0.58135  -0.57752  -0.57535  -0.57138
 Alpha  occ. eigenvalues --   -0.55720  -0.54864  -0.54703  -0.52546  -0.51608
 Alpha  occ. eigenvalues --   -0.50584  -0.49467  -0.48256  -0.47448  -0.47295
 Alpha  occ. eigenvalues --   -0.45825  -0.44742  -0.44372  -0.44102  -0.43539
 Alpha  occ. eigenvalues --   -0.42912  -0.42402  -0.40553  -0.39065  -0.38420
 Alpha  occ. eigenvalues --   -0.36935  -0.33736  -0.32211  -0.31630  -0.30522
 Alpha virt. eigenvalues --    0.00052   0.01469   0.05670   0.07228   0.07891
 Alpha virt. eigenvalues --    0.08666   0.09118   0.11355   0.11552   0.11843
 Alpha virt. eigenvalues --    0.12448   0.12610   0.13172   0.13904   0.14142
 Alpha virt. eigenvalues --    0.14685   0.15709   0.16054   0.16214   0.16640
 Alpha virt. eigenvalues --    0.17186   0.17877   0.18899   0.19899   0.20387
 Alpha virt. eigenvalues --    0.20739   0.21242   0.21573   0.21725   0.22239
 Alpha virt. eigenvalues --    0.22937   0.24143   0.24489   0.24541   0.25366
 Alpha virt. eigenvalues --    0.25483   0.26132   0.26862   0.26966   0.28565
 Alpha virt. eigenvalues --    0.28726   0.29146   0.30331   0.30606   0.31635
 Alpha virt. eigenvalues --    0.33072   0.33141   0.33863   0.34280   0.35547
 Alpha virt. eigenvalues --    0.36447   0.36536   0.37040   0.37360   0.37997
 Alpha virt. eigenvalues --    0.38821   0.39125   0.39840   0.40300   0.40355
 Alpha virt. eigenvalues --    0.41230   0.41805   0.42411   0.42733   0.43040
 Alpha virt. eigenvalues --    0.43782   0.44189   0.44537   0.45122   0.45506
 Alpha virt. eigenvalues --    0.46342   0.46574   0.46713   0.47304   0.47583
 Alpha virt. eigenvalues --    0.47850   0.49071   0.49468   0.49563   0.50172
 Alpha virt. eigenvalues --    0.50196   0.51197   0.51544   0.51685   0.51878
 Alpha virt. eigenvalues --    0.52805   0.53530   0.53646   0.54060   0.55225
 Alpha virt. eigenvalues --    0.55787   0.56344   0.57028   0.57852   0.58435
 Alpha virt. eigenvalues --    0.58939   0.59830   0.60866   0.61484   0.61919
 Alpha virt. eigenvalues --    0.62667   0.64120   0.64575   0.67429   0.68379
 Alpha virt. eigenvalues --    0.68750   0.69570   0.70398   0.70970   0.71469
 Alpha virt. eigenvalues --    0.72362   0.72691   0.73715   0.74066   0.75491
 Alpha virt. eigenvalues --    0.77156   0.77699   0.78840   0.79951   0.80958
 Alpha virt. eigenvalues --    0.81783   0.82653   0.83130   0.84616   0.84868
 Alpha virt. eigenvalues --    0.85762   0.87414   0.87913   0.89076   0.89349
 Alpha virt. eigenvalues --    0.89980   0.90512   0.91660   0.92552   0.92853
 Alpha virt. eigenvalues --    0.94447   0.94686   0.94919   0.96573   0.97644
 Alpha virt. eigenvalues --    0.98518   0.99485   1.00216   1.00437   1.02163
 Alpha virt. eigenvalues --    1.03283   1.04418   1.06045   1.07226   1.07753
 Alpha virt. eigenvalues --    1.08738   1.09346   1.09614   1.10907   1.11539
 Alpha virt. eigenvalues --    1.13204   1.13820   1.15040   1.15221   1.16588
 Alpha virt. eigenvalues --    1.18120   1.18637   1.20174   1.20382   1.21672
 Alpha virt. eigenvalues --    1.22133   1.23503   1.24232   1.25241   1.26610
 Alpha virt. eigenvalues --    1.27389   1.27759   1.29124   1.29803   1.30348
 Alpha virt. eigenvalues --    1.31637   1.33141   1.35330   1.35761   1.37280
 Alpha virt. eigenvalues --    1.37857   1.38653   1.39728   1.40818   1.42648
 Alpha virt. eigenvalues --    1.43260   1.44115   1.45927   1.48847   1.49722
 Alpha virt. eigenvalues --    1.50464   1.50902   1.52487   1.53685   1.54607
 Alpha virt. eigenvalues --    1.55533   1.56491   1.57730   1.57964   1.58745
 Alpha virt. eigenvalues --    1.59270   1.59582   1.60766   1.61272   1.62088
 Alpha virt. eigenvalues --    1.63688   1.64239   1.65226   1.65855   1.66625
 Alpha virt. eigenvalues --    1.66758   1.67655   1.68264   1.69195   1.69769
 Alpha virt. eigenvalues --    1.71062   1.71757   1.71873   1.72996   1.73818
 Alpha virt. eigenvalues --    1.74881   1.76149   1.77670   1.78461   1.79386
 Alpha virt. eigenvalues --    1.81308   1.82375   1.83449   1.85902   1.87040
 Alpha virt. eigenvalues --    1.88071   1.89083   1.89820   1.90363   1.90874
 Alpha virt. eigenvalues --    1.91641   1.92492   1.94361   1.95491   1.96185
 Alpha virt. eigenvalues --    1.97691   1.99441   1.99786   2.01275   2.01787
 Alpha virt. eigenvalues --    2.03544   2.04166   2.05532   2.06754   2.08768
 Alpha virt. eigenvalues --    2.08986   2.10849   2.11327   2.11640   2.12867
 Alpha virt. eigenvalues --    2.13742   2.14374   2.15580   2.16215   2.17190
 Alpha virt. eigenvalues --    2.18574   2.18981   2.20136   2.20620   2.21470
 Alpha virt. eigenvalues --    2.23124   2.23451   2.25689   2.26979   2.27579
 Alpha virt. eigenvalues --    2.28830   2.29593   2.30133   2.30737   2.32154
 Alpha virt. eigenvalues --    2.32937   2.33902   2.35321   2.36244   2.36748
 Alpha virt. eigenvalues --    2.37548   2.39722   2.40745   2.41640   2.42512
 Alpha virt. eigenvalues --    2.43355   2.43818   2.44319   2.45139   2.46310
 Alpha virt. eigenvalues --    2.47812   2.49149   2.50178   2.50609   2.52440
 Alpha virt. eigenvalues --    2.53033   2.54262   2.55496   2.55749   2.56918
 Alpha virt. eigenvalues --    2.57969   2.58289   2.59096   2.60016   2.60338
 Alpha virt. eigenvalues --    2.61199   2.62240   2.62813   2.63007   2.63536
 Alpha virt. eigenvalues --    2.64508   2.64931   2.65897   2.66053   2.67015
 Alpha virt. eigenvalues --    2.68260   2.68550   2.69805   2.70138   2.70379
 Alpha virt. eigenvalues --    2.71674   2.72485   2.73574   2.74821   2.75838
 Alpha virt. eigenvalues --    2.76712   2.76907   2.78143   2.78858   2.79686
 Alpha virt. eigenvalues --    2.80597   2.81940   2.82426   2.83352   2.84647
 Alpha virt. eigenvalues --    2.85408   2.87123   2.87870   2.88623   2.90496
 Alpha virt. eigenvalues --    2.91269   2.91713   2.92183   2.93586   2.94838
 Alpha virt. eigenvalues --    2.95670   2.97237   2.97878   2.98381   2.99813
 Alpha virt. eigenvalues --    3.00705   3.01056   3.02649   3.03049   3.04236
 Alpha virt. eigenvalues --    3.05075   3.05801   3.07704   3.07801   3.08315
 Alpha virt. eigenvalues --    3.10261   3.11274   3.12049   3.12679   3.13471
 Alpha virt. eigenvalues --    3.14404   3.15228   3.15311   3.15622   3.16967
 Alpha virt. eigenvalues --    3.18119   3.19363   3.20604   3.21273   3.21701
 Alpha virt. eigenvalues --    3.21963   3.22758   3.24460   3.25207   3.25433
 Alpha virt. eigenvalues --    3.26281   3.27075   3.27836   3.29070   3.29948
 Alpha virt. eigenvalues --    3.30611   3.30889   3.31579   3.32429   3.33105
 Alpha virt. eigenvalues --    3.33509   3.34344   3.35675   3.37507   3.38641
 Alpha virt. eigenvalues --    3.39303   3.40019   3.40970   3.41549   3.42812
 Alpha virt. eigenvalues --    3.43357   3.43960   3.45301   3.45685   3.46160
 Alpha virt. eigenvalues --    3.47351   3.48350   3.49091   3.49725   3.50823
 Alpha virt. eigenvalues --    3.51915   3.53021   3.53747   3.54942   3.55620
 Alpha virt. eigenvalues --    3.56291   3.56853   3.57061   3.58470   3.59062
 Alpha virt. eigenvalues --    3.61035   3.61634   3.62196   3.63465   3.63885
 Alpha virt. eigenvalues --    3.65085   3.67537   3.68468   3.69383   3.70882
 Alpha virt. eigenvalues --    3.72517   3.73624   3.75231   3.76889   3.78142
 Alpha virt. eigenvalues --    3.81015   3.81526   3.83344   3.84533   3.86793
 Alpha virt. eigenvalues --    3.87664   3.90619   3.91324   3.93595   3.94178
 Alpha virt. eigenvalues --    3.94773   3.97786   4.00565   4.01841   4.03049
 Alpha virt. eigenvalues --    4.03765   4.05446   4.05871   4.07279   4.08069
 Alpha virt. eigenvalues --    4.09465   4.10403   4.11442   4.12456   4.12774
 Alpha virt. eigenvalues --    4.14328   4.14559   4.15228   4.15799   4.18545
 Alpha virt. eigenvalues --    4.19543   4.20179   4.21186   4.23688   4.24525
 Alpha virt. eigenvalues --    4.25207   4.25604   4.27714   4.31388   4.33526
 Alpha virt. eigenvalues --    4.34991   4.35333   4.36176   4.39678   4.40839
 Alpha virt. eigenvalues --    4.41872   4.44782   4.46491   4.50941   4.52421
 Alpha virt. eigenvalues --    4.53926   4.55271   4.56708   4.59381   4.60597
 Alpha virt. eigenvalues --    4.62535   4.63511   4.64954   4.65749   4.66710
 Alpha virt. eigenvalues --    4.73715   4.74847   4.77697   4.79444   4.82609
 Alpha virt. eigenvalues --    4.85919   4.89248   4.93210   4.93903   4.96162
 Alpha virt. eigenvalues --    5.00240   5.02891   5.06387   5.08569   5.13671
 Alpha virt. eigenvalues --    5.15630   5.22154   5.29559   5.30279   5.30859
 Alpha virt. eigenvalues --    5.34676   5.37171   5.39562   5.40588   5.43644
 Alpha virt. eigenvalues --    5.48415   5.51534   5.59097   5.61173   5.68585
 Alpha virt. eigenvalues --    5.73388   5.78563   5.85583   5.94227   6.26257
 Alpha virt. eigenvalues --    6.50996   6.73317   6.78310   6.90084   6.90395
 Alpha virt. eigenvalues --    6.90809   6.91947   6.98758   6.99367   7.00146
 Alpha virt. eigenvalues --    7.07845   7.09414   7.17371   7.21170   7.23719
 Alpha virt. eigenvalues --    7.35399   7.38675   7.52985   7.54534   8.36312
 Alpha virt. eigenvalues --    8.37874   8.53573   8.55245   8.74087   8.75280
 Alpha virt. eigenvalues --    8.95834   8.96580   9.00539   9.02084  22.26232
 Alpha virt. eigenvalues --   22.43991  22.49836  22.53936  22.62177  22.67520
 Alpha virt. eigenvalues --   22.74074  22.74896  22.77678  22.79938  22.94998
 Alpha virt. eigenvalues --   23.02638  23.46997  32.64084  44.05893  57.50803
 Alpha virt. eigenvalues --   57.57391
          Condensed to atoms (all electrons):
               1          2          3          4          5          6
     1  C    5.090447   0.202588  -0.032289   0.025091  -0.016277   0.001074
     2  C    0.202588   5.391972   0.067973  -0.015298   0.036798  -0.014848
     3  C   -0.032289   0.067973   5.829256   0.003329  -0.011420   0.019376
     4  C    0.025091  -0.015298   0.003329   5.587840   0.225239  -0.033108
     5  C   -0.016277   0.036798  -0.011420   0.225239   4.924700   0.208564
     6  O    0.001074  -0.014848   0.019376  -0.033108   0.208564   8.156529
     7  N    0.009414  -0.044895   0.031550  -0.008707   0.008086  -0.047157
     8  C   -0.004534   0.039754  -0.061084   0.014162  -0.001738   0.001202
     9  C   -0.000019   0.000244  -0.000535   0.000037  -0.000001   0.000000
    10  C    0.000006   0.000167   0.001024  -0.000077   0.000002   0.000000
    11  C   -0.000397   0.006313   0.007825   0.001273  -0.000075   0.000033
    12  C    0.002996  -0.023456   0.005341   0.001251   0.000630  -0.000263
    13  C    0.000088   0.000706  -0.005824  -0.000424  -0.000071  -0.000049
    14  C   -0.000006  -0.000052   0.000107  -0.000236   0.000006  -0.000001
    15  H    0.000000  -0.000002  -0.000001   0.000000   0.000000   0.000000
    16  H    0.000003  -0.000028   0.000019  -0.000001   0.000000   0.000000
    17  H    0.000000   0.000002   0.000006  -0.000005   0.000000   0.000000
    18  F   -0.000055  -0.009554   0.000508  -0.000062   0.000002   0.000000
    19  F    0.000000  -0.000113   0.001540  -0.000905   0.000021  -0.000001
    20  H    0.421125  -0.034588  -0.031510   0.025754  -0.005175  -0.000163
    21  H    0.419635  -0.045975   0.013498  -0.000985   0.000250   0.000003
    22  H    0.415225  -0.049743   0.014133  -0.013231   0.001536  -0.000023
    23  H   -0.035279   0.426471  -0.060696   0.014125  -0.001382  -0.000008
    24  H   -0.027641   0.402042  -0.011708  -0.033810   0.005560   0.003837
    25  H   -0.004719  -0.011522  -0.057434   0.438551  -0.047346   0.006128
    26  H    0.001250  -0.004212   0.022779  -0.058854   0.430287  -0.035078
    27  H   -0.008690   0.029847  -0.052438  -0.033215   0.438392  -0.046119
    28  H    0.000560  -0.006892   0.013159  -0.016821  -0.032940   0.307462
    29  H    0.000598  -0.005783  -0.009199  -0.001793   0.000236  -0.000050
    30  H   -0.000021   0.001116   0.007534   0.000285  -0.000126   0.000258
    31  H   -0.000890  -0.045362   0.443009  -0.058595   0.009328  -0.001142
    32  C   -0.000211   0.010492  -0.062132   0.224089  -0.054712  -0.014064
    33  H   -0.000101   0.000932   0.014128  -0.064497   0.009188   0.000363
    34  H   -0.000106   0.000604  -0.036259  -0.016748  -0.017281   0.016154
    35  H    0.000055  -0.000612   0.013081  -0.043032  -0.003409  -0.000327
    36  H   -0.000673   0.006317  -0.048017  -0.008473  -0.001769   0.001508
               7          8          9         10         11         12
     1  C    0.009414  -0.004534  -0.000019   0.000006  -0.000397   0.002996
     2  C   -0.044895   0.039754   0.000244   0.000167   0.006313  -0.023456
     3  C    0.031550  -0.061084  -0.000535   0.001024   0.007825   0.005341
     4  C   -0.008707   0.014162   0.000037  -0.000077   0.001273   0.001251
     5  C    0.008086  -0.001738  -0.000001   0.000002  -0.000075   0.000630
     6  O   -0.047157   0.001202   0.000000   0.000000   0.000033  -0.000263
     7  N    7.080572   0.181331   0.000312  -0.000753   0.006959  -0.040961
     8  C    0.181331   5.372498  -0.001197   0.003576  -0.021809  -0.011221
     9  C    0.000312  -0.001197   5.024733   0.432811  -0.017392  -0.080611
    10  C   -0.000753   0.003576   0.432811   5.032568   0.512334   0.007866
    11  C    0.006959  -0.021809  -0.017392   0.512334   4.924420   0.176443
    12  C   -0.040961  -0.011221  -0.080611   0.007866   0.176443   6.006742
    13  C    0.006377  -0.057075  -0.030143  -0.067985   0.017397   0.253323
    14  C    0.001392   0.002718   0.434637  -0.033165  -0.076357   0.008133
    15  H   -0.000001   0.000061   0.404207  -0.024721   0.002332  -0.000737
    16  H    0.000010  -0.000256  -0.031600   0.412090  -0.039339   0.012930
    17  H    0.000035  -0.000122  -0.032479   0.004410  -0.001296   0.014072
    18  F   -0.000010  -0.001020   0.009178  -0.044650   0.223597  -0.057655
    19  F   -0.006687   0.019166   0.009303  -0.001010   0.009024  -0.074265
    20  H   -0.000010   0.000081   0.000000   0.000001  -0.000002  -0.000009
    21  H   -0.000406   0.000135   0.000000  -0.000001   0.000063  -0.000125
    22  H    0.000223  -0.000120  -0.000004   0.000047   0.000175  -0.000048
    23  H   -0.008988   0.024574  -0.000040   0.000054  -0.004101  -0.013915
    24  H    0.006103  -0.010164  -0.000006  -0.000005  -0.000603   0.003346
    25  H    0.006718  -0.000700   0.000000  -0.000001   0.000039   0.000266
    26  H   -0.001289   0.000038   0.000000   0.000000   0.000001   0.000001
    27  H    0.001125   0.000391   0.000000   0.000000   0.000020  -0.000068
    28  H    0.033182  -0.002310  -0.000001   0.000002  -0.000175   0.002148
    29  H   -0.025990   0.465788  -0.000387   0.000583  -0.019404  -0.069349
    30  H   -0.043348   0.448747   0.000182  -0.000388   0.008069  -0.064394
    31  H   -0.040466  -0.027098  -0.000584   0.000741  -0.009363   0.030007
    32  C   -0.002533   0.001303   0.000000   0.000020   0.000182  -0.003191
    33  H   -0.003386  -0.000063  -0.000026   0.000015  -0.000033   0.000084
    34  H    0.008923  -0.000083   0.000002  -0.000001   0.000003   0.000920
    35  H   -0.000302   0.000063   0.000000   0.000000   0.000004  -0.000034
    36  H    0.374031  -0.023467  -0.000097   0.000107   0.000956  -0.020330
              13         14         15         16         17         18
     1  C    0.000088  -0.000006   0.000000   0.000003   0.000000  -0.000055
     2  C    0.000706  -0.000052  -0.000002  -0.000028   0.000002  -0.009554
     3  C   -0.005824   0.000107  -0.000001   0.000019   0.000006   0.000508
     4  C   -0.000424  -0.000236   0.000000  -0.000001  -0.000005  -0.000062
     5  C   -0.000071   0.000006   0.000000   0.000000   0.000000   0.000002
     6  O   -0.000049  -0.000001   0.000000   0.000000   0.000000   0.000000
     7  N    0.006377   0.001392  -0.000001   0.000010   0.000035  -0.000010
     8  C   -0.057075   0.002718   0.000061  -0.000256  -0.000122  -0.001020
     9  C   -0.030143   0.434637   0.404207  -0.031600  -0.032479   0.009178
    10  C   -0.067985  -0.033165  -0.024721   0.412090   0.004410  -0.044650
    11  C    0.017397  -0.076357   0.002332  -0.039339  -0.001296   0.223597
    12  C    0.253323   0.008133  -0.000737   0.012930   0.014072  -0.057655
    13  C    4.868147   0.525953   0.002870  -0.000965  -0.042821   0.007714
    14  C    0.525953   5.029532  -0.025390   0.004059   0.414715  -0.000359
    15  H    0.002870  -0.025390   0.474306  -0.003192  -0.003280  -0.000109
    16  H   -0.000965   0.004059  -0.003192   0.470807  -0.000141   0.001140
    17  H   -0.042821   0.414715  -0.003280  -0.000141   0.470781   0.000011
    18  F    0.007714  -0.000359  -0.000109   0.001140   0.000011   9.069743
    19  F    0.229916  -0.045633  -0.000104   0.000010   0.001524  -0.000034
    20  H   -0.000004   0.000000   0.000000   0.000000   0.000000  -0.000004
    21  H    0.000001   0.000000   0.000000   0.000000   0.000000   0.000019
    22  H   -0.000019   0.000003   0.000000   0.000000   0.000000   0.000031
    23  H    0.000277   0.000068   0.000002   0.000009  -0.000002   0.010404
    24  H   -0.000061   0.000010   0.000000   0.000000   0.000000   0.000308
    25  H    0.000018  -0.000005   0.000000   0.000000   0.000000   0.000000
    26  H    0.000000   0.000000   0.000000   0.000000   0.000000   0.000000
    27  H   -0.000006  -0.000001   0.000000   0.000000   0.000000  -0.000001
    28  H   -0.000022   0.000000   0.000000   0.000000   0.000000   0.000002
    29  H    0.009302   0.000187   0.000002  -0.000020   0.000001   0.007365
    30  H   -0.009211  -0.000556   0.000000   0.000005   0.000000   0.000470
    31  H   -0.001679   0.000900  -0.000001  -0.000002   0.000004   0.000208
    32  C   -0.000180  -0.000072   0.000000   0.000000   0.000000  -0.000001
    33  H   -0.000323   0.000179   0.000000   0.000000   0.000009   0.000000
    34  H   -0.000159  -0.000051   0.000000   0.000000  -0.000001   0.000000
    35  H   -0.000012  -0.000002   0.000000   0.000000   0.000000   0.000000
    36  H    0.000740   0.000606   0.000001  -0.000002   0.000006  -0.000051
              19         20         21         22         23         24
     1  C    0.000000   0.421125   0.419635   0.415225  -0.035279  -0.027641
     2  C   -0.000113  -0.034588  -0.045975  -0.049743   0.426471   0.402042
     3  C    0.001540  -0.031510   0.013498   0.014133  -0.060696  -0.011708
     4  C   -0.000905   0.025754  -0.000985  -0.013231   0.014125  -0.033810
     5  C    0.000021  -0.005175   0.000250   0.001536  -0.001382   0.005560
     6  O   -0.000001  -0.000163   0.000003  -0.000023  -0.000008   0.003837
     7  N   -0.006687  -0.000010  -0.000406   0.000223  -0.008988   0.006103
     8  C    0.019166   0.000081   0.000135  -0.000120   0.024574  -0.010164
     9  C    0.009303   0.000000   0.000000  -0.000004  -0.000040  -0.000006
    10  C   -0.001010   0.000001  -0.000001   0.000047   0.000054  -0.000005
    11  C    0.009024  -0.000002   0.000063   0.000175  -0.004101  -0.000603
    12  C   -0.074265  -0.000009  -0.000125  -0.000048  -0.013915   0.003346
    13  C    0.229916  -0.000004   0.000001  -0.000019   0.000277  -0.000061
    14  C   -0.045633   0.000000   0.000000   0.000003   0.000068   0.000010
    15  H   -0.000104   0.000000   0.000000   0.000000   0.000002   0.000000
    16  H    0.000010   0.000000   0.000000   0.000000   0.000009   0.000000
    17  H    0.001524   0.000000   0.000000   0.000000  -0.000002   0.000000
    18  F   -0.000034  -0.000004   0.000019   0.000031   0.010404   0.000308
    19  F    9.070763   0.000000   0.000000   0.000000  -0.000001   0.000002
    20  H    0.000000   0.531487  -0.023604  -0.030005   0.006827  -0.005081
    21  H    0.000000  -0.023604   0.515497  -0.022581  -0.007530  -0.003159
    22  H    0.000000  -0.030005  -0.022581   0.527890  -0.003724   0.005786
    23  H   -0.000001   0.006827  -0.007530  -0.003724   0.543593  -0.024103
    24  H    0.000002  -0.005081  -0.003159   0.005786  -0.024103   0.519322
    25  H   -0.000005  -0.010856   0.000602   0.001958  -0.000593   0.001353
    26  H    0.000000  -0.000282  -0.000002  -0.000030   0.000010   0.000805
    27  H    0.000000   0.004071   0.000043  -0.000043   0.000939  -0.017187
    28  H    0.000008   0.000015  -0.000006  -0.000011   0.000078   0.002855
    29  H    0.000457  -0.000048   0.000005  -0.000001  -0.013017   0.000966
    30  H    0.000106   0.000000   0.000000   0.000000   0.000293  -0.000366
    31  H    0.000050   0.001185  -0.000266   0.000521  -0.003684   0.006831
    32  C    0.000880   0.000986   0.000002  -0.000358  -0.000194  -0.001250
    33  H    0.000273   0.000003   0.000000   0.000054  -0.000048   0.000011
    34  H   -0.000169  -0.000003   0.000000   0.000006   0.000023  -0.000097
    35  H    0.000014   0.000019  -0.000001   0.000009   0.000016  -0.000002
    36  H    0.005354  -0.000019   0.000024  -0.000014  -0.000781  -0.000085
              25         26         27         28         29         30
     1  C   -0.004719   0.001250  -0.008690   0.000560   0.000598  -0.000021
     2  C   -0.011522  -0.004212   0.029847  -0.006892  -0.005783   0.001116
     3  C   -0.057434   0.022779  -0.052438   0.013159  -0.009199   0.007534
     4  C    0.438551  -0.058854  -0.033215  -0.016821  -0.001793   0.000285
     5  C   -0.047346   0.430287   0.438392  -0.032940   0.000236  -0.000126
     6  O    0.006128  -0.035078  -0.046119   0.307462  -0.000050   0.000258
     7  N    0.006718  -0.001289   0.001125   0.033182  -0.025990  -0.043348
     8  C   -0.000700   0.000038   0.000391  -0.002310   0.465788   0.448747
     9  C    0.000000   0.000000   0.000000  -0.000001  -0.000387   0.000182
    10  C   -0.000001   0.000000   0.000000   0.000002   0.000583  -0.000388
    11  C    0.000039   0.000001   0.000020  -0.000175  -0.019404   0.008069
    12  C    0.000266   0.000001  -0.000068   0.002148  -0.069349  -0.064394
    13  C    0.000018   0.000000  -0.000006  -0.000022   0.009302  -0.009211
    14  C   -0.000005   0.000000  -0.000001   0.000000   0.000187  -0.000556
    15  H    0.000000   0.000000   0.000000   0.000000   0.000002   0.000000
    16  H    0.000000   0.000000   0.000000   0.000000  -0.000020   0.000005
    17  H    0.000000   0.000000   0.000000   0.000000   0.000001   0.000000
    18  F    0.000000   0.000000  -0.000001   0.000002   0.007365   0.000470
    19  F   -0.000005   0.000000   0.000000   0.000008   0.000457   0.000106
    20  H   -0.010856  -0.000282   0.004071   0.000015  -0.000048   0.000000
    21  H    0.000602  -0.000002   0.000043  -0.000006   0.000005   0.000000
    22  H    0.001958  -0.000030  -0.000043  -0.000011  -0.000001   0.000000
    23  H   -0.000593   0.000010   0.000939   0.000078  -0.013017   0.000293
    24  H    0.001353   0.000805  -0.017187   0.002855   0.000966  -0.000366
    25  H    0.545591  -0.002927   0.001807  -0.000853  -0.000007   0.000021
    26  H   -0.002927   0.553056  -0.039344   0.006854   0.000000   0.000000
    27  H    0.001807  -0.039344   0.578742  -0.005328  -0.000099   0.000026
    28  H   -0.000853   0.006854  -0.005328   0.348932   0.000022  -0.000964
    29  H   -0.000007   0.000000  -0.000099   0.000022   0.457399  -0.010893
    30  H    0.000021   0.000000   0.000026  -0.000964  -0.010893   0.471294
    31  H   -0.003292  -0.000306  -0.000860   0.001357   0.001268  -0.000910
    32  C   -0.026118  -0.010667   0.007985  -0.002034   0.000036   0.000089
    33  H   -0.004080  -0.000339  -0.000213  -0.000038  -0.000003  -0.000013
    34  H    0.007748  -0.001665   0.001083  -0.000585  -0.000044   0.000071
    35  H   -0.008194   0.002771   0.000041  -0.000086  -0.000001   0.000001
    36  H    0.000584  -0.000107   0.000097  -0.003400   0.003837  -0.005656
              31         32         33         34         35         36
     1  C   -0.000890  -0.000211  -0.000101  -0.000106   0.000055  -0.000673
     2  C   -0.045362   0.010492   0.000932   0.000604  -0.000612   0.006317
     3  C    0.443009  -0.062132   0.014128  -0.036259   0.013081  -0.048017
     4  C   -0.058595   0.224089  -0.064497  -0.016748  -0.043032  -0.008473
     5  C    0.009328  -0.054712   0.009188  -0.017281  -0.003409  -0.001769
     6  O   -0.001142  -0.014064   0.000363   0.016154  -0.000327   0.001508
     7  N   -0.040466  -0.002533  -0.003386   0.008923  -0.000302   0.374031
     8  C   -0.027098   0.001303  -0.000063  -0.000083   0.000063  -0.023467
     9  C   -0.000584   0.000000  -0.000026   0.000002   0.000000  -0.000097
    10  C    0.000741   0.000020   0.000015  -0.000001   0.000000   0.000107
    11  C   -0.009363   0.000182  -0.000033   0.000003   0.000004   0.000956
    12  C    0.030007  -0.003191   0.000084   0.000920  -0.000034  -0.020330
    13  C   -0.001679  -0.000180  -0.000323  -0.000159  -0.000012   0.000740
    14  C    0.000900  -0.000072   0.000179  -0.000051  -0.000002   0.000606
    15  H   -0.000001   0.000000   0.000000   0.000000   0.000000   0.000001
    16  H   -0.000002   0.000000   0.000000   0.000000   0.000000  -0.000002
    17  H    0.000004   0.000000   0.000009  -0.000001   0.000000   0.000006
    18  F    0.000208  -0.000001   0.000000   0.000000   0.000000  -0.000051
    19  F    0.000050   0.000880   0.000273  -0.000169   0.000014   0.005354
    20  H    0.001185   0.000986   0.000003  -0.000003   0.000019  -0.000019
    21  H   -0.000266   0.000002   0.000000   0.000000  -0.000001   0.000024
    22  H    0.000521  -0.000358   0.000054   0.000006   0.000009  -0.000014
    23  H   -0.003684  -0.000194  -0.000048   0.000023   0.000016  -0.000781
    24  H    0.006831  -0.001250   0.000011  -0.000097  -0.000002  -0.000085
    25  H   -0.003292  -0.026118  -0.004080   0.007748  -0.008194   0.000584
    26  H   -0.000306  -0.010667  -0.000339  -0.001665   0.002771  -0.000107
    27  H   -0.000860   0.007985  -0.000213   0.001083   0.000041   0.000097
    28  H    0.001357  -0.002034  -0.000038  -0.000585  -0.000086  -0.003400
    29  H    0.001268   0.000036  -0.000003  -0.000044  -0.000001   0.003837
    30  H   -0.000910   0.000089  -0.000013   0.000071   0.000001  -0.005656
    31  H    0.535808  -0.015567   0.002540   0.000727  -0.000442  -0.001969
    32  C   -0.015567   5.185119   0.417683   0.415017   0.415033   0.006211
    33  H    0.002540   0.417683   0.519352  -0.028134  -0.019420  -0.001588
    34  H    0.000727   0.415017  -0.028134   0.514553  -0.022269  -0.001935
    35  H   -0.000442   0.415033  -0.019420  -0.022269   0.508866   0.000291
    36  H   -0.001969   0.006211  -0.001588  -0.001935   0.000291   0.460543
 Mulliken charges:
               1
     1  C   -0.458245
     2  C   -0.311402
     3  C   -0.028628
     4  C   -0.152148
     5  C   -0.105101
     6  O   -0.530087
     7  N   -0.480456
     8  C   -0.351528
     9  C   -0.120525
    10  C   -0.235667
    11  C    0.292886
    12  C   -0.065866
    13  C    0.294204
    14  C   -0.241315
    15  H    0.173757
    16  H    0.174464
    17  H    0.174570
    18  F   -0.217135
    19  F   -0.219482
    20  H    0.149808
    21  H    0.154865
    22  H    0.152360
    23  H    0.150323
    24  H    0.176189
    25  H    0.167268
    26  H    0.137250
    27  H    0.139004
    28  H    0.355829
    29  H    0.208038
    30  H    0.198280
    31  H    0.177992
    32  C   -0.491846
    33  H    0.157491
    34  H    0.159756
    35  H    0.157880
    36  H    0.257218
 Sum of Mulliken charges =   0.00000
 Mulliken charges with hydrogens summed into heavy atoms:
               1
     1  C   -0.001213
     2  C    0.015110
     3  C    0.149364
     4  C    0.015121
     5  C    0.171153
     6  O   -0.174258
     7  N   -0.223237
     8  C    0.054790
     9  C    0.053231
    10  C   -0.061203
    11  C    0.292886
    12  C   -0.065866
    13  C    0.294204
    14  C   -0.066746
    18  F   -0.217135
    19  F   -0.219482
    32  C   -0.016718
 Electronic spatial extent (au):  <R**2>=           4580.2635
 Charge=              0.0000 electrons
 Dipole moment (field-independent basis, Debye):
    X=             -4.2912    Y=              1.1214    Z=              2.9153  Tot=              5.3076
 Quadrupole moment (field-independent basis, Debye-Ang):
   XX=           -103.3255   YY=           -105.1263   ZZ=           -103.0247
   XY=              6.8761   XZ=              3.6296   YZ=             -2.2205
 Traceless Quadrupole moment (field-independent basis, Debye-Ang):
   XX=              0.5000   YY=             -1.3008   ZZ=              0.8008
   XY=              6.8761   XZ=              3.6296   YZ=             -2.2205
 Octapole moment (field-independent basis, Debye-Ang**2):
  XXX=           -103.9784  YYY=             -1.4726  ZZZ=            -16.2623  XYY=            -10.0551
  XXY=             19.5449  XXZ=             63.5581  XZZ=            -15.6766  YZZ=             -3.2818
  YYZ=              3.6307  XYZ=             -8.8727
 Hexadecapole moment (field-independent basis, Debye-Ang**3):
 XXXX=          -3951.1724 YYYY=          -1379.8096 ZZZZ=           -640.6732 XXXY=             53.8933
 XXXZ=             17.6198 YYYX=              2.2877 YYYZ=            -10.6708 ZZZX=             16.0435
 ZZZY=             -6.6057 XXYY=           -885.0710 XXZZ=           -799.7768 YYZZ=           -337.4901
 XXYZ=            -55.0109 YYXZ=            -18.0347 ZZXY=             12.3921
 N-N= 1.302094519081D+03 E-N=-4.559932766929D+03  KE= 8.321442178413D+02
 1\1\GINC-CPU-E-94\SP\RM062X\def2TZVP\C13H19F2N1O1\KE291\26-Jun-2019\0\
 \# m062x/def2tzvp int=ultrafine scrf=(solvent=chloroform)\\AT3_1ginp00
 4\\0,1\C,0,1.879676,2.717636,1.110429\C,0,1.414298,1.816545,-0.039667\
 C,0,1.290748,0.325974,0.329872\C,0,2.596465,-0.288882,0.907267\C,0,3.7
 8837,-0.188415,-0.064407\O,0,3.607476,-0.933611,-1.262743\N,0,0.883351
 ,-0.468441,-0.857368\C,0,-0.38205,-0.108927,-1.520198\C,0,-3.934709,-0
 .236499,0.988739\C,0,-3.522667,0.980538,0.446188\C,0,-2.383026,0.99882
 8,-0.350337\C,0,-1.621885,-0.134334,-0.640333\C,0,-2.086059,-1.320429,
 -0.066425\C,0,-3.214348,-1.406302,0.736445\H,0,-4.821024,-0.274965,1.6
 1307\H,0,-4.063762,1.902128,0.626746\H,0,-3.512266,-2.365027,1.144732\
 F,0,-1.989244,2.186001,-0.876445\F,0,-1.377759,-2.451953,-0.317507\H,0
 ,2.919304,2.529196,1.394278\H,0,1.805548,3.770931,0.822901\H,0,1.25933
 ,2.574924,2.002789\H,0,0.434006,2.173339,-0.369704\H,0,2.085337,1.9261
 55,-0.900535\H,0,2.85495,0.31288,1.78753\H,0,4.685126,-0.586098,0.4268
 13\H,0,3.995709,0.870493,-0.287686\H,0,2.68748,-0.742406,-1.540721\H,0
 ,-0.28965,0.876822,-1.975374\H,0,-0.517486,-0.824062,-2.337749\H,0,0.5
 25635,0.254644,1.124612\C,0,2.397998,-1.737047,1.386634\H,0,1.497492,-
 1.839142,2.002327\H,0,2.326304,-2.433485,0.54564\H,0,3.253108,-2.05773
 3,1.990478\H,0,0.79775,-1.439174,-0.566302\\Version=ES64L-G09RevD.01\S
 tate=1-A\HF=-836.4628547\RMSD=9.063e-09\Dipole=-1.6882728,0.4411929,1.
 1469689\Quadrupole=0.3717644,-0.9671087,0.5953443,5.112229,2.6985015,-
 1.6508548\PG=C01 [X(C13H19F2N1O1)]\\@


 IN THE FIGHT BETWEEN YOU AND THE WORLD, BACK THE WORLD

                                        -- FRANZ KAFKA
 Job cpu time:       0 days  1 hours 23 minutes 57.5 seconds.
 File lengths (MBytes):  RWF=    314 Int=      0 D2E=      0 Chk=     17 Scr=      1
 Normal termination of Gaussian 09 at Wed Jun 26 12:24:04 2019.
