 Entering Gaussian System, Link 0=/usr/local/Cluster-Apps/gaussian/g09/g09
 Initial command:
 /usr/local/Cluster-Apps/gaussian/g09/l1.exe "/home/ke291/rds/hpc-work/26Jun1158AT3NMR/Gau-19529.inp" -scrdir="/home/ke291/rds/hpc-work/26Jun1158AT3NMR/"
 Entering Link 1 = /usr/local/Cluster-Apps/gaussian/g09/l1.exe PID=     19541.
  
 Copyright (c) 1988,1990,1992,1993,1995,1998,2003,2009,2013,
            Gaussian, Inc.  All Rights Reserved.
  
 This is part of the Gaussian(R) 09 program.  It is based on
 the Gaussian(R) 03 system (copyright 2003, Gaussian, Inc.),
 the Gaussian(R) 98 system (copyright 1998, Gaussian, Inc.),
 the Gaussian(R) 94 system (copyright 1995, Gaussian, Inc.),
 the Gaussian 92(TM) system (copyright 1992, Gaussian, Inc.),
 the Gaussian 90(TM) system (copyright 1990, Gaussian, Inc.),
 the Gaussian 88(TM) system (copyright 1988, Gaussian, Inc.),
 the Gaussian 86(TM) system (copyright 1986, Carnegie Mellon
 University), and the Gaussian 82(TM) system (copyright 1983,
 Carnegie Mellon University). Gaussian is a federally registered
 trademark of Gaussian, Inc.
  
 This software contains proprietary and confidential information,
 including trade secrets, belonging to Gaussian, Inc.
  
 This software is provided under written license and may be
 used, copied, transmitted, or stored only in accord with that
 written license.
  
 The following legend is applicable only to US Government
 contracts under FAR:
  
                    RESTRICTED RIGHTS LEGEND
  
 Use, reproduction and disclosure by the US Government is
 subject to restrictions as set forth in subparagraphs (a)
 and (c) of the Commercial Computer Software - Restricted
 Rights clause in FAR 52.227-19.
  
 Gaussian, Inc.
 340 Quinnipiac St., Bldg. 40, Wallingford CT 06492
  
  
 ---------------------------------------------------------------
 Warning -- This program may not be used in any manner that
 competes with the business of Gaussian, Inc. or will provide
 assistance to any competitor of Gaussian, Inc.  The licensee
 of this program is prohibited from giving any competitor of
 Gaussian, Inc. access to this program.  By using this program,
 the user acknowledges that Gaussian, Inc. is engaged in the
 business of creating and licensing software in the field of
 computational chemistry and represents and warrants to the
 licensee that it is not a competitor of Gaussian, Inc. and that
 it will not use this program in any manner prohibited above.
 ---------------------------------------------------------------
  

 Cite this work as:
 Gaussian 09, Revision D.01,
 M. J. Frisch, G. W. Trucks, H. B. Schlegel, G. E. Scuseria, 
 M. A. Robb, J. R. Cheeseman, G. Scalmani, V. Barone, B. Mennucci, 
 G. A. Petersson, H. Nakatsuji, M. Caricato, X. Li, H. P. Hratchian, 
 A. F. Izmaylov, J. Bloino, G. Zheng, J. L. Sonnenberg, M. Hada, 
 M. Ehara, K. Toyota, R. Fukuda, J. Hasegawa, M. Ishida, T. Nakajima, 
 Y. Honda, O. Kitao, H. Nakai, T. Vreven, J. A. Montgomery, Jr., 
 J. E. Peralta, F. Ogliaro, M. Bearpark, J. J. Heyd, E. Brothers, 
 K. N. Kudin, V. N. Staroverov, T. Keith, R. Kobayashi, J. Normand, 
 K. Raghavachari, A. Rendell, J. C. Burant, S. S. Iyengar, J. Tomasi, 
 M. Cossi, N. Rega, J. M. Millam, M. Klene, J. E. Knox, J. B. Cross, 
 V. Bakken, C. Adamo, J. Jaramillo, R. Gomperts, R. E. Stratmann, 
 O. Yazyev, A. J. Austin, R. Cammi, C. Pomelli, J. W. Ochterski, 
 R. L. Martin, K. Morokuma, V. G. Zakrzewski, G. A. Voth, 
 P. Salvador, J. J. Dannenberg, S. Dapprich, A. D. Daniels, 
 O. Farkas, J. B. Foresman, J. V. Ortiz, J. Cioslowski, 
 and D. J. Fox, Gaussian, Inc., Wallingford CT, 2013.
 
 ******************************************
 Gaussian 09:  ES64L-G09RevD.01 24-Apr-2013
                26-Jun-2019 
 ******************************************
 %nprocshared=4
 Will use up to    4 processors via shared memory.
 %mem=6000MB
 %chk=AT3_2ginp006.chk
 --------------------------------------------------------
 # m062x/def2tzvp int=ultrafine scrf=(solvent=chloroform)
 --------------------------------------------------------
 1/38=1/1;
 2/12=2,17=6,18=5,40=1/2;
 3/5=44,7=101,11=2,16=1,25=1,30=1,70=2201,72=7,74=-55,75=-5/1,2,3;
 4//1;
 5/5=2,38=5,53=7/2;
 6/7=2,8=2,9=2,10=2,28=1/1;
 99/5=1,9=1/99;
 ------------
 AT3_2ginp006
 ------------
 Symbolic Z-matrix:
 Charge =  0 Multiplicity = 1
 C                    -3.63316  -2.16635  -1.30106 
 C                    -2.29058  -1.89951  -0.61 
 C                    -1.89384  -0.40898  -0.50498 
 C                    -2.88676   0.44239   0.32591 
 C                    -2.56044   1.93193   0.18567 
 O                    -3.63905   2.68517   0.74606 
 N                    -0.52156  -0.20586   0.00186 
 C                     0.54313  -0.53676  -0.95345 
 C                     4.4443    0.38049   0.71342 
 C                     3.7291   -0.72427   1.18003 
 C                     2.4858   -0.98346   0.61996 
 C                     1.90461  -0.20746  -0.38431 
 C                     2.66272   0.88629  -0.80471 
 C                     3.91524   1.19698  -0.28631 
 H                     5.41906   0.60636   1.13277 
 H                     4.11465  -1.37312   1.95782 
 H                     4.45054   2.06008  -0.66481 
 F                     1.77675  -2.0493    1.07254 
 F                     2.15661   1.68012  -1.77713 
 H                    -3.79729  -3.24123  -1.42867 
 H                    -4.47799  -1.77236  -0.72792 
 H                    -3.66388  -1.70696  -2.29584 
 H                    -2.29592  -2.34462   0.39351 
 H                    -1.50305  -2.42186  -1.16638 
 H                    -3.88169   0.30651  -0.11833 
 H                    -2.428     2.18066  -0.87977 
 H                    -1.61283   2.15188   0.69382 
 H                    -3.35545   3.60682   0.79754 
 H                     0.54665  -1.59414  -1.26489 
 H                     0.38724   0.06055  -1.85524 
 H                    -1.90187   0.00411  -1.52466 
 C                    -2.96707   0.03787   1.80548 
 H                    -3.32191  -0.98934   1.93325 
 H                    -1.98925   0.12392   2.29347 
 H                    -3.65753   0.70081   2.33244 
 H                    -0.38657  -0.7708    0.83783 
 
                          Input orientation:                          
 ---------------------------------------------------------------------
 Center     Atomic      Atomic             Coordinates (Angstroms)
 Number     Number       Type             X           Y           Z
 ---------------------------------------------------------------------
      1          6           0       -3.633157   -2.166349   -1.301056
      2          6           0       -2.290581   -1.899508   -0.610000
      3          6           0       -1.893842   -0.408983   -0.504976
      4          6           0       -2.886763    0.442394    0.325910
      5          6           0       -2.560443    1.931926    0.185666
      6          8           0       -3.639054    2.685174    0.746055
      7          7           0       -0.521557   -0.205859    0.001855
      8          6           0        0.543131   -0.536762   -0.953453
      9          6           0        4.444303    0.380494    0.713421
     10          6           0        3.729101   -0.724268    1.180029
     11          6           0        2.485796   -0.983461    0.619958
     12          6           0        1.904606   -0.207463   -0.384310
     13          6           0        2.662717    0.886287   -0.804705
     14          6           0        3.915237    1.196981   -0.286308
     15          1           0        5.419058    0.606357    1.132769
     16          1           0        4.114648   -1.373124    1.957820
     17          1           0        4.450543    2.060081   -0.664810
     18          9           0        1.776749   -2.049304    1.072536
     19          9           0        2.156608    1.680124   -1.777128
     20          1           0       -3.797291   -3.241226   -1.428665
     21          1           0       -4.477995   -1.772360   -0.727923
     22          1           0       -3.663881   -1.706955   -2.295835
     23          1           0       -2.295921   -2.344618    0.393513
     24          1           0       -1.503050   -2.421861   -1.166383
     25          1           0       -3.881688    0.306508   -0.118327
     26          1           0       -2.427996    2.180658   -0.879766
     27          1           0       -1.612826    2.151877    0.693816
     28          1           0       -3.355451    3.606817    0.797542
     29          1           0        0.546650   -1.594135   -1.264885
     30          1           0        0.387239    0.060547   -1.855241
     31          1           0       -1.901868    0.004110   -1.524656
     32          6           0       -2.967070    0.037873    1.805483
     33          1           0       -3.321914   -0.989340    1.933250
     34          1           0       -1.989254    0.123916    2.293467
     35          1           0       -3.657526    0.700811    2.332438
     36          1           0       -0.386565   -0.770796    0.837832
 ---------------------------------------------------------------------
                    Distance matrix (angstroms):
                    1          2          3          4          5
     1  C    0.000000
     2  C    1.533386   0.000000
     3  C    2.597556   1.545994   0.000000
     4  C    3.163805   2.591499   1.549550   0.000000
     5  C    4.489645   3.922473   2.530059   1.531293   0.000000
     6  O    5.265736   4.967552   3.766252   2.402608   1.429972
     7  N    3.901686   2.524333   1.476924   2.473751   2.959893
     8  C    4.496417   3.163062   2.481189   3.789418   4.126037
     9  C    8.705739   7.232463   6.502296   7.341561   7.193882
    10  C    7.901786   6.389207   5.878447   6.772022   6.899456
    11  C    6.521588   5.016544   4.558150   5.566320   5.844024
    12  C    5.945122   4.529188   3.805703   4.887120   4.983826
    13  C    7.014484   5.686275   4.746556   5.680850   5.418080
    14  C    8.325861   6.942996   6.030948   6.871056   6.534320
    15  H    9.775173   8.291872   7.562515   8.346530   8.144113
    16  H    8.442628   6.920819   6.564822   7.414782   7.656417
    17  H    9.144054   7.818190   6.809776   7.578555   7.063544
    18  F    5.908868   4.404150   4.318847   5.339883   5.953819
    19  F    6.967308   5.826958   4.731689   5.602708   5.115324
    20  H    1.094799   2.177291   3.535240   4.180508   5.558539
    21  H    1.094285   2.194277   2.930247   2.923648   4.270057
    22  H    1.096162   2.182904   2.832833   3.478097   4.540581
    23  H    2.165997   1.097811   2.171551   2.849754   4.289755
    24  H    2.149600   1.096640   2.154497   3.513624   4.679912
    25  H    2.752388   2.764032   2.147779   1.098038   2.116621
    26  H    4.530604   4.091383   2.670586   2.164644   1.102069
    27  H    5.168010   4.309641   2.841492   2.163470   1.097530
    28  H    6.149039   5.782278   4.467606   3.233524   1.952355
    29  H    4.218948   2.927799   2.817454   4.297255   4.918458
    30  H    4.629230   3.544455   2.692026   3.952508   4.044279
    31  H    2.785364   2.147430   1.100208   2.141660   2.659962
    32  C    3.866892   3.169486   2.586449   1.535976   2.525191
    33  H    3.455858   2.891397   2.884640   2.196078   3.488221
    34  H    4.568186   3.551783   2.850328   2.185917   2.835134
    35  H    4.628550   4.157901   3.520389   2.164950   2.707003
    36  H    4.130711   2.644898   2.050835   2.825754   3.529274
                    6          7          8          9         10
     6  O    0.000000
     7  N    4.316329   0.000000
     8  C    5.546158   1.468220   0.000000
     9  C    8.405550   5.050733   4.340388   0.000000
    10  C    8.130334   4.441276   3.838920   1.396329   0.000000
    11  C    7.140628   3.167158   2.539510   2.388485   1.388045
    12  C    6.354309   2.456704   1.511944   2.828563   2.458257
    13  C    6.734476   3.461636   2.557311   2.394699   2.769518
    14  C    7.768385   4.662203   3.849941   1.394998   2.424044
    15  H    9.301635   6.101604   5.425284   1.084903   2.151453
    16  H    8.835047   5.165530   4.683027   2.175403   1.083799
    17  H    8.235464   5.504608   4.700508   2.172688   3.417091
    18  F    7.200888   3.134782   2.813224   3.626117   2.361981
    19  F    6.400490   3.727503   2.862924   3.622902   4.122937
    20  H    6.314797   4.689379   5.136070   9.253608   8.353858
    21  H    4.769281   4.317395   5.175835   9.290837   8.490889
    22  H    5.342706   4.172154   4.568401   8.896950   8.228213
    23  H    5.217959   2.806431   3.625311   7.277307   6.288484
    24  H    5.856769   2.690497   2.790304   6.837972   5.980207
    25  H    2.542455   3.401095   4.581218   8.367760   7.789245
    26  H    2.089137   3.179187   4.027083   7.280613   7.112749
    27  H    2.095885   2.688605   3.819742   6.310863   6.086444
    28  H    0.965664   4.816697   5.952661   8.441114   8.312369
    29  H    6.314783   2.161714   1.102288   4.796306   4.106369
    30  H    5.465020   2.084631   1.092841   4.812500   4.582231
    31  H    3.919445   2.068715   2.568431   6.739773   6.289171
    32  C    2.929531   3.048444   4.501494   7.499229   6.768364
    33  H    3.874540   3.490864   4.845251   7.979884   7.096085
    34  H    3.417070   2.741235   4.170367   6.629708   5.887168
    35  H    2.540600   4.010981   5.474869   8.268219   7.610595
    36  H    4.746666   1.017956   2.031701   4.967719   4.130130
                   11         12         13         14         15
    11  C    0.000000
    12  C    1.395890   0.000000
    13  C    2.357313   1.395619   0.000000
    14  C    2.760244   2.454527   1.390709   0.000000
    15  H    3.375577   3.913465   3.380766   2.150371   0.000000
    16  H    2.143565   3.424708   3.852867   3.417794   2.510088
    17  H    3.843697   3.420852   2.143288   1.083862   2.506517
    18  F    1.357791   2.351835   3.595368   4.118004   4.508057
    19  F    3.598482   2.359329   1.353488   2.355578   4.501562
    20  H    6.983662   6.542631   7.691384   8.971385  10.310477
    21  H    7.136773   6.580621   7.619978   8.913942  10.347566
    22  H    6.844254   6.075397   6.998158   8.361464   9.980307
    23  H    4.976831   4.776700   6.038424   7.182170   8.293109
    24  H    4.601185   4.138516   5.331817   6.574830   7.897581
    25  H    6.538649   5.815162   6.605793   7.849408   9.389304
    26  H    6.033753   4.971925   5.253227   6.446427   8.252574
    27  H    5.160862   4.370488   4.703993   5.694906   7.213093
    28  H    7.431175   6.604067   6.796089   7.735951   9.279394
    29  H    2.772335   2.131271   3.292719   4.482780   5.859289
    30  H    3.408886   2.130228   2.638801   4.024898   5.877526
    31  H    4.982596   3.979246   4.704466   6.065901   7.811566
    32  C    5.672948   5.346832   6.263177   7.285964   8.432251
    33  H    5.954348   5.770522   6.843258   7.879263   8.921413
    34  H    4.904385   4.737346   5.640985   6.532206   7.514190
    35  H    6.596193   6.256436   7.058437   8.028123   9.156009
    36  H    2.888452   2.657149   3.839528   4.862236   5.974010
                   16         17         18         19         20
    16  H    0.000000
    17  H    4.333349   0.000000
    18  F    2.589733   5.201403   0.000000
    19  F    5.206350   2.577549   4.708876   0.000000
    20  H    8.806638   9.834333   6.224677   7.732401   0.000000
    21  H    9.011444   9.716500   6.514612   7.552379   1.764076
    22  H    8.871896   9.093662   6.408087   6.754217   1.767419
    23  H    6.669801   8.126266   4.139435   6.382417   2.525540
    24  H    6.512989   7.468912   3.988563   5.531039   2.450243
    25  H    8.430477   8.532276   6.243870   6.410886   3.782925
    26  H    7.967901   6.882953   6.275663   4.698339   5.618993
    27  H    6.843047   6.214397   5.411337   4.531749   6.193737
    28  H    9.052538   8.091008   7.642434   6.381525   7.214355
    29  H    4.813033   5.380870   2.680272   3.684444   4.648608
    30  H    5.521632   4.682489   3.867052   2.399958   5.347332
    31  H    7.086810   6.731974   4.949155   4.398181   3.759528
    32  C    7.222524   8.075435   5.234247   6.464067   4.679901
    33  H    7.446499   8.744139   5.278325   7.134924   4.074242
    34  H    6.293759   7.346504   4.516230   6.014956   5.333615
    35  H    8.052840   8.750537   6.219472   7.186915   5.450237
    36  H    4.677402   5.802535   2.523806   4.394628   4.782581
                   21         22         23         24         25
    21  H    0.000000
    22  H    1.767882   0.000000
    23  H    2.519235   3.083913   0.000000
    24  H    3.076426   2.540855   1.751538   0.000000
    25  H    2.246972   2.973721   3.131311   3.768334   0.000000
    26  H    4.455547   4.318124   4.702851   4.703281   2.491074
    27  H    5.062625   5.294849   4.557989   4.938772   3.035243
    28  H    5.702867   6.156321   6.058500   6.605554   3.465225
    29  H    5.056397   4.336376   3.375458   2.212714   4.953505
    30  H    5.319859   4.441819   4.247477   3.195320   4.615312
    31  H    3.229096   2.574325   3.057969   2.484502   2.447221
    32  C    3.460922   4.511184   2.849625   4.126213   2.147030
    33  H    3.005243   4.303147   2.293519   3.868864   2.490289
    34  H    4.349539   5.217102   3.130101   4.322955   3.071058
    35  H    4.019397   5.217115   3.858502   5.160872   2.492383
    36  H    4.493831   4.630018   2.513956   2.826558   3.780305
                   26         27         28         29         30
    26  H    0.000000
    27  H    1.772425   0.000000
    28  H    2.389030   2.272521   0.000000
    29  H    4.821400   4.746836   6.821283   0.000000
    30  H    3.656770   3.856373   5.798363   1.764059   0.000000
    31  H    2.330248   3.101301   4.526036   2.935491   2.313543
    32  C    3.477455   2.745686   3.728826   4.943363   4.965159
    33  H    4.331401   3.784762   4.734513   5.055653   5.404881
    34  H    3.806848   2.610212   4.029254   4.695144   4.781581
    35  H    3.744322   2.995242   3.300307   5.990209   5.857194
    36  H    3.978525   3.172771   5.289556   2.443398   2.922763
                   31         32         33         34         35
    31  H    0.000000
    32  C    3.496516   0.000000
    33  H    3.867892   1.094260   0.000000
    34  H    3.821002   1.096201   1.773437   0.000000
    35  H    4.294753   1.092656   1.768784   1.765632   0.000000
    36  H    2.911696   2.872159   3.140697   2.342647   3.885699
                   36
    36  H    0.000000
 Stoichiometry    C13H19F2NO
 Framework group  C1[X(C13H19F2NO)]
 Deg. of freedom   102
 Full point group                 C1      NOp   1
 Largest Abelian subgroup         C1      NOp   1
 Largest concise Abelian subgroup C1      NOp   1
                         Standard orientation:                         
 ---------------------------------------------------------------------
 Center     Atomic      Atomic             Coordinates (Angstroms)
 Number     Number       Type             X           Y           Z
 ---------------------------------------------------------------------
      1          6           0       -3.633157   -2.166349   -1.301056
      2          6           0       -2.290581   -1.899508   -0.610000
      3          6           0       -1.893842   -0.408983   -0.504976
      4          6           0       -2.886763    0.442394    0.325910
      5          6           0       -2.560443    1.931926    0.185666
      6          8           0       -3.639054    2.685174    0.746055
      7          7           0       -0.521557   -0.205859    0.001855
      8          6           0        0.543131   -0.536762   -0.953453
      9          6           0        4.444303    0.380494    0.713421
     10          6           0        3.729101   -0.724268    1.180029
     11          6           0        2.485796   -0.983461    0.619958
     12          6           0        1.904606   -0.207463   -0.384310
     13          6           0        2.662717    0.886287   -0.804705
     14          6           0        3.915237    1.196981   -0.286308
     15          1           0        5.419058    0.606357    1.132769
     16          1           0        4.114648   -1.373124    1.957820
     17          1           0        4.450543    2.060081   -0.664810
     18          9           0        1.776749   -2.049304    1.072536
     19          9           0        2.156608    1.680124   -1.777128
     20          1           0       -3.797291   -3.241226   -1.428665
     21          1           0       -4.477995   -1.772360   -0.727923
     22          1           0       -3.663881   -1.706955   -2.295835
     23          1           0       -2.295921   -2.344618    0.393513
     24          1           0       -1.503050   -2.421861   -1.166383
     25          1           0       -3.881688    0.306508   -0.118327
     26          1           0       -2.427996    2.180658   -0.879766
     27          1           0       -1.612826    2.151877    0.693816
     28          1           0       -3.355451    3.606817    0.797542
     29          1           0        0.546650   -1.594135   -1.264885
     30          1           0        0.387239    0.060547   -1.855241
     31          1           0       -1.901868    0.004110   -1.524656
     32          6           0       -2.967070    0.037873    1.805483
     33          1           0       -3.321914   -0.989340    1.933250
     34          1           0       -1.989254    0.123916    2.293467
     35          1           0       -3.657526    0.700811    2.332438
     36          1           0       -0.386565   -0.770796    0.837832
 ---------------------------------------------------------------------
 Rotational constants (GHZ):      0.6668940      0.2360178      0.2100746
 Standard basis: def2TZVP (5D, 7F)
 There are   726 symmetry adapted cartesian basis functions of A   symmetry.
 There are   641 symmetry adapted basis functions of A   symmetry.
   641 basis functions,  1019 primitive gaussians,   726 cartesian basis functions
    65 alpha electrons       65 beta electrons
       nuclear repulsion energy      1250.0688181440 Hartrees.
 NAtoms=   36 NActive=   36 NUniq=   36 SFac= 1.00D+00 NAtFMM=   60 NAOKFM=F Big=F
 Integral buffers will be    131072 words long.
 Raffenetti 2 integral format.
 Two-electron integral symmetry is turned on.
 ------------------------------------------------------------------------------
 Polarizable Continuum Model (PCM)
 =================================
 Model                : PCM (using non-symmetric T matrix).
 Atomic radii         : UFF (Universal Force Field).
 Polarization charges : Total charges.
 Charge compensation  : None.
 Solution method      : On-the-fly selection.
 Cavity type          : Scaled VdW (van der Waals Surface) (Alpha=1.100).
 Cavity algorithm     : GePol (No added spheres)
                        Default sphere list used, NSphG=   36.
                        Lebedev-Laikov grids with approx.  5.0 points / Ang**2.
                        Smoothing algorithm: Karplus/York (Gamma=1.0000).
                        Polarization charges: spherical gaussians, with
                                              point-specific exponents (IZeta= 3).
                        Self-potential: point-specific (ISelfS= 7).
                        Self-field    : sphere-specific E.n sum rule (ISelfD= 2).
 Solvent              : Chloroform, Eps=   4.711300 Eps(inf)=   2.090627
 ------------------------------------------------------------------------------
 One-electron integrals computed using PRISM.
   1 Symmetry operations used in ECPInt.
 ECPInt:  NShTT=   34716 NPrTT=  103716 LenC2=   30663 LenP2D=   66325.
 LDataN:  DoStor=T MaxTD1= 6 Len=  172
 NBasis=   641 RedAO= T EigKep=  1.17D-05  NBF=   641
 NBsUse=   641 1.00D-06 EigRej= -1.00D+00 NBFU=   641
 ExpMin= 9.52D-02 ExpMax= 3.55D+04 ExpMxC= 1.21D+03 IAcc=3 IRadAn=         5 AccDes= 0.00D+00
 Harris functional with IExCor= 1009 and IRadAn=       5 diagonalized for initial guess.
 HarFok:  IExCor= 1009 AccDes= 0.00D+00 IRadAn=         5 IDoV= 1 UseB2=F ITyADJ=14
 ICtDFT=  3500011 ScaDFX=  1.000000  1.000000  1.000000  1.000000
 FoFCou: FMM=F IPFlag=           0 FMFlag=      100000 FMFlg1=           0
         NFxFlg=           0 DoJE=T BraDBF=F KetDBF=T FulRan=T
         wScrn=  0.000000 ICntrl=     500 IOpCl=  0 I1Cent=   200000004 NGrid=           0
         NMat0=    1 NMatS0=      1 NMatT0=    0 NMatD0=    1 NMtDS0=    0 NMtDT0=    0
 Petite list used in FoFCou.
 Requested convergence on RMS density matrix=1.00D-08 within 128 cycles.
 Requested convergence on MAX density matrix=1.00D-06.
 Requested convergence on             energy=1.00D-06.
 No special actions if energy rises.
 Inv3:  Mode=1 IEnd=    19400547.
 Iteration    1 A*A^-1 deviation from unit magnitude is 4.44D-15 for   2536.
 Iteration    1 A*A^-1 deviation from orthogonality  is 4.06D-15 for   1627    739.
 Iteration    1 A^-1*A deviation from unit magnitude is 4.77D-15 for   2536.
 Iteration    1 A^-1*A deviation from orthogonality  is 3.70D-12 for   2216   1869.
 Error on total polarization charges =  0.01237
 SCF Done:  E(RM062X) =  -836.455540353     A.U. after   12 cycles
            NFock= 12  Conv=0.76D-08     -V/T= 2.0052

 **********************************************************************

            Population analysis using the SCF density.

 **********************************************************************

 Orbital symmetries:
       Occupied  (A) (A) (A) (A) (A) (A) (A) (A) (A) (A) (A) (A)
                 (A) (A) (A) (A) (A) (A) (A) (A) (A) (A) (A) (A)
                 (A) (A) (A) (A) (A) (A) (A) (A) (A) (A) (A) (A)
                 (A) (A) (A) (A) (A) (A) (A) (A) (A) (A) (A) (A)
                 (A) (A) (A) (A) (A) (A) (A) (A) (A) (A) (A) (A)
                 (A) (A) (A) (A) (A)
       Virtual   (A) (A) (A) (A) (A) (A) (A) (A) (A) (A) (A) (A)
                 (A) (A) (A) (A) (A) (A) (A) (A) (A) (A) (A) (A)
                 (A) (A) (A) (A) (A) (A) (A) (A) (A) (A) (A) (A)
                 (A) (A) (A) (A) (A) (A) (A) (A) (A) (A) (A) (A)
                 (A) (A) (A) (A) (A) (A) (A) (A) (A) (A) (A) (A)
                 (A) (A) (A) (A) (A) (A) (A) (A) (A) (A) (A) (A)
                 (A) (A) (A) (A) (A) (A) (A) (A) (A) (A) (A) (A)
                 (A) (A) (A) (A) (A) (A) (A) (A) (A) (A) (A) (A)
                 (A) (A) (A) (A) (A) (A) (A) (A) (A) (A) (A) (A)
                 (A) (A) (A) (A) (A) (A) (A) (A) (A) (A) (A) (A)
                 (A) (A) (A) (A) (A) (A) (A) (A) (A) (A) (A) (A)
                 (A) (A) (A) (A) (A) (A) (A) (A) (A) (A) (A) (A)
                 (A) (A) (A) (A) (A) (A) (A) (A) (A) (A) (A) (A)
                 (A) (A) (A) (A) (A) (A) (A) (A) (A) (A) (A) (A)
                 (A) (A) (A) (A) (A) (A) (A) (A) (A) (A) (A) (A)
                 (A) (A) (A) (A) (A) (A) (A) (A) (A) (A) (A) (A)
                 (A) (A) (A) (A) (A) (A) (A) (A) (A) (A) (A) (A)
                 (A) (A) (A) (A) (A) (A) (A) (A) (A) (A) (A) (A)
                 (A) (A) (A) (A) (A) (A) (A) (A) (A) (A) (A) (A)
                 (A) (A) (A) (A) (A) (A) (A) (A) (A) (A) (A) (A)
                 (A) (A) (A) (A) (A) (A) (A) (A) (A) (A) (A) (A)
                 (A) (A) (A) (A) (A) (A) (A) (A) (A) (A) (A) (A)
                 (A) (A) (A) (A) (A) (A) (A) (A) (A) (A) (A) (A)
                 (A) (A) (A) (A) (A) (A) (A) (A) (A) (A) (A) (A)
                 (A) (A) (A) (A) (A) (A) (A) (A) (A) (A) (A) (A)
                 (A) (A) (A) (A) (A) (A) (A) (A) (A) (A) (A) (A)
                 (A) (A) (A) (A) (A) (A) (A) (A) (A) (A) (A) (A)
                 (A) (A) (A) (A) (A) (A) (A) (A) (A) (A) (A) (A)
                 (A) (A) (A) (A) (A) (A) (A) (A) (A) (A) (A) (A)
                 (A) (A) (A) (A) (A) (A) (A) (A) (A) (A) (A) (A)
                 (A) (A) (A) (A) (A) (A) (A) (A) (A) (A) (A) (A)
                 (A) (A) (A) (A) (A) (A) (A) (A) (A) (A) (A) (A)
                 (A) (A) (A) (A) (A) (A) (A) (A) (A) (A) (A) (A)
                 (A) (A) (A) (A) (A) (A) (A) (A) (A) (A) (A) (A)
                 (A) (A) (A) (A) (A) (A) (A) (A) (A) (A) (A) (A)
                 (A) (A) (A) (A) (A) (A) (A) (A) (A) (A) (A) (A)
                 (A) (A) (A) (A) (A) (A) (A) (A) (A) (A) (A) (A)
                 (A) (A) (A) (A) (A) (A) (A) (A) (A) (A) (A) (A)
                 (A) (A) (A) (A) (A) (A) (A) (A) (A) (A) (A) (A)
                 (A) (A) (A) (A) (A) (A) (A) (A) (A) (A) (A) (A)
                 (A) (A) (A) (A) (A) (A) (A) (A) (A) (A) (A) (A)
                 (A) (A) (A) (A) (A) (A) (A) (A) (A) (A) (A) (A)
                 (A) (A) (A) (A) (A) (A) (A) (A) (A) (A) (A) (A)
                 (A) (A) (A) (A) (A) (A) (A) (A) (A) (A) (A) (A)
                 (A) (A) (A) (A) (A) (A) (A) (A) (A) (A) (A) (A)
                 (A) (A) (A) (A) (A) (A) (A) (A) (A) (A) (A) (A)
                 (A) (A) (A) (A) (A) (A) (A) (A) (A) (A) (A) (A)
                 (A) (A) (A) (A) (A) (A) (A) (A) (A) (A) (A) (A)
 The electronic state is 1-A.
 Alpha  occ. eigenvalues --  -25.26959 -25.26690 -19.62138 -14.73631 -10.64260
 Alpha  occ. eigenvalues --  -10.64229 -10.57610 -10.57289 -10.56931 -10.56579
 Alpha  occ. eigenvalues --  -10.56550 -10.55769 -10.55719 -10.53451 -10.53031
 Alpha  occ. eigenvalues --  -10.52388 -10.51774  -1.38139  -1.38000  -1.13768
 Alpha  occ. eigenvalues --   -1.02159  -0.98232  -0.90528  -0.87112  -0.86040
 Alpha  occ. eigenvalues --   -0.85262  -0.78450  -0.76541  -0.73973  -0.72698
 Alpha  occ. eigenvalues --   -0.70420  -0.68522  -0.65363  -0.63713  -0.61939
 Alpha  occ. eigenvalues --   -0.59169  -0.58634  -0.57402  -0.57216  -0.57179
 Alpha  occ. eigenvalues --   -0.54821  -0.54529  -0.54277  -0.52412  -0.51826
 Alpha  occ. eigenvalues --   -0.50727  -0.48067  -0.47740  -0.47471  -0.46790
 Alpha  occ. eigenvalues --   -0.45603  -0.44654  -0.44109  -0.43893  -0.42978
 Alpha  occ. eigenvalues --   -0.42277  -0.41597  -0.40826  -0.38593  -0.37899
 Alpha  occ. eigenvalues --   -0.37217  -0.34704  -0.31780  -0.31291  -0.29298
 Alpha virt. eigenvalues --    0.00508   0.01834   0.06265   0.07282   0.07698
 Alpha virt. eigenvalues --    0.08205   0.09071   0.10064   0.11699   0.12035
 Alpha virt. eigenvalues --    0.12546   0.12828   0.13090   0.13903   0.14590
 Alpha virt. eigenvalues --    0.14652   0.15443   0.15547   0.17321   0.17353
 Alpha virt. eigenvalues --    0.17838   0.17977   0.18251   0.19191   0.19797
 Alpha virt. eigenvalues --    0.20650   0.21259   0.21896   0.22052   0.22439
 Alpha virt. eigenvalues --    0.23023   0.23674   0.24321   0.24646   0.24756
 Alpha virt. eigenvalues --    0.25722   0.26797   0.27450   0.28093   0.28777
 Alpha virt. eigenvalues --    0.29405   0.29582   0.30221   0.30802   0.31232
 Alpha virt. eigenvalues --    0.31935   0.33318   0.33667   0.34386   0.35162
 Alpha virt. eigenvalues --    0.35952   0.36959   0.37324   0.37659   0.37876
 Alpha virt. eigenvalues --    0.38688   0.39055   0.39191   0.39630   0.40438
 Alpha virt. eigenvalues --    0.40825   0.41570   0.42002   0.42433   0.42726
 Alpha virt. eigenvalues --    0.43504   0.44087   0.44783   0.44970   0.45488
 Alpha virt. eigenvalues --    0.46241   0.46786   0.47043   0.47273   0.47987
 Alpha virt. eigenvalues --    0.48185   0.48701   0.48795   0.49507   0.50222
 Alpha virt. eigenvalues --    0.50887   0.51216   0.51390   0.51977   0.53135
 Alpha virt. eigenvalues --    0.53297   0.53659   0.54043   0.54574   0.55272
 Alpha virt. eigenvalues --    0.55472   0.56646   0.57022   0.57241   0.57777
 Alpha virt. eigenvalues --    0.58141   0.59318   0.60083   0.61318   0.62084
 Alpha virt. eigenvalues --    0.63191   0.63997   0.64862   0.65235   0.65735
 Alpha virt. eigenvalues --    0.66828   0.68631   0.69211   0.69911   0.70552
 Alpha virt. eigenvalues --    0.71145   0.72149   0.72849   0.73927   0.76107
 Alpha virt. eigenvalues --    0.76791   0.77221   0.77986   0.78439   0.79794
 Alpha virt. eigenvalues --    0.79976   0.80177   0.81779   0.81989   0.83534
 Alpha virt. eigenvalues --    0.83794   0.86425   0.87151   0.88116   0.89720
 Alpha virt. eigenvalues --    0.89957   0.90382   0.90689   0.91713   0.92063
 Alpha virt. eigenvalues --    0.93181   0.93767   0.94532   0.96105   0.96908
 Alpha virt. eigenvalues --    0.98359   0.98904   1.00312   1.00653   1.01426
 Alpha virt. eigenvalues --    1.01928   1.03470   1.04533   1.05905   1.06158
 Alpha virt. eigenvalues --    1.07687   1.08859   1.09477   1.10250   1.10783
 Alpha virt. eigenvalues --    1.12131   1.12774   1.13882   1.15052   1.15805
 Alpha virt. eigenvalues --    1.16591   1.16855   1.18338   1.19568   1.20467
 Alpha virt. eigenvalues --    1.21992   1.23414   1.23811   1.24386   1.24841
 Alpha virt. eigenvalues --    1.25696   1.26493   1.28796   1.30287   1.31117
 Alpha virt. eigenvalues --    1.31898   1.32463   1.33063   1.35202   1.36270
 Alpha virt. eigenvalues --    1.36685   1.37948   1.39450   1.39709   1.39862
 Alpha virt. eigenvalues --    1.43477   1.44345   1.45206   1.46673   1.49131
 Alpha virt. eigenvalues --    1.49608   1.51648   1.51802   1.52592   1.53784
 Alpha virt. eigenvalues --    1.54560   1.56497   1.57278   1.57834   1.58541
 Alpha virt. eigenvalues --    1.59409   1.60258   1.61428   1.61600   1.62307
 Alpha virt. eigenvalues --    1.63157   1.63778   1.64337   1.65408   1.65718
 Alpha virt. eigenvalues --    1.66077   1.67231   1.67654   1.67967   1.69334
 Alpha virt. eigenvalues --    1.69867   1.70434   1.70775   1.71328   1.72992
 Alpha virt. eigenvalues --    1.73493   1.74599   1.76217   1.77213   1.78716
 Alpha virt. eigenvalues --    1.80045   1.80257   1.82059   1.84256   1.85563
 Alpha virt. eigenvalues --    1.87076   1.87754   1.89239   1.90364   1.91883
 Alpha virt. eigenvalues --    1.92533   1.93163   1.93287   1.94599   1.96761
 Alpha virt. eigenvalues --    1.97627   1.98602   1.99299   2.00720   2.02155
 Alpha virt. eigenvalues --    2.02366   2.02851   2.04302   2.06321   2.07609
 Alpha virt. eigenvalues --    2.08757   2.09354   2.10165   2.10594   2.11634
 Alpha virt. eigenvalues --    2.12986   2.13747   2.14459   2.15898   2.16350
 Alpha virt. eigenvalues --    2.17444   2.18258   2.19562   2.20193   2.21312
 Alpha virt. eigenvalues --    2.21844   2.23369   2.24345   2.25931   2.26750
 Alpha virt. eigenvalues --    2.28313   2.29099   2.29606   2.30235   2.30497
 Alpha virt. eigenvalues --    2.31723   2.32005   2.32743   2.34157   2.35846
 Alpha virt. eigenvalues --    2.37449   2.38224   2.39435   2.40264   2.41305
 Alpha virt. eigenvalues --    2.41870   2.42930   2.44220   2.44790   2.46287
 Alpha virt. eigenvalues --    2.46905   2.47790   2.48622   2.50274   2.50832
 Alpha virt. eigenvalues --    2.51850   2.53346   2.54496   2.55264   2.56177
 Alpha virt. eigenvalues --    2.57475   2.58171   2.58703   2.58906   2.59673
 Alpha virt. eigenvalues --    2.60359   2.61208   2.61619   2.62534   2.62770
 Alpha virt. eigenvalues --    2.63916   2.64586   2.65190   2.65905   2.66822
 Alpha virt. eigenvalues --    2.67161   2.68367   2.69597   2.69982   2.70756
 Alpha virt. eigenvalues --    2.71254   2.72544   2.73201   2.74083   2.74801
 Alpha virt. eigenvalues --    2.75988   2.76388   2.78456   2.78738   2.79252
 Alpha virt. eigenvalues --    2.80122   2.81165   2.81979   2.82513   2.84081
 Alpha virt. eigenvalues --    2.85434   2.85897   2.87401   2.88295   2.88753
 Alpha virt. eigenvalues --    2.89539   2.90746   2.91374   2.92041   2.92126
 Alpha virt. eigenvalues --    2.93049   2.95381   2.95577   2.96700   2.97595
 Alpha virt. eigenvalues --    2.99734   3.00117   3.01109   3.02606   3.02749
 Alpha virt. eigenvalues --    3.04060   3.05870   3.06330   3.07350   3.08136
 Alpha virt. eigenvalues --    3.09355   3.09986   3.10629   3.11393   3.12338
 Alpha virt. eigenvalues --    3.13447   3.13840   3.15198   3.15721   3.16782
 Alpha virt. eigenvalues --    3.17062   3.17866   3.19653   3.20507   3.21165
 Alpha virt. eigenvalues --    3.21899   3.22495   3.24042   3.24229   3.24619
 Alpha virt. eigenvalues --    3.25190   3.26149   3.26956   3.28129   3.29414
 Alpha virt. eigenvalues --    3.30274   3.31551   3.31695   3.31925   3.33363
 Alpha virt. eigenvalues --    3.34521   3.35437   3.35502   3.37804   3.39186
 Alpha virt. eigenvalues --    3.39795   3.40271   3.41037   3.41363   3.42133
 Alpha virt. eigenvalues --    3.43092   3.44875   3.45041   3.45778   3.46714
 Alpha virt. eigenvalues --    3.47238   3.48527   3.49857   3.50627   3.51543
 Alpha virt. eigenvalues --    3.52269   3.53599   3.54307   3.55458   3.56342
 Alpha virt. eigenvalues --    3.56471   3.57061   3.57475   3.59027   3.59932
 Alpha virt. eigenvalues --    3.61283   3.61592   3.62436   3.63139   3.63386
 Alpha virt. eigenvalues --    3.65736   3.66741   3.68489   3.69541   3.70761
 Alpha virt. eigenvalues --    3.72506   3.74147   3.75871   3.77651   3.78270
 Alpha virt. eigenvalues --    3.80531   3.82412   3.84692   3.85118   3.86849
 Alpha virt. eigenvalues --    3.87774   3.90489   3.91230   3.93056   3.93748
 Alpha virt. eigenvalues --    3.96855   3.97611   3.99281   4.00104   4.00943
 Alpha virt. eigenvalues --    4.02371   4.03615   4.04338   4.04755   4.06962
 Alpha virt. eigenvalues --    4.07615   4.08775   4.11323   4.12645   4.13802
 Alpha virt. eigenvalues --    4.14619   4.15009   4.16124   4.18233   4.18805
 Alpha virt. eigenvalues --    4.19744   4.20362   4.20832   4.23775   4.24757
 Alpha virt. eigenvalues --    4.25362   4.29376   4.31767   4.33308   4.34388
 Alpha virt. eigenvalues --    4.34651   4.35566   4.38122   4.40045   4.42902
 Alpha virt. eigenvalues --    4.43108   4.44776   4.47265   4.49642   4.50925
 Alpha virt. eigenvalues --    4.54056   4.55302   4.56779   4.57382   4.62339
 Alpha virt. eigenvalues --    4.62673   4.64075   4.64796   4.65345   4.71936
 Alpha virt. eigenvalues --    4.74976   4.77645   4.77941   4.78403   4.83094
 Alpha virt. eigenvalues --    4.85764   4.89242   4.91384   4.95222   4.97876
 Alpha virt. eigenvalues --    5.02137   5.05650   5.08328   5.09066   5.12537
 Alpha virt. eigenvalues --    5.17427   5.22742   5.25755   5.29418   5.30020
 Alpha virt. eigenvalues --    5.33800   5.36575   5.39549   5.42882   5.43819
 Alpha virt. eigenvalues --    5.48007   5.53134   5.60306   5.62674   5.66035
 Alpha virt. eigenvalues --    5.72498   5.75186   5.87338   5.88195   6.26256
 Alpha virt. eigenvalues --    6.46240   6.68171   6.73492   6.90323   6.90594
 Alpha virt. eigenvalues --    6.91106   6.92296   6.97848   6.99688   7.00567
 Alpha virt. eigenvalues --    7.08325   7.09920   7.14068   7.21600   7.24253
 Alpha virt. eigenvalues --    7.36032   7.39294   7.53652   7.55603   8.35825
 Alpha virt. eigenvalues --    8.37384   8.52839   8.55456   8.74216   8.75167
 Alpha virt. eigenvalues --    8.96218   8.96330   8.99816   9.01564  22.20573
 Alpha virt. eigenvalues --   22.43301  22.48217  22.55482  22.61813  22.64285
 Alpha virt. eigenvalues --   22.74032  22.75297  22.77234  22.78516  22.93725
 Alpha virt. eigenvalues --   23.02573  23.47789  32.60361  43.98865  57.47215
 Alpha virt. eigenvalues --   57.55944
          Condensed to atoms (all electrons):
               1          2          3          4          5          6
     1  C    5.100478   0.206591  -0.060336   0.033119  -0.000231  -0.000022
     2  C    0.206591   5.266864   0.238284  -0.057026   0.007058  -0.000232
     3  C   -0.060336   0.238284   5.506232   0.024288   0.004587   0.008965
     4  C    0.033119  -0.057026   0.024288   5.651834   0.149240  -0.090849
     5  C   -0.000231   0.007058   0.004587   0.149240   4.982616   0.264827
     6  O   -0.000022  -0.000232   0.008965  -0.090849   0.264827   8.097554
     7  N    0.012211  -0.056112   0.182614  -0.039034  -0.023994   0.000822
     8  C    0.000253  -0.005563  -0.047613   0.006619   0.001606   0.000013
     9  C    0.000000   0.000002  -0.000021   0.000001  -0.000008   0.000000
    10  C    0.000004  -0.000009   0.000113  -0.000010   0.000020   0.000000
    11  C    0.000066   0.000283   0.002309   0.000223   0.000024   0.000000
    12  C   -0.000286   0.002605   0.004566  -0.002626   0.000249  -0.000009
    13  C   -0.000052   0.000135  -0.001747   0.000042  -0.000472   0.000003
    14  C    0.000000   0.000008  -0.000035  -0.000002   0.000017   0.000000
    15  H    0.000000   0.000000   0.000000   0.000000   0.000000   0.000000
    16  H    0.000000   0.000000  -0.000002   0.000000   0.000000   0.000000
    17  H    0.000000   0.000000   0.000000   0.000000   0.000000   0.000000
    18  F    0.000011   0.000232  -0.000616   0.000180  -0.000001   0.000000
    19  F    0.000000   0.000002  -0.000043  -0.000020   0.000072   0.000000
    20  H    0.414367  -0.043241   0.012497  -0.000334   0.000002  -0.000001
    21  H    0.423277  -0.039537  -0.021901   0.016105   0.000554  -0.000019
    22  H    0.410129  -0.047166   0.010505  -0.010253  -0.000051  -0.000004
    23  H   -0.039746   0.417140  -0.022880  -0.022540  -0.001014  -0.000007
    24  H   -0.033572   0.441922  -0.069102   0.012418  -0.000413   0.000005
    25  H   -0.000873  -0.016418  -0.036673   0.441735  -0.039351   0.009870
    26  H   -0.000266   0.000981   0.025566  -0.100091   0.455779  -0.043652
    27  H   -0.000131  -0.000197  -0.012948  -0.020606   0.425587  -0.047298
    28  H   -0.000008   0.000066  -0.002231   0.018716  -0.047985   0.305419
    29  H   -0.002170   0.002027   0.004687  -0.002149  -0.000044   0.000003
    30  H    0.000758  -0.003113   0.004232   0.002434  -0.000751  -0.000012
    31  H    0.000599  -0.054889   0.456595  -0.038420  -0.017517  -0.000189
    32  C   -0.007471   0.010228  -0.011820   0.214283  -0.054008  -0.010131
    33  H   -0.002859   0.007100  -0.008268  -0.044455   0.009098   0.000298
    34  H    0.000173  -0.003041  -0.003701  -0.044794  -0.004494   0.000247
    35  H    0.000104  -0.000741   0.012544  -0.047526  -0.005202   0.014130
    36  H    0.001291  -0.011078  -0.036126   0.003177  -0.002478  -0.000090
               7          8          9         10         11         12
     1  C    0.012211   0.000253   0.000000   0.000004   0.000066  -0.000286
     2  C   -0.056112  -0.005563   0.000002  -0.000009   0.000283   0.002605
     3  C    0.182614  -0.047613  -0.000021   0.000113   0.002309   0.004566
     4  C   -0.039034   0.006619   0.000001  -0.000010   0.000223  -0.002626
     5  C   -0.023994   0.001606  -0.000008   0.000020   0.000024   0.000249
     6  O    0.000822   0.000013   0.000000   0.000000   0.000000  -0.000009
     7  N    6.881906   0.224446   0.001170  -0.002437  -0.000333  -0.047072
     8  C    0.224446   5.147951  -0.009165   0.019475  -0.077798   0.276494
     9  C    0.001170  -0.009165   5.070127   0.388682  -0.000246  -0.101474
    10  C   -0.002437   0.019475   0.388682   5.130295   0.463928   0.033233
    11  C   -0.000333  -0.077798  -0.000246   0.463928   4.877711   0.266597
    12  C   -0.047072   0.276494  -0.101474   0.033233   0.266597   5.579794
    13  C    0.035454  -0.116949   0.009845  -0.115777   0.052548   0.235224
    14  C   -0.001347   0.011473   0.397657  -0.003714  -0.088954   0.030836
    15  H    0.000002   0.000078   0.402660  -0.024415   0.002563  -0.000285
    16  H    0.000011  -0.000067  -0.031944   0.415875  -0.043358   0.012809
    17  H   -0.000008  -0.000271  -0.033005   0.004227  -0.000762   0.013741
    18  F   -0.003796   0.016584   0.010304  -0.052635   0.249745  -0.082376
    19  F   -0.000578   0.009679   0.009977  -0.000742   0.006751  -0.080040
    20  H   -0.000540  -0.000082   0.000000   0.000000  -0.000003   0.000006
    21  H   -0.000267  -0.000036   0.000000   0.000000   0.000001   0.000000
    22  H    0.000087   0.000018   0.000000   0.000000  -0.000001   0.000008
    23  H   -0.001416  -0.001190  -0.000002   0.000017  -0.000127   0.000063
    24  H   -0.001602   0.000496  -0.000002   0.000022   0.000741  -0.000020
    25  H    0.006789  -0.000276   0.000000  -0.000001  -0.000018   0.000112
    26  H   -0.000834  -0.000458   0.000000   0.000000   0.000021   0.000338
    27  H    0.021494  -0.001229   0.000021  -0.000057  -0.000198   0.000169
    28  H    0.000173  -0.000018   0.000000   0.000000   0.000000  -0.000003
    29  H   -0.065619   0.387431   0.001168  -0.006204  -0.020067  -0.010825
    30  H   -0.040222   0.441224  -0.000849   0.001378   0.012769  -0.035063
    31  H   -0.044056  -0.013378  -0.000008   0.000043  -0.000200  -0.000319
    32  C   -0.008843   0.000182  -0.000002   0.000026   0.000170  -0.000081
    33  H   -0.000377  -0.000130   0.000000  -0.000001   0.000004  -0.000013
    34  H    0.008458  -0.000006   0.000007  -0.000061  -0.000040   0.000671
    35  H    0.000010   0.000034   0.000000   0.000000   0.000004   0.000010
    36  H    0.363516  -0.039672  -0.000286   0.001311  -0.002777  -0.011552
              13         14         15         16         17         18
     1  C   -0.000052   0.000000   0.000000   0.000000   0.000000   0.000011
     2  C    0.000135   0.000008   0.000000   0.000000   0.000000   0.000232
     3  C   -0.001747  -0.000035   0.000000  -0.000002   0.000000  -0.000616
     4  C    0.000042  -0.000002   0.000000   0.000000   0.000000   0.000180
     5  C   -0.000472   0.000017   0.000000   0.000000   0.000000  -0.000001
     6  O    0.000003   0.000000   0.000000   0.000000   0.000000   0.000000
     7  N    0.035454  -0.001347   0.000002   0.000011  -0.000008  -0.003796
     8  C   -0.116949   0.011473   0.000078  -0.000067  -0.000271   0.016584
     9  C    0.009845   0.397657   0.402660  -0.031944  -0.033005   0.010304
    10  C   -0.115777  -0.003714  -0.024415   0.415875   0.004227  -0.052635
    11  C    0.052548  -0.088954   0.002563  -0.043358  -0.000762   0.249745
    12  C    0.235224   0.030836  -0.000285   0.012809   0.013741  -0.082376
    13  C    4.901057   0.492577   0.001636  -0.001212  -0.040875   0.007767
    14  C    0.492577   5.072445  -0.023538   0.004407   0.412788  -0.001330
    15  H    0.001636  -0.023538   0.475345  -0.003217  -0.003213  -0.000098
    16  H   -0.001212   0.004407  -0.003217   0.472568  -0.000148   0.001418
    17  H   -0.040875   0.412788  -0.003213  -0.000148   0.474402   0.000010
    18  F    0.007767  -0.001330  -0.000098   0.001418   0.000010   9.064637
    19  F    0.251909  -0.047838  -0.000109   0.000010   0.001457  -0.000034
    20  H    0.000001   0.000000   0.000000   0.000000   0.000000   0.000000
    21  H    0.000000   0.000000   0.000000   0.000000   0.000000   0.000000
    22  H    0.000000   0.000000   0.000000   0.000000   0.000000   0.000000
    23  H    0.000000   0.000001   0.000000   0.000000   0.000000   0.000064
    24  H   -0.000234   0.000004   0.000000   0.000000   0.000000   0.000039
    25  H    0.000014   0.000000   0.000000   0.000000   0.000000   0.000000
    26  H   -0.000084   0.000000   0.000000   0.000000   0.000000   0.000000
    27  H    0.001036  -0.000050   0.000000   0.000000  -0.000001   0.000000
    28  H    0.000003   0.000000   0.000000   0.000000   0.000000   0.000000
    29  H    0.025426  -0.001414   0.000006  -0.000066   0.000002   0.001123
    30  H   -0.037150   0.000778   0.000001   0.000008  -0.000006   0.000503
    31  H   -0.000336   0.000017   0.000000   0.000000   0.000000  -0.000014
    32  C   -0.000141   0.000000   0.000000   0.000000   0.000000  -0.000110
    33  H    0.000005   0.000000   0.000000   0.000000   0.000000   0.000000
    34  H    0.000105  -0.000013   0.000000   0.000000   0.000000  -0.000027
    35  H   -0.000001   0.000000   0.000000   0.000000   0.000000   0.000000
    36  H   -0.000964   0.000277   0.000000   0.000044   0.000001   0.006813
              19         20         21         22         23         24
     1  C    0.000000   0.414367   0.423277   0.410129  -0.039746  -0.033572
     2  C    0.000002  -0.043241  -0.039537  -0.047166   0.417140   0.441922
     3  C   -0.000043   0.012497  -0.021901   0.010505  -0.022880  -0.069102
     4  C   -0.000020  -0.000334   0.016105  -0.010253  -0.022540   0.012418
     5  C    0.000072   0.000002   0.000554  -0.000051  -0.001014  -0.000413
     6  O    0.000000  -0.000001  -0.000019  -0.000004  -0.000007   0.000005
     7  N   -0.000578  -0.000540  -0.000267   0.000087  -0.001416  -0.001602
     8  C    0.009679  -0.000082  -0.000036   0.000018  -0.001190   0.000496
     9  C    0.009977   0.000000   0.000000   0.000000  -0.000002  -0.000002
    10  C   -0.000742   0.000000   0.000000   0.000000   0.000017   0.000022
    11  C    0.006751  -0.000003   0.000001  -0.000001  -0.000127   0.000741
    12  C   -0.080040   0.000006   0.000000   0.000008   0.000063  -0.000020
    13  C    0.251909   0.000001   0.000000   0.000000   0.000000  -0.000234
    14  C   -0.047838   0.000000   0.000000   0.000000   0.000001   0.000004
    15  H   -0.000109   0.000000   0.000000   0.000000   0.000000   0.000000
    16  H    0.000010   0.000000   0.000000   0.000000   0.000000   0.000000
    17  H    0.001457   0.000000   0.000000   0.000000   0.000000   0.000000
    18  F   -0.000034   0.000000   0.000000   0.000000   0.000064   0.000039
    19  F    9.056512   0.000000   0.000000   0.000000   0.000000   0.000003
    20  H    0.000000   0.523271  -0.024262  -0.022964  -0.003907  -0.006220
    21  H    0.000000  -0.024262   0.529432  -0.029068  -0.003647   0.006216
    22  H    0.000000  -0.022964  -0.029068   0.536200   0.006592  -0.003412
    23  H    0.000000  -0.003907  -0.003647   0.006592   0.534166  -0.024943
    24  H    0.000003  -0.006220   0.006216  -0.003412  -0.024943   0.539955
    25  H    0.000000   0.000427  -0.009418   0.000923   0.001585  -0.000313
    26  H    0.000027   0.000005   0.000047   0.000069  -0.000011  -0.000074
    27  H    0.000025   0.000003  -0.000048   0.000003   0.000018   0.000008
    28  H    0.000000   0.000000   0.000002   0.000000  -0.000001  -0.000001
    29  H    0.000136   0.000177  -0.000027   0.000122  -0.000400  -0.004084
    30  H    0.008864  -0.000019  -0.000001   0.000001   0.000046   0.001447
    31  H   -0.000122  -0.000407   0.000962   0.001307   0.006890  -0.003643
    32  C    0.000001  -0.000044  -0.001549   0.000724   0.002861  -0.000655
    33  H    0.000000   0.000118   0.001430  -0.000097  -0.006461   0.000475
    34  H   -0.000001   0.000021  -0.000109  -0.000004   0.000320  -0.000179
    35  H    0.000000  -0.000002  -0.000008   0.000005   0.000066   0.000019
    36  H   -0.000046  -0.000041   0.000031  -0.000027   0.004065   0.000784
              25         26         27         28         29         30
     1  C   -0.000873  -0.000266  -0.000131  -0.000008  -0.002170   0.000758
     2  C   -0.016418   0.000981  -0.000197   0.000066   0.002027  -0.003113
     3  C   -0.036673   0.025566  -0.012948  -0.002231   0.004687   0.004232
     4  C    0.441735  -0.100091  -0.020606   0.018716  -0.002149   0.002434
     5  C   -0.039351   0.455779   0.425587  -0.047985  -0.000044  -0.000751
     6  O    0.009870  -0.043652  -0.047298   0.305419   0.000003  -0.000012
     7  N    0.006789  -0.000834   0.021494   0.000173  -0.065619  -0.040222
     8  C   -0.000276  -0.000458  -0.001229  -0.000018   0.387431   0.441224
     9  C    0.000000   0.000000   0.000021   0.000000   0.001168  -0.000849
    10  C   -0.000001   0.000000  -0.000057   0.000000  -0.006204   0.001378
    11  C   -0.000018   0.000021  -0.000198   0.000000  -0.020067   0.012769
    12  C    0.000112   0.000338   0.000169  -0.000003  -0.010825  -0.035063
    13  C    0.000014  -0.000084   0.001036   0.000003   0.025426  -0.037150
    14  C    0.000000   0.000000  -0.000050   0.000000  -0.001414   0.000778
    15  H    0.000000   0.000000   0.000000   0.000000   0.000006   0.000001
    16  H    0.000000   0.000000   0.000000   0.000000  -0.000066   0.000008
    17  H    0.000000   0.000000  -0.000001   0.000000   0.000002  -0.000006
    18  F    0.000000   0.000000   0.000000   0.000000   0.001123   0.000503
    19  F    0.000000   0.000027   0.000025   0.000000   0.000136   0.008864
    20  H    0.000427   0.000005   0.000003   0.000000   0.000177  -0.000019
    21  H   -0.009418   0.000047  -0.000048   0.000002  -0.000027  -0.000001
    22  H    0.000923   0.000069   0.000003   0.000000   0.000122   0.000001
    23  H    0.001585  -0.000011   0.000018  -0.000001  -0.000400   0.000046
    24  H   -0.000313  -0.000074   0.000008  -0.000001  -0.004084   0.001447
    25  H    0.566045  -0.012596   0.012179  -0.000882   0.000076  -0.000062
    26  H   -0.012596   0.595091  -0.051209  -0.001433   0.000099  -0.000034
    27  H    0.012179  -0.051209   0.560988  -0.007069   0.000245  -0.000302
    28  H   -0.000882  -0.001433  -0.007069   0.400446   0.000001  -0.000004
    29  H    0.000076   0.000099   0.000245   0.000001   0.580153  -0.039898
    30  H   -0.000062  -0.000034  -0.000302  -0.000004  -0.039898   0.513558
    31  H   -0.002802   0.000664  -0.000334  -0.000034  -0.003591   0.001658
    32  C   -0.069891   0.010261  -0.025478   0.001138  -0.000116   0.000000
    33  H   -0.004168  -0.000200   0.000047   0.000044   0.000045  -0.000012
    34  H    0.007949   0.000059   0.005221  -0.000038   0.000254  -0.000095
    35  H   -0.003104   0.000809  -0.000059  -0.001207   0.000001   0.000004
    36  H    0.000067  -0.000333   0.000428  -0.000005  -0.010203   0.006246
              31         32         33         34         35         36
     1  C    0.000599  -0.007471  -0.002859   0.000173   0.000104   0.001291
     2  C   -0.054889   0.010228   0.007100  -0.003041  -0.000741  -0.011078
     3  C    0.456595  -0.011820  -0.008268  -0.003701   0.012544  -0.036126
     4  C   -0.038420   0.214283  -0.044455  -0.044794  -0.047526   0.003177
     5  C   -0.017517  -0.054008   0.009098  -0.004494  -0.005202  -0.002478
     6  O   -0.000189  -0.010131   0.000298   0.000247   0.014130  -0.000090
     7  N   -0.044056  -0.008843  -0.000377   0.008458   0.000010   0.363516
     8  C   -0.013378   0.000182  -0.000130  -0.000006   0.000034  -0.039672
     9  C   -0.000008  -0.000002   0.000000   0.000007   0.000000  -0.000286
    10  C    0.000043   0.000026  -0.000001  -0.000061   0.000000   0.001311
    11  C   -0.000200   0.000170   0.000004  -0.000040   0.000004  -0.002777
    12  C   -0.000319  -0.000081  -0.000013   0.000671   0.000010  -0.011552
    13  C   -0.000336  -0.000141   0.000005   0.000105  -0.000001  -0.000964
    14  C    0.000017   0.000000   0.000000  -0.000013   0.000000   0.000277
    15  H    0.000000   0.000000   0.000000   0.000000   0.000000   0.000000
    16  H    0.000000   0.000000   0.000000   0.000000   0.000000   0.000044
    17  H    0.000000   0.000000   0.000000   0.000000   0.000000   0.000001
    18  F   -0.000014  -0.000110   0.000000  -0.000027   0.000000   0.006813
    19  F   -0.000122   0.000001   0.000000  -0.000001   0.000000  -0.000046
    20  H   -0.000407  -0.000044   0.000118   0.000021  -0.000002  -0.000041
    21  H    0.000962  -0.001549   0.001430  -0.000109  -0.000008   0.000031
    22  H    0.001307   0.000724  -0.000097  -0.000004   0.000005  -0.000027
    23  H    0.006890   0.002861  -0.006461   0.000320   0.000066   0.004065
    24  H   -0.003643  -0.000655   0.000475  -0.000179   0.000019   0.000784
    25  H   -0.002802  -0.069891  -0.004168   0.007949  -0.003104   0.000067
    26  H    0.000664   0.010261  -0.000200   0.000059   0.000809  -0.000333
    27  H   -0.000334  -0.025478   0.000047   0.005221  -0.000059   0.000428
    28  H   -0.000034   0.001138   0.000044  -0.000038  -0.001207  -0.000005
    29  H   -0.003591  -0.000116   0.000045   0.000254   0.000001  -0.010203
    30  H    0.001658   0.000000  -0.000012  -0.000095   0.000004   0.006246
    31  H    0.517676   0.007926  -0.000351  -0.000581  -0.000259   0.007738
    32  C    0.007926   5.206857   0.416260   0.402873   0.413962   0.000561
    33  H   -0.000351   0.416260   0.527879  -0.026365  -0.021032  -0.000840
    34  H   -0.000581   0.402873  -0.026365   0.535220  -0.021990  -0.004395
    35  H   -0.000259   0.413962  -0.021032  -0.021990   0.496209  -0.000011
    36  H    0.007738   0.000561  -0.000840  -0.004395  -0.000011   0.484810
 Mulliken charges:
               1
     1  C   -0.455409
     2  C   -0.263165
     3  C   -0.162523
     4  C   -0.053683
     5  C   -0.103323
     6  O   -0.509639
     7  N   -0.400677
     8  C   -0.230155
     9  C   -0.114609
    10  C   -0.252587
    11  C    0.298423
    12  C   -0.085483
    13  C    0.301206
    14  C   -0.255050
    15  H    0.172582
    16  H    0.172863
    17  H    0.171658
    18  F   -0.218395
    19  F   -0.215852
    20  H    0.151168
    21  H    0.151840
    22  H    0.146353
    23  H    0.154401
    24  H    0.143914
    25  H    0.149072
    26  H    0.121461
    27  H    0.139745
    28  H    0.334912
    29  H    0.163697
    30  H    0.161682
    31  H    0.179372
    32  C   -0.497976
    33  H    0.152827
    34  H    0.148356
    35  H    0.163229
    36  H    0.239766
 Sum of Mulliken charges =   0.00000
 Mulliken charges with hydrogens summed into heavy atoms:
               1
     1  C   -0.006048
     2  C    0.035150
     3  C    0.016849
     4  C    0.095389
     5  C    0.157882
     6  O   -0.174727
     7  N   -0.160911
     8  C    0.095224
     9  C    0.057974
    10  C   -0.079724
    11  C    0.298423
    12  C   -0.085483
    13  C    0.301206
    14  C   -0.083391
    18  F   -0.218395
    19  F   -0.215852
    32  C   -0.033565
 Electronic spatial extent (au):  <R**2>=           5444.1656
 Charge=              0.0000 electrons
 Dipole moment (field-independent basis, Debye):
    X=              2.6987    Y=             -0.3016    Z=             -0.1902  Tot=              2.7222
 Quadrupole moment (field-independent basis, Debye-Ang):
   XX=            -98.9019   YY=            -98.2289   ZZ=           -103.1206
   XY=              5.1926   XZ=              7.6748   YZ=              0.8325
 Traceless Quadrupole moment (field-independent basis, Debye-Ang):
   XX=              1.1819   YY=              1.8549   ZZ=             -3.0368
   XY=              5.1926   XZ=              7.6748   YZ=              0.8325
 Octapole moment (field-independent basis, Debye-Ang**2):
  XXX=            136.3441  YYY=             48.1244  ZZZ=             -1.6747  XYY=            -10.4545
  XXY=             -3.2351  XXZ=             13.1481  XZZ=              5.2835  YZZ=             -3.7581
  YYZ=              2.7543  XYZ=              0.4801
 Hexadecapole moment (field-independent basis, Debye-Ang**3):
 XXXX=          -4965.9097 YYYY=          -1154.7158 ZZZZ=           -746.3629 XXXY=            169.2947
 XXXZ=            146.4366 YYYX=           -115.1429 YYYZ=              8.9230 ZZZX=              7.4579
 ZZZY=            -33.9697 XXYY=          -1040.1454 XXZZ=           -968.8348 YYZZ=           -348.7680
 XXYZ=            -53.0798 YYXZ=            -16.1584 ZZXY=            -30.5438
 N-N= 1.250068818144D+03 E-N=-4.456575378078D+03  KE= 8.321542344642D+02
 1\1\GINC-CPU-E-855\SP\RM062X\def2TZVP\C13H19F2N1O1\KE291\26-Jun-2019\0
 \\# m062x/def2tzvp int=ultrafine scrf=(solvent=chloroform)\\AT3_2ginp0
 06\\0,1\C,0,-3.633157,-2.166349,-1.301056\C,0,-2.290581,-1.899508,-0.6
 1\C,0,-1.893842,-0.408983,-0.504976\C,0,-2.886763,0.442394,0.32591\C,0
 ,-2.560443,1.931926,0.185666\O,0,-3.639054,2.685174,0.746055\N,0,-0.52
 1557,-0.205859,0.001855\C,0,0.543131,-0.536762,-0.953453\C,0,4.444303,
 0.380494,0.713421\C,0,3.729101,-0.724268,1.180029\C,0,2.485796,-0.9834
 61,0.619958\C,0,1.904606,-0.207463,-0.38431\C,0,2.662717,0.886287,-0.8
 04705\C,0,3.915237,1.196981,-0.286308\H,0,5.419058,0.606357,1.132769\H
 ,0,4.114648,-1.373124,1.95782\H,0,4.450543,2.060081,-0.66481\F,0,1.776
 749,-2.049304,1.072536\F,0,2.156608,1.680124,-1.777128\H,0,-3.797291,-
 3.241226,-1.428665\H,0,-4.477995,-1.77236,-0.727923\H,0,-3.663881,-1.7
 06955,-2.295835\H,0,-2.295921,-2.344618,0.393513\H,0,-1.50305,-2.42186
 1,-1.166383\H,0,-3.881688,0.306508,-0.118327\H,0,-2.427996,2.180658,-0
 .879766\H,0,-1.612826,2.151877,0.693816\H,0,-3.355451,3.606817,0.79754
 2\H,0,0.54665,-1.594135,-1.264885\H,0,0.387239,0.060547,-1.855241\H,0,
 -1.901868,0.00411,-1.524656\C,0,-2.96707,0.037873,1.805483\H,0,-3.3219
 14,-0.98934,1.93325\H,0,-1.989254,0.123916,2.293467\H,0,-3.657526,0.70
 0811,2.332438\H,0,-0.386565,-0.770796,0.837832\\Version=ES64L-G09RevD.
 01\State=1-A\HF=-836.4555404\RMSD=7.578e-09\Dipole=1.0617579,-0.11866,
 -0.0748496\Quadrupole=0.8787345,1.3790441,-2.2577786,3.8605854,5.70600
 23,0.6189196\PG=C01 [X(C13H19F2N1O1)]\\@


 THE MORE PROGRESS PHYSICAL SCIENCES MAKE, THE MORE THEY TEND TO ENTER
 THE DOMAIN OF MATHEMATICS, WHICH IS A KIND OF CENTRE TO WHICH THEY ALL
 CONVERGE.  WE MAY EVEN JUDGE THE DEGREE OF PERFECTION TO WHICH A 
 SCIENCE HAS ARRIVED BY THE FACILITY WITH WHICH IT MAY BE SUBMITTED
 TO CALCULATION.

                               -- ADOLPHE QUETELET, 1796-1874
 Job cpu time:       0 days  1 hours 15 minutes 12.3 seconds.
 File lengths (MBytes):  RWF=    322 Int=      0 D2E=      0 Chk=     17 Scr=      1
 Normal termination of Gaussian 09 at Wed Jun 26 12:21:51 2019.
