 Entering Gaussian System, Link 0=/usr/local/Cluster-Apps/gaussian/g09/g09
 Initial command:
 /usr/local/Cluster-Apps/gaussian/g09/l1.exe "/home/ke291/rds/hpc-work/26Jun1158AT3NMR/Gau-37459.inp" -scrdir="/home/ke291/rds/hpc-work/26Jun1158AT3NMR/"
 Entering Link 1 = /usr/local/Cluster-Apps/gaussian/g09/l1.exe PID=     37469.
  
 Copyright (c) 1988,1990,1992,1993,1995,1998,2003,2009,2013,
            Gaussian, Inc.  All Rights Reserved.
  
 This is part of the Gaussian(R) 09 program.  It is based on
 the Gaussian(R) 03 system (copyright 2003, Gaussian, Inc.),
 the Gaussian(R) 98 system (copyright 1998, Gaussian, Inc.),
 the Gaussian(R) 94 system (copyright 1995, Gaussian, Inc.),
 the Gaussian 92(TM) system (copyright 1992, Gaussian, Inc.),
 the Gaussian 90(TM) system (copyright 1990, Gaussian, Inc.),
 the Gaussian 88(TM) system (copyright 1988, Gaussian, Inc.),
 the Gaussian 86(TM) system (copyright 1986, Carnegie Mellon
 University), and the Gaussian 82(TM) system (copyright 1983,
 Carnegie Mellon University). Gaussian is a federally registered
 trademark of Gaussian, Inc.
  
 This software contains proprietary and confidential information,
 including trade secrets, belonging to Gaussian, Inc.
  
 This software is provided under written license and may be
 used, copied, transmitted, or stored only in accord with that
 written license.
  
 The following legend is applicable only to US Government
 contracts under FAR:
  
                    RESTRICTED RIGHTS LEGEND
  
 Use, reproduction and disclosure by the US Government is
 subject to restrictions as set forth in subparagraphs (a)
 and (c) of the Commercial Computer Software - Restricted
 Rights clause in FAR 52.227-19.
  
 Gaussian, Inc.
 340 Quinnipiac St., Bldg. 40, Wallingford CT 06492
  
  
 ---------------------------------------------------------------
 Warning -- This program may not be used in any manner that
 competes with the business of Gaussian, Inc. or will provide
 assistance to any competitor of Gaussian, Inc.  The licensee
 of this program is prohibited from giving any competitor of
 Gaussian, Inc. access to this program.  By using this program,
 the user acknowledges that Gaussian, Inc. is engaged in the
 business of creating and licensing software in the field of
 computational chemistry and represents and warrants to the
 licensee that it is not a competitor of Gaussian, Inc. and that
 it will not use this program in any manner prohibited above.
 ---------------------------------------------------------------
  

 Cite this work as:
 Gaussian 09, Revision D.01,
 M. J. Frisch, G. W. Trucks, H. B. Schlegel, G. E. Scuseria, 
 M. A. Robb, J. R. Cheeseman, G. Scalmani, V. Barone, B. Mennucci, 
 G. A. Petersson, H. Nakatsuji, M. Caricato, X. Li, H. P. Hratchian, 
 A. F. Izmaylov, J. Bloino, G. Zheng, J. L. Sonnenberg, M. Hada, 
 M. Ehara, K. Toyota, R. Fukuda, J. Hasegawa, M. Ishida, T. Nakajima, 
 Y. Honda, O. Kitao, H. Nakai, T. Vreven, J. A. Montgomery, Jr., 
 J. E. Peralta, F. Ogliaro, M. Bearpark, J. J. Heyd, E. Brothers, 
 K. N. Kudin, V. N. Staroverov, T. Keith, R. Kobayashi, J. Normand, 
 K. Raghavachari, A. Rendell, J. C. Burant, S. S. Iyengar, J. Tomasi, 
 M. Cossi, N. Rega, J. M. Millam, M. Klene, J. E. Knox, J. B. Cross, 
 V. Bakken, C. Adamo, J. Jaramillo, R. Gomperts, R. E. Stratmann, 
 O. Yazyev, A. J. Austin, R. Cammi, C. Pomelli, J. W. Ochterski, 
 R. L. Martin, K. Morokuma, V. G. Zakrzewski, G. A. Voth, 
 P. Salvador, J. J. Dannenberg, S. Dapprich, A. D. Daniels, 
 O. Farkas, J. B. Foresman, J. V. Ortiz, J. Cioslowski, 
 and D. J. Fox, Gaussian, Inc., Wallingford CT, 2013.
 
 ******************************************
 Gaussian 09:  ES64L-G09RevD.01 24-Apr-2013
                26-Jun-2019 
 ******************************************
 %nprocshared=4
 Will use up to    4 processors via shared memory.
 %mem=6000MB
 %chk=AT3_1ginp006.chk
 --------------------------------------------------------
 # m062x/def2tzvp int=ultrafine scrf=(solvent=chloroform)
 --------------------------------------------------------
 1/38=1/1;
 2/12=2,17=6,18=5,40=1/2;
 3/5=44,7=101,11=2,16=1,25=1,30=1,70=2201,72=7,74=-55,75=-5/1,2,3;
 4//1;
 5/5=2,38=5,53=7/2;
 6/7=2,8=2,9=2,10=2,28=1/1;
 99/5=1,9=1/99;
 ------------
 AT3_1ginp006
 ------------
 Symbolic Z-matrix:
 Charge =  0 Multiplicity = 1
 C                    -3.32891  -1.78093  -1.10646 
 C                    -2.20168  -1.71434  -0.06939 
 C                    -1.53804  -0.327     0.10422 
 C                    -2.49307   0.79353   0.59647 
 C                    -1.72469   2.10143   0.88588 
 O                    -1.18232   2.72751  -0.26351 
 N                    -0.83261   0.14769  -1.11317 
 C                     0.36432  -0.60942  -1.52217 
 C                     3.70084   0.05317   1.16987 
 C                     3.01341  -1.15979   1.21431 
 C                     1.94506  -1.34542   0.34437 
 C                     1.52313  -0.38698  -0.5781 
 C                     2.24731   0.80822  -0.57251 
 C                     3.32143   1.05335   0.27238 
 H                     4.53725   0.2218    1.83995 
 H                     3.28566  -1.94999   1.90423 
 H                     3.83901   2.00399   0.21881 
 F                     1.26933  -2.51973   0.39731 
 F                     1.87893   1.76956  -1.44938 
 H                    -2.98543  -1.48962  -2.1057 
 H                    -3.71698  -2.801    -1.18691 
 H                    -4.16811  -1.12916  -0.84277 
 H                    -2.58118  -2.0437    0.90393 
 H                    -1.42079  -2.43721  -0.33156 
 H                    -3.21194   1.01913  -0.20447 
 H                    -0.94107   1.88684   1.63664 
 H                    -2.412     2.82131   1.34706 
 H                    -0.75085   1.99188  -0.75032 
 H                     0.1867   -1.68757  -1.61404 
 H                     0.64493  -0.24111  -2.5131 
 H                    -0.76339  -0.43846   0.87528 
 C                    -3.2748    0.37687   1.85196 
 H                    -2.59635   0.08869   2.66406 
 H                    -3.88832   1.20848   2.2135 
 H                    -3.94464  -0.46551   1.66309 
 H                    -1.48587   0.16268  -1.89388 
 
                          Input orientation:                          
 ---------------------------------------------------------------------
 Center     Atomic      Atomic             Coordinates (Angstroms)
 Number     Number       Type             X           Y           Z
 ---------------------------------------------------------------------
      1          6           0       -3.328907   -1.780931   -1.106461
      2          6           0       -2.201680   -1.714335   -0.069386
      3          6           0       -1.538040   -0.327001    0.104219
      4          6           0       -2.493072    0.793529    0.596473
      5          6           0       -1.724689    2.101435    0.885883
      6          8           0       -1.182320    2.727513   -0.263514
      7          7           0       -0.832609    0.147690   -1.113169
      8          6           0        0.364319   -0.609421   -1.522172
      9          6           0        3.700842    0.053170    1.169875
     10          6           0        3.013405   -1.159792    1.214313
     11          6           0        1.945061   -1.345424    0.344369
     12          6           0        1.523128   -0.386983   -0.578099
     13          6           0        2.247311    0.808220   -0.572507
     14          6           0        3.321428    1.053354    0.272378
     15          1           0        4.537249    0.221798    1.839947
     16          1           0        3.285663   -1.949989    1.904230
     17          1           0        3.839013    2.003993    0.218807
     18          9           0        1.269329   -2.519733    0.397314
     19          9           0        1.878930    1.769562   -1.449375
     20          1           0       -2.985429   -1.489615   -2.105700
     21          1           0       -3.716980   -2.801004   -1.186906
     22          1           0       -4.168108   -1.129164   -0.842768
     23          1           0       -2.581183   -2.043699    0.903932
     24          1           0       -1.420787   -2.437208   -0.331563
     25          1           0       -3.211936    1.019131   -0.204471
     26          1           0       -0.941065    1.886842    1.636637
     27          1           0       -2.411999    2.821311    1.347058
     28          1           0       -0.750853    1.991882   -0.750317
     29          1           0        0.186701   -1.687569   -1.614039
     30          1           0        0.644927   -0.241113   -2.513104
     31          1           0       -0.763392   -0.438463    0.875278
     32          6           0       -3.274798    0.376869    1.851955
     33          1           0       -2.596345    0.088687    2.664058
     34          1           0       -3.888319    1.208478    2.213502
     35          1           0       -3.944639   -0.465509    1.663091
     36          1           0       -1.485866    0.162684   -1.893876
 ---------------------------------------------------------------------
                    Distance matrix (angstroms):
                    1          2          3          4          5
     1  C    0.000000
     2  C    1.533167   0.000000
     3  C    2.605161   1.547660   0.000000
     4  C    3.197882   2.611065   1.552413   0.000000
     5  C    4.649270   3.962343   2.557956   1.544276   0.000000
     6  O    5.064036   4.561446   3.097066   2.489567   1.416775
     7  N    3.154541   2.535937   1.484924   2.469235   2.934133
     8  C    3.896815   3.148932   2.518706   3.823821   4.184665
     9  C    7.613344   6.284871   5.359668   6.264303   5.806240
    10  C    6.782089   5.399307   4.758309   5.875243   5.761337
    11  C    5.487195   4.183629   3.636874   4.933123   5.063708
    12  C    5.075874   3.986834   3.136862   4.347768   4.345547
    13  C    6.171144   5.139060   4.009435   4.882413   4.424488
    14  C    7.359438   6.187215   5.054512   5.829319   5.190198
    15  H    8.635314   7.266865   6.342166   7.162298   6.607204
    16  H    7.269483   5.836234   5.398355   6.529234   6.523396
    17  H    8.213468   7.099225   5.861686   6.457798   5.604397
    18  F    4.893970   3.593658   3.574255   5.017273   5.527932
    19  F    6.312302   5.540152   4.299409   4.924686   4.306929
    20  H    1.096048   2.193476   2.886234   3.571680   4.840937
    21  H    1.094359   2.173898   3.540547   4.195123   5.683272
    22  H    1.094803   2.192575   2.908179   2.928124   4.404010
    23  H    2.160976   1.095377   2.162115   2.855198   4.232735
    24  H    2.161501   1.095936   2.157922   3.528273   4.708908
    25  H    2.944081   2.917311   2.170090   1.099624   2.138260
    26  H    5.165166   4.179490   2.757859   2.164717   1.106232
    27  H    5.295385   4.756326   3.495758   2.163758   1.096950
    28  H    4.583374   4.037897   2.593668   2.507034   1.907225
    29  H    3.553287   2.844474   2.788958   4.268887   4.925401
    30  H    4.487877   4.030547   3.409267   4.537289   4.759803
    31  H    3.508757   2.142175   1.098652   2.141805   2.715748
    32  C    3.662138   3.035831   2.562488   1.536534   2.512023
    33  H    4.271877   3.298237   2.800997   2.186864   2.823623
    34  H    4.502406   4.074207   3.511493   2.175702   2.690955
    35  H    3.127280   2.756619   2.870712   2.197703   3.481585
    36  H    2.791856   2.713734   2.057887   2.759396   3.397477
                    6          7          8          9         10
     6  O    0.000000
     7  N    2.738558   0.000000
     8  C    3.887344   1.474156   0.000000
     9  C    5.749086   5.076751   4.338033   0.000000
    10  C    5.907556   4.681720   3.848235   1.394927   0.000000
    11  C    5.170962   3.474084   2.554295   2.391713   1.390187
    12  C    4.137451   2.474201   1.511155   2.826939   2.455789
    13  C    3.942275   3.196017   2.541108   2.391390   2.766351
    14  C    4.834639   4.471688   3.837932   1.396361   2.424899
    15  H    6.589129   6.128765   5.422925   1.084900   2.149956
    16  H    6.822097   5.519522   4.698043   2.173545   1.083753
    17  H    5.096067   5.200392   4.683422   2.174703   3.417923
    18  F    5.829311   3.716833   2.855304   3.623387   2.357695
    19  F    3.419823   3.177412   2.821153   3.622959   4.118663
    20  H    4.942572   2.881062   3.512272   7.603670   6.864203
    21  H    6.151557   4.125510   4.644614   8.290043   7.331951
    22  H    4.911662   3.581763   4.612442   8.207863   7.470385
    23  H    5.107270   3.453751   4.076655   6.628078   5.672481
    24  H    5.170671   2.763794   2.818680   5.889599   4.866578
    25  H    2.653563   2.691902   4.144649   7.113959   6.746519
    26  H    2.091771   3.255433   4.232426   5.012736   5.009807
    27  H    2.028509   3.961747   5.264062   6.712736   6.730662
    28  H    0.981985   1.881327   2.933623   5.221430   5.287954
    29  H    4.815712   2.158249   1.096536   4.809318   4.033408
    30  H    4.148762   2.072221   1.093772   4.794742   4.510798
    31  H    3.390539   2.074196   2.654944   4.500875   3.859981
    32  C    3.791992   3.848217   5.059711   7.016379   6.504568
    33  H    4.187308   4.169135   5.174689   6.472125   5.927036
    34  H    3.970580   4.639976   5.945162   7.747210   7.364841
    35  H    4.640862   4.215254   5.360385   7.678911   7.006983
    36  H    3.054270   1.018073   2.038994   6.024990   5.626120
                   11         12         13         14         15
    11  C    0.000000
    12  C    1.395559   0.000000
    13  C    2.360127   1.397492   0.000000
    14  C    2.766533   2.455965   1.388398   0.000000
    15  H    3.378221   3.911839   3.377520   2.151041   0.000000
    16  H    2.143800   3.422203   3.849691   3.418229   2.507441
    17  H    3.849859   3.422740   2.142327   1.083734   2.508356
    18  F    1.355883   2.358912   3.601704   4.122338   4.502942
    19  F    3.595140   2.352956   1.352324   2.357581   4.503540
    20  H    5.507573   4.886353   5.917119   7.204054   8.665319
    21  H    6.043362   5.801455   6.998339   8.156272   9.296853
    22  H    6.231123   5.745524   6.707019   7.880361   9.208979
    23  H    4.613847   4.667600   5.798937   6.695627   7.528657
    24  H    3.602473   3.595947   4.903652   5.919237   6.876333
    25  H    5.699734   4.953543   5.475702   6.550832   8.053897
    26  H    4.521861   4.018406   4.026100   4.552445   5.729366
    27  H    6.111550   5.429973   5.426457   6.095309   7.435890
    28  H    4.427629   3.295398   3.228260   4.302350   6.148714
    29  H    2.654102   2.133245   3.399980   4.571405   5.873923
    30  H    3.327913   2.129967   2.726656   4.074090   5.857773
    31  H    2.905195   2.709821   3.565758   4.390303   5.428013
    32  C    5.699652   5.432194   6.046302   6.816369   7.813595
    33  H    5.297358   5.263830   5.869760   6.455289   7.182273
    34  H    6.636595   6.294624   6.750408   7.468097   8.491365
    35  H    6.099331   5.909786   6.705261   7.552268   8.511527
    36  H    4.365248   3.329782   4.012399   5.347525   7.086808
                   16         17         18         19         20
    16  H    0.000000
    17  H    4.333684   0.000000
    18  F    2.580893   5.205693   0.000000
    19  F    5.201983   2.584514   4.709557   0.000000
    20  H    7.457753   8.011344   5.042736   5.891942   0.000000
    21  H    7.701711   9.064053   5.239479   7.230019   1.760423
    22  H    7.986141   8.663579   5.747800   6.733294   1.767386
    23  H    5.952248   7.620507   3.912763   6.322311   3.086796
    24  H    5.233242   6.905988   2.788332   5.462101   2.548254
    25  H    7.448563   7.131970   5.741728   5.294322   3.155912
    26  H    5.714727   4.987295   5.083273   4.182056   5.439207
    27  H    7.452456   6.404382   6.555985   5.228603   5.552877
    28  H    6.235257   4.691079   5.074728   2.730177   4.353299
    29  H    4.695812   5.506935   2.431074   3.852598   3.216104
    30  H    5.422784   4.765084   3.748669   2.587875   3.860598
    31  H    4.442781   5.251540   2.948235   4.154666   3.863754
    32  C    6.961081   7.478035   5.581700   6.276885   4.385263
    33  H    6.271488   7.145732   5.185115   6.306644   5.039148
    34  H    7.844589   8.020182   6.618114   6.855118   5.172081
    35  H    7.385059   8.292746   5.745215   6.971151   4.021525
    36  H    6.454184   6.017324   4.476160   3.755195   2.241350
                   21         22         23         24         25
    21  H    0.000000
    22  H    1.765502   0.000000
    23  H    2.497028   2.530942   0.000000
    24  H    2.477188   3.085463   1.740062   0.000000
    25  H    3.976642   2.436567   3.317730   3.894951   0.000000
    26  H    6.136285   5.065328   4.321573   4.775076   3.049501
    27  H    6.303521   4.846185   4.888078   5.608234   2.508983
    28  H    5.653342   4.628942   4.729964   4.499000   2.702059
    29  H    4.081777   4.457694   3.758748   2.188772   4.567695
    30  H    5.228583   5.171457   5.033213   3.721442   4.668339
    31  H    4.307886   3.875673   2.425277   2.425616   3.047262
    32  C    4.419172   3.213669   2.690539   4.015487   2.155305
    33  H    4.943284   4.031306   2.765021   4.090945   3.077846
    34  H    5.260045   3.857932   3.741689   5.084987   2.517924
    35  H    3.691727   2.601866   2.219464   3.773072   2.495756
    36  H    3.776390   3.157233   3.727677   3.033891   2.562598
                   26         27         28         29         30
    26  H    0.000000
    27  H    1.766560   0.000000
    28  H    2.396824   2.801132   0.000000
    29  H    4.961367   5.987599   3.894019   0.000000
    30  H    4.925841   5.798628   3.168894   1.763668   0.000000
    31  H    2.453218   3.683288   2.923917   2.942727   3.674703
    32  C    2.787954   2.640954   3.968675   5.315731   5.899143
    33  H    2.651209   3.039030   4.322725   5.403938   6.116994
    34  H    3.078840   2.351909   4.386529   6.296264   6.707640
    35  H    3.815195   3.640336   4.697188   5.413038   6.209273
    36  H    3.966617   4.292980   2.279021   2.509826   2.255388
                   31         32         33         34         35
    31  H    0.000000
    32  C    2.815284   0.000000
    33  H    2.614830   1.096749   0.000000
    34  H    3.777357   1.094851   1.768086   0.000000
    35  H    3.277455   1.092684   1.768323   1.763053   0.000000
    36  H    2.924305   4.156610   4.691844   4.871963   4.369463
                   36
    36  H    0.000000
 Stoichiometry    C13H19F2NO
 Framework group  C1[X(C13H19F2NO)]
 Deg. of freedom   102
 Full point group                 C1      NOp   1
 Largest Abelian subgroup         C1      NOp   1
 Largest concise Abelian subgroup C1      NOp   1
                         Standard orientation:                         
 ---------------------------------------------------------------------
 Center     Atomic      Atomic             Coordinates (Angstroms)
 Number     Number       Type             X           Y           Z
 ---------------------------------------------------------------------
      1          6           0       -3.328907   -1.780931   -1.106461
      2          6           0       -2.201680   -1.714335   -0.069386
      3          6           0       -1.538040   -0.327001    0.104219
      4          6           0       -2.493072    0.793529    0.596473
      5          6           0       -1.724689    2.101435    0.885883
      6          8           0       -1.182320    2.727513   -0.263514
      7          7           0       -0.832609    0.147690   -1.113169
      8          6           0        0.364319   -0.609421   -1.522172
      9          6           0        3.700842    0.053170    1.169875
     10          6           0        3.013405   -1.159792    1.214313
     11          6           0        1.945061   -1.345424    0.344369
     12          6           0        1.523128   -0.386983   -0.578099
     13          6           0        2.247311    0.808220   -0.572507
     14          6           0        3.321428    1.053354    0.272378
     15          1           0        4.537249    0.221798    1.839947
     16          1           0        3.285663   -1.949989    1.904230
     17          1           0        3.839013    2.003993    0.218807
     18          9           0        1.269329   -2.519733    0.397314
     19          9           0        1.878930    1.769562   -1.449375
     20          1           0       -2.985429   -1.489615   -2.105700
     21          1           0       -3.716980   -2.801004   -1.186906
     22          1           0       -4.168108   -1.129164   -0.842768
     23          1           0       -2.581183   -2.043699    0.903932
     24          1           0       -1.420787   -2.437208   -0.331563
     25          1           0       -3.211936    1.019131   -0.204471
     26          1           0       -0.941065    1.886842    1.636637
     27          1           0       -2.411999    2.821311    1.347058
     28          1           0       -0.750853    1.991882   -0.750317
     29          1           0        0.186701   -1.687569   -1.614039
     30          1           0        0.644927   -0.241113   -2.513104
     31          1           0       -0.763392   -0.438463    0.875278
     32          6           0       -3.274798    0.376869    1.851955
     33          1           0       -2.596345    0.088687    2.664058
     34          1           0       -3.888319    1.208478    2.213502
     35          1           0       -3.944639   -0.465509    1.663091
     36          1           0       -1.485866    0.162684   -1.893876
 ---------------------------------------------------------------------
 Rotational constants (GHZ):      0.6289270      0.3299608      0.2754601
 Standard basis: def2TZVP (5D, 7F)
 There are   726 symmetry adapted cartesian basis functions of A   symmetry.
 There are   641 symmetry adapted basis functions of A   symmetry.
   641 basis functions,  1019 primitive gaussians,   726 cartesian basis functions
    65 alpha electrons       65 beta electrons
       nuclear repulsion energy      1310.4473076569 Hartrees.
 NAtoms=   36 NActive=   36 NUniq=   36 SFac= 1.00D+00 NAtFMM=   60 NAOKFM=F Big=F
 Integral buffers will be    131072 words long.
 Raffenetti 2 integral format.
 Two-electron integral symmetry is turned on.
 ------------------------------------------------------------------------------
 Polarizable Continuum Model (PCM)
 =================================
 Model                : PCM (using non-symmetric T matrix).
 Atomic radii         : UFF (Universal Force Field).
 Polarization charges : Total charges.
 Charge compensation  : None.
 Solution method      : On-the-fly selection.
 Cavity type          : Scaled VdW (van der Waals Surface) (Alpha=1.100).
 Cavity algorithm     : GePol (No added spheres)
                        Default sphere list used, NSphG=   36.
                        Lebedev-Laikov grids with approx.  5.0 points / Ang**2.
                        Smoothing algorithm: Karplus/York (Gamma=1.0000).
                        Polarization charges: spherical gaussians, with
                                              point-specific exponents (IZeta= 3).
                        Self-potential: point-specific (ISelfS= 7).
                        Self-field    : sphere-specific E.n sum rule (ISelfD= 2).
 Solvent              : Chloroform, Eps=   4.711300 Eps(inf)=   2.090627
 ------------------------------------------------------------------------------
 One-electron integrals computed using PRISM.
   1 Symmetry operations used in ECPInt.
 ECPInt:  NShTT=   34716 NPrTT=  103716 LenC2=   31854 LenP2D=   69515.
 LDataN:  DoStor=T MaxTD1= 6 Len=  172
 NBasis=   641 RedAO= T EigKep=  1.07D-05  NBF=   641
 NBsUse=   641 1.00D-06 EigRej= -1.00D+00 NBFU=   641
 ExpMin= 9.52D-02 ExpMax= 3.55D+04 ExpMxC= 1.21D+03 IAcc=3 IRadAn=         5 AccDes= 0.00D+00
 Harris functional with IExCor= 1009 and IRadAn=       5 diagonalized for initial guess.
 HarFok:  IExCor= 1009 AccDes= 0.00D+00 IRadAn=         5 IDoV= 1 UseB2=F ITyADJ=14
 ICtDFT=  3500011 ScaDFX=  1.000000  1.000000  1.000000  1.000000
 FoFCou: FMM=F IPFlag=           0 FMFlag=      100000 FMFlg1=           0
         NFxFlg=           0 DoJE=T BraDBF=F KetDBF=T FulRan=T
         wScrn=  0.000000 ICntrl=     500 IOpCl=  0 I1Cent=   200000004 NGrid=           0
         NMat0=    1 NMatS0=      1 NMatT0=    0 NMatD0=    1 NMtDS0=    0 NMtDT0=    0
 Petite list used in FoFCou.
 Requested convergence on RMS density matrix=1.00D-08 within 128 cycles.
 Requested convergence on MAX density matrix=1.00D-06.
 Requested convergence on             energy=1.00D-06.
 No special actions if energy rises.
 Inv3:  Mode=1 IEnd=    17802288.
 Iteration    1 A*A^-1 deviation from unit magnitude is 4.44D-15 for   2436.
 Iteration    1 A*A^-1 deviation from orthogonality  is 2.97D-15 for   1643    905.
 Iteration    1 A^-1*A deviation from unit magnitude is 4.44D-15 for   2436.
 Iteration    1 A^-1*A deviation from orthogonality  is 5.70D-12 for   2137   2132.
 Error on total polarization charges =  0.01220
 SCF Done:  E(RM062X) =  -836.463420070     A.U. after   12 cycles
            NFock= 12  Conv=0.78D-08     -V/T= 2.0052

 **********************************************************************

            Population analysis using the SCF density.

 **********************************************************************

 Orbital symmetries:
       Occupied  (A) (A) (A) (A) (A) (A) (A) (A) (A) (A) (A) (A)
                 (A) (A) (A) (A) (A) (A) (A) (A) (A) (A) (A) (A)
                 (A) (A) (A) (A) (A) (A) (A) (A) (A) (A) (A) (A)
                 (A) (A) (A) (A) (A) (A) (A) (A) (A) (A) (A) (A)
                 (A) (A) (A) (A) (A) (A) (A) (A) (A) (A) (A) (A)
                 (A) (A) (A) (A) (A)
       Virtual   (A) (A) (A) (A) (A) (A) (A) (A) (A) (A) (A) (A)
                 (A) (A) (A) (A) (A) (A) (A) (A) (A) (A) (A) (A)
                 (A) (A) (A) (A) (A) (A) (A) (A) (A) (A) (A) (A)
                 (A) (A) (A) (A) (A) (A) (A) (A) (A) (A) (A) (A)
                 (A) (A) (A) (A) (A) (A) (A) (A) (A) (A) (A) (A)
                 (A) (A) (A) (A) (A) (A) (A) (A) (A) (A) (A) (A)
                 (A) (A) (A) (A) (A) (A) (A) (A) (A) (A) (A) (A)
                 (A) (A) (A) (A) (A) (A) (A) (A) (A) (A) (A) (A)
                 (A) (A) (A) (A) (A) (A) (A) (A) (A) (A) (A) (A)
                 (A) (A) (A) (A) (A) (A) (A) (A) (A) (A) (A) (A)
                 (A) (A) (A) (A) (A) (A) (A) (A) (A) (A) (A) (A)
                 (A) (A) (A) (A) (A) (A) (A) (A) (A) (A) (A) (A)
                 (A) (A) (A) (A) (A) (A) (A) (A) (A) (A) (A) (A)
                 (A) (A) (A) (A) (A) (A) (A) (A) (A) (A) (A) (A)
                 (A) (A) (A) (A) (A) (A) (A) (A) (A) (A) (A) (A)
                 (A) (A) (A) (A) (A) (A) (A) (A) (A) (A) (A) (A)
                 (A) (A) (A) (A) (A) (A) (A) (A) (A) (A) (A) (A)
                 (A) (A) (A) (A) (A) (A) (A) (A) (A) (A) (A) (A)
                 (A) (A) (A) (A) (A) (A) (A) (A) (A) (A) (A) (A)
                 (A) (A) (A) (A) (A) (A) (A) (A) (A) (A) (A) (A)
                 (A) (A) (A) (A) (A) (A) (A) (A) (A) (A) (A) (A)
                 (A) (A) (A) (A) (A) (A) (A) (A) (A) (A) (A) (A)
                 (A) (A) (A) (A) (A) (A) (A) (A) (A) (A) (A) (A)
                 (A) (A) (A) (A) (A) (A) (A) (A) (A) (A) (A) (A)
                 (A) (A) (A) (A) (A) (A) (A) (A) (A) (A) (A) (A)
                 (A) (A) (A) (A) (A) (A) (A) (A) (A) (A) (A) (A)
                 (A) (A) (A) (A) (A) (A) (A) (A) (A) (A) (A) (A)
                 (A) (A) (A) (A) (A) (A) (A) (A) (A) (A) (A) (A)
                 (A) (A) (A) (A) (A) (A) (A) (A) (A) (A) (A) (A)
                 (A) (A) (A) (A) (A) (A) (A) (A) (A) (A) (A) (A)
                 (A) (A) (A) (A) (A) (A) (A) (A) (A) (A) (A) (A)
                 (A) (A) (A) (A) (A) (A) (A) (A) (A) (A) (A) (A)
                 (A) (A) (A) (A) (A) (A) (A) (A) (A) (A) (A) (A)
                 (A) (A) (A) (A) (A) (A) (A) (A) (A) (A) (A) (A)
                 (A) (A) (A) (A) (A) (A) (A) (A) (A) (A) (A) (A)
                 (A) (A) (A) (A) (A) (A) (A) (A) (A) (A) (A) (A)
                 (A) (A) (A) (A) (A) (A) (A) (A) (A) (A) (A) (A)
                 (A) (A) (A) (A) (A) (A) (A) (A) (A) (A) (A) (A)
                 (A) (A) (A) (A) (A) (A) (A) (A) (A) (A) (A) (A)
                 (A) (A) (A) (A) (A) (A) (A) (A) (A) (A) (A) (A)
                 (A) (A) (A) (A) (A) (A) (A) (A) (A) (A) (A) (A)
                 (A) (A) (A) (A) (A) (A) (A) (A) (A) (A) (A) (A)
                 (A) (A) (A) (A) (A) (A) (A) (A) (A) (A) (A) (A)
                 (A) (A) (A) (A) (A) (A) (A) (A) (A) (A) (A) (A)
                 (A) (A) (A) (A) (A) (A) (A) (A) (A) (A) (A) (A)
                 (A) (A) (A) (A) (A) (A) (A) (A) (A) (A) (A) (A)
                 (A) (A) (A) (A) (A) (A) (A) (A) (A) (A) (A) (A)
                 (A) (A) (A) (A) (A) (A) (A) (A) (A) (A) (A) (A)
 The electronic state is 1-A.
 Alpha  occ. eigenvalues --  -25.26990 -25.26747 -19.59860 -14.75059 -10.64454
 Alpha  occ. eigenvalues --  -10.64353 -10.58233 -10.57115 -10.57089 -10.57077
 Alpha  occ. eigenvalues --  -10.56675 -10.55844 -10.55780 -10.53962 -10.53253
 Alpha  occ. eigenvalues --  -10.52718 -10.52632  -1.38225  -1.38048  -1.12221
 Alpha  occ. eigenvalues --   -1.02841  -0.98355  -0.90713  -0.87690  -0.86139
 Alpha  occ. eigenvalues --   -0.85344  -0.79281  -0.75547  -0.75172  -0.72801
 Alpha  occ. eigenvalues --   -0.70849  -0.68455  -0.65381  -0.64286  -0.62443
 Alpha  occ. eigenvalues --   -0.59194  -0.57814  -0.57465  -0.57331  -0.57218
 Alpha  occ. eigenvalues --   -0.55883  -0.54701  -0.54176  -0.52117  -0.50652
 Alpha  occ. eigenvalues --   -0.49718  -0.49039  -0.48571  -0.47785  -0.47262
 Alpha  occ. eigenvalues --   -0.46653  -0.44901  -0.44722  -0.44088  -0.42975
 Alpha  occ. eigenvalues --   -0.41925  -0.41699  -0.40830  -0.39717  -0.38697
 Alpha  occ. eigenvalues --   -0.37481  -0.33144  -0.32004  -0.31374  -0.30130
 Alpha virt. eigenvalues --    0.00158   0.01737   0.05822   0.07005   0.07639
 Alpha virt. eigenvalues --    0.08936   0.09144   0.11146   0.11571   0.12046
 Alpha virt. eigenvalues --    0.12217   0.12644   0.12884   0.13921   0.14352
 Alpha virt. eigenvalues --    0.14797   0.15543   0.16190   0.16634   0.17280
 Alpha virt. eigenvalues --    0.17949   0.18601   0.19124   0.19458   0.19928
 Alpha virt. eigenvalues --    0.20350   0.20852   0.21272   0.21953   0.21998
 Alpha virt. eigenvalues --    0.23037   0.23880   0.24479   0.24716   0.24985
 Alpha virt. eigenvalues --    0.25993   0.27099   0.27532   0.27864   0.28178
 Alpha virt. eigenvalues --    0.28765   0.29929   0.30685   0.31065   0.31751
 Alpha virt. eigenvalues --    0.32612   0.33531   0.34348   0.34876   0.35014
 Alpha virt. eigenvalues --    0.35446   0.36144   0.37065   0.37357   0.37831
 Alpha virt. eigenvalues --    0.38120   0.39313   0.40146   0.40295   0.40931
 Alpha virt. eigenvalues --    0.41161   0.41273   0.42516   0.42628   0.43469
 Alpha virt. eigenvalues --    0.43687   0.44217   0.45100   0.45306   0.45703
 Alpha virt. eigenvalues --    0.46287   0.46580   0.46994   0.47583   0.47925
 Alpha virt. eigenvalues --    0.48553   0.48781   0.49137   0.49376   0.49717
 Alpha virt. eigenvalues --    0.50111   0.50731   0.51167   0.51735   0.52444
 Alpha virt. eigenvalues --    0.52876   0.53165   0.53886   0.54805   0.55427
 Alpha virt. eigenvalues --    0.55714   0.55905   0.56358   0.57145   0.57615
 Alpha virt. eigenvalues --    0.58164   0.60032   0.60536   0.61433   0.62897
 Alpha virt. eigenvalues --    0.63389   0.65107   0.66373   0.67269   0.67921
 Alpha virt. eigenvalues --    0.68469   0.69140   0.69279   0.70742   0.71433
 Alpha virt. eigenvalues --    0.72007   0.73122   0.74053   0.75352   0.75686
 Alpha virt. eigenvalues --    0.76991   0.77957   0.78958   0.79826   0.80880
 Alpha virt. eigenvalues --    0.81315   0.82086   0.83021   0.84632   0.85387
 Alpha virt. eigenvalues --    0.86213   0.87081   0.88484   0.89202   0.89749
 Alpha virt. eigenvalues --    0.90180   0.90719   0.91271   0.92048   0.93332
 Alpha virt. eigenvalues --    0.93982   0.95017   0.95528   0.95990   0.97584
 Alpha virt. eigenvalues --    0.98036   1.00546   1.00639   1.01283   1.02475
 Alpha virt. eigenvalues --    1.02832   1.04660   1.05018   1.05667   1.07823
 Alpha virt. eigenvalues --    1.09055   1.09499   1.10315   1.11549   1.12010
 Alpha virt. eigenvalues --    1.13908   1.14995   1.15665   1.15829   1.17362
 Alpha virt. eigenvalues --    1.18114   1.18715   1.19665   1.20531   1.21490
 Alpha virt. eigenvalues --    1.21942   1.22632   1.23990   1.24799   1.25430
 Alpha virt. eigenvalues --    1.27018   1.28208   1.29349   1.30757   1.32134
 Alpha virt. eigenvalues --    1.32625   1.33757   1.34549   1.36122   1.36987
 Alpha virt. eigenvalues --    1.37190   1.39222   1.39663   1.41086   1.41933
 Alpha virt. eigenvalues --    1.44057   1.45202   1.46612   1.48295   1.49514
 Alpha virt. eigenvalues --    1.50150   1.51462   1.52932   1.54691   1.56121
 Alpha virt. eigenvalues --    1.56567   1.57213   1.57464   1.58374   1.58957
 Alpha virt. eigenvalues --    1.59515   1.60129   1.61514   1.61658   1.61896
 Alpha virt. eigenvalues --    1.63259   1.63916   1.64877   1.65950   1.66104
 Alpha virt. eigenvalues --    1.67043   1.67710   1.68267   1.69686   1.69723
 Alpha virt. eigenvalues --    1.70472   1.71142   1.71302   1.72350   1.73320
 Alpha virt. eigenvalues --    1.74433   1.75236   1.77388   1.78186   1.79539
 Alpha virt. eigenvalues --    1.80475   1.81581   1.83146   1.84743   1.84918
 Alpha virt. eigenvalues --    1.86066   1.87875   1.89645   1.90818   1.91609
 Alpha virt. eigenvalues --    1.92810   1.93576   1.93790   1.95012   1.95967
 Alpha virt. eigenvalues --    1.96860   1.98557   1.98971   1.99191   2.00739
 Alpha virt. eigenvalues --    2.01389   2.04891   2.06196   2.07266   2.07890
 Alpha virt. eigenvalues --    2.09497   2.09907   2.11553   2.11907   2.12743
 Alpha virt. eigenvalues --    2.13494   2.14923   2.16104   2.16815   2.17070
 Alpha virt. eigenvalues --    2.18031   2.19049   2.19991   2.20870   2.20982
 Alpha virt. eigenvalues --    2.22060   2.24006   2.25942   2.27540   2.28795
 Alpha virt. eigenvalues --    2.29230   2.29820   2.30081   2.31537   2.32050
 Alpha virt. eigenvalues --    2.34184   2.34713   2.35446   2.37412   2.38473
 Alpha virt. eigenvalues --    2.39041   2.40382   2.41186   2.41962   2.42856
 Alpha virt. eigenvalues --    2.43217   2.44236   2.44583   2.45707   2.46473
 Alpha virt. eigenvalues --    2.48139   2.49180   2.49651   2.50773   2.52322
 Alpha virt. eigenvalues --    2.52534   2.53610   2.54628   2.55125   2.56393
 Alpha virt. eigenvalues --    2.56573   2.57126   2.57910   2.58779   2.59593
 Alpha virt. eigenvalues --    2.61227   2.61682   2.62528   2.63076   2.64798
 Alpha virt. eigenvalues --    2.65289   2.65922   2.66519   2.66787   2.67621
 Alpha virt. eigenvalues --    2.68010   2.69165   2.69762   2.70270   2.71693
 Alpha virt. eigenvalues --    2.72132   2.72968   2.74817   2.75136   2.75702
 Alpha virt. eigenvalues --    2.76817   2.77216   2.77611   2.78060   2.79579
 Alpha virt. eigenvalues --    2.80078   2.81292   2.82776   2.83083   2.85194
 Alpha virt. eigenvalues --    2.85781   2.86385   2.87376   2.89246   2.90522
 Alpha virt. eigenvalues --    2.91395   2.91539   2.92205   2.93503   2.94565
 Alpha virt. eigenvalues --    2.95050   2.96414   2.97217   2.98653   2.98877
 Alpha virt. eigenvalues --    3.00868   3.01468   3.02391   3.02736   3.04952
 Alpha virt. eigenvalues --    3.05111   3.07381   3.07716   3.08352   3.09073
 Alpha virt. eigenvalues --    3.09588   3.10084   3.11729   3.12243   3.12823
 Alpha virt. eigenvalues --    3.12926   3.13725   3.14158   3.15845   3.17356
 Alpha virt. eigenvalues --    3.17533   3.18992   3.19531   3.20435   3.21663
 Alpha virt. eigenvalues --    3.22656   3.23466   3.24957   3.25619   3.26380
 Alpha virt. eigenvalues --    3.26527   3.26785   3.27439   3.29204   3.30240
 Alpha virt. eigenvalues --    3.30583   3.31976   3.32625   3.33633   3.34876
 Alpha virt. eigenvalues --    3.35037   3.35927   3.36610   3.36925   3.37923
 Alpha virt. eigenvalues --    3.38729   3.39709   3.39934   3.41867   3.42907
 Alpha virt. eigenvalues --    3.43223   3.43972   3.44542   3.45927   3.46779
 Alpha virt. eigenvalues --    3.47959   3.48841   3.50018   3.50531   3.51269
 Alpha virt. eigenvalues --    3.52739   3.53207   3.53777   3.54367   3.55192
 Alpha virt. eigenvalues --    3.57043   3.57943   3.58840   3.59823   3.60375
 Alpha virt. eigenvalues --    3.61581   3.62670   3.62937   3.63567   3.65145
 Alpha virt. eigenvalues --    3.65481   3.65937   3.67000   3.69976   3.70187
 Alpha virt. eigenvalues --    3.71984   3.73152   3.74178   3.76598   3.77818
 Alpha virt. eigenvalues --    3.78436   3.80121   3.82922   3.84292   3.87714
 Alpha virt. eigenvalues --    3.89459   3.90019   3.91118   3.92971   3.93572
 Alpha virt. eigenvalues --    3.94896   3.96252   3.99274   4.01959   4.02555
 Alpha virt. eigenvalues --    4.04195   4.04741   4.05030   4.05398   4.06638
 Alpha virt. eigenvalues --    4.07100   4.09034   4.10676   4.13056   4.13528
 Alpha virt. eigenvalues --    4.14109   4.15126   4.16660   4.17675   4.17940
 Alpha virt. eigenvalues --    4.19201   4.20599   4.20807   4.21397   4.24849
 Alpha virt. eigenvalues --    4.26703   4.29050   4.31439   4.33826   4.34332
 Alpha virt. eigenvalues --    4.35659   4.36106   4.37114   4.40223   4.41481
 Alpha virt. eigenvalues --    4.45064   4.46170   4.47668   4.48451   4.51736
 Alpha virt. eigenvalues --    4.53365   4.54660   4.55293   4.59077   4.61645
 Alpha virt. eigenvalues --    4.61788   4.62475   4.64982   4.67054   4.69825
 Alpha virt. eigenvalues --    4.69971   4.73355   4.76208   4.78775   4.84252
 Alpha virt. eigenvalues --    4.87411   4.89632   4.91148   4.94509   4.98516
 Alpha virt. eigenvalues --    5.01385   5.03656   5.08889   5.09503   5.14254
 Alpha virt. eigenvalues --    5.15082   5.21542   5.27023   5.30765   5.32518
 Alpha virt. eigenvalues --    5.34400   5.35390   5.38757   5.43032   5.43604
 Alpha virt. eigenvalues --    5.49959   5.52592   5.56754   5.60517   5.70548
 Alpha virt. eigenvalues --    5.73935   5.79741   5.86300   5.95337   6.27372
 Alpha virt. eigenvalues --    6.49814   6.74614   6.78655   6.90220   6.90677
 Alpha virt. eigenvalues --    6.91221   6.92408   6.98952   6.99902   7.00827
 Alpha virt. eigenvalues --    7.08428   7.10016   7.19900   7.21903   7.24649
 Alpha virt. eigenvalues --    7.36403   7.39545   7.53957   7.56075   8.36466
 Alpha virt. eigenvalues --    8.37931   8.54700   8.55780   8.74643   8.75872
 Alpha virt. eigenvalues --    8.96628   8.97348   9.00347   9.02137  22.25346
 Alpha virt. eigenvalues --   22.42061  22.48110  22.56877  22.62847  22.65066
 Alpha virt. eigenvalues --   22.73717  22.74678  22.78273  22.81129  22.94895
 Alpha virt. eigenvalues --   23.03091  23.48256  32.64425  44.08467  57.53021
 Alpha virt. eigenvalues --   57.58630
          Condensed to atoms (all electrons):
               1          2          3          4          5          6
     1  C    5.109986   0.185939  -0.030015   0.021212  -0.000872  -0.000061
     2  C    0.185939   5.386612   0.112923  -0.062167   0.015725  -0.000346
     3  C   -0.030015   0.112923   5.664791   0.168271  -0.069962   0.002553
     4  C    0.021212  -0.062167   0.168271   5.415419   0.301214  -0.047364
     5  C   -0.000872   0.015725  -0.069962   0.301214   4.876553   0.236167
     6  O   -0.000061  -0.000346   0.002553  -0.047364   0.236167   8.147018
     7  N    0.003723  -0.036215   0.091828  -0.074414   0.030595  -0.061024
     8  C   -0.010017   0.050286  -0.089686   0.006711   0.001275   0.000013
     9  C   -0.000005   0.000106  -0.000316  -0.000020   0.000027  -0.000051
    10  C    0.000031  -0.000633   0.001153   0.000052  -0.000032   0.000028
    11  C   -0.000361   0.000804   0.008406   0.001222  -0.000618  -0.000177
    12  C    0.002330  -0.026022   0.043535   0.005716  -0.005012  -0.002835
    13  C    0.000025   0.000126   0.003311  -0.004812   0.001790   0.008856
    14  C    0.000010  -0.000076   0.000082  -0.000068   0.000432   0.000577
    15  H    0.000000   0.000000   0.000003   0.000000  -0.000001   0.000000
    16  H    0.000001  -0.000013  -0.000012   0.000000   0.000001   0.000000
    17  H    0.000000  -0.000001   0.000008   0.000003   0.000000   0.000013
    18  F    0.000379  -0.005005   0.000380   0.000158   0.000034   0.000000
    19  F   -0.000001   0.000013  -0.000261  -0.000140   0.000079  -0.001262
    20  H    0.410619  -0.048882   0.008492  -0.009093  -0.000497   0.000047
    21  H    0.419843  -0.042328   0.010428  -0.001031   0.000026   0.000000
    22  H    0.416989  -0.040895  -0.013259   0.015531   0.000972  -0.000028
    23  H   -0.037831   0.425144  -0.031180  -0.020774  -0.001368   0.000043
    24  H   -0.044132   0.432231  -0.048541   0.010214  -0.000054   0.000010
    25  H    0.001529  -0.015094  -0.051877   0.419299  -0.040846   0.006325
    26  H   -0.000121   0.001479  -0.033978  -0.047712   0.423535  -0.052253
    27  H    0.000061  -0.001039   0.019455  -0.055761   0.429966  -0.033737
    28  H   -0.000073   0.001026  -0.003352  -0.014350  -0.042639   0.316409
    29  H    0.000088   0.004983  -0.017006  -0.001466   0.000136  -0.000252
    30  H   -0.000285   0.000406   0.006589   0.000164  -0.000036   0.000035
    31  H    0.010247  -0.062098   0.439841  -0.014268  -0.011468  -0.000521
    32  C   -0.014215   0.038492  -0.081000   0.254082  -0.052008   0.007285
    33  H    0.001228  -0.011053   0.001558  -0.030644  -0.009434   0.000030
    34  H    0.000134  -0.001194   0.016327  -0.054076  -0.006476   0.000114
    35  H   -0.003809   0.015327  -0.023792  -0.029663   0.008607  -0.000339
    36  H    0.004712  -0.014509  -0.029661   0.000683  -0.002489   0.001310
               7          8          9         10         11         12
     1  C    0.003723  -0.010017  -0.000005   0.000031  -0.000361   0.002330
     2  C   -0.036215   0.050286   0.000106  -0.000633   0.000804  -0.026022
     3  C    0.091828  -0.089686  -0.000316   0.001153   0.008406   0.043535
     4  C   -0.074414   0.006711  -0.000020   0.000052   0.001222   0.005716
     5  C    0.030595   0.001275   0.000027  -0.000032  -0.000618  -0.005012
     6  O   -0.061024   0.000013  -0.000051   0.000028  -0.000177  -0.002835
     7  N    7.107764   0.210845   0.000212  -0.000222  -0.003732  -0.097884
     8  C    0.210845   5.296545  -0.003197   0.004152  -0.077284   0.084636
     9  C    0.000212  -0.003197   5.034541   0.422969  -0.008770  -0.077742
    10  C   -0.000222   0.004152   0.422969   5.041624   0.502325   0.006141
    11  C   -0.003732  -0.077284  -0.008770   0.502325   4.906475   0.245087
    12  C   -0.097884   0.084636  -0.077742   0.006141   0.245087   5.863592
    13  C    0.016095  -0.050101  -0.021190  -0.070641   0.032243   0.225672
    14  C    0.000686   0.005412   0.418822  -0.023906  -0.090617   0.000078
    15  H   -0.000004   0.000078   0.404083  -0.024663   0.002230  -0.000732
    16  H    0.000016  -0.000337  -0.031956   0.414001  -0.041905   0.012945
    17  H   -0.000010  -0.000205  -0.033590   0.004482  -0.001253   0.013987
    18  F   -0.000370   0.005163   0.008886  -0.046179   0.235934  -0.068776
    19  F   -0.004644   0.018788   0.009448  -0.001158   0.008816  -0.075803
    20  H    0.003860  -0.001509   0.000000   0.000002   0.000058   0.000565
    21  H   -0.000036   0.000054   0.000000   0.000000   0.000005  -0.000030
    22  H   -0.000510   0.000546   0.000000  -0.000001   0.000000  -0.000048
    23  H    0.006182  -0.002001   0.000000   0.000012   0.000299   0.000973
    24  H   -0.008737   0.012279  -0.000018  -0.000016   0.000751  -0.005647
    25  H   -0.002515  -0.000811   0.000000   0.000004   0.000028   0.000607
    26  H   -0.001161  -0.000015   0.000060   0.000074   0.000823   0.003467
    27  H   -0.000630   0.000071   0.000003  -0.000002  -0.000011  -0.000149
    28  H    0.035271   0.001970  -0.000039   0.000082   0.000185  -0.005799
    29  H   -0.042627   0.491461  -0.000075  -0.000203  -0.013776  -0.094664
    30  H   -0.034174   0.417981   0.000213  -0.000624   0.008330  -0.030109
    31  H   -0.036769  -0.018101  -0.000339   0.000873  -0.008980   0.008316
    32  C    0.011145  -0.000922   0.000003  -0.000034   0.000107   0.000359
    33  H    0.000002  -0.000091  -0.000001   0.000014   0.000017   0.000119
    34  H   -0.000553   0.000027   0.000000   0.000000   0.000002   0.000001
    35  H   -0.000228   0.000030   0.000000   0.000000  -0.000009  -0.000029
    36  H    0.368014  -0.051406  -0.000010   0.000041  -0.000734   0.017326
              13         14         15         16         17         18
     1  C    0.000025   0.000010   0.000000   0.000001   0.000000   0.000379
     2  C    0.000126  -0.000076   0.000000  -0.000013  -0.000001  -0.005005
     3  C    0.003311   0.000082   0.000003  -0.000012   0.000008   0.000380
     4  C   -0.004812  -0.000068   0.000000   0.000000   0.000003   0.000158
     5  C    0.001790   0.000432  -0.000001   0.000001   0.000000   0.000034
     6  O    0.008856   0.000577   0.000000   0.000000   0.000013   0.000000
     7  N    0.016095   0.000686  -0.000004   0.000016  -0.000010  -0.000370
     8  C   -0.050101   0.005412   0.000078  -0.000337  -0.000205   0.005163
     9  C   -0.021190   0.418822   0.404083  -0.031956  -0.033590   0.008886
    10  C   -0.070641  -0.023906  -0.024663   0.414001   0.004482  -0.046179
    11  C    0.032243  -0.090617   0.002230  -0.041905  -0.001253   0.235934
    12  C    0.225672   0.000078  -0.000732   0.012945   0.013987  -0.068776
    13  C    4.872332   0.532829   0.002425  -0.001200  -0.040124   0.007454
    14  C    0.532829   5.051666  -0.024851   0.004639   0.412903  -0.000617
    15  H    0.002425  -0.024851   0.475129  -0.003243  -0.003324  -0.000110
    16  H   -0.001200   0.004639  -0.003243   0.472324  -0.000137   0.001477
    17  H   -0.040124   0.412903  -0.003324  -0.000137   0.471615   0.000010
    18  F    0.007454  -0.000617  -0.000110   0.001477   0.000010   9.064266
    19  F    0.243790  -0.051028  -0.000102   0.000009   0.001736  -0.000034
    20  H   -0.000015   0.000001   0.000000   0.000000   0.000000  -0.000001
    21  H    0.000000   0.000000   0.000000   0.000000   0.000000  -0.000003
    22  H    0.000001   0.000000   0.000000   0.000000   0.000000  -0.000002
    23  H   -0.000010   0.000001   0.000000   0.000001   0.000000  -0.000158
    24  H   -0.000261  -0.000005   0.000000   0.000002   0.000000   0.004928
    25  H   -0.000326   0.000000   0.000000   0.000000   0.000000   0.000000
    26  H   -0.004894  -0.000173   0.000000  -0.000003   0.000007  -0.000014
    27  H    0.000220   0.000008   0.000000   0.000000   0.000000   0.000000
    28  H   -0.001248  -0.000301   0.000000  -0.000001  -0.000002  -0.000013
    29  H    0.007435  -0.000177   0.000001  -0.000056   0.000002   0.002432
    30  H   -0.012947  -0.000997   0.000002   0.000004  -0.000013   0.000509
    31  H   -0.000986   0.000739  -0.000001   0.000040   0.000006   0.003289
    32  C    0.000016  -0.000015   0.000000   0.000000   0.000000  -0.000014
    33  H   -0.000033   0.000000   0.000000   0.000000   0.000000  -0.000006
    34  H   -0.000001   0.000000   0.000000   0.000000   0.000000   0.000000
    35  H    0.000003   0.000000   0.000000   0.000000   0.000000  -0.000001
    36  H   -0.000011   0.000056   0.000000  -0.000001   0.000000  -0.000008
              19         20         21         22         23         24
     1  C   -0.000001   0.410619   0.419843   0.416989  -0.037831  -0.044132
     2  C    0.000013  -0.048882  -0.042328  -0.040895   0.425144   0.432231
     3  C   -0.000261   0.008492   0.010428  -0.013259  -0.031180  -0.048541
     4  C   -0.000140  -0.009093  -0.001031   0.015531  -0.020774   0.010214
     5  C    0.000079  -0.000497   0.000026   0.000972  -0.001368  -0.000054
     6  O   -0.001262   0.000047   0.000000  -0.000028   0.000043   0.000010
     7  N   -0.004644   0.003860  -0.000036  -0.000510   0.006182  -0.008737
     8  C    0.018788  -0.001509   0.000054   0.000546  -0.002001   0.012279
     9  C    0.009448   0.000000   0.000000   0.000000   0.000000  -0.000018
    10  C   -0.001158   0.000002   0.000000  -0.000001   0.000012  -0.000016
    11  C    0.008816   0.000058   0.000005   0.000000   0.000299   0.000751
    12  C   -0.075803   0.000565  -0.000030  -0.000048   0.000973  -0.005647
    13  C    0.243790  -0.000015   0.000000   0.000001  -0.000010  -0.000261
    14  C   -0.051028   0.000001   0.000000   0.000000   0.000001  -0.000005
    15  H   -0.000102   0.000000   0.000000   0.000000   0.000000   0.000000
    16  H    0.000009   0.000000   0.000000   0.000000   0.000001   0.000002
    17  H    0.001736   0.000000   0.000000   0.000000   0.000000   0.000000
    18  F   -0.000034  -0.000001  -0.000003  -0.000002  -0.000158   0.004928
    19  F    9.052825   0.000001   0.000000   0.000000   0.000000  -0.000005
    20  H    0.000001   0.549112  -0.022291  -0.030145   0.006622  -0.003455
    21  H    0.000000  -0.022291   0.510074  -0.022534  -0.004280  -0.005046
    22  H    0.000000  -0.030145  -0.022534   0.527157  -0.003294   0.006347
    23  H    0.000000   0.006622  -0.004280  -0.003294   0.521934  -0.019572
    24  H   -0.000005  -0.003455  -0.005046   0.006347  -0.019572   0.525999
    25  H    0.000009   0.001080   0.000077  -0.008086   0.001640  -0.000760
    26  H    0.000078  -0.000003   0.000000  -0.000050   0.000038  -0.000054
    27  H   -0.000005   0.000012  -0.000001   0.000012   0.000026   0.000010
    28  H    0.005119  -0.000007   0.000000  -0.000044  -0.000052  -0.000080
    29  H    0.000511   0.000019  -0.000006  -0.000145  -0.000168  -0.010115
    30  H    0.002280  -0.000119   0.000004   0.000020  -0.000001   0.000694
    31  H    0.000178  -0.000183  -0.000265  -0.000364  -0.002041  -0.005343
    32  C   -0.000001   0.000718   0.000467  -0.003710  -0.000199  -0.000490
    33  H    0.000000  -0.000018  -0.000014  -0.000091   0.000745  -0.000258
    34  H    0.000000   0.000018  -0.000006   0.000145   0.000632   0.000020
    35  H    0.000000  -0.000100   0.000053   0.002110  -0.010118   0.000771
    36  H   -0.000105  -0.000124   0.000026   0.000017   0.000028   0.000278
              25         26         27         28         29         30
     1  C    0.001529  -0.000121   0.000061  -0.000073   0.000088  -0.000285
     2  C   -0.015094   0.001479  -0.001039   0.001026   0.004983   0.000406
     3  C   -0.051877  -0.033978   0.019455  -0.003352  -0.017006   0.006589
     4  C    0.419299  -0.047712  -0.055761  -0.014350  -0.001466   0.000164
     5  C   -0.040846   0.423535   0.429966  -0.042639   0.000136  -0.000036
     6  O    0.006325  -0.052253  -0.033737   0.316409  -0.000252   0.000035
     7  N   -0.002515  -0.001161  -0.000630   0.035271  -0.042627  -0.034174
     8  C   -0.000811  -0.000015   0.000071   0.001970   0.491461   0.417981
     9  C    0.000000   0.000060   0.000003  -0.000039  -0.000075   0.000213
    10  C    0.000004   0.000074  -0.000002   0.000082  -0.000203  -0.000624
    11  C    0.000028   0.000823  -0.000011   0.000185  -0.013776   0.008330
    12  C    0.000607   0.003467  -0.000149  -0.005799  -0.094664  -0.030109
    13  C   -0.000326  -0.004894   0.000220  -0.001248   0.007435  -0.012947
    14  C    0.000000  -0.000173   0.000008  -0.000301  -0.000177  -0.000997
    15  H    0.000000   0.000000   0.000000   0.000000   0.000001   0.000002
    16  H    0.000000  -0.000003   0.000000  -0.000001  -0.000056   0.000004
    17  H    0.000000   0.000007   0.000000  -0.000002   0.000002  -0.000013
    18  F    0.000000  -0.000014   0.000000  -0.000013   0.002432   0.000509
    19  F    0.000009   0.000078  -0.000005   0.005119   0.000511   0.002280
    20  H    0.001080  -0.000003   0.000012  -0.000007   0.000019  -0.000119
    21  H    0.000077   0.000000  -0.000001   0.000000  -0.000006   0.000004
    22  H   -0.008086  -0.000050   0.000012  -0.000044  -0.000145   0.000020
    23  H    0.001640   0.000038   0.000026  -0.000052  -0.000168  -0.000001
    24  H   -0.000760  -0.000054   0.000010  -0.000080  -0.010115   0.000694
    25  H    0.560699   0.012735  -0.010108   0.001265   0.000108   0.000016
    26  H    0.012735   0.610346  -0.049440   0.001022   0.000041   0.000034
    27  H   -0.010108  -0.049440   0.568440   0.006026  -0.000006  -0.000001
    28  H    0.001265   0.001022   0.006026   0.345463   0.000504  -0.000964
    29  H    0.000108   0.000041  -0.000006   0.000504   0.485267  -0.013094
    30  H    0.000016   0.000034  -0.000001  -0.000964  -0.013094   0.477142
    31  H    0.006126   0.005172  -0.000064   0.000763   0.000898  -0.000605
    32  C   -0.033648   0.002834  -0.008089  -0.000435   0.000051   0.000020
    33  H    0.008081   0.005200  -0.000505   0.000043   0.000006   0.000001
    34  H   -0.004716  -0.000585   0.003878  -0.000025  -0.000003   0.000000
    35  H   -0.007809  -0.000717   0.000015   0.000002  -0.000004   0.000000
    36  H    0.002100   0.000222  -0.000082  -0.002178  -0.000198  -0.007052
              31         32         33         34         35         36
     1  C    0.010247  -0.014215   0.001228   0.000134  -0.003809   0.004712
     2  C   -0.062098   0.038492  -0.011053  -0.001194   0.015327  -0.014509
     3  C    0.439841  -0.081000   0.001558   0.016327  -0.023792  -0.029661
     4  C   -0.014268   0.254082  -0.030644  -0.054076  -0.029663   0.000683
     5  C   -0.011468  -0.052008  -0.009434  -0.006476   0.008607  -0.002489
     6  O   -0.000521   0.007285   0.000030   0.000114  -0.000339   0.001310
     7  N   -0.036769   0.011145   0.000002  -0.000553  -0.000228   0.368014
     8  C   -0.018101  -0.000922  -0.000091   0.000027   0.000030  -0.051406
     9  C   -0.000339   0.000003  -0.000001   0.000000   0.000000  -0.000010
    10  C    0.000873  -0.000034   0.000014   0.000000   0.000000   0.000041
    11  C   -0.008980   0.000107   0.000017   0.000002  -0.000009  -0.000734
    12  C    0.008316   0.000359   0.000119   0.000001  -0.000029   0.017326
    13  C   -0.000986   0.000016  -0.000033  -0.000001   0.000003  -0.000011
    14  C    0.000739  -0.000015   0.000000   0.000000   0.000000   0.000056
    15  H   -0.000001   0.000000   0.000000   0.000000   0.000000   0.000000
    16  H    0.000040   0.000000   0.000000   0.000000   0.000000  -0.000001
    17  H    0.000006   0.000000   0.000000   0.000000   0.000000   0.000000
    18  F    0.003289  -0.000014  -0.000006   0.000000  -0.000001  -0.000008
    19  F    0.000178  -0.000001   0.000000   0.000000   0.000000  -0.000105
    20  H   -0.000183   0.000718  -0.000018   0.000018  -0.000100  -0.000124
    21  H   -0.000265   0.000467  -0.000014  -0.000006   0.000053   0.000026
    22  H   -0.000364  -0.003710  -0.000091   0.000145   0.002110   0.000017
    23  H   -0.002041  -0.000199   0.000745   0.000632  -0.010118   0.000028
    24  H   -0.005343  -0.000490  -0.000258   0.000020   0.000771   0.000278
    25  H    0.006126  -0.033648   0.008081  -0.004716  -0.007809   0.002100
    26  H    0.005172   0.002834   0.005200  -0.000585  -0.000717   0.000222
    27  H   -0.000064  -0.008089  -0.000505   0.003878   0.000015  -0.000082
    28  H    0.000763  -0.000435   0.000043  -0.000025   0.000002  -0.002178
    29  H    0.000898   0.000051   0.000006  -0.000003  -0.000004  -0.000198
    30  H   -0.000605   0.000020   0.000001   0.000000   0.000000  -0.007052
    31  H    0.495480  -0.006397   0.002432  -0.000096   0.000443   0.005900
    32  C   -0.006397   5.122506   0.406243   0.424646   0.417179   0.000081
    33  H    0.002432   0.406243   0.518671  -0.024226  -0.027612  -0.000002
    34  H   -0.000096   0.424646  -0.024226   0.510999  -0.020318   0.000001
    35  H    0.000443   0.417179  -0.027612  -0.020318   0.520561   0.000019
    36  H    0.005900   0.000081  -0.000002   0.000001   0.000019   0.452396
 Mulliken charges:
               1
     1  C   -0.447290
     2  C   -0.304053
     3  C   -0.076036
     4  C   -0.152130
     5  C   -0.083322
     6  O   -0.526580
     7  N   -0.479777
     8  C   -0.302638
     9  C   -0.122055
    10  C   -0.229746
    11  C    0.294079
    12  C   -0.044170
    13  C    0.254176
    14  C   -0.236107
    15  H    0.173083
    16  H    0.173405
    17  H    0.173887
    18  F   -0.213990
    19  F   -0.209134
    20  H    0.135217
    21  H    0.156814
    22  H    0.153358
    23  H    0.168727
    24  H    0.158057
    25  H    0.154870
    26  H    0.124005
    27  H    0.131427
    28  H    0.356448
    29  H    0.200096
    30  H    0.186577
    31  H    0.188148
    32  C   -0.485061
    33  H    0.159599
    34  H    0.155329
    35  H    0.159427
    36  H    0.255361
 Sum of Mulliken charges =   0.00000
 Mulliken charges with hydrogens summed into heavy atoms:
               1
     1  C   -0.001901
     2  C    0.022730
     3  C    0.112112
     4  C    0.002740
     5  C    0.172111
     6  O   -0.170132
     7  N   -0.224416
     8  C    0.084035
     9  C    0.051028
    10  C   -0.056341
    11  C    0.294079
    12  C   -0.044170
    13  C    0.254176
    14  C   -0.062220
    18  F   -0.213990
    19  F   -0.209134
    32  C   -0.010705
 Electronic spatial extent (au):  <R**2>=           4368.9738
 Charge=              0.0000 electrons
 Dipole moment (field-independent basis, Debye):
    X=              0.8215    Y=             -3.6691    Z=              0.8811  Tot=              3.8618
 Quadrupole moment (field-independent basis, Debye-Ang):
   XX=            -89.5169   YY=           -117.1445   ZZ=            -97.0913
   XY=              5.1931   XZ=              5.3254   YZ=              4.1001
 Traceless Quadrupole moment (field-independent basis, Debye-Ang):
   XX=             11.7340   YY=            -15.8936   ZZ=              4.1596
   XY=              5.1931   XZ=              5.3254   YZ=              4.1001
 Octapole moment (field-independent basis, Debye-Ang**2):
  XXX=             40.6924  YYY=            -31.8645  ZZZ=            -18.5647  XYY=             15.1873
  XXY=              7.2018  XXZ=             26.7885  XZZ=              6.6598  YZZ=             -4.4416
  YYZ=              8.3689  XYZ=             -6.5665
 Hexadecapole moment (field-independent basis, Debye-Ang**3):
 XXXX=          -3406.9980 YYYY=          -1540.3944 ZZZZ=           -769.1986 XXXY=             36.3309
 XXXZ=             96.2731 YYYX=             53.6061 YYYZ=              2.9390 ZZZX=             15.5997
 ZZZY=            -35.8919 XXYY=           -799.6381 XXZZ=           -693.8362 YYZZ=           -361.3284
 XXYZ=             -5.6379 YYXZ=             -4.3483 ZZXY=            -25.6799
 N-N= 1.310447307657D+03 E-N=-4.576991473935D+03  KE= 8.321475433262D+02
 1\1\GINC-CPU-E-94\SP\RM062X\def2TZVP\C13H19F2N1O1\KE291\26-Jun-2019\0\
 \# m062x/def2tzvp int=ultrafine scrf=(solvent=chloroform)\\AT3_1ginp00
 6\\0,1\C,0,-3.328907,-1.780931,-1.106461\C,0,-2.20168,-1.714335,-0.069
 386\C,0,-1.53804,-0.327001,0.104219\C,0,-2.493072,0.793529,0.596473\C,
 0,-1.724689,2.101435,0.885883\O,0,-1.18232,2.727513,-0.263514\N,0,-0.8
 32609,0.14769,-1.113169\C,0,0.364319,-0.609421,-1.522172\C,0,3.700842,
 0.05317,1.169875\C,0,3.013405,-1.159792,1.214313\C,0,1.945061,-1.34542
 4,0.344369\C,0,1.523128,-0.386983,-0.578099\C,0,2.247311,0.80822,-0.57
 2507\C,0,3.321428,1.053354,0.272378\H,0,4.537249,0.221798,1.839947\H,0
 ,3.285663,-1.949989,1.90423\H,0,3.839013,2.003993,0.218807\F,0,1.26932
 9,-2.519733,0.397314\F,0,1.87893,1.769562,-1.449375\H,0,-2.985429,-1.4
 89615,-2.1057\H,0,-3.71698,-2.801004,-1.186906\H,0,-4.168108,-1.129164
 ,-0.842768\H,0,-2.581183,-2.043699,0.903932\H,0,-1.420787,-2.437208,-0
 .331563\H,0,-3.211936,1.019131,-0.204471\H,0,-0.941065,1.886842,1.6366
 37\H,0,-2.411999,2.821311,1.347058\H,0,-0.750853,1.991882,-0.750317\H,
 0,0.186701,-1.687569,-1.614039\H,0,0.644927,-0.241113,-2.513104\H,0,-0
 .763392,-0.438463,0.875278\C,0,-3.274798,0.376869,1.851955\H,0,-2.5963
 45,0.088687,2.664058\H,0,-3.888319,1.208478,2.213502\H,0,-3.944639,-0.
 465509,1.663091\H,0,-1.485866,0.162684,-1.893876\\Version=ES64L-G09Rev
 D.01\State=1-A\HF=-836.4634201\RMSD=7.791e-09\Dipole=0.323193,-1.44355
 45,0.346657\Quadrupole=8.7239346,-11.8164893,3.0925547,3.8609425,3.959
 3245,3.0483179\PG=C01 [X(C13H19F2N1O1)]\\@


 KNOWLEDGE IS OF TWO KINDS:  WE KNOW A SUBJECT OURSELVES OR WE KNOW 
 WHERE WE CAN FIND INFORMATION UPON IT.

                                    -- SAMUEL JOHNSON
 Job cpu time:       0 days  1 hours 22 minutes 52.3 seconds.
 File lengths (MBytes):  RWF=    313 Int=      0 D2E=      0 Chk=     17 Scr=      1
 Normal termination of Gaussian 09 at Wed Jun 26 12:23:47 2019.
