 Entering Gaussian System, Link 0=/usr/local/Cluster-Apps/gaussian/g09/g09
 Initial command:
 /usr/local/Cluster-Apps/gaussian/g09/l1.exe "/home/ke291/rds/hpc-work/26Jun1158AT3NMR/Gau-109941.inp" -scrdir="/home/ke291/rds/hpc-work/26Jun1158AT3NMR/"
 Entering Link 1 = /usr/local/Cluster-Apps/gaussian/g09/l1.exe PID=    109947.
  
 Copyright (c) 1988,1990,1992,1993,1995,1998,2003,2009,2013,
            Gaussian, Inc.  All Rights Reserved.
  
 This is part of the Gaussian(R) 09 program.  It is based on
 the Gaussian(R) 03 system (copyright 2003, Gaussian, Inc.),
 the Gaussian(R) 98 system (copyright 1998, Gaussian, Inc.),
 the Gaussian(R) 94 system (copyright 1995, Gaussian, Inc.),
 the Gaussian 92(TM) system (copyright 1992, Gaussian, Inc.),
 the Gaussian 90(TM) system (copyright 1990, Gaussian, Inc.),
 the Gaussian 88(TM) system (copyright 1988, Gaussian, Inc.),
 the Gaussian 86(TM) system (copyright 1986, Carnegie Mellon
 University), and the Gaussian 82(TM) system (copyright 1983,
 Carnegie Mellon University). Gaussian is a federally registered
 trademark of Gaussian, Inc.
  
 This software contains proprietary and confidential information,
 including trade secrets, belonging to Gaussian, Inc.
  
 This software is provided under written license and may be
 used, copied, transmitted, or stored only in accord with that
 written license.
  
 The following legend is applicable only to US Government
 contracts under FAR:
  
                    RESTRICTED RIGHTS LEGEND
  
 Use, reproduction and disclosure by the US Government is
 subject to restrictions as set forth in subparagraphs (a)
 and (c) of the Commercial Computer Software - Restricted
 Rights clause in FAR 52.227-19.
  
 Gaussian, Inc.
 340 Quinnipiac St., Bldg. 40, Wallingford CT 06492
  
  
 ---------------------------------------------------------------
 Warning -- This program may not be used in any manner that
 competes with the business of Gaussian, Inc. or will provide
 assistance to any competitor of Gaussian, Inc.  The licensee
 of this program is prohibited from giving any competitor of
 Gaussian, Inc. access to this program.  By using this program,
 the user acknowledges that Gaussian, Inc. is engaged in the
 business of creating and licensing software in the field of
 computational chemistry and represents and warrants to the
 licensee that it is not a competitor of Gaussian, Inc. and that
 it will not use this program in any manner prohibited above.
 ---------------------------------------------------------------
  

 Cite this work as:
 Gaussian 09, Revision D.01,
 M. J. Frisch, G. W. Trucks, H. B. Schlegel, G. E. Scuseria, 
 M. A. Robb, J. R. Cheeseman, G. Scalmani, V. Barone, B. Mennucci, 
 G. A. Petersson, H. Nakatsuji, M. Caricato, X. Li, H. P. Hratchian, 
 A. F. Izmaylov, J. Bloino, G. Zheng, J. L. Sonnenberg, M. Hada, 
 M. Ehara, K. Toyota, R. Fukuda, J. Hasegawa, M. Ishida, T. Nakajima, 
 Y. Honda, O. Kitao, H. Nakai, T. Vreven, J. A. Montgomery, Jr., 
 J. E. Peralta, F. Ogliaro, M. Bearpark, J. J. Heyd, E. Brothers, 
 K. N. Kudin, V. N. Staroverov, T. Keith, R. Kobayashi, J. Normand, 
 K. Raghavachari, A. Rendell, J. C. Burant, S. S. Iyengar, J. Tomasi, 
 M. Cossi, N. Rega, J. M. Millam, M. Klene, J. E. Knox, J. B. Cross, 
 V. Bakken, C. Adamo, J. Jaramillo, R. Gomperts, R. E. Stratmann, 
 O. Yazyev, A. J. Austin, R. Cammi, C. Pomelli, J. W. Ochterski, 
 R. L. Martin, K. Morokuma, V. G. Zakrzewski, G. A. Voth, 
 P. Salvador, J. J. Dannenberg, S. Dapprich, A. D. Daniels, 
 O. Farkas, J. B. Foresman, J. V. Ortiz, J. Cioslowski, 
 and D. J. Fox, Gaussian, Inc., Wallingford CT, 2013.
 
 ******************************************
 Gaussian 09:  ES64L-G09RevD.01 24-Apr-2013
                26-Jun-2019 
 ******************************************
 %nprocshared=4
 Will use up to    4 processors via shared memory.
 %mem=6000MB
 %chk=AT3_1ginp013.chk
 --------------------------------------------------------
 # m062x/def2tzvp int=ultrafine scrf=(solvent=chloroform)
 --------------------------------------------------------
 1/38=1/1;
 2/12=2,17=6,18=5,40=1/2;
 3/5=44,7=101,11=2,16=1,25=1,30=1,70=2201,72=7,74=-55,75=-5/1,2,3;
 4//1;
 5/5=2,38=5,53=7/2;
 6/7=2,8=2,9=2,10=2,28=1/1;
 99/5=1,9=1/99;
 ------------
 AT3_1ginp013
 ------------
 Symbolic Z-matrix:
 Charge =  0 Multiplicity = 1
 C                    -1.82115   2.86218   1.52694 
 C                    -2.42603   1.47418   1.29528 
 C                    -1.81998   0.73469   0.08574 
 C                    -2.6046   -0.54736  -0.32895 
 C                    -4.04401  -0.22953  -0.74259 
 O                    -4.55105  -1.34716  -1.4747 
 N                    -0.39131   0.50918   0.35505 
 C                     0.39415  -0.00342  -0.77225 
 C                     4.56343  -0.43227   0.35245 
 C                     4.19086   0.58927  -0.52126 
 C                     2.84949   0.71208  -0.86753 
 C                     1.85099  -0.13957  -0.39323 
 C                     2.28594  -1.13901   0.47884 
 C                     3.60755  -1.31159   0.86555 
 H                     5.60435  -0.54387   0.63711 
 H                     4.91395   1.28441  -0.93193 
 H                     3.86879  -2.11187   1.54809 
 F                     2.49487   1.70327  -1.71777 
 F                     1.34564  -1.98359   0.97964 
 H                    -2.25513   3.33803   2.41245 
 H                    -0.73938   2.79481   1.66377 
 H                    -2.00872   3.51955   0.66992 
 H                    -2.29141   0.86086   2.1965 
 H                    -3.50865   1.5707    1.15505 
 H                    -2.12911  -0.92488  -1.24442 
 H                    -4.0615    0.68151  -1.36284 
 H                    -4.66713  -0.03638   0.14335 
 H                    -5.48988  -1.18979  -1.63939 
 H                     0.04724  -0.97966  -1.14792 
 H                     0.30678   0.70558  -1.59996 
 H                    -1.8624    1.41965  -0.77518 
 C                    -2.55864  -1.67294   0.71455 
 H                    -3.01285  -1.36517   1.66323 
 H                    -3.11114  -2.54171   0.34767 
 H                    -1.53196  -1.99352   0.91937 
 H                    -0.29688  -0.1327    1.13919 
 
                          Input orientation:                          
 ---------------------------------------------------------------------
 Center     Atomic      Atomic             Coordinates (Angstroms)
 Number     Number       Type             X           Y           Z
 ---------------------------------------------------------------------
      1          6           0       -1.821152    2.862177    1.526936
      2          6           0       -2.426034    1.474183    1.295277
      3          6           0       -1.819978    0.734691    0.085744
      4          6           0       -2.604597   -0.547358   -0.328950
      5          6           0       -4.044012   -0.229528   -0.742588
      6          8           0       -4.551051   -1.347164   -1.474696
      7          7           0       -0.391309    0.509184    0.355053
      8          6           0        0.394153   -0.003422   -0.772250
      9          6           0        4.563425   -0.432270    0.352448
     10          6           0        4.190861    0.589272   -0.521255
     11          6           0        2.849485    0.712077   -0.867532
     12          6           0        1.850991   -0.139569   -0.393228
     13          6           0        2.285943   -1.139009    0.478840
     14          6           0        3.607553   -1.311586    0.865553
     15          1           0        5.604351   -0.543866    0.637111
     16          1           0        4.913949    1.284413   -0.931934
     17          1           0        3.868788   -2.111874    1.548090
     18          9           0        2.494874    1.703272   -1.717768
     19          9           0        1.345640   -1.983585    0.979639
     20          1           0       -2.255131    3.338031    2.412453
     21          1           0       -0.739382    2.794811    1.663770
     22          1           0       -2.008720    3.519546    0.669923
     23          1           0       -2.291411    0.860856    2.196497
     24          1           0       -3.508648    1.570698    1.155052
     25          1           0       -2.129112   -0.924879   -1.244415
     26          1           0       -4.061503    0.681513   -1.362842
     27          1           0       -4.667134   -0.036376    0.143345
     28          1           0       -5.489880   -1.189788   -1.639386
     29          1           0        0.047235   -0.979662   -1.147918
     30          1           0        0.306775    0.705581   -1.599963
     31          1           0       -1.862404    1.419653   -0.775178
     32          6           0       -2.558636   -1.672942    0.714553
     33          1           0       -3.012853   -1.365167    1.663234
     34          1           0       -3.111136   -2.541711    0.347668
     35          1           0       -1.531963   -1.993523    0.919372
     36          1           0       -0.296881   -0.132704    1.139192
 ---------------------------------------------------------------------
                    Distance matrix (angstroms):
                    1          2          3          4          5
     1  C    0.000000
     2  C    1.531690   0.000000
     3  C    2.569676   1.541792   0.000000
     4  C    3.960180   2.599351   1.559246   0.000000
     5  C    4.432887   3.110205   2.561675   1.531022   0.000000
     6  O    5.846426   4.488702   3.771983   2.396061   1.429049
     7  N    2.992380   2.440359   1.471216   2.546131   3.884939
     8  C    4.290162   3.796240   2.486632   3.079754   4.444020
     9  C    7.279810   7.305890   6.494672   7.201256   8.679181
    10  C    6.745775   6.918537   6.043160   6.892544   8.278439
    11  C    5.671971   5.752360   4.765830   5.623456   6.958630
    12  C    5.116849   4.873211   3.803914   4.474672   5.906031
    13  C    5.828913   5.449593   4.530327   4.991989   6.510559
    14  C    6.879576   6.659530   5.852644   6.371946   7.893251
    15  H    8.217725   8.306190   7.553766   8.265598   9.751579
    16  H    7.341455   7.672798   6.832542   7.761927   9.086965
    17  H    7.557582   7.249035   6.527132   6.919227   8.450020
    18  F    5.522612   5.774622   4.775851   5.744454   6.887940
    19  F    5.814595   5.126530   4.267225   4.402218   5.923777
    20  H    1.094950   2.179729   3.518567   4.767983   5.087421
    21  H    1.092469   2.173624   2.811040   4.315096   5.085053
    22  H    1.096260   2.179158   2.851720   4.229956   4.493680
    23  H    2.162115   1.098404   2.166436   2.908442   3.591486
    24  H    2.157280   1.095916   2.166549   2.739659   2.669919
    25  H    4.702873   3.506237   2.149200   1.098492   2.098139
    26  H    4.257380   3.220044   2.669394   2.168325   1.102278
    27  H    4.291334   2.937901   2.950281   2.176746   1.100212
    28  H    6.316928   5.009605   4.488638   3.233391   1.953684
    29  H    5.040381   4.255305   2.819116   2.808880   4.179150
    30  H    4.353904   4.054801   2.713952   3.414882   4.531983
    31  H    2.717040   2.146494   1.100981   2.149210   2.735009
    32  C    4.665957   3.203002   2.595711   1.535562   2.532399
    33  H    4.394220   2.922611   2.884585   2.191867   2.853234
    34  H    5.679501   4.182670   3.531360   2.166065   2.721232
    35  H    4.902100   3.600785   2.867236   2.190946   3.490584
    36  H    3.382759   2.672029   2.044982   2.766393   4.194218
                    6          7          8          9         10
     6  O    0.000000
     7  N    4.908917   0.000000
     8  C    5.172438   1.466468   0.000000
     9  C    9.340726   5.043385   4.339549   0.000000
    10  C    9.004436   4.665899   3.850880   1.394887   0.000000
    11  C    7.705651   3.469672   2.559233   2.394884   1.390783
    12  C    6.604090   2.451268   1.511480   2.828251   2.454097
    13  C    7.113657   3.146354   2.536465   2.387965   2.759684
    14  C    8.487688   4.423428   3.836617   1.396483   2.424200
    15  H   10.403711   6.093965   5.424439   1.084903   2.150295
    16  H    9.839005   5.513899   4.702401   2.172442   1.083852
    17  H    8.978625   5.142150   4.680025   2.175580   3.417910
    18  F    7.681751   3.748664   2.867026   3.622877   2.355634
    19  F    6.418704   3.101773   2.809891   3.626856   4.119170
    20  H    6.506322   3.963471   5.322250   8.059249   7.596916
    21  H    6.444746   2.656687   3.879330   6.344555   5.826322
    22  H    5.894718   3.431828   4.501662   7.675333   6.959901
    23  H    4.843447   2.669265   4.095447   7.215363   7.034187
    24  H    4.064000   3.388896   4.628629   8.355502   7.940758
    25  H    2.469239   2.763113   2.727433   6.898020   6.538935
    26  H    2.089904   4.056006   4.546516   8.864091   8.295679
    27  H    2.085593   4.315685   5.143542   9.241411   8.904898
    28  H    0.966069   5.732340   6.064753  10.276681   9.906161
    29  H    4.624508   2.160534   1.102054   4.790272   4.474807
    30  H    5.275218   2.085181   1.093357   4.819303   4.032774
    31  H    3.920896   2.066518   2.667808   6.781772   6.115229
    32  C    2.978030   3.096485   3.703626   7.238380   7.224994
    33  H    3.494708   3.478077   4.403819   7.745221   7.777231
    34  H    2.611763   4.087233   4.470367   7.959187   7.992324
    35  H    3.906947   2.807684   3.245306   6.317647   6.441813
    36  H    5.138607   1.017748   2.036628   4.932675   4.839232
                   11         12         13         14         15
    11  C    0.000000
    12  C    1.395441   0.000000
    13  C    2.357290   1.395911   0.000000
    14  C    2.770102   2.458386   1.387798   0.000000
    15  H    3.380921   3.913153   3.375067   2.151460   0.000000
    16  H    2.143298   3.420474   3.843133   3.417139   2.506224
    17  H    3.853428   3.424939   2.143632   1.083772   2.510122
    18  F    1.353188   2.359037   3.598236   4.123223   4.501548
    19  F    3.597247   2.353835   1.359514   2.362382   4.508518
    20  H    6.611433   6.068425   6.663640   7.640870   8.943848
    21  H    4.860580   4.421748   5.102116   6.032868   7.241805
    22  H    5.817887   5.423724   6.338989   7.410845   8.629672
    23  H    5.986587   4.986684   5.282232   6.425628   8.169944
    24  H    6.727104   5.835059   6.432500   7.683208   9.369439
    25  H    5.254340   4.145172   4.744278   6.124609   7.968172
    26  H    6.928782   6.047472   6.855375   8.231197   9.946361
    27  H    7.621130   6.540987   7.047953   8.403463  10.295861
    28  H    8.588239   7.519592   8.059335   9.436781  11.343792
    29  H    3.285301   2.128109   2.771921   4.103669   5.853015
    30  H    2.646105   2.134266   3.411897   4.587251   5.884720
    31  H    4.765615   4.045536   5.032703   6.330252   7.848719
    32  C    6.118748   4.798252   4.879610   6.178614   8.241066
    33  H    6.714665   5.421080   5.434259   6.668504   8.716861
    34  H    6.898757   5.562546   5.577924   6.849978   8.946221
    35  H    5.450723   4.074855   3.937089   5.184839   7.287534
    36  H    3.826253   2.638506   2.849508   4.087694   5.936807
                   16         17         18         19         20
    16  H    0.000000
    17  H    4.333318   0.000000
    18  F    2.577771   5.206612   0.000000
    19  F    5.202572   2.589570   4.710590   0.000000
    20  H    8.173003   8.243238   6.503361   6.583168   0.000000
    21  H    6.401495   6.732323   4.804859   5.258177   1.775700
    22  H    7.448833   8.187134   5.411310   6.452295   1.769202
    23  H    7.866619   6.870634   6.240165   4.774906   2.486835
    24  H    8.682028   8.254840   6.656797   6.018954   2.505160
    25  H    7.388053   6.721744   5.339709   4.259246   5.617915
    26  H    9.005993   8.897531   6.645001   6.467392   4.957108
    27  H    9.731283   8.896233   7.601610   6.375301   4.727920
    28  H   10.717361   9.929497   8.493070   7.362998   6.883469
    29  H    5.371926   4.811926   3.676112   2.687046   6.051413
    30  H    4.691200   5.525959   2.407705   3.868488   5.439912
    31  H    6.779515   7.121504   4.467078   4.995294   3.741043
    32  C    8.203438   6.496093   6.546218   3.925575   5.299512
    33  H    8.751535   6.922992   7.154128   4.454908   4.822400
    34  H    8.982126   7.095429   7.328933   4.535829   6.290266
    35  H    7.464716   5.438511   6.069285   2.878251   5.583702
    36  H    5.783644   4.630023   4.396240   2.479736   4.183532
                   21         22         23         24         25
    21  H    0.000000
    22  H    1.767538   0.000000
    23  H    2.536291   3.078794   0.000000
    24  H    3.070192   2.506620   1.752184   0.000000
    25  H    4.921888   4.840671   3.880086   3.726723   0.000000
    26  H    4.966175   4.049751   3.979232   2.726919   2.515682
    27  H    5.074894   4.470909   3.265657   2.224484   3.026032
    28  H    7.025318   6.295174   5.399013   4.399369   3.394251
    29  H    4.771897   5.270139   4.476816   4.944928   2.179174
    30  H    4.013886   4.293285   4.603020   4.784975   2.952687
    31  H    3.016738   2.553287   3.054039   2.541402   2.405857
    32  C    4.916453   5.221717   2.947490   3.408484   2.140478
    33  H    4.740684   5.084818   2.400005   3.020491   3.070712
    34  H    5.986302   6.169117   3.958229   4.209726   2.472498
    35  H    4.910240   5.539265   3.217963   4.082462   2.486073
    36  H    3.006881   4.060731   2.466415   3.635557   3.109050
                   26         27         28         29         30
    26  H    0.000000
    27  H    1.775036   0.000000
    28  H    2.370339   2.277147   0.000000
    29  H    4.437051   4.978195   5.562853   0.000000
    30  H    4.374775   5.322536   6.098786   1.764015   0.000000
    31  H    2.392956   3.290929   4.551332   3.089072   2.428066
    32  C    3.481040   2.729540   3.790337   3.277194   4.384625
    33  H    3.800750   2.610056   4.132036   4.173168   5.094741
    34  H    3.770705   2.956278   3.381494   3.827804   5.101008
    35  H    4.331615   3.776498   4.781040   2.792037   4.124702
    36  H    4.592984   4.483314   5.983741   2.463052   2.927472
                   31         32         33         34         35
    31  H    0.000000
    32  C    3.502596   0.000000
    33  H    3.876159   1.095917   0.000000
    34  H    4.302618   1.092987   1.767662   0.000000
    35  H    3.824979   1.094888   1.772342   1.766676   0.000000
    36  H    2.919844   2.769149   3.028215   3.788120   2.244192
                   36
    36  H    0.000000
 Stoichiometry    C13H19F2NO
 Framework group  C1[X(C13H19F2NO)]
 Deg. of freedom   102
 Full point group                 C1      NOp   1
 Largest Abelian subgroup         C1      NOp   1
 Largest concise Abelian subgroup C1      NOp   1
                         Standard orientation:                         
 ---------------------------------------------------------------------
 Center     Atomic      Atomic             Coordinates (Angstroms)
 Number     Number       Type             X           Y           Z
 ---------------------------------------------------------------------
      1          6           0        1.821152    2.862177   -1.526936
      2          6           0        2.426034    1.474183   -1.295277
      3          6           0        1.819978    0.734691   -0.085744
      4          6           0        2.604597   -0.547358    0.328950
      5          6           0        4.044012   -0.229528    0.742588
      6          8           0        4.551051   -1.347164    1.474696
      7          7           0        0.391309    0.509184   -0.355053
      8          6           0       -0.394153   -0.003422    0.772250
      9          6           0       -4.563425   -0.432270   -0.352448
     10          6           0       -4.190861    0.589272    0.521255
     11          6           0       -2.849485    0.712077    0.867532
     12          6           0       -1.850991   -0.139569    0.393228
     13          6           0       -2.285943   -1.139009   -0.478840
     14          6           0       -3.607553   -1.311586   -0.865553
     15          1           0       -5.604351   -0.543866   -0.637111
     16          1           0       -4.913949    1.284413    0.931934
     17          1           0       -3.868788   -2.111874   -1.548090
     18          9           0       -2.494874    1.703272    1.717768
     19          9           0       -1.345640   -1.983585   -0.979639
     20          1           0        2.255131    3.338031   -2.412453
     21          1           0        0.739382    2.794811   -1.663770
     22          1           0        2.008720    3.519546   -0.669923
     23          1           0        2.291411    0.860856   -2.196497
     24          1           0        3.508648    1.570698   -1.155052
     25          1           0        2.129112   -0.924879    1.244415
     26          1           0        4.061503    0.681513    1.362842
     27          1           0        4.667134   -0.036376   -0.143345
     28          1           0        5.489880   -1.189788    1.639386
     29          1           0       -0.047235   -0.979662    1.147918
     30          1           0       -0.306775    0.705581    1.599963
     31          1           0        1.862404    1.419653    0.775178
     32          6           0        2.558636   -1.672942   -0.714553
     33          1           0        3.012853   -1.365167   -1.663234
     34          1           0        3.111136   -2.541711   -0.347668
     35          1           0        1.531963   -1.993523   -0.919372
     36          1           0        0.296881   -0.132704   -1.139192
 ---------------------------------------------------------------------
 Rotational constants (GHZ):      0.7409111      0.2248269      0.2064666
 Standard basis: def2TZVP (5D, 7F)
 There are   726 symmetry adapted cartesian basis functions of A   symmetry.
 There are   641 symmetry adapted basis functions of A   symmetry.
   641 basis functions,  1019 primitive gaussians,   726 cartesian basis functions
    65 alpha electrons       65 beta electrons
       nuclear repulsion energy      1252.0974004560 Hartrees.
 NAtoms=   36 NActive=   36 NUniq=   36 SFac= 1.00D+00 NAtFMM=   60 NAOKFM=F Big=F
 Integral buffers will be    131072 words long.
 Raffenetti 2 integral format.
 Two-electron integral symmetry is turned on.
 ------------------------------------------------------------------------------
 Polarizable Continuum Model (PCM)
 =================================
 Model                : PCM (using non-symmetric T matrix).
 Atomic radii         : UFF (Universal Force Field).
 Polarization charges : Total charges.
 Charge compensation  : None.
 Solution method      : On-the-fly selection.
 Cavity type          : Scaled VdW (van der Waals Surface) (Alpha=1.100).
 Cavity algorithm     : GePol (No added spheres)
                        Default sphere list used, NSphG=   36.
                        Lebedev-Laikov grids with approx.  5.0 points / Ang**2.
                        Smoothing algorithm: Karplus/York (Gamma=1.0000).
                        Polarization charges: spherical gaussians, with
                                              point-specific exponents (IZeta= 3).
                        Self-potential: point-specific (ISelfS= 7).
                        Self-field    : sphere-specific E.n sum rule (ISelfD= 2).
 Solvent              : Chloroform, Eps=   4.711300 Eps(inf)=   2.090627
 ------------------------------------------------------------------------------
 One-electron integrals computed using PRISM.
   1 Symmetry operations used in ECPInt.
 ECPInt:  NShTT=   34716 NPrTT=  103716 LenC2=   30650 LenP2D=   66439.
 LDataN:  DoStor=T MaxTD1= 6 Len=  172
 NBasis=   641 RedAO= T EigKep=  1.16D-05  NBF=   641
 NBsUse=   641 1.00D-06 EigRej= -1.00D+00 NBFU=   641
 ExpMin= 9.52D-02 ExpMax= 3.55D+04 ExpMxC= 1.21D+03 IAcc=3 IRadAn=         5 AccDes= 0.00D+00
 Harris functional with IExCor= 1009 and IRadAn=       5 diagonalized for initial guess.
 HarFok:  IExCor= 1009 AccDes= 0.00D+00 IRadAn=         5 IDoV= 1 UseB2=F ITyADJ=14
 ICtDFT=  3500011 ScaDFX=  1.000000  1.000000  1.000000  1.000000
 FoFCou: FMM=F IPFlag=           0 FMFlag=      100000 FMFlg1=           0
         NFxFlg=           0 DoJE=T BraDBF=F KetDBF=T FulRan=T
         wScrn=  0.000000 ICntrl=     500 IOpCl=  0 I1Cent=   200000004 NGrid=           0
         NMat0=    1 NMatS0=      1 NMatT0=    0 NMatD0=    1 NMtDS0=    0 NMtDT0=    0
 Petite list used in FoFCou.
 Requested convergence on RMS density matrix=1.00D-08 within 128 cycles.
 Requested convergence on MAX density matrix=1.00D-06.
 Requested convergence on             energy=1.00D-06.
 No special actions if energy rises.
 Inv3:  Mode=1 IEnd=    18945507.
 Iteration    1 A*A^-1 deviation from unit magnitude is 5.55D-15 for   2511.
 Iteration    1 A*A^-1 deviation from orthogonality  is 4.61D-15 for   2484     36.
 Iteration    1 A^-1*A deviation from unit magnitude is 5.55D-15 for   2511.
 Iteration    1 A^-1*A deviation from orthogonality  is 5.56D-12 for   2138   2051.
 Error on total polarization charges =  0.01243
 SCF Done:  E(RM062X) =  -836.455803801     A.U. after   12 cycles
            NFock= 12  Conv=0.73D-08     -V/T= 2.0052

 **********************************************************************

            Population analysis using the SCF density.

 **********************************************************************

 Orbital symmetries:
       Occupied  (A) (A) (A) (A) (A) (A) (A) (A) (A) (A) (A) (A)
                 (A) (A) (A) (A) (A) (A) (A) (A) (A) (A) (A) (A)
                 (A) (A) (A) (A) (A) (A) (A) (A) (A) (A) (A) (A)
                 (A) (A) (A) (A) (A) (A) (A) (A) (A) (A) (A) (A)
                 (A) (A) (A) (A) (A) (A) (A) (A) (A) (A) (A) (A)
                 (A) (A) (A) (A) (A)
       Virtual   (A) (A) (A) (A) (A) (A) (A) (A) (A) (A) (A) (A)
                 (A) (A) (A) (A) (A) (A) (A) (A) (A) (A) (A) (A)
                 (A) (A) (A) (A) (A) (A) (A) (A) (A) (A) (A) (A)
                 (A) (A) (A) (A) (A) (A) (A) (A) (A) (A) (A) (A)
                 (A) (A) (A) (A) (A) (A) (A) (A) (A) (A) (A) (A)
                 (A) (A) (A) (A) (A) (A) (A) (A) (A) (A) (A) (A)
                 (A) (A) (A) (A) (A) (A) (A) (A) (A) (A) (A) (A)
                 (A) (A) (A) (A) (A) (A) (A) (A) (A) (A) (A) (A)
                 (A) (A) (A) (A) (A) (A) (A) (A) (A) (A) (A) (A)
                 (A) (A) (A) (A) (A) (A) (A) (A) (A) (A) (A) (A)
                 (A) (A) (A) (A) (A) (A) (A) (A) (A) (A) (A) (A)
                 (A) (A) (A) (A) (A) (A) (A) (A) (A) (A) (A) (A)
                 (A) (A) (A) (A) (A) (A) (A) (A) (A) (A) (A) (A)
                 (A) (A) (A) (A) (A) (A) (A) (A) (A) (A) (A) (A)
                 (A) (A) (A) (A) (A) (A) (A) (A) (A) (A) (A) (A)
                 (A) (A) (A) (A) (A) (A) (A) (A) (A) (A) (A) (A)
                 (A) (A) (A) (A) (A) (A) (A) (A) (A) (A) (A) (A)
                 (A) (A) (A) (A) (A) (A) (A) (A) (A) (A) (A) (A)
                 (A) (A) (A) (A) (A) (A) (A) (A) (A) (A) (A) (A)
                 (A) (A) (A) (A) (A) (A) (A) (A) (A) (A) (A) (A)
                 (A) (A) (A) (A) (A) (A) (A) (A) (A) (A) (A) (A)
                 (A) (A) (A) (A) (A) (A) (A) (A) (A) (A) (A) (A)
                 (A) (A) (A) (A) (A) (A) (A) (A) (A) (A) (A) (A)
                 (A) (A) (A) (A) (A) (A) (A) (A) (A) (A) (A) (A)
                 (A) (A) (A) (A) (A) (A) (A) (A) (A) (A) (A) (A)
                 (A) (A) (A) (A) (A) (A) (A) (A) (A) (A) (A) (A)
                 (A) (A) (A) (A) (A) (A) (A) (A) (A) (A) (A) (A)
                 (A) (A) (A) (A) (A) (A) (A) (A) (A) (A) (A) (A)
                 (A) (A) (A) (A) (A) (A) (A) (A) (A) (A) (A) (A)
                 (A) (A) (A) (A) (A) (A) (A) (A) (A) (A) (A) (A)
                 (A) (A) (A) (A) (A) (A) (A) (A) (A) (A) (A) (A)
                 (A) (A) (A) (A) (A) (A) (A) (A) (A) (A) (A) (A)
                 (A) (A) (A) (A) (A) (A) (A) (A) (A) (A) (A) (A)
                 (A) (A) (A) (A) (A) (A) (A) (A) (A) (A) (A) (A)
                 (A) (A) (A) (A) (A) (A) (A) (A) (A) (A) (A) (A)
                 (A) (A) (A) (A) (A) (A) (A) (A) (A) (A) (A) (A)
                 (A) (A) (A) (A) (A) (A) (A) (A) (A) (A) (A) (A)
                 (A) (A) (A) (A) (A) (A) (A) (A) (A) (A) (A) (A)
                 (A) (A) (A) (A) (A) (A) (A) (A) (A) (A) (A) (A)
                 (A) (A) (A) (A) (A) (A) (A) (A) (A) (A) (A) (A)
                 (A) (A) (A) (A) (A) (A) (A) (A) (A) (A) (A) (A)
                 (A) (A) (A) (A) (A) (A) (A) (A) (A) (A) (A) (A)
                 (A) (A) (A) (A) (A) (A) (A) (A) (A) (A) (A) (A)
                 (A) (A) (A) (A) (A) (A) (A) (A) (A) (A) (A) (A)
                 (A) (A) (A) (A) (A) (A) (A) (A) (A) (A) (A) (A)
                 (A) (A) (A) (A) (A) (A) (A) (A) (A) (A) (A) (A)
                 (A) (A) (A) (A) (A) (A) (A) (A) (A) (A) (A) (A)
                 (A) (A) (A) (A) (A) (A) (A) (A) (A) (A) (A) (A)
 The electronic state is 1-A.
 Alpha  occ. eigenvalues --  -25.26951 -25.26610 -19.62618 -14.73528 -10.64197
 Alpha  occ. eigenvalues --  -10.64185 -10.58148 -10.57507 -10.56893 -10.56606
 Alpha  occ. eigenvalues --  -10.56490 -10.55725 -10.55663 -10.53656 -10.53017
 Alpha  occ. eigenvalues --  -10.52044 -10.51706  -1.38070  -1.37928  -1.14279
 Alpha  occ. eigenvalues --   -1.02194  -0.98192  -0.90467  -0.87255  -0.85992
 Alpha  occ. eigenvalues --   -0.85256  -0.78282  -0.77037  -0.73770  -0.72633
 Alpha  occ. eigenvalues --   -0.70399  -0.68700  -0.65254  -0.63636  -0.61918
 Alpha  occ. eigenvalues --   -0.59551  -0.58557  -0.57686  -0.57319  -0.57141
 Alpha  occ. eigenvalues --   -0.55010  -0.54439  -0.54026  -0.53049  -0.51264
 Alpha  occ. eigenvalues --   -0.50170  -0.48741  -0.48021  -0.47484  -0.47011
 Alpha  occ. eigenvalues --   -0.45854  -0.44384  -0.44155  -0.43855  -0.43165
 Alpha  occ. eigenvalues --   -0.42385  -0.41246  -0.39885  -0.39226  -0.38249
 Alpha  occ. eigenvalues --   -0.37007  -0.35133  -0.31706  -0.31244  -0.29318
 Alpha virt. eigenvalues --    0.00597   0.01887   0.06199   0.07179   0.07932
 Alpha virt. eigenvalues --    0.08270   0.09015   0.10128   0.11677   0.11945
 Alpha virt. eigenvalues --    0.12080   0.12904   0.13624   0.13765   0.14270
 Alpha virt. eigenvalues --    0.15310   0.15627   0.16032   0.16732   0.17180
 Alpha virt. eigenvalues --    0.17435   0.18280   0.18685   0.19237   0.19946
 Alpha virt. eigenvalues --    0.20433   0.20869   0.21417   0.21975   0.22253
 Alpha virt. eigenvalues --    0.23124   0.23994   0.24199   0.24770   0.25416
 Alpha virt. eigenvalues --    0.25996   0.27062   0.27177   0.27826   0.28561
 Alpha virt. eigenvalues --    0.29099   0.30130   0.30388   0.31148   0.31541
 Alpha virt. eigenvalues --    0.32236   0.33195   0.33454   0.34602   0.35174
 Alpha virt. eigenvalues --    0.35814   0.36606   0.37304   0.37846   0.38256
 Alpha virt. eigenvalues --    0.38550   0.39298   0.39859   0.39915   0.40512
 Alpha virt. eigenvalues --    0.40788   0.41748   0.42416   0.42638   0.43200
 Alpha virt. eigenvalues --    0.43594   0.44491   0.44823   0.45214   0.45495
 Alpha virt. eigenvalues --    0.45952   0.46295   0.46677   0.47528   0.48110
 Alpha virt. eigenvalues --    0.48403   0.49087   0.49572   0.49674   0.50497
 Alpha virt. eigenvalues --    0.51015   0.51313   0.52009   0.52251   0.52932
 Alpha virt. eigenvalues --    0.53346   0.53456   0.54231   0.54427   0.55056
 Alpha virt. eigenvalues --    0.55887   0.56273   0.57136   0.57864   0.58265
 Alpha virt. eigenvalues --    0.58600   0.59289   0.60974   0.62512   0.62906
 Alpha virt. eigenvalues --    0.63616   0.64051   0.64960   0.65684   0.67547
 Alpha virt. eigenvalues --    0.68115   0.68364   0.69221   0.69868   0.70812
 Alpha virt. eigenvalues --    0.71846   0.72074   0.72628   0.73847   0.74546
 Alpha virt. eigenvalues --    0.75730   0.76986   0.78604   0.78927   0.79509
 Alpha virt. eigenvalues --    0.80535   0.81199   0.81848   0.83145   0.83277
 Alpha virt. eigenvalues --    0.85691   0.87000   0.87948   0.88153   0.88751
 Alpha virt. eigenvalues --    0.89961   0.90286   0.90809   0.92002   0.92134
 Alpha virt. eigenvalues --    0.92740   0.93461   0.94425   0.95699   0.97007
 Alpha virt. eigenvalues --    0.97435   0.98886   1.00118   1.00911   1.01439
 Alpha virt. eigenvalues --    1.02388   1.03537   1.04031   1.06169   1.06192
 Alpha virt. eigenvalues --    1.08041   1.08936   1.09690   1.10882   1.11635
 Alpha virt. eigenvalues --    1.12227   1.12692   1.14135   1.14304   1.15360
 Alpha virt. eigenvalues --    1.16377   1.17111   1.18867   1.19896   1.20280
 Alpha virt. eigenvalues --    1.21440   1.22557   1.24398   1.24917   1.25704
 Alpha virt. eigenvalues --    1.26591   1.27593   1.28663   1.29172   1.30795
 Alpha virt. eigenvalues --    1.32515   1.32754   1.33713   1.34937   1.35801
 Alpha virt. eigenvalues --    1.37236   1.38693   1.39596   1.40305   1.42331
 Alpha virt. eigenvalues --    1.42586   1.44650   1.45885   1.47652   1.48800
 Alpha virt. eigenvalues --    1.49993   1.51508   1.52092   1.53452   1.54120
 Alpha virt. eigenvalues --    1.54684   1.56095   1.57528   1.58350   1.59057
 Alpha virt. eigenvalues --    1.59751   1.60067   1.60870   1.61011   1.62014
 Alpha virt. eigenvalues --    1.62904   1.63145   1.64542   1.64778   1.65361
 Alpha virt. eigenvalues --    1.66335   1.66693   1.67178   1.67542   1.68431
 Alpha virt. eigenvalues --    1.69011   1.70379   1.71284   1.71535   1.72247
 Alpha virt. eigenvalues --    1.73531   1.74830   1.75818   1.78031   1.79983
 Alpha virt. eigenvalues --    1.80295   1.81258   1.83394   1.84126   1.86046
 Alpha virt. eigenvalues --    1.86631   1.88333   1.89837   1.89943   1.90744
 Alpha virt. eigenvalues --    1.92068   1.92447   1.94154   1.94745   1.96668
 Alpha virt. eigenvalues --    1.97373   1.98052   1.99905   2.01641   2.01883
 Alpha virt. eigenvalues --    2.02203   2.02980   2.04789   2.06483   2.07253
 Alpha virt. eigenvalues --    2.08831   2.09447   2.10255   2.10735   2.11827
 Alpha virt. eigenvalues --    2.12785   2.13298   2.14384   2.15081   2.16742
 Alpha virt. eigenvalues --    2.17324   2.18179   2.18999   2.19754   2.20282
 Alpha virt. eigenvalues --    2.21285   2.22506   2.24039   2.26113   2.26960
 Alpha virt. eigenvalues --    2.28414   2.29129   2.29562   2.30538   2.31031
 Alpha virt. eigenvalues --    2.31708   2.32406   2.33155   2.34409   2.35442
 Alpha virt. eigenvalues --    2.36683   2.37601   2.38549   2.39782   2.42036
 Alpha virt. eigenvalues --    2.42319   2.42855   2.43852   2.44410   2.44985
 Alpha virt. eigenvalues --    2.47346   2.48207   2.49192   2.50221   2.51738
 Alpha virt. eigenvalues --    2.53194   2.54022   2.54828   2.56382   2.56975
 Alpha virt. eigenvalues --    2.57380   2.58564   2.59108   2.59593   2.60215
 Alpha virt. eigenvalues --    2.60883   2.61578   2.62399   2.63075   2.63374
 Alpha virt. eigenvalues --    2.64188   2.65425   2.66133   2.66742   2.67149
 Alpha virt. eigenvalues --    2.67492   2.67813   2.69203   2.69784   2.70973
 Alpha virt. eigenvalues --    2.72060   2.72273   2.72995   2.74921   2.75020
 Alpha virt. eigenvalues --    2.76295   2.76703   2.76849   2.78466   2.79018
 Alpha virt. eigenvalues --    2.79840   2.80753   2.81485   2.82121   2.84362
 Alpha virt. eigenvalues --    2.84519   2.86113   2.87287   2.88501   2.89295
 Alpha virt. eigenvalues --    2.89763   2.90663   2.91100   2.91842   2.92259
 Alpha virt. eigenvalues --    2.92857   2.94426   2.94779   2.96164   2.98580
 Alpha virt. eigenvalues --    2.99774   3.00620   3.02474   3.03271   3.04215
 Alpha virt. eigenvalues --    3.04835   3.05701   3.07014   3.07501   3.08571
 Alpha virt. eigenvalues --    3.09713   3.09963   3.10313   3.10774   3.12613
 Alpha virt. eigenvalues --    3.13338   3.14694   3.15282   3.15712   3.17256
 Alpha virt. eigenvalues --    3.17775   3.18220   3.18305   3.19714   3.20383
 Alpha virt. eigenvalues --    3.20936   3.22223   3.22881   3.23524   3.24338
 Alpha virt. eigenvalues --    3.25522   3.26938   3.27202   3.27836   3.28201
 Alpha virt. eigenvalues --    3.29172   3.31545   3.31910   3.32565   3.33092
 Alpha virt. eigenvalues --    3.34996   3.35688   3.36642   3.37215   3.37918
 Alpha virt. eigenvalues --    3.38958   3.39711   3.41025   3.41280   3.42178
 Alpha virt. eigenvalues --    3.42986   3.43495   3.44913   3.45967   3.47373
 Alpha virt. eigenvalues --    3.47555   3.48494   3.48704   3.50756   3.51468
 Alpha virt. eigenvalues --    3.52545   3.53788   3.54636   3.55916   3.56594
 Alpha virt. eigenvalues --    3.57388   3.57939   3.58360   3.59271   3.60183
 Alpha virt. eigenvalues --    3.62170   3.62426   3.63029   3.63586   3.64500
 Alpha virt. eigenvalues --    3.65939   3.66619   3.67319   3.68923   3.69694
 Alpha virt. eigenvalues --    3.71767   3.75275   3.77661   3.79813   3.80769
 Alpha virt. eigenvalues --    3.81360   3.83180   3.84362   3.86106   3.86996
 Alpha virt. eigenvalues --    3.88382   3.89480   3.91687   3.93277   3.94259
 Alpha virt. eigenvalues --    3.95211   3.97100   3.99019   3.99733   4.01909
 Alpha virt. eigenvalues --    4.03224   4.03408   4.03917   4.05249   4.07058
 Alpha virt. eigenvalues --    4.07621   4.10156   4.10800   4.12454   4.13072
 Alpha virt. eigenvalues --    4.14222   4.15892   4.16693   4.17238   4.18873
 Alpha virt. eigenvalues --    4.19629   4.19986   4.21307   4.23441   4.24060
 Alpha virt. eigenvalues --    4.26996   4.28101   4.30658   4.33534   4.34069
 Alpha virt. eigenvalues --    4.35165   4.36584   4.38530   4.38680   4.40589
 Alpha virt. eigenvalues --    4.43372   4.45094   4.47921   4.48813   4.51482
 Alpha virt. eigenvalues --    4.53679   4.55461   4.57444   4.57792   4.61095
 Alpha virt. eigenvalues --    4.62684   4.64788   4.65552   4.66333   4.71116
 Alpha virt. eigenvalues --    4.73988   4.77028   4.78328   4.81296   4.83132
 Alpha virt. eigenvalues --    4.86605   4.89428   4.90198   4.94820   4.95537
 Alpha virt. eigenvalues --    5.00957   5.04047   5.08902   5.10359   5.12442
 Alpha virt. eigenvalues --    5.16175   5.23939   5.27618   5.28957   5.29785
 Alpha virt. eigenvalues --    5.31641   5.36760   5.38706   5.41861   5.43549
 Alpha virt. eigenvalues --    5.47751   5.53393   5.60313   5.62436   5.65814
 Alpha virt. eigenvalues --    5.72172   5.75189   5.86754   5.89209   6.26045
 Alpha virt. eigenvalues --    6.46101   6.67877   6.72977   6.90400   6.90651
 Alpha virt. eigenvalues --    6.91167   6.92360   6.97208   6.99620   7.00626
 Alpha virt. eigenvalues --    7.08428   7.09978   7.13905   7.21529   7.24269
 Alpha virt. eigenvalues --    7.35976   7.39277   7.53450   7.55668   8.35822
 Alpha virt. eigenvalues --    8.37427   8.52983   8.55485   8.74146   8.75186
 Alpha virt. eigenvalues --    8.96355   8.96922   9.00417   9.04566  22.20793
 Alpha virt. eigenvalues --   22.43182  22.49575  22.53534  22.61479  22.64246
 Alpha virt. eigenvalues --   22.73932  22.74395  22.78327  22.78825  22.93789
 Alpha virt. eigenvalues --   23.02674  23.47720  32.62376  43.99863  57.47200
 Alpha virt. eigenvalues --   57.56043
          Condensed to atoms (all electrons):
               1          2          3          4          5          6
     1  C    5.054713   0.257689  -0.046213   0.004963   0.001551  -0.000006
     2  C    0.257689   5.231455   0.199982  -0.024224  -0.000263  -0.000260
     3  C   -0.046213   0.199982   5.555815  -0.037297   0.027562   0.008782
     4  C    0.004963  -0.024224  -0.037297   5.860279   0.107235  -0.090051
     5  C    0.001551  -0.000263   0.027562   0.107235   5.002159   0.273562
     6  O   -0.000006  -0.000260   0.008782  -0.090051   0.273562   8.085865
     7  N   -0.015183  -0.066322   0.190162  -0.066731   0.005084  -0.000187
     8  C    0.000395   0.007050  -0.045187   0.002517   0.001270  -0.000136
     9  C   -0.000003  -0.000001  -0.000046   0.000017   0.000000   0.000000
    10  C    0.000013   0.000000   0.000000  -0.000010  -0.000001   0.000000
    11  C   -0.000312  -0.000199  -0.005245   0.002587  -0.000009   0.000000
    12  C   -0.000417  -0.000506  -0.003535   0.013050  -0.000395  -0.000006
    13  C    0.000014   0.000548   0.006790  -0.004701   0.000042   0.000000
    14  C    0.000014   0.000003   0.000385  -0.000276   0.000000   0.000000
    15  H    0.000000   0.000000   0.000000   0.000000   0.000000   0.000000
    16  H    0.000000   0.000000   0.000000   0.000000   0.000000   0.000000
    17  H    0.000000   0.000000  -0.000003   0.000001   0.000000   0.000000
    18  F    0.000005  -0.000014  -0.000077   0.000063   0.000000   0.000000
    19  F    0.000012   0.000024  -0.000066  -0.000816  -0.000023   0.000000
    20  H    0.421256  -0.053044   0.012725  -0.000330   0.000081   0.000000
    21  H    0.420194  -0.041140  -0.018402   0.001890  -0.000035   0.000001
    22  H    0.410491  -0.046200  -0.000539   0.000511  -0.000334   0.000000
    23  H   -0.038246   0.409101  -0.011804  -0.014240  -0.002498  -0.000032
    24  H   -0.032212   0.441261  -0.077807   0.007558   0.001874   0.000216
    25  H   -0.000388   0.011436  -0.042866   0.433168  -0.035635   0.012191
    26  H    0.000418  -0.011524   0.032595  -0.096826   0.454192  -0.042494
    27  H    0.000038   0.008638  -0.016361  -0.023488   0.434118  -0.049350
    28  H   -0.000009   0.000096  -0.001899   0.017821  -0.044756   0.303774
    29  H   -0.000223  -0.001324  -0.020024   0.032833   0.000298  -0.000018
    30  H    0.000081   0.001461   0.017617  -0.015254   0.000268  -0.000008
    31  H   -0.009816  -0.035212   0.466989  -0.076107  -0.010911  -0.000427
    32  C   -0.000125  -0.009419  -0.015329   0.168442  -0.063230  -0.010832
    33  H    0.000085   0.003582  -0.006762  -0.031340  -0.009159   0.000257
    34  H    0.000054  -0.000599   0.013444  -0.047111  -0.002482   0.012914
    35  H   -0.000041  -0.001854  -0.006019  -0.051627   0.010818   0.000125
    36  H   -0.000440  -0.002959  -0.029678  -0.021814  -0.000684  -0.000005
               7          8          9         10         11         12
     1  C   -0.015183   0.000395  -0.000003   0.000013  -0.000312  -0.000417
     2  C   -0.066322   0.007050  -0.000001   0.000000  -0.000199  -0.000506
     3  C    0.190162  -0.045187  -0.000046   0.000000  -0.005245  -0.003535
     4  C   -0.066731   0.002517   0.000017  -0.000010   0.002587   0.013050
     5  C    0.005084   0.001270   0.000000  -0.000001  -0.000009  -0.000395
     6  O   -0.000187  -0.000136   0.000000   0.000000   0.000000  -0.000006
     7  N    6.876285   0.223404   0.000735  -0.000660   0.037414  -0.052845
     8  C    0.223404   5.168125  -0.005859   0.007216  -0.111517   0.255894
     9  C    0.000735  -0.005859   5.030806   0.420733  -0.007857  -0.084467
    10  C   -0.000660   0.007216   0.420733   5.051409   0.516185   0.013062
    11  C    0.037414  -0.111517  -0.007857   0.516185   4.903439   0.235931
    12  C   -0.052845   0.255894  -0.084467   0.013062   0.235931   5.613819
    13  C   -0.005319  -0.061637  -0.027635  -0.074555   0.015472   0.279800
    14  C   -0.000925   0.009727   0.429890  -0.021991  -0.095277   0.006976
    15  H    0.000001   0.000094   0.403666  -0.024555   0.001813  -0.000438
    16  H   -0.000009  -0.000286  -0.034104   0.413294  -0.042081   0.014793
    17  H    0.000021  -0.000253  -0.029392   0.003534  -0.000440   0.012231
    18  F   -0.000501   0.014016   0.009982  -0.048644   0.260240  -0.089178
    19  F   -0.003705   0.021011   0.008216  -0.000419   0.003969  -0.085142
    20  H    0.000765   0.000063   0.000000   0.000000   0.000008  -0.000004
    21  H    0.021348  -0.001489   0.000012  -0.000026   0.000754   0.000371
    22  H   -0.000168  -0.000167   0.000000   0.000000   0.000009   0.000053
    23  H   -0.011365  -0.000143  -0.000001   0.000001  -0.000026  -0.000037
    24  H    0.007991  -0.000727   0.000000   0.000000   0.000009   0.000092
    25  H   -0.008389   0.000022  -0.000002   0.000006  -0.000283  -0.000304
    26  H    0.000330   0.000011   0.000000   0.000000   0.000003   0.000022
    27  H   -0.000601  -0.000053   0.000000   0.000000  -0.000001  -0.000017
    28  H    0.000038   0.000008   0.000000   0.000000   0.000000   0.000000
    29  H   -0.070393   0.404963   0.000847  -0.000939   0.029567  -0.015314
    30  H   -0.040456   0.424924  -0.000747   0.000546  -0.044905  -0.019634
    31  H   -0.039185  -0.010658  -0.000005   0.000005  -0.000647   0.000110
    32  C    0.024279   0.001166   0.000002  -0.000001  -0.000544  -0.004204
    33  H   -0.002073  -0.000186   0.000000   0.000000   0.000007   0.000127
    34  H   -0.000204  -0.000308   0.000000   0.000000   0.000004   0.000042
    35  H    0.002278   0.004441  -0.000019   0.000006  -0.000198  -0.001789
    36  H    0.378585  -0.045293  -0.000133   0.000201  -0.001365  -0.012350
              13         14         15         16         17         18
     1  C    0.000014   0.000014   0.000000   0.000000   0.000000   0.000005
     2  C    0.000548   0.000003   0.000000   0.000000   0.000000  -0.000014
     3  C    0.006790   0.000385   0.000000   0.000000  -0.000003  -0.000077
     4  C   -0.004701  -0.000276   0.000000   0.000000   0.000001   0.000063
     5  C    0.000042   0.000000   0.000000   0.000000   0.000000   0.000000
     6  O    0.000000   0.000000   0.000000   0.000000   0.000000   0.000000
     7  N   -0.005319  -0.000925   0.000001  -0.000009   0.000021  -0.000501
     8  C   -0.061637   0.009727   0.000094  -0.000286  -0.000253   0.014016
     9  C   -0.027635   0.429890   0.403666  -0.034104  -0.029392   0.009982
    10  C   -0.074555  -0.021991  -0.024555   0.413294   0.003534  -0.048644
    11  C    0.015472  -0.095277   0.001813  -0.042081  -0.000440   0.260240
    12  C    0.279800   0.006976  -0.000438   0.014793   0.012231  -0.089178
    13  C    4.859681   0.515092   0.002817  -0.000763  -0.040418   0.005944
    14  C    0.515092   5.065444  -0.025138   0.004387   0.411102  -0.000807
    15  H    0.002817  -0.025138   0.476429  -0.003376  -0.003186  -0.000107
    16  H   -0.000763   0.004387  -0.003376   0.475337  -0.000152   0.001666
    17  H   -0.040418   0.411102  -0.003186  -0.000152   0.471629   0.000010
    18  F    0.005944  -0.000807  -0.000107   0.001666   0.000010   9.054665
    19  F    0.244318  -0.045791  -0.000111   0.000012   0.001981  -0.000032
    20  H   -0.000002   0.000000   0.000000   0.000000   0.000000   0.000000
    21  H   -0.000147  -0.000048   0.000000   0.000000   0.000000   0.000008
    22  H   -0.000005   0.000000   0.000000   0.000000   0.000000   0.000000
    23  H    0.000014   0.000007   0.000000   0.000000   0.000000   0.000000
    24  H   -0.000013  -0.000001   0.000000   0.000000   0.000000   0.000000
    25  H    0.000783   0.000023   0.000000   0.000000   0.000000   0.000002
    26  H   -0.000002   0.000000   0.000000   0.000000   0.000000   0.000000
    27  H    0.000004   0.000000   0.000000   0.000000   0.000000   0.000000
    28  H    0.000000   0.000000   0.000000   0.000000   0.000000   0.000000
    29  H   -0.031335  -0.005123   0.000004   0.000000  -0.000041   0.000078
    30  H    0.017184   0.001194   0.000001   0.000007   0.000004   0.007915
    31  H    0.000099   0.000027   0.000000   0.000000   0.000000  -0.000042
    32  C    0.001815   0.000056   0.000000   0.000000  -0.000004  -0.000002
    33  H    0.000000   0.000001   0.000000   0.000000   0.000000   0.000000
    34  H   -0.000018   0.000000   0.000000   0.000000   0.000000   0.000000
    35  H   -0.000370   0.000149   0.000000   0.000000   0.000008   0.000001
    36  H    0.001902   0.000589   0.000000   0.000002   0.000031  -0.000042
              19         20         21         22         23         24
     1  C    0.000012   0.421256   0.420194   0.410491  -0.038246  -0.032212
     2  C    0.000024  -0.053044  -0.041140  -0.046200   0.409101   0.441261
     3  C   -0.000066   0.012725  -0.018402  -0.000539  -0.011804  -0.077807
     4  C   -0.000816  -0.000330   0.001890   0.000511  -0.014240   0.007558
     5  C   -0.000023   0.000081  -0.000035  -0.000334  -0.002498   0.001874
     6  O    0.000000   0.000000   0.000001   0.000000  -0.000032   0.000216
     7  N   -0.003705   0.000765   0.021348  -0.000168  -0.011365   0.007991
     8  C    0.021011   0.000063  -0.001489  -0.000167  -0.000143  -0.000727
     9  C    0.008216   0.000000   0.000012   0.000000  -0.000001   0.000000
    10  C   -0.000419   0.000000  -0.000026   0.000000   0.000001   0.000000
    11  C    0.003969   0.000008   0.000754   0.000009  -0.000026   0.000009
    12  C   -0.085142  -0.000004   0.000371   0.000053  -0.000037   0.000092
    13  C    0.244318  -0.000002  -0.000147  -0.000005   0.000014  -0.000013
    14  C   -0.045791   0.000000  -0.000048   0.000000   0.000007  -0.000001
    15  H   -0.000111   0.000000   0.000000   0.000000   0.000000   0.000000
    16  H    0.000012   0.000000   0.000000   0.000000   0.000000   0.000000
    17  H    0.001981   0.000000   0.000000   0.000000   0.000000   0.000000
    18  F   -0.000032   0.000000   0.000008   0.000000   0.000000   0.000000
    19  F    9.065313   0.000000  -0.000007   0.000000  -0.000040   0.000000
    20  H    0.000000   0.533649  -0.024740  -0.025182  -0.004835  -0.003821
    21  H   -0.000007  -0.024740   0.518465  -0.026828  -0.003722   0.007310
    22  H    0.000000  -0.025182  -0.026828   0.548802   0.007159  -0.005567
    23  H   -0.000040  -0.004835  -0.003722   0.007159   0.540349  -0.028236
    24  H    0.000000  -0.003821   0.007310  -0.005567  -0.028236   0.550220
    25  H    0.000068   0.000014  -0.000045  -0.000030  -0.000451   0.000073
    26  H    0.000000  -0.000011  -0.000002   0.000040   0.000225  -0.000376
    27  H    0.000000   0.000034  -0.000053   0.000074   0.000413  -0.005540
    28  H    0.000000   0.000000   0.000000   0.000000   0.000005  -0.000044
    29  H    0.000420   0.000006   0.000262   0.000033   0.000016   0.000084
    30  H    0.000621  -0.000014  -0.000281  -0.000040  -0.000012  -0.000022
    31  H   -0.000026  -0.000153  -0.000251   0.002266   0.006333  -0.001776
    32  C   -0.002249  -0.000070  -0.000357  -0.000050   0.003522  -0.003773
    33  H    0.000045   0.000023   0.000020  -0.000025  -0.004516   0.000085
    34  H    0.000032  -0.000001   0.000000   0.000000   0.000027  -0.000040
    35  H    0.004116   0.000001  -0.000023   0.000002   0.000137  -0.000091
    36  H    0.005293  -0.000088   0.000150   0.000033   0.001832   0.000424
              25         26         27         28         29         30
     1  C   -0.000388   0.000418   0.000038  -0.000009  -0.000223   0.000081
     2  C    0.011436  -0.011524   0.008638   0.000096  -0.001324   0.001461
     3  C   -0.042866   0.032595  -0.016361  -0.001899  -0.020024   0.017617
     4  C    0.433168  -0.096826  -0.023488   0.017821   0.032833  -0.015254
     5  C   -0.035635   0.454192   0.434118  -0.044756   0.000298   0.000268
     6  O    0.012191  -0.042494  -0.049350   0.303774  -0.000018  -0.000008
     7  N   -0.008389   0.000330  -0.000601   0.000038  -0.070393  -0.040456
     8  C    0.000022   0.000011  -0.000053   0.000008   0.404963   0.424924
     9  C   -0.000002   0.000000   0.000000   0.000000   0.000847  -0.000747
    10  C    0.000006   0.000000   0.000000   0.000000  -0.000939   0.000546
    11  C   -0.000283   0.000003  -0.000001   0.000000   0.029567  -0.044905
    12  C   -0.000304   0.000022  -0.000017   0.000000  -0.015314  -0.019634
    13  C    0.000783  -0.000002   0.000004   0.000000  -0.031335   0.017184
    14  C    0.000023   0.000000   0.000000   0.000000  -0.005123   0.001194
    15  H    0.000000   0.000000   0.000000   0.000000   0.000004   0.000001
    16  H    0.000000   0.000000   0.000000   0.000000   0.000000   0.000007
    17  H    0.000000   0.000000   0.000000   0.000000  -0.000041   0.000004
    18  F    0.000002   0.000000   0.000000   0.000000   0.000078   0.007915
    19  F    0.000068   0.000000   0.000000   0.000000   0.000420   0.000621
    20  H    0.000014  -0.000011   0.000034   0.000000   0.000006  -0.000014
    21  H   -0.000045  -0.000002  -0.000053   0.000000   0.000262  -0.000281
    22  H   -0.000030   0.000040   0.000074   0.000000   0.000033  -0.000040
    23  H   -0.000451   0.000225   0.000413   0.000005   0.000016  -0.000012
    24  H    0.000073  -0.000376  -0.005540  -0.000044   0.000084  -0.000022
    25  H    0.564392  -0.012307   0.012804  -0.000951  -0.009940   0.001358
    26  H   -0.012307   0.580486  -0.056839  -0.002002   0.000038   0.000056
    27  H    0.012804  -0.056839   0.582577  -0.006357  -0.000107   0.000005
    28  H   -0.000951  -0.002002  -0.006357   0.399189  -0.000010   0.000003
    29  H   -0.009940   0.000038  -0.000107  -0.000010   0.567749  -0.042355
    30  H    0.001358   0.000056   0.000005   0.000003  -0.042355   0.518818
    31  H   -0.003886   0.003034   0.000450   0.000070  -0.002016   0.002480
    32  C   -0.068232   0.011349  -0.026719   0.001540  -0.008747   0.001637
    33  H    0.007800   0.000034   0.004834  -0.000095   0.000095  -0.000024
    34  H   -0.004887   0.000748  -0.000560  -0.001050   0.000027  -0.000009
    35  H   -0.003631  -0.000233  -0.000103   0.000044  -0.001681   0.000161
    36  H    0.000555  -0.000016   0.000055   0.000000  -0.005518   0.005617
              31         32         33         34         35         36
     1  C   -0.009816  -0.000125   0.000085   0.000054  -0.000041  -0.000440
     2  C   -0.035212  -0.009419   0.003582  -0.000599  -0.001854  -0.002959
     3  C    0.466989  -0.015329  -0.006762   0.013444  -0.006019  -0.029678
     4  C   -0.076107   0.168442  -0.031340  -0.047111  -0.051627  -0.021814
     5  C   -0.010911  -0.063230  -0.009159  -0.002482   0.010818  -0.000684
     6  O   -0.000427  -0.010832   0.000257   0.012914   0.000125  -0.000005
     7  N   -0.039185   0.024279  -0.002073  -0.000204   0.002278   0.378585
     8  C   -0.010658   0.001166  -0.000186  -0.000308   0.004441  -0.045293
     9  C   -0.000005   0.000002   0.000000   0.000000  -0.000019  -0.000133
    10  C    0.000005  -0.000001   0.000000   0.000000   0.000006   0.000201
    11  C   -0.000647  -0.000544   0.000007   0.000004  -0.000198  -0.001365
    12  C    0.000110  -0.004204   0.000127   0.000042  -0.001789  -0.012350
    13  C    0.000099   0.001815   0.000000  -0.000018  -0.000370   0.001902
    14  C    0.000027   0.000056   0.000001   0.000000   0.000149   0.000589
    15  H    0.000000   0.000000   0.000000   0.000000   0.000000   0.000000
    16  H    0.000000   0.000000   0.000000   0.000000   0.000000   0.000002
    17  H    0.000000  -0.000004   0.000000   0.000000   0.000008   0.000031
    18  F   -0.000042  -0.000002   0.000000   0.000000   0.000001  -0.000042
    19  F   -0.000026  -0.002249   0.000045   0.000032   0.004116   0.005293
    20  H   -0.000153  -0.000070   0.000023  -0.000001   0.000001  -0.000088
    21  H   -0.000251  -0.000357   0.000020   0.000000  -0.000023   0.000150
    22  H    0.002266  -0.000050  -0.000025   0.000000   0.000002   0.000033
    23  H    0.006333   0.003522  -0.004516   0.000027   0.000137   0.001832
    24  H   -0.001776  -0.003773   0.000085  -0.000040  -0.000091   0.000424
    25  H   -0.003886  -0.068232   0.007800  -0.004887  -0.003631   0.000555
    26  H    0.003034   0.011349   0.000034   0.000748  -0.000233  -0.000016
    27  H    0.000450  -0.026719   0.004834  -0.000560  -0.000103   0.000055
    28  H    0.000070   0.001540  -0.000095  -0.001050   0.000044   0.000000
    29  H   -0.002016  -0.008747   0.000095   0.000027  -0.001681  -0.005518
    30  H    0.002480   0.001637  -0.000024  -0.000009   0.000161   0.005617
    31  H    0.513664   0.011592  -0.000248  -0.000290  -0.000119   0.006502
    32  C    0.011592   5.234624   0.403162   0.411034   0.420959   0.008749
    33  H   -0.000248   0.403162   0.532181  -0.022304  -0.028297  -0.000623
    34  H   -0.000290   0.411034  -0.022304   0.496291  -0.019315   0.000005
    35  H   -0.000119   0.420959  -0.028297  -0.019315   0.522176  -0.001210
    36  H    0.006502   0.008749  -0.000623   0.000005  -0.001210   0.476396
 Mulliken charges:
               1
     1  C   -0.428353
     2  C   -0.277260
     3  C   -0.147691
     4  C   -0.050693
     5  C   -0.149697
     6  O   -0.503876
     7  N   -0.383500
     8  C   -0.262419
     9  C   -0.114638
    10  C   -0.254408
    11  C    0.303494
    12  C   -0.075789
    13  C    0.294602
    14  C   -0.249690
    15  H    0.172085
    16  H    0.171274
    17  H    0.173335
    18  F   -0.215150
    19  F   -0.217021
    20  H    0.143674
    21  H    0.146810
    22  H    0.135660
    23  H    0.151062
    24  H    0.142850
    25  H    0.147531
    26  H    0.139050
    27  H    0.142104
    28  H    0.334585
    29  H    0.177788
    30  H    0.161802
    31  H    0.178155
    32  C   -0.490041
    33  H    0.153315
    34  H    0.164556
    35  H    0.151199
    36  H    0.235296
 Sum of Mulliken charges =   0.00000
 Mulliken charges with hydrogens summed into heavy atoms:
               1
     1  C   -0.002209
     2  C    0.016652
     3  C    0.030463
     4  C    0.096838
     5  C    0.131457
     6  O   -0.169291
     7  N   -0.148204
     8  C    0.077171
     9  C    0.057447
    10  C   -0.083134
    11  C    0.303494
    12  C   -0.075789
    13  C    0.294602
    14  C   -0.076354
    18  F   -0.215150
    19  F   -0.217021
    32  C   -0.020971
 Electronic spatial extent (au):  <R**2>=           5500.7374
 Charge=              0.0000 electrons
 Dipole moment (field-independent basis, Debye):
    X=              0.1194    Y=              0.2272    Z=             -0.6609  Tot=              0.7090
 Quadrupole moment (field-independent basis, Debye-Ang):
   XX=            -74.4639   YY=           -109.9994   ZZ=           -104.4835
   XY=              7.5316   XZ=              3.1649   YZ=              3.0554
 Traceless Quadrupole moment (field-independent basis, Debye-Ang):
   XX=             21.8517   YY=            -13.6838   ZZ=             -8.1679
   XY=              7.5316   XZ=              3.1649   YZ=              3.0554
 Octapole moment (field-independent basis, Debye-Ang**2):
  XXX=             11.4756  YYY=             -5.2129  ZZZ=              4.0138  XYY=            -10.0194
  XXY=              5.7298  XXZ=              3.7718  XZZ=              5.4043  YZZ=             -2.3272
  YYZ=             -1.0279  XYZ=             -0.5959
 Hexadecapole moment (field-independent basis, Debye-Ang**3):
 XXXX=          -4040.0706 YYYY=          -1261.3653 ZZZZ=           -714.5465 XXXY=            -32.7545
 XXXZ=            214.6168 YYYX=             -7.2980 YYYZ=             42.0853 ZZZX=             13.0507
 ZZZY=             34.3683 XXYY=          -1108.6323 XXZZ=           -984.3534 YYZZ=           -331.0203
 XXYZ=             65.1603 YYXZ=             10.3327 ZZXY=             17.4544
 N-N= 1.252097400456D+03 E-N=-4.460673401606D+03  KE= 8.321542026049D+02
 1\1\GINC-CPU-E-160\SP\RM062X\def2TZVP\C13H19F2N1O1\KE291\26-Jun-2019\0
 \\# m062x/def2tzvp int=ultrafine scrf=(solvent=chloroform)\\AT3_1ginp0
 13\\0,1\C,0,-1.821152,2.862177,1.526936\C,0,-2.426034,1.474183,1.29527
 7\C,0,-1.819978,0.734691,0.085744\C,0,-2.604597,-0.547358,-0.32895\C,0
 ,-4.044012,-0.229528,-0.742588\O,0,-4.551051,-1.347164,-1.474696\N,0,-
 0.391309,0.509184,0.355053\C,0,0.394153,-0.003422,-0.77225\C,0,4.56342
 5,-0.43227,0.352448\C,0,4.190861,0.589272,-0.521255\C,0,2.849485,0.712
 077,-0.867532\C,0,1.850991,-0.139569,-0.393228\C,0,2.285943,-1.139009,
 0.47884\C,0,3.607553,-1.311586,0.865553\H,0,5.604351,-0.543866,0.63711
 1\H,0,4.913949,1.284413,-0.931934\H,0,3.868788,-2.111874,1.54809\F,0,2
 .494874,1.703272,-1.717768\F,0,1.34564,-1.983585,0.979639\H,0,-2.25513
 1,3.338031,2.412453\H,0,-0.739382,2.794811,1.66377\H,0,-2.00872,3.5195
 46,0.669923\H,0,-2.291411,0.860856,2.196497\H,0,-3.508648,1.570698,1.1
 55052\H,0,-2.129112,-0.924879,-1.244415\H,0,-4.061503,0.681513,-1.3628
 42\H,0,-4.667134,-0.036376,0.143345\H,0,-5.48988,-1.189788,-1.639386\H
 ,0,0.047235,-0.979662,-1.147918\H,0,0.306775,0.705581,-1.599963\H,0,-1
 .862404,1.419653,-0.775178\C,0,-2.558636,-1.672942,0.714553\H,0,-3.012
 853,-1.365167,1.663234\H,0,-3.111136,-2.541711,0.347668\H,0,-1.531963,
 -1.993523,0.919372\H,0,-0.296881,-0.132704,1.139192\\Version=ES64L-G09
 RevD.01\State=1-A\HF=-836.4558038\RMSD=7.343e-09\Dipole=-0.046975,0.08
 94018,0.2600316\Quadrupole=16.2461847,-10.1735651,-6.0726196,-5.599544
 6,2.3530289,-2.2716236\PG=C01 [X(C13H19F2N1O1)]\\@


 YOU CAN LEAD A BOY TO COLLEGE....
 BUT YOU CANNOT MAKE HIM THINK....
           ELBERT HUBBARD
 Job cpu time:       0 days  1 hours 16 minutes 50.0 seconds.
 File lengths (MBytes):  RWF=    320 Int=      0 D2E=      0 Chk=     17 Scr=      1
 Normal termination of Gaussian 09 at Wed Jun 26 12:22:16 2019.
