 Entering Gaussian System, Link 0=/usr/local/Cluster-Apps/gaussian/g09/g09
 Initial command:
 /usr/local/Cluster-Apps/gaussian/g09/l1.exe "/home/ke291/rds/hpc-work/26Jun1158AT3NMR/Gau-37394.inp" -scrdir="/home/ke291/rds/hpc-work/26Jun1158AT3NMR/"
 Entering Link 1 = /usr/local/Cluster-Apps/gaussian/g09/l1.exe PID=     37407.
  
 Copyright (c) 1988,1990,1992,1993,1995,1998,2003,2009,2013,
            Gaussian, Inc.  All Rights Reserved.
  
 This is part of the Gaussian(R) 09 program.  It is based on
 the Gaussian(R) 03 system (copyright 2003, Gaussian, Inc.),
 the Gaussian(R) 98 system (copyright 1998, Gaussian, Inc.),
 the Gaussian(R) 94 system (copyright 1995, Gaussian, Inc.),
 the Gaussian 92(TM) system (copyright 1992, Gaussian, Inc.),
 the Gaussian 90(TM) system (copyright 1990, Gaussian, Inc.),
 the Gaussian 88(TM) system (copyright 1988, Gaussian, Inc.),
 the Gaussian 86(TM) system (copyright 1986, Carnegie Mellon
 University), and the Gaussian 82(TM) system (copyright 1983,
 Carnegie Mellon University). Gaussian is a federally registered
 trademark of Gaussian, Inc.
  
 This software contains proprietary and confidential information,
 including trade secrets, belonging to Gaussian, Inc.
  
 This software is provided under written license and may be
 used, copied, transmitted, or stored only in accord with that
 written license.
  
 The following legend is applicable only to US Government
 contracts under FAR:
  
                    RESTRICTED RIGHTS LEGEND
  
 Use, reproduction and disclosure by the US Government is
 subject to restrictions as set forth in subparagraphs (a)
 and (c) of the Commercial Computer Software - Restricted
 Rights clause in FAR 52.227-19.
  
 Gaussian, Inc.
 340 Quinnipiac St., Bldg. 40, Wallingford CT 06492
  
  
 ---------------------------------------------------------------
 Warning -- This program may not be used in any manner that
 competes with the business of Gaussian, Inc. or will provide
 assistance to any competitor of Gaussian, Inc.  The licensee
 of this program is prohibited from giving any competitor of
 Gaussian, Inc. access to this program.  By using this program,
 the user acknowledges that Gaussian, Inc. is engaged in the
 business of creating and licensing software in the field of
 computational chemistry and represents and warrants to the
 licensee that it is not a competitor of Gaussian, Inc. and that
 it will not use this program in any manner prohibited above.
 ---------------------------------------------------------------
  

 Cite this work as:
 Gaussian 09, Revision D.01,
 M. J. Frisch, G. W. Trucks, H. B. Schlegel, G. E. Scuseria, 
 M. A. Robb, J. R. Cheeseman, G. Scalmani, V. Barone, B. Mennucci, 
 G. A. Petersson, H. Nakatsuji, M. Caricato, X. Li, H. P. Hratchian, 
 A. F. Izmaylov, J. Bloino, G. Zheng, J. L. Sonnenberg, M. Hada, 
 M. Ehara, K. Toyota, R. Fukuda, J. Hasegawa, M. Ishida, T. Nakajima, 
 Y. Honda, O. Kitao, H. Nakai, T. Vreven, J. A. Montgomery, Jr., 
 J. E. Peralta, F. Ogliaro, M. Bearpark, J. J. Heyd, E. Brothers, 
 K. N. Kudin, V. N. Staroverov, T. Keith, R. Kobayashi, J. Normand, 
 K. Raghavachari, A. Rendell, J. C. Burant, S. S. Iyengar, J. Tomasi, 
 M. Cossi, N. Rega, J. M. Millam, M. Klene, J. E. Knox, J. B. Cross, 
 V. Bakken, C. Adamo, J. Jaramillo, R. Gomperts, R. E. Stratmann, 
 O. Yazyev, A. J. Austin, R. Cammi, C. Pomelli, J. W. Ochterski, 
 R. L. Martin, K. Morokuma, V. G. Zakrzewski, G. A. Voth, 
 P. Salvador, J. J. Dannenberg, S. Dapprich, A. D. Daniels, 
 O. Farkas, J. B. Foresman, J. V. Ortiz, J. Cioslowski, 
 and D. J. Fox, Gaussian, Inc., Wallingford CT, 2013.
 
 ******************************************
 Gaussian 09:  ES64L-G09RevD.01 24-Apr-2013
                26-Jun-2019 
 ******************************************
 %nprocshared=4
 Will use up to    4 processors via shared memory.
 %mem=6000MB
 %chk=AT3_1ginp003.chk
 --------------------------------------------------------
 # m062x/def2tzvp int=ultrafine scrf=(solvent=chloroform)
 --------------------------------------------------------
 1/38=1/1;
 2/12=2,17=6,18=5,40=1/2;
 3/5=44,7=101,11=2,16=1,25=1,30=1,70=2201,72=7,74=-55,75=-5/1,2,3;
 4//1;
 5/5=2,38=5,53=7/2;
 6/7=2,8=2,9=2,10=2,28=1/1;
 99/5=1,9=1/99;
 ------------
 AT3_1ginp003
 ------------
 Symbolic Z-matrix:
 Charge =  0 Multiplicity = 1
 C                    -2.25263   3.04358  -0.29633 
 C                    -2.83187   1.71741   0.21294 
 C                    -2.19182   0.47394  -0.43235 
 C                    -3.01239  -0.8228   -0.19074 
 C                    -3.0071   -1.26173   1.28738 
 O                    -1.73259  -1.71041   1.7281 
 N                    -0.78882   0.31889   0.05365 
 C                     0.21061   0.12842  -1.0143 
 C                     4.20793  -0.09281   0.64393 
 C                     3.59742  -1.25362   0.16829 
 C                     2.31337  -1.16084  -0.35684 
 C                     1.60391   0.03806  -0.44307 
 C                     2.26411   1.16223   0.05561 
 C                     3.5427    1.1342    0.59363 
 H                     5.20859  -0.144     1.05977 
 H                     4.0934   -2.21666   0.20059 
 H                     3.99309   2.04883   0.96107 
 F                     1.72084  -2.28621  -0.81702 
 F                     1.59764   2.34604   0.01331 
 H                    -2.42577   3.15919  -1.37188 
 H                    -2.7192    3.89333   0.2112 
 H                    -1.17237   3.11698  -0.12787 
 H                    -2.72004   1.65948   1.30355 
 H                    -3.90986   1.69673   0.01595 
 H                    -4.05349  -0.57977  -0.44794 
 H                    -3.7083   -2.09604   1.41665 
 H                    -3.37909  -0.43884   1.92068 
 H                    -1.10297  -1.07369   1.32385 
 H                    -0.01542  -0.79537  -1.547 
 H                     0.1744    0.94688  -1.75021 
 H                    -2.17467   0.64945  -1.52078 
 C                    -2.56032  -1.97821  -1.09647 
 H                    -1.56519  -2.33276  -0.81531 
 H                    -3.24497  -2.82835  -1.00423 
 H                    -2.53978  -1.67741  -2.14967 
 H                    -0.52577   1.15769   0.56465 
 
                          Input orientation:                          
 ---------------------------------------------------------------------
 Center     Atomic      Atomic             Coordinates (Angstroms)
 Number     Number       Type             X           Y           Z
 ---------------------------------------------------------------------
      1          6           0       -2.252625    3.043578   -0.296331
      2          6           0       -2.831873    1.717406    0.212942
      3          6           0       -2.191817    0.473935   -0.432347
      4          6           0       -3.012394   -0.822801   -0.190735
      5          6           0       -3.007102   -1.261731    1.287376
      6          8           0       -1.732585   -1.710411    1.728097
      7          7           0       -0.788815    0.318892    0.053645
      8          6           0        0.210609    0.128417   -1.014299
      9          6           0        4.207932   -0.092809    0.643926
     10          6           0        3.597422   -1.253619    0.168286
     11          6           0        2.313367   -1.160836   -0.356836
     12          6           0        1.603910    0.038061   -0.443073
     13          6           0        2.264105    1.162225    0.055607
     14          6           0        3.542703    1.134203    0.593630
     15          1           0        5.208593   -0.144004    1.059774
     16          1           0        4.093398   -2.216665    0.200588
     17          1           0        3.993085    2.048830    0.961065
     18          9           0        1.720839   -2.286208   -0.817020
     19          9           0        1.597640    2.346042    0.013307
     20          1           0       -2.425770    3.159194   -1.371876
     21          1           0       -2.719198    3.893329    0.211204
     22          1           0       -1.172370    3.116977   -0.127867
     23          1           0       -2.720040    1.659477    1.303548
     24          1           0       -3.909858    1.696731    0.015946
     25          1           0       -4.053494   -0.579765   -0.447943
     26          1           0       -3.708296   -2.096038    1.416651
     27          1           0       -3.379090   -0.438839    1.920682
     28          1           0       -1.102974   -1.073687    1.323853
     29          1           0       -0.015421   -0.795371   -1.547000
     30          1           0        0.174404    0.946878   -1.750207
     31          1           0       -2.174665    0.649451   -1.520783
     32          6           0       -2.560324   -1.978214   -1.096471
     33          1           0       -1.565185   -2.332760   -0.815313
     34          1           0       -3.244967   -2.828348   -1.004232
     35          1           0       -2.539776   -1.677413   -2.149673
     36          1           0       -0.525770    1.157686    0.564649
 ---------------------------------------------------------------------
                    Distance matrix (angstroms):
                    1          2          3          4          5
     1  C    0.000000
     2  C    1.534151   0.000000
     3  C    2.573959   1.540224   0.000000
     4  C    3.941736   2.578409   1.553463   0.000000
     5  C    4.648984   3.171809   2.575786   1.541914   0.000000
     6  O    5.193184   3.905644   3.106409   2.471372   1.421247
     7  N    3.112738   2.480988   1.492863   2.511471   2.990194
     8  C    3.883447   3.645230   2.495937   3.459888   4.193314
     9  C    7.242914   7.281585   6.514319   7.304975   7.337378
    10  C    7.273570   7.082713   6.071284   6.633564   6.698669
    11  C    6.207177   5.923041   4.793210   5.339062   5.569650
    12  C    4.891577   4.788186   3.820686   4.702661   5.093657
    13  C    4.905527   5.128545   4.535095   5.642912   5.931142
    14  C    6.166325   6.412509   5.862875   6.885811   7.008690
    15  H    8.226146   8.296449   7.574585   8.343211   8.294502
    16  H    8.257669   7.964700   6.866139   7.251777   7.246386
    17  H    6.448214   6.873833   6.532603   7.658306   7.750414
    18  F    6.668295   6.149547   4.803669   4.993725   5.275553
    19  F    3.925172   4.478350   4.250103   5.597822   5.986896
    20  H    1.095511   2.180670   2.854482   4.194700   5.191738
    21  H    1.094239   2.178839   3.519168   4.742299   5.274057
    22  H    1.095773   2.197476   2.849149   4.348734   4.954012
    23  H    2.166524   1.097854   2.167455   2.912054   2.935323
    24  H    2.158225   1.096032   2.155890   2.682573   3.344249
    25  H    4.049041   2.684422   2.139245   1.099596   2.138071
    26  H    5.609718   4.093823   3.510451   2.165433   1.097476
    27  H    4.279170   2.804499   2.789179   2.177148   1.102997
    28  H    4.571495   3.466037   2.581657   2.450062   1.913738
    29  H    4.615927   4.164594   2.755048   3.289689   4.147449
    30  H    3.521417   3.672243   2.749442   3.964770   4.922077
    31  H    2.690205   2.139685   1.102630   2.153681   3.497331
    32  C    5.094438   3.930128   2.567079   1.536133   2.528969
    33  H    5.444899   4.366423   2.901184   2.182771   2.765417
    34  H    5.997114   4.723985   3.513012   2.176715   2.786097
    35  H    5.079871   4.146332   2.774632   2.188874   3.493493
    36  H    2.698130   2.398978   2.058453   3.267450   3.540187
                    6          7          8          9         10
     6  O    0.000000
     7  N    2.795096   0.000000
     8  C    3.831191   1.475003   0.000000
     9  C    6.251544   5.048308   4.333272   0.000000
    10  C    5.572310   4.661009   3.844351   1.395147   0.000000
    11  C    4.584616   3.461448   2.552650   2.394072   1.390381
    12  C    4.347796   2.459823   1.508559   2.824823   2.452812
    13  C    5.198345   3.167260   2.535804   2.387403   2.761654
    14  C    6.099796   4.440536   3.834044   1.396645   2.426027
    15  H    7.147044   6.098809   5.418103   1.084838   2.149853
    16  H    6.044142   5.503330   4.695893   2.172655   1.083740
    17  H    6.892280   5.165527   4.679442   2.175627   3.419242
    18  F    4.328429   3.720614   2.854843   3.623671   2.357675
    19  F    5.521387   3.131474   2.810283   3.627575   4.120765
    20  H    5.814068   3.574779   4.032861   7.658001   7.623901
    21  H    5.888656   4.065440   4.925463   8.003854   8.148166
    22  H    5.202126   2.830078   3.410261   6.312372   6.476166
    23  H    3.537153   2.662528   4.037978   7.176518   7.048778
    24  H    4.390967   3.411857   4.527611   8.336386   8.067653
    25  H    3.376408   3.423055   4.359456   8.347482   7.705215
    26  H    2.036944   4.026542   5.120111   8.202237   7.459330
    27  H    2.089249   3.281693   4.671384   7.701477   7.239232
    28  H    0.982467   1.910864   2.938964   5.443358   4.843700
    29  H    3.809490   2.098043   1.090066   4.809414   4.025523
    30  H    4.774557   2.139168   1.101249   4.804391   4.498873
    31  H    4.039753   2.123364   2.493498   6.780447   6.308060
    32  C    2.955513   3.120530   3.481769   7.238302   6.327913
    33  H    2.623790   2.896394   3.041452   6.362047   5.365121
    34  H    3.317032   4.130001   4.547919   8.108348   7.118487
    35  H    3.961028   3.450465   3.480620   7.473067   6.574020
    36  H    3.322047   1.016805   2.023543   4.896729   4.792933
                   11         12         13         14         15
    11  C    0.000000
    12  C    1.395751   0.000000
    13  C    2.359904   1.395809   0.000000
    14  C    2.771616   2.456664   1.387468   0.000000
    15  H    3.379802   3.909659   3.374107   2.150882   0.000000
    16  H    2.143363   3.419889   3.845027   3.418488   2.505551
    17  H    3.854902   3.423880   2.143664   1.083695   2.509128
    18  F    1.352524   2.357061   3.598375   4.124116   4.502868
    19  F    3.598259   2.352679   1.359186   2.364022   4.509368
    20  H    6.492487   5.180972   5.293441   6.602005   8.666460
    21  H    7.154996   5.829274   5.684756   6.853498   8.937002
    22  H    5.522904   4.157741   3.957787   5.165643   7.263689
    23  H    6.003851   4.937228   5.162007   6.324701   8.134814
    24  H    6.858074   5.776117   6.197184   7.496054   9.360771
    25  H    6.393971   5.691041   6.572682   7.856511   9.394113
    26  H    6.346675   6.019343   6.938176   7.980527   9.135026
    27  H    6.173527   5.535798   6.155287   7.221270   8.635762
    28  H    3.808372   3.418367   4.236151   5.195221   6.385133
    29  H    2.640702   2.129671   3.405403   4.578843   5.874510
    30  H    3.310454   2.139634   2.770233   4.107810   5.867629
    31  H    4.977383   3.976542   4.738209   6.115065   7.861383
    32  C    4.996802   4.672594   5.870669   7.056240   8.268603
    33  H    4.077594   3.975238   5.257079   6.332099   7.361431
    34  H    5.839075   5.660637   6.884606   8.020439   9.106509
    35  H    5.199434   4.798486   6.000340   7.240680   8.525791
    36  H    3.779600   2.608563   2.835938   4.068644   5.901056
                   16         17         18         19         20
    16  H    0.000000
    17  H    4.333917   0.000000
    18  F    2.582518   5.207422   0.000000
    19  F    5.204054   2.593210   4.707692   0.000000
    20  H    8.594885   6.919337   6.866923   4.332179   0.000000
    21  H    9.151153   7.001372   7.678402   4.590027   1.769519
    22  H    7.502262   5.385967   6.167657   2.878754   1.766452
    23  H    7.916056   6.733122   6.307666   4.558339   3.081175
    24  H    8.910716   7.967040   6.947113   5.545642   2.503471
    25  H    8.334980   8.581506   6.032503   6.380315   4.181262
    26  H    7.896821   8.757783   5.873752   7.060765   6.085903
    27  H    7.871306   7.839536   6.075941   6.013442   4.969467
    28  H    5.437868   5.987616   3.745326   4.550318   5.189800
    29  H    4.685780   5.517970   2.402096   3.860699   4.634548
    30  H    5.401122   4.811197   3.703396   2.663314   3.434877
    31  H    7.103967   6.794039   4.928319   4.411591   2.526665
    32  C    6.783158   7.962268   4.301315   6.100776   5.146544
    33  H    5.750226   7.297137   3.286354   5.708000   5.586764
    34  H    7.461726   8.946432   4.998819   7.159647   6.054495
    35  H    7.057869   8.138787   4.505489   6.163188   4.900075
    36  H    5.731972   4.622914   4.337818   2.495003   3.371374
                   21         22         23         24         25
    21  H    0.000000
    22  H    1.763624   0.000000
    23  H    2.486626   2.562916   0.000000
    24  H    2.506160   3.087332   1.753560   0.000000
    25  H    4.714169   4.697789   3.140068   2.327715   0.000000
    26  H    6.189017   5.999332   3.885014   4.048172   2.427953
    27  H    4.703770   4.659398   2.284323   2.910394   2.466793
    28  H    5.340545   4.435535   3.175768   4.155049   3.476893
    29  H    5.690835   4.319599   4.633235   4.880575   4.190519
    30  H    4.571831   3.025742   4.267438   4.512513   4.679920
    31  H    3.717397   3.005577   3.048677   2.543467   2.488364
    32  C    6.017497   5.368946   4.361009   4.069881   2.146114
    33  H    6.414801   5.506952   4.664892   4.735534   3.065882
    34  H    6.850887   6.356930   5.073655   4.686063   2.453426
    35  H    6.053024   5.379933   4.805420   4.236966   2.528252
    36  H    3.524173   2.176348   2.369090   3.470403   4.060655
                   26         27         28         29         30
    26  H    0.000000
    27  H    1.763160   0.000000
    28  H    2.800271   2.437199   0.000000
    29  H    4.910426   4.844193   3.082536   0.000000
    30  H    5.862055   5.293671   3.894127   1.764301   0.000000
    31  H    4.303284   3.805088   3.494235   2.598179   2.378912
    32  C    2.765412   3.484719   2.966480   2.842292   4.057372
    33  H    3.103325   3.789836   2.524863   2.302325   3.828345
    34  H    2.571308   3.779268   3.617589   3.854551   5.147903
    35  H    3.776156   4.336623   3.807134   2.741091   3.796479
    36  H    4.630453   3.539654   2.426640   2.921292   2.427600
                   31         32         33         34         35
    31  H    0.000000
    32  C    2.689498   0.000000
    33  H    3.124538   1.093185   0.000000
    34  H    3.675249   1.095432   1.761524   0.000000
    35  H    2.437848   1.095508   1.777589   1.770305   0.000000
    36  H    2.706692   4.090550   3.894598   5.073843   4.411525
                   36
    36  H    0.000000
 Stoichiometry    C13H19F2NO
 Framework group  C1[X(C13H19F2NO)]
 Deg. of freedom   102
 Full point group                 C1      NOp   1
 Largest Abelian subgroup         C1      NOp   1
 Largest concise Abelian subgroup C1      NOp   1
                         Standard orientation:                         
 ---------------------------------------------------------------------
 Center     Atomic      Atomic             Coordinates (Angstroms)
 Number     Number       Type             X           Y           Z
 ---------------------------------------------------------------------
      1          6           0       -2.252625    3.043578   -0.296331
      2          6           0       -2.831873    1.717406    0.212942
      3          6           0       -2.191817    0.473935   -0.432347
      4          6           0       -3.012394   -0.822801   -0.190735
      5          6           0       -3.007102   -1.261731    1.287376
      6          8           0       -1.732585   -1.710411    1.728097
      7          7           0       -0.788815    0.318892    0.053645
      8          6           0        0.210609    0.128417   -1.014299
      9          6           0        4.207932   -0.092809    0.643926
     10          6           0        3.597422   -1.253619    0.168286
     11          6           0        2.313367   -1.160836   -0.356836
     12          6           0        1.603910    0.038061   -0.443073
     13          6           0        2.264105    1.162225    0.055607
     14          6           0        3.542703    1.134203    0.593630
     15          1           0        5.208593   -0.144004    1.059774
     16          1           0        4.093398   -2.216665    0.200588
     17          1           0        3.993085    2.048830    0.961065
     18          9           0        1.720839   -2.286208   -0.817020
     19          9           0        1.597640    2.346042    0.013307
     20          1           0       -2.425770    3.159194   -1.371876
     21          1           0       -2.719198    3.893329    0.211204
     22          1           0       -1.172370    3.116977   -0.127867
     23          1           0       -2.720040    1.659477    1.303548
     24          1           0       -3.909858    1.696731    0.015946
     25          1           0       -4.053494   -0.579765   -0.447943
     26          1           0       -3.708296   -2.096038    1.416651
     27          1           0       -3.379090   -0.438839    1.920682
     28          1           0       -1.102974   -1.073687    1.323853
     29          1           0       -0.015421   -0.795371   -1.547000
     30          1           0        0.174404    0.946878   -1.750207
     31          1           0       -2.174665    0.649451   -1.520783
     32          6           0       -2.560324   -1.978214   -1.096471
     33          1           0       -1.565185   -2.332760   -0.815313
     34          1           0       -3.244967   -2.828348   -1.004232
     35          1           0       -2.539776   -1.677413   -2.149673
     36          1           0       -0.525770    1.157686    0.564649
 ---------------------------------------------------------------------
 Rotational constants (GHZ):      0.6554993      0.3037225      0.2373325
 Standard basis: def2TZVP (5D, 7F)
 There are   726 symmetry adapted cartesian basis functions of A   symmetry.
 There are   641 symmetry adapted basis functions of A   symmetry.
   641 basis functions,  1019 primitive gaussians,   726 cartesian basis functions
    65 alpha electrons       65 beta electrons
       nuclear repulsion energy      1289.0426451055 Hartrees.
 NAtoms=   36 NActive=   36 NUniq=   36 SFac= 1.00D+00 NAtFMM=   60 NAOKFM=F Big=F
 Integral buffers will be    131072 words long.
 Raffenetti 2 integral format.
 Two-electron integral symmetry is turned on.
 ------------------------------------------------------------------------------
 Polarizable Continuum Model (PCM)
 =================================
 Model                : PCM (using non-symmetric T matrix).
 Atomic radii         : UFF (Universal Force Field).
 Polarization charges : Total charges.
 Charge compensation  : None.
 Solution method      : On-the-fly selection.
 Cavity type          : Scaled VdW (van der Waals Surface) (Alpha=1.100).
 Cavity algorithm     : GePol (No added spheres)
                        Default sphere list used, NSphG=   36.
                        Lebedev-Laikov grids with approx.  5.0 points / Ang**2.
                        Smoothing algorithm: Karplus/York (Gamma=1.0000).
                        Polarization charges: spherical gaussians, with
                                              point-specific exponents (IZeta= 3).
                        Self-potential: point-specific (ISelfS= 7).
                        Self-field    : sphere-specific E.n sum rule (ISelfD= 2).
 Solvent              : Chloroform, Eps=   4.711300 Eps(inf)=   2.090627
 ------------------------------------------------------------------------------
 One-electron integrals computed using PRISM.
   1 Symmetry operations used in ECPInt.
 ECPInt:  NShTT=   34716 NPrTT=  103716 LenC2=   31410 LenP2D=   68353.
 LDataN:  DoStor=T MaxTD1= 6 Len=  172
 NBasis=   641 RedAO= T EigKep=  1.15D-05  NBF=   641
 NBsUse=   641 1.00D-06 EigRej= -1.00D+00 NBFU=   641
 ExpMin= 9.52D-02 ExpMax= 3.55D+04 ExpMxC= 1.21D+03 IAcc=3 IRadAn=         5 AccDes= 0.00D+00
 Harris functional with IExCor= 1009 and IRadAn=       5 diagonalized for initial guess.
 HarFok:  IExCor= 1009 AccDes= 0.00D+00 IRadAn=         5 IDoV= 1 UseB2=F ITyADJ=14
 ICtDFT=  3500011 ScaDFX=  1.000000  1.000000  1.000000  1.000000
 FoFCou: FMM=F IPFlag=           0 FMFlag=      100000 FMFlg1=           0
         NFxFlg=           0 DoJE=T BraDBF=F KetDBF=T FulRan=T
         wScrn=  0.000000 ICntrl=     500 IOpCl=  0 I1Cent=   200000004 NGrid=           0
         NMat0=    1 NMatS0=      1 NMatT0=    0 NMatD0=    1 NMtDS0=    0 NMtDT0=    0
 Petite list used in FoFCou.
 Requested convergence on RMS density matrix=1.00D-08 within 128 cycles.
 Requested convergence on MAX density matrix=1.00D-06.
 Requested convergence on             energy=1.00D-06.
 No special actions if energy rises.
 Inv3:  Mode=1 IEnd=    18735003.
 Iteration    1 A*A^-1 deviation from unit magnitude is 5.55D-15 for   2496.
 Iteration    1 A*A^-1 deviation from orthogonality  is 2.71D-15 for   1888    603.
 Iteration    1 A^-1*A deviation from unit magnitude is 5.33D-15 for   2485.
 Iteration    1 A^-1*A deviation from orthogonality  is 9.60D-13 for   2149   2144.
 Error on total polarization charges =  0.01259
 SCF Done:  E(RM062X) =  -836.460775620     A.U. after   12 cycles
            NFock= 12  Conv=0.87D-08     -V/T= 2.0052

 **********************************************************************

            Population analysis using the SCF density.

 **********************************************************************

 Orbital symmetries:
       Occupied  (A) (A) (A) (A) (A) (A) (A) (A) (A) (A) (A) (A)
                 (A) (A) (A) (A) (A) (A) (A) (A) (A) (A) (A) (A)
                 (A) (A) (A) (A) (A) (A) (A) (A) (A) (A) (A) (A)
                 (A) (A) (A) (A) (A) (A) (A) (A) (A) (A) (A) (A)
                 (A) (A) (A) (A) (A) (A) (A) (A) (A) (A) (A) (A)
                 (A) (A) (A) (A) (A)
       Virtual   (A) (A) (A) (A) (A) (A) (A) (A) (A) (A) (A) (A)
                 (A) (A) (A) (A) (A) (A) (A) (A) (A) (A) (A) (A)
                 (A) (A) (A) (A) (A) (A) (A) (A) (A) (A) (A) (A)
                 (A) (A) (A) (A) (A) (A) (A) (A) (A) (A) (A) (A)
                 (A) (A) (A) (A) (A) (A) (A) (A) (A) (A) (A) (A)
                 (A) (A) (A) (A) (A) (A) (A) (A) (A) (A) (A) (A)
                 (A) (A) (A) (A) (A) (A) (A) (A) (A) (A) (A) (A)
                 (A) (A) (A) (A) (A) (A) (A) (A) (A) (A) (A) (A)
                 (A) (A) (A) (A) (A) (A) (A) (A) (A) (A) (A) (A)
                 (A) (A) (A) (A) (A) (A) (A) (A) (A) (A) (A) (A)
                 (A) (A) (A) (A) (A) (A) (A) (A) (A) (A) (A) (A)
                 (A) (A) (A) (A) (A) (A) (A) (A) (A) (A) (A) (A)
                 (A) (A) (A) (A) (A) (A) (A) (A) (A) (A) (A) (A)
                 (A) (A) (A) (A) (A) (A) (A) (A) (A) (A) (A) (A)
                 (A) (A) (A) (A) (A) (A) (A) (A) (A) (A) (A) (A)
                 (A) (A) (A) (A) (A) (A) (A) (A) (A) (A) (A) (A)
                 (A) (A) (A) (A) (A) (A) (A) (A) (A) (A) (A) (A)
                 (A) (A) (A) (A) (A) (A) (A) (A) (A) (A) (A) (A)
                 (A) (A) (A) (A) (A) (A) (A) (A) (A) (A) (A) (A)
                 (A) (A) (A) (A) (A) (A) (A) (A) (A) (A) (A) (A)
                 (A) (A) (A) (A) (A) (A) (A) (A) (A) (A) (A) (A)
                 (A) (A) (A) (A) (A) (A) (A) (A) (A) (A) (A) (A)
                 (A) (A) (A) (A) (A) (A) (A) (A) (A) (A) (A) (A)
                 (A) (A) (A) (A) (A) (A) (A) (A) (A) (A) (A) (A)
                 (A) (A) (A) (A) (A) (A) (A) (A) (A) (A) (A) (A)
                 (A) (A) (A) (A) (A) (A) (A) (A) (A) (A) (A) (A)
                 (A) (A) (A) (A) (A) (A) (A) (A) (A) (A) (A) (A)
                 (A) (A) (A) (A) (A) (A) (A) (A) (A) (A) (A) (A)
                 (A) (A) (A) (A) (A) (A) (A) (A) (A) (A) (A) (A)
                 (A) (A) (A) (A) (A) (A) (A) (A) (A) (A) (A) (A)
                 (A) (A) (A) (A) (A) (A) (A) (A) (A) (A) (A) (A)
                 (A) (A) (A) (A) (A) (A) (A) (A) (A) (A) (A) (A)
                 (A) (A) (A) (A) (A) (A) (A) (A) (A) (A) (A) (A)
                 (A) (A) (A) (A) (A) (A) (A) (A) (A) (A) (A) (A)
                 (A) (A) (A) (A) (A) (A) (A) (A) (A) (A) (A) (A)
                 (A) (A) (A) (A) (A) (A) (A) (A) (A) (A) (A) (A)
                 (A) (A) (A) (A) (A) (A) (A) (A) (A) (A) (A) (A)
                 (A) (A) (A) (A) (A) (A) (A) (A) (A) (A) (A) (A)
                 (A) (A) (A) (A) (A) (A) (A) (A) (A) (A) (A) (A)
                 (A) (A) (A) (A) (A) (A) (A) (A) (A) (A) (A) (A)
                 (A) (A) (A) (A) (A) (A) (A) (A) (A) (A) (A) (A)
                 (A) (A) (A) (A) (A) (A) (A) (A) (A) (A) (A) (A)
                 (A) (A) (A) (A) (A) (A) (A) (A) (A) (A) (A) (A)
                 (A) (A) (A) (A) (A) (A) (A) (A) (A) (A) (A) (A)
                 (A) (A) (A) (A) (A) (A) (A) (A) (A) (A) (A) (A)
                 (A) (A) (A) (A) (A) (A) (A) (A) (A) (A) (A) (A)
                 (A) (A) (A) (A) (A) (A) (A) (A) (A) (A) (A) (A)
                 (A) (A) (A) (A) (A) (A) (A) (A) (A) (A) (A) (A)
 The electronic state is 1-A.
 Alpha  occ. eigenvalues --  -25.27298 -25.26873 -19.59918 -14.75148 -10.64536
 Alpha  occ. eigenvalues --  -10.64518 -10.58207 -10.57239 -10.57236 -10.57072
 Alpha  occ. eigenvalues --  -10.56758 -10.55977 -10.55892 -10.53806 -10.53788
 Alpha  occ. eigenvalues --  -10.52843 -10.52023  -1.38421  -1.38192  -1.12179
 Alpha  occ. eigenvalues --   -1.02957  -0.98513  -0.90747  -0.87435  -0.86283
 Alpha  occ. eigenvalues --   -0.85816  -0.78919  -0.76199  -0.74695  -0.72965
 Alpha  occ. eigenvalues --   -0.70774  -0.68462  -0.65618  -0.64418  -0.62677
 Alpha  occ. eigenvalues --   -0.58935  -0.58149  -0.57650  -0.57523  -0.57233
 Alpha  occ. eigenvalues --   -0.55409  -0.54656  -0.53881  -0.52339  -0.51777
 Alpha  occ. eigenvalues --   -0.50183  -0.48677  -0.48350  -0.47866  -0.46843
 Alpha  occ. eigenvalues --   -0.46627  -0.45499  -0.44397  -0.44093  -0.43252
 Alpha  occ. eigenvalues --   -0.43004  -0.41697  -0.40637  -0.38653  -0.38081
 Alpha  occ. eigenvalues --   -0.38071  -0.33134  -0.32110  -0.31507  -0.30546
 Alpha virt. eigenvalues --    0.00145   0.01630   0.05894   0.07460   0.08210
 Alpha virt. eigenvalues --    0.08797   0.09157   0.10948   0.11359   0.11868
 Alpha virt. eigenvalues --    0.11912   0.12210   0.13179   0.13705   0.14340
 Alpha virt. eigenvalues --    0.15240   0.15600   0.16177   0.16316   0.17087
 Alpha virt. eigenvalues --    0.17431   0.18175   0.18402   0.19056   0.19198
 Alpha virt. eigenvalues --    0.20211   0.20523   0.21790   0.22340   0.22523
 Alpha virt. eigenvalues --    0.22920   0.23096   0.23989   0.24466   0.24597
 Alpha virt. eigenvalues --    0.25527   0.26826   0.27004   0.27211   0.29192
 Alpha virt. eigenvalues --    0.29331   0.29967   0.30347   0.31454   0.31876
 Alpha virt. eigenvalues --    0.32575   0.33323   0.33849   0.34188   0.35741
 Alpha virt. eigenvalues --    0.36634   0.37082   0.37270   0.37365   0.38167
 Alpha virt. eigenvalues --    0.38411   0.39594   0.39954   0.40137   0.40461
 Alpha virt. eigenvalues --    0.40914   0.41455   0.42031   0.42164   0.42691
 Alpha virt. eigenvalues --    0.43713   0.44138   0.44540   0.44698   0.45161
 Alpha virt. eigenvalues --    0.45586   0.46260   0.46597   0.47504   0.48203
 Alpha virt. eigenvalues --    0.48493   0.48959   0.49368   0.49717   0.50123
 Alpha virt. eigenvalues --    0.50375   0.51147   0.51816   0.52116   0.52716
 Alpha virt. eigenvalues --    0.52892   0.53257   0.53650   0.54145   0.55208
 Alpha virt. eigenvalues --    0.55614   0.56402   0.57113   0.58085   0.58306
 Alpha virt. eigenvalues --    0.58571   0.60660   0.61631   0.62241   0.62591
 Alpha virt. eigenvalues --    0.63442   0.64679   0.64942   0.65352   0.66980
 Alpha virt. eigenvalues --    0.67876   0.68570   0.69979   0.70135   0.70693
 Alpha virt. eigenvalues --    0.71655   0.72403   0.73564   0.74960   0.75564
 Alpha virt. eigenvalues --    0.76201   0.77553   0.78082   0.79433   0.80331
 Alpha virt. eigenvalues --    0.81293   0.81934   0.82771   0.83944   0.85250
 Alpha virt. eigenvalues --    0.86383   0.87032   0.87318   0.87936   0.89794
 Alpha virt. eigenvalues --    0.90369   0.90505   0.90892   0.91274   0.92156
 Alpha virt. eigenvalues --    0.92682   0.94157   0.95099   0.96396   0.96954
 Alpha virt. eigenvalues --    0.97946   0.99094   1.00747   1.01213   1.01900
 Alpha virt. eigenvalues --    1.02989   1.03949   1.04903   1.06103   1.08080
 Alpha virt. eigenvalues --    1.09206   1.09570   1.10024   1.11057   1.11836
 Alpha virt. eigenvalues --    1.12851   1.14125   1.14366   1.15601   1.15822
 Alpha virt. eigenvalues --    1.16598   1.17201   1.18414   1.19285   1.19910
 Alpha virt. eigenvalues --    1.22191   1.22819   1.24250   1.25035   1.25537
 Alpha virt. eigenvalues --    1.26729   1.27641   1.28253   1.28862   1.29974
 Alpha virt. eigenvalues --    1.30293   1.32838   1.33878   1.34409   1.35427
 Alpha virt. eigenvalues --    1.36663   1.37593   1.39386   1.40130   1.40563
 Alpha virt. eigenvalues --    1.42286   1.44320   1.45966   1.47028   1.48844
 Alpha virt. eigenvalues --    1.50910   1.51670   1.52126   1.54112   1.54542
 Alpha virt. eigenvalues --    1.55404   1.56503   1.57144   1.57915   1.58788
 Alpha virt. eigenvalues --    1.59250   1.60082   1.60519   1.61376   1.61871
 Alpha virt. eigenvalues --    1.62202   1.63782   1.64391   1.64955   1.66137
 Alpha virt. eigenvalues --    1.66676   1.67474   1.67981   1.68415   1.69634
 Alpha virt. eigenvalues --    1.69973   1.70808   1.71187   1.72069   1.72825
 Alpha virt. eigenvalues --    1.72880   1.73821   1.75713   1.78113   1.79758
 Alpha virt. eigenvalues --    1.81599   1.82938   1.83139   1.84678   1.85144
 Alpha virt. eigenvalues --    1.87506   1.88924   1.89920   1.90146   1.90806
 Alpha virt. eigenvalues --    1.91986   1.93125   1.93759   1.94951   1.97250
 Alpha virt. eigenvalues --    1.97318   1.98603   1.99021   2.00597   2.02199
 Alpha virt. eigenvalues --    2.02461   2.03465   2.05488   2.06181   2.07752
 Alpha virt. eigenvalues --    2.09378   2.09832   2.10780   2.11369   2.12593
 Alpha virt. eigenvalues --    2.14011   2.14350   2.15663   2.16621   2.16806
 Alpha virt. eigenvalues --    2.17733   2.19305   2.19986   2.20330   2.21549
 Alpha virt. eigenvalues --    2.22964   2.24592   2.26134   2.27001   2.28519
 Alpha virt. eigenvalues --    2.29147   2.29480   2.30046   2.31239   2.31717
 Alpha virt. eigenvalues --    2.32292   2.33882   2.34574   2.35921   2.36893
 Alpha virt. eigenvalues --    2.37510   2.39560   2.40488   2.40804   2.42298
 Alpha virt. eigenvalues --    2.42881   2.43588   2.44745   2.45636   2.46738
 Alpha virt. eigenvalues --    2.47823   2.48326   2.49812   2.50853   2.52564
 Alpha virt. eigenvalues --    2.52798   2.54908   2.55691   2.56333   2.56935
 Alpha virt. eigenvalues --    2.57513   2.58315   2.59064   2.59638   2.60083
 Alpha virt. eigenvalues --    2.60338   2.60648   2.61822   2.62377   2.63518
 Alpha virt. eigenvalues --    2.64334   2.64627   2.65506   2.65937   2.67052
 Alpha virt. eigenvalues --    2.67322   2.68088   2.68961   2.69953   2.70116
 Alpha virt. eigenvalues --    2.71469   2.72512   2.73635   2.75030   2.75703
 Alpha virt. eigenvalues --    2.76213   2.77185   2.78164   2.78724   2.79943
 Alpha virt. eigenvalues --    2.80815   2.81472   2.81833   2.83535   2.84878
 Alpha virt. eigenvalues --    2.85776   2.86116   2.87084   2.87667   2.89246
 Alpha virt. eigenvalues --    2.89915   2.91024   2.92658   2.93109   2.93384
 Alpha virt. eigenvalues --    2.94584   2.95410   2.96444   2.98033   2.99356
 Alpha virt. eigenvalues --    3.00416   3.01394   3.01867   3.02883   3.03500
 Alpha virt. eigenvalues --    3.05258   3.05647   3.07127   3.07974   3.08964
 Alpha virt. eigenvalues --    3.09417   3.09929   3.10658   3.11668   3.12814
 Alpha virt. eigenvalues --    3.13276   3.13855   3.14468   3.15912   3.16646
 Alpha virt. eigenvalues --    3.17496   3.17864   3.19449   3.20234   3.20624
 Alpha virt. eigenvalues --    3.22096   3.23471   3.24147   3.24474   3.25241
 Alpha virt. eigenvalues --    3.26221   3.26996   3.27101   3.28248   3.28651
 Alpha virt. eigenvalues --    3.29366   3.30331   3.31762   3.32003   3.33284
 Alpha virt. eigenvalues --    3.33676   3.34585   3.36067   3.36709   3.38535
 Alpha virt. eigenvalues --    3.39253   3.40332   3.40528   3.42073   3.42410
 Alpha virt. eigenvalues --    3.43159   3.44086   3.44597   3.45021   3.46475
 Alpha virt. eigenvalues --    3.47272   3.47537   3.48185   3.49095   3.49480
 Alpha virt. eigenvalues --    3.51294   3.53068   3.53905   3.54684   3.55426
 Alpha virt. eigenvalues --    3.55869   3.56857   3.57664   3.59765   3.60112
 Alpha virt. eigenvalues --    3.61078   3.61430   3.62887   3.63650   3.64251
 Alpha virt. eigenvalues --    3.65409   3.66830   3.68185   3.69166   3.70109
 Alpha virt. eigenvalues --    3.70985   3.73561   3.75879   3.76839   3.79401
 Alpha virt. eigenvalues --    3.80143   3.82287   3.83873   3.85895   3.86976
 Alpha virt. eigenvalues --    3.88467   3.89731   3.91100   3.92860   3.94212
 Alpha virt. eigenvalues --    3.95354   3.96643   3.97186   4.00204   4.01220
 Alpha virt. eigenvalues --    4.03649   4.03893   4.04460   4.05854   4.06506
 Alpha virt. eigenvalues --    4.07961   4.08872   4.10774   4.12053   4.12767
 Alpha virt. eigenvalues --    4.14269   4.15272   4.16701   4.18251   4.18811
 Alpha virt. eigenvalues --    4.19516   4.19708   4.21187   4.22694   4.23445
 Alpha virt. eigenvalues --    4.24205   4.25607   4.30723   4.33611   4.34579
 Alpha virt. eigenvalues --    4.35578   4.36148   4.37426   4.38432   4.40436
 Alpha virt. eigenvalues --    4.44071   4.44800   4.46203   4.46953   4.49995
 Alpha virt. eigenvalues --    4.53485   4.54684   4.56538   4.58292   4.60179
 Alpha virt. eigenvalues --    4.62649   4.64120   4.65362   4.65904   4.70643
 Alpha virt. eigenvalues --    4.72958   4.74543   4.78271   4.82883   4.83230
 Alpha virt. eigenvalues --    4.85726   4.88495   4.92754   4.94623   4.97843
 Alpha virt. eigenvalues --    5.00560   5.08285   5.08973   5.09611   5.12698
 Alpha virt. eigenvalues --    5.15178   5.19391   5.27732   5.29110   5.29935
 Alpha virt. eigenvalues --    5.31625   5.35869   5.37186   5.41541   5.43486
 Alpha virt. eigenvalues --    5.50883   5.51605   5.57048   5.64358   5.68111
 Alpha virt. eigenvalues --    5.72895   5.78876   5.89515   5.94841   6.27243
 Alpha virt. eigenvalues --    6.51937   6.74286   6.78404   6.90051   6.90444
 Alpha virt. eigenvalues --    6.90872   6.92111   6.98903   6.99392   7.00462
 Alpha virt. eigenvalues --    7.08103   7.09807   7.18615   7.21318   7.24159
 Alpha virt. eigenvalues --    7.35875   7.39050   7.53249   7.55699   8.35948
 Alpha virt. eigenvalues --    8.37145   8.53246   8.55438   8.73935   8.75154
 Alpha virt. eigenvalues --    8.96580   8.96953   9.00753   9.04154  22.21356
 Alpha virt. eigenvalues --   22.44353  22.53086  22.53271  22.61421  22.65347
 Alpha virt. eigenvalues --   22.73774  22.75132  22.76152  22.79406  22.93715
 Alpha virt. eigenvalues --   23.02659  23.47984  32.63997  44.07129  57.48185
 Alpha virt. eigenvalues --   57.55992
          Condensed to atoms (all electrons):
               1          2          3          4          5          6
     1  C    5.066047   0.238646  -0.060491   0.010497  -0.000432   0.000201
     2  C    0.238646   5.298296   0.168754  -0.035832   0.011413  -0.006587
     3  C   -0.060491   0.168754   5.580039   0.114343   0.008325  -0.006627
     4  C    0.010497  -0.035832   0.114343   5.427875   0.237554  -0.012233
     5  C   -0.000432   0.011413   0.008325   0.237554   4.929412   0.209405
     6  O    0.000201  -0.006587  -0.006627  -0.012233   0.209405   8.158916
     7  N    0.015394  -0.033215   0.068644  -0.026090   0.000348  -0.055651
     8  C   -0.001207   0.002616  -0.053370   0.018753  -0.006371   0.008917
     9  C   -0.000001   0.000006   0.000014   0.000000   0.000004  -0.000010
    10  C    0.000004  -0.000011  -0.000148   0.000034  -0.000017   0.000059
    11  C   -0.000254   0.000152  -0.002749   0.001121  -0.000115   0.000668
    12  C   -0.001086  -0.001755   0.017011  -0.006108   0.001166  -0.002078
    13  C    0.000625   0.000525   0.001672  -0.000291   0.000100  -0.000114
    14  C    0.000010   0.000014  -0.000199   0.000017  -0.000016   0.000027
    15  H    0.000000   0.000000   0.000000   0.000000   0.000000   0.000000
    16  H    0.000000   0.000000  -0.000001  -0.000001   0.000000  -0.000001
    17  H   -0.000003  -0.000001   0.000000   0.000000   0.000000   0.000000
    18  F   -0.000001   0.000001   0.000281   0.000294  -0.000006  -0.000111
    19  F   -0.001853  -0.000307  -0.000792  -0.000037   0.000001   0.000000
    20  H    0.419016  -0.052849   0.006021  -0.000472   0.000067  -0.000001
    21  H    0.423379  -0.048886   0.012067  -0.000729   0.000007   0.000000
    22  H    0.410919  -0.031080  -0.018320   0.000502  -0.000057  -0.000025
    23  H   -0.044802   0.419894  -0.022364  -0.017983   0.004591   0.001240
    24  H   -0.028032   0.434767  -0.067747   0.007869  -0.004582   0.000209
    25  H   -0.000033  -0.014138  -0.071607   0.467917  -0.058118   0.006546
    26  H    0.000079  -0.002161   0.015617  -0.042631   0.420306  -0.036604
    27  H    0.000453   0.007431  -0.021507  -0.057881   0.441812  -0.047476
    28  H    0.000092  -0.001781  -0.000206  -0.004109  -0.042502   0.314182
    29  H    0.000407  -0.000076   0.013803  -0.007325   0.000727  -0.000683
    30  H   -0.003772   0.001039   0.006224  -0.001239   0.000175  -0.000283
    31  H   -0.016625  -0.025060   0.476367  -0.055092   0.008943  -0.000820
    32  C   -0.000557   0.008422  -0.043102   0.199932  -0.045608  -0.017848
    33  H   -0.000055  -0.000425  -0.033425  -0.010660  -0.019451   0.015888
    34  H    0.000039  -0.000563   0.010956  -0.040828  -0.003573   0.000643
    35  H   -0.000133   0.001634   0.010452  -0.067251   0.009915   0.000591
    36  H    0.003038  -0.005887  -0.045588  -0.000024   0.000690   0.001052
               7          8          9         10         11         12
     1  C    0.015394  -0.001207  -0.000001   0.000004  -0.000254  -0.001086
     2  C   -0.033215   0.002616   0.000006  -0.000011   0.000152  -0.001755
     3  C    0.068644  -0.053370   0.000014  -0.000148  -0.002749   0.017011
     4  C   -0.026090   0.018753   0.000000   0.000034   0.001121  -0.006108
     5  C    0.000348  -0.006371   0.000004  -0.000017  -0.000115   0.001166
     6  O   -0.055651   0.008917  -0.000010   0.000059   0.000668  -0.002078
     7  N    7.126904   0.166107   0.000746  -0.000719   0.025819  -0.058364
     8  C    0.166107   5.219815  -0.004623   0.006328  -0.074157   0.237589
     9  C    0.000746  -0.004623   5.009958   0.442278  -0.021847  -0.080201
    10  C   -0.000719   0.006328   0.442278   5.018521   0.522029   0.011757
    11  C    0.025819  -0.074157  -0.021847   0.522029   4.849121   0.246294
    12  C   -0.058364   0.237589  -0.080201   0.011757   0.246294   5.595999
    13  C    0.005045  -0.071663  -0.029000  -0.071181   0.043323   0.282651
    14  C   -0.000366   0.007874   0.436046  -0.029481  -0.083909   0.012046
    15  H    0.000000   0.000087   0.404686  -0.024943   0.002583  -0.000740
    16  H   -0.000004  -0.000299  -0.032808   0.411674  -0.039765   0.013819
    17  H    0.000016  -0.000231  -0.029854   0.003490  -0.000534   0.012884
    18  F   -0.000599   0.003520   0.009144  -0.043666   0.243420  -0.073587
    19  F   -0.002920   0.021633   0.008048  -0.000344   0.004724  -0.080367
    20  H   -0.002451   0.000073   0.000000   0.000000   0.000018   0.000116
    21  H    0.000076   0.000041   0.000000   0.000000   0.000000  -0.000017
    22  H    0.005322  -0.000948  -0.000020   0.000012  -0.000154  -0.000436
    23  H   -0.008777  -0.000569   0.000001  -0.000002   0.000044   0.000348
    24  H    0.007288  -0.000532   0.000000   0.000000  -0.000011   0.000025
    25  H    0.006391   0.000938   0.000000   0.000001   0.000025  -0.000063
    26  H   -0.000514   0.000141   0.000000   0.000000  -0.000024   0.000033
    27  H   -0.002616   0.000283   0.000000   0.000000   0.000055  -0.000227
    28  H    0.033816  -0.002085   0.000058  -0.000160   0.000952  -0.001097
    29  H   -0.047804   0.439183  -0.000613   0.000039  -0.030379  -0.030615
    30  H   -0.061924   0.416569   0.000549  -0.000706   0.013790  -0.030032
    31  H   -0.059302  -0.025031   0.000007  -0.000012   0.000516   0.002319
    32  C    0.005139   0.002932   0.000001   0.000010   0.000358   0.000001
    33  H    0.010442   0.003953  -0.000006   0.000084   0.001916  -0.003716
    34  H   -0.000383   0.000138   0.000000   0.000000  -0.000022   0.000028
    35  H   -0.000630  -0.003484   0.000001  -0.000001   0.000040   0.000068
    36  H    0.381194  -0.039588  -0.000186   0.000213  -0.000728  -0.007647
              13         14         15         16         17         18
     1  C    0.000625   0.000010   0.000000   0.000000  -0.000003  -0.000001
     2  C    0.000525   0.000014   0.000000   0.000000  -0.000001   0.000001
     3  C    0.001672  -0.000199   0.000000  -0.000001   0.000000   0.000281
     4  C   -0.000291   0.000017   0.000000  -0.000001   0.000000   0.000294
     5  C    0.000100  -0.000016   0.000000   0.000000   0.000000  -0.000006
     6  O   -0.000114   0.000027   0.000000  -0.000001   0.000000  -0.000111
     7  N    0.005045  -0.000366   0.000000  -0.000004   0.000016  -0.000599
     8  C   -0.071663   0.007874   0.000087  -0.000299  -0.000231   0.003520
     9  C   -0.029000   0.436046   0.404686  -0.032808  -0.029854   0.009144
    10  C   -0.071181  -0.029481  -0.024943   0.411674   0.003490  -0.043666
    11  C    0.043323  -0.083909   0.002583  -0.039765  -0.000534   0.243420
    12  C    0.282651   0.012046  -0.000740   0.013819   0.012884  -0.073587
    13  C    4.832147   0.517101   0.003041  -0.000824  -0.040265   0.006892
    14  C    0.517101   5.047524  -0.026694   0.004236   0.411174  -0.000564
    15  H    0.003041  -0.026694   0.475613  -0.003345  -0.003252  -0.000115
    16  H   -0.000824   0.004236  -0.003345   0.472365  -0.000146   0.001545
    17  H   -0.040265   0.411174  -0.003252  -0.000146   0.470544   0.000011
    18  F    0.006892  -0.000564  -0.000115   0.001545   0.000011   9.054357
    19  F    0.237241  -0.045091  -0.000108   0.000012   0.001692  -0.000033
    20  H   -0.000043  -0.000002   0.000000   0.000000   0.000000   0.000000
    21  H    0.000009   0.000001   0.000000   0.000000   0.000000   0.000000
    22  H   -0.000555   0.000150   0.000000   0.000000   0.000010   0.000000
    23  H   -0.000034  -0.000014   0.000000   0.000000   0.000000   0.000000
    24  H    0.000011   0.000001   0.000000   0.000000   0.000000   0.000000
    25  H   -0.000012   0.000000   0.000000   0.000000   0.000000  -0.000001
    26  H   -0.000002   0.000000   0.000000   0.000000   0.000000   0.000000
    27  H    0.000006   0.000000   0.000000   0.000000   0.000000   0.000000
    28  H    0.000062  -0.000111   0.000000   0.000000  -0.000001   0.000545
    29  H    0.008136   0.000673   0.000003  -0.000013   0.000007   0.009241
    30  H   -0.009896  -0.002728   0.000003   0.000006  -0.000033   0.000519
    31  H   -0.000160  -0.000038   0.000000   0.000000   0.000000   0.000002
    32  C   -0.000347   0.000004   0.000000   0.000001   0.000000  -0.002219
    33  H   -0.000243   0.000004   0.000000  -0.000002   0.000000   0.003296
    34  H    0.000002   0.000000   0.000000   0.000000   0.000000   0.000007
    35  H    0.000034  -0.000001   0.000000   0.000000   0.000000   0.000030
    36  H   -0.002912   0.000329  -0.000001   0.000002   0.000036  -0.000083
              19         20         21         22         23         24
     1  C   -0.001853   0.419016   0.423379   0.410919  -0.044802  -0.028032
     2  C   -0.000307  -0.052849  -0.048886  -0.031080   0.419894   0.434767
     3  C   -0.000792   0.006021   0.012067  -0.018320  -0.022364  -0.067747
     4  C   -0.000037  -0.000472  -0.000729   0.000502  -0.017983   0.007869
     5  C    0.000001   0.000067   0.000007  -0.000057   0.004591  -0.004582
     6  O    0.000000  -0.000001   0.000000  -0.000025   0.001240   0.000209
     7  N   -0.002920  -0.002451   0.000076   0.005322  -0.008777   0.007288
     8  C    0.021633   0.000073   0.000041  -0.000948  -0.000569  -0.000532
     9  C    0.008048   0.000000   0.000000  -0.000020   0.000001   0.000000
    10  C   -0.000344   0.000000   0.000000   0.000012  -0.000002   0.000000
    11  C    0.004724   0.000018   0.000000  -0.000154   0.000044  -0.000011
    12  C   -0.080367   0.000116  -0.000017  -0.000436   0.000348   0.000025
    13  C    0.237241  -0.000043   0.000009  -0.000555  -0.000034   0.000011
    14  C   -0.045091  -0.000002   0.000001   0.000150  -0.000014   0.000001
    15  H   -0.000108   0.000000   0.000000   0.000000   0.000000   0.000000
    16  H    0.000012   0.000000   0.000000   0.000000   0.000000   0.000000
    17  H    0.001692   0.000000   0.000000   0.000010   0.000000   0.000000
    18  F   -0.000033   0.000000   0.000000   0.000000   0.000000   0.000000
    19  F    9.064850   0.000021   0.000048   0.003580   0.000007  -0.000006
    20  H    0.000021   0.533487  -0.023504  -0.031106   0.007531  -0.005923
    21  H    0.000048  -0.023504   0.513216  -0.022310  -0.004351  -0.003741
    22  H    0.003580  -0.031106  -0.022310   0.542116  -0.004761   0.006222
    23  H    0.000007   0.007531  -0.004351  -0.004761   0.528660  -0.025250
    24  H   -0.000006  -0.005923  -0.003741   0.006222  -0.025250   0.529539
    25  H    0.000000   0.000148  -0.000014  -0.000037   0.001432  -0.001348
    26  H    0.000000   0.000000  -0.000002  -0.000002   0.000250   0.000155
    27  H    0.000000  -0.000056   0.000003   0.000086  -0.008815  -0.000586
    28  H   -0.000015  -0.000011  -0.000007   0.000049   0.000594  -0.000030
    29  H    0.000569  -0.000025   0.000003   0.000034  -0.000036   0.000054
    30  H    0.000025   0.000167  -0.000043  -0.000580   0.000253  -0.000084
    31  H    0.000050   0.003012  -0.000130   0.001111   0.006692  -0.002299
    32  C    0.000003  -0.000025   0.000035  -0.000060  -0.000661   0.000279
    33  H   -0.000001   0.000001  -0.000001   0.000003   0.000013  -0.000043
    34  H    0.000000   0.000000  -0.000001   0.000000  -0.000014   0.000001
    35  H    0.000000   0.000008   0.000001   0.000008  -0.000013   0.000026
    36  H    0.006005  -0.000055  -0.000157   0.003537  -0.001731   0.000963
              25         26         27         28         29         30
     1  C   -0.000033   0.000079   0.000453   0.000092   0.000407  -0.003772
     2  C   -0.014138  -0.002161   0.007431  -0.001781  -0.000076   0.001039
     3  C   -0.071607   0.015617  -0.021507  -0.000206   0.013803   0.006224
     4  C    0.467917  -0.042631  -0.057881  -0.004109  -0.007325  -0.001239
     5  C   -0.058118   0.420306   0.441812  -0.042502   0.000727   0.000175
     6  O    0.006546  -0.036604  -0.047476   0.314182  -0.000683  -0.000283
     7  N    0.006391  -0.000514  -0.002616   0.033816  -0.047804  -0.061924
     8  C    0.000938   0.000141   0.000283  -0.002085   0.439183   0.416569
     9  C    0.000000   0.000000   0.000000   0.000058  -0.000613   0.000549
    10  C    0.000001   0.000000   0.000000  -0.000160   0.000039  -0.000706
    11  C    0.000025  -0.000024   0.000055   0.000952  -0.030379   0.013790
    12  C   -0.000063   0.000033  -0.000227  -0.001097  -0.030615  -0.030032
    13  C   -0.000012  -0.000002   0.000006   0.000062   0.008136  -0.009896
    14  C    0.000000   0.000000   0.000000  -0.000111   0.000673  -0.002728
    15  H    0.000000   0.000000   0.000000   0.000000   0.000003   0.000003
    16  H    0.000000   0.000000   0.000000   0.000000  -0.000013   0.000006
    17  H    0.000000   0.000000   0.000000  -0.000001   0.000007  -0.000033
    18  F   -0.000001   0.000000   0.000000   0.000545   0.009241   0.000519
    19  F    0.000000   0.000000   0.000000  -0.000015   0.000569   0.000025
    20  H    0.000148   0.000000  -0.000056  -0.000011  -0.000025   0.000167
    21  H   -0.000014  -0.000002   0.000003  -0.000007   0.000003  -0.000043
    22  H   -0.000037  -0.000002   0.000086   0.000049   0.000034  -0.000580
    23  H    0.001432   0.000250  -0.008815   0.000594  -0.000036   0.000253
    24  H   -0.001348   0.000155  -0.000586  -0.000030   0.000054  -0.000084
    25  H    0.549555  -0.003683   0.004251  -0.000504  -0.000336   0.000009
    26  H   -0.003683   0.562597  -0.043585   0.006800   0.000078  -0.000007
    27  H    0.004251  -0.043585   0.594045  -0.003212  -0.000123  -0.000008
    28  H   -0.000504   0.006800  -0.003212   0.343598  -0.001058   0.000610
    29  H   -0.000336   0.000078  -0.000123  -0.001058   0.492047  -0.024697
    30  H    0.000009  -0.000007  -0.000008   0.000610  -0.024697   0.506102
    31  H   -0.000931  -0.000468   0.000047   0.000354  -0.002686   0.005680
    32  C   -0.033081  -0.013101   0.008192  -0.003222  -0.001744   0.000172
    33  H    0.007944  -0.001511   0.001209   0.000157  -0.009754   0.000558
    34  H   -0.005439   0.002941   0.000139  -0.000030   0.000487  -0.000026
    35  H   -0.004396  -0.000469  -0.000173  -0.000095  -0.001664   0.000243
    36  H   -0.000420   0.000104  -0.000498  -0.001383   0.005759  -0.004512
              31         32         33         34         35         36
     1  C   -0.016625  -0.000557  -0.000055   0.000039  -0.000133   0.003038
     2  C   -0.025060   0.008422  -0.000425  -0.000563   0.001634  -0.005887
     3  C    0.476367  -0.043102  -0.033425   0.010956   0.010452  -0.045588
     4  C   -0.055092   0.199932  -0.010660  -0.040828  -0.067251  -0.000024
     5  C    0.008943  -0.045608  -0.019451  -0.003573   0.009915   0.000690
     6  O   -0.000820  -0.017848   0.015888   0.000643   0.000591   0.001052
     7  N   -0.059302   0.005139   0.010442  -0.000383  -0.000630   0.381194
     8  C   -0.025031   0.002932   0.003953   0.000138  -0.003484  -0.039588
     9  C    0.000007   0.000001  -0.000006   0.000000   0.000001  -0.000186
    10  C   -0.000012   0.000010   0.000084   0.000000  -0.000001   0.000213
    11  C    0.000516   0.000358   0.001916  -0.000022   0.000040  -0.000728
    12  C    0.002319   0.000001  -0.003716   0.000028   0.000068  -0.007647
    13  C   -0.000160  -0.000347  -0.000243   0.000002   0.000034  -0.002912
    14  C   -0.000038   0.000004   0.000004   0.000000  -0.000001   0.000329
    15  H    0.000000   0.000000   0.000000   0.000000   0.000000  -0.000001
    16  H    0.000000   0.000001  -0.000002   0.000000   0.000000   0.000002
    17  H    0.000000   0.000000   0.000000   0.000000   0.000000   0.000036
    18  F    0.000002  -0.002219   0.003296   0.000007   0.000030  -0.000083
    19  F    0.000050   0.000003  -0.000001   0.000000   0.000000   0.006005
    20  H    0.003012  -0.000025   0.000001   0.000000   0.000008  -0.000055
    21  H   -0.000130   0.000035  -0.000001  -0.000001   0.000001  -0.000157
    22  H    0.001111  -0.000060   0.000003   0.000000   0.000008   0.003537
    23  H    0.006692  -0.000661   0.000013  -0.000014  -0.000013  -0.001731
    24  H   -0.002299   0.000279  -0.000043   0.000001   0.000026   0.000963
    25  H   -0.000931  -0.033081   0.007944  -0.005439  -0.004396  -0.000420
    26  H   -0.000468  -0.013101  -0.001511   0.002941  -0.000469   0.000104
    27  H    0.000047   0.008192   0.001209   0.000139  -0.000173  -0.000498
    28  H    0.000354  -0.003222   0.000157  -0.000030  -0.000095  -0.001383
    29  H   -0.002686  -0.001744  -0.009754   0.000487  -0.001664   0.005759
    30  H    0.005680   0.000172   0.000558  -0.000026   0.000243  -0.004512
    31  H    0.506917  -0.009843   0.001456  -0.000342   0.001733   0.002908
    32  C   -0.009843   5.202144   0.405451   0.410375   0.421809  -0.000150
    33  H    0.001456   0.405451   0.517551  -0.019851  -0.029031  -0.000231
    34  H   -0.000342   0.410375  -0.019851   0.508046  -0.018753   0.000024
    35  H    0.001733   0.421809  -0.029031  -0.018753   0.523925  -0.000151
    36  H    0.002908  -0.000150  -0.000231   0.000024  -0.000151   0.460326
 Mulliken charges:
               1
     1  C   -0.429510
     2  C   -0.332997
     3  C   -0.062345
     4  C   -0.099893
     5  C   -0.104114
     6  O   -0.531395
     7  N   -0.496363
     8  C   -0.273334
     9  C   -0.112377
    10  C   -0.245142
    11  C    0.297678
    12  C   -0.056014
    13  C    0.288919
    14  C   -0.248017
    15  H    0.173183
    16  H    0.173548
    17  H    0.174457
    18  F   -0.212122
    19  F   -0.216634
    20  H    0.146835
    21  H    0.155005
    22  H    0.136788
    23  H    0.168627
    24  H    0.152803
    25  H    0.149003
    26  H    0.135664
    27  H    0.128750
    28  H    0.359750
    29  H    0.188381
    30  H    0.187877
    31  H    0.180722
    32  C   -0.493691
    33  H    0.158479
    34  H    0.155996
    35  H    0.155729
    36  H    0.245751
 Sum of Mulliken charges =   0.00000
 Mulliken charges with hydrogens summed into heavy atoms:
               1
     1  C    0.009118
     2  C   -0.011566
     3  C    0.118377
     4  C    0.049110
     5  C    0.160300
     6  O   -0.171645
     7  N   -0.250612
     8  C    0.102925
     9  C    0.060806
    10  C   -0.071595
    11  C    0.297678
    12  C   -0.056014
    13  C    0.288919
    14  C   -0.073559
    18  F   -0.212122
    19  F   -0.216634
    32  C   -0.023486
 Electronic spatial extent (au):  <R**2>=           4745.6345
 Charge=              0.0000 electrons
 Dipole moment (field-independent basis, Debye):
    X=              1.2590    Y=              3.1637    Z=             -1.8208  Tot=              3.8613
 Quadrupole moment (field-independent basis, Debye-Ang):
   XX=            -82.5236   YY=           -108.8313   ZZ=           -107.6605
   XY=             -4.8223   XZ=              8.0609   YZ=              5.4182
 Traceless Quadrupole moment (field-independent basis, Debye-Ang):
   XX=             17.1482   YY=             -9.1595   ZZ=             -7.9887
   XY=             -4.8223   XZ=              8.0609   YZ=              5.4182
 Octapole moment (field-independent basis, Debye-Ang**2):
  XXX=             57.2689  YYY=              7.8978  ZZZ=            -15.7281  XYY=              8.9999
  XXY=             -2.2769  XXZ=             20.8724  XZZ=              6.6887  YZZ=             14.2947
  YYZ=             -3.0122  XYZ=             -5.9845
 Hexadecapole moment (field-independent basis, Debye-Ang**3):
 XXXX=          -3704.9816 YYYY=          -1665.6188 ZZZZ=           -550.3427 XXXY=             -6.6042
 XXXZ=            100.0125 YYYX=            -19.8124 YYYZ=             28.8138 ZZZX=             -2.0009
 ZZZY=             27.8891 XXYY=           -896.2091 XXZZ=           -797.5974 YYZZ=           -381.6628
 XXYZ=             18.2933 YYXZ=             20.4026 ZZXY=            -11.3270
 N-N= 1.289042645106D+03 E-N=-4.534092963607D+03  KE= 8.321540820364D+02
 1\1\GINC-CPU-E-94\SP\RM062X\def2TZVP\C13H19F2N1O1\KE291\26-Jun-2019\0\
 \# m062x/def2tzvp int=ultrafine scrf=(solvent=chloroform)\\AT3_1ginp00
 3\\0,1\C,0,-2.252625,3.043578,-0.296331\C,0,-2.831873,1.717406,0.21294
 2\C,0,-2.191817,0.473935,-0.432347\C,0,-3.012394,-0.822801,-0.190735\C
 ,0,-3.007102,-1.261731,1.287376\O,0,-1.732585,-1.710411,1.728097\N,0,-
 0.788815,0.318892,0.053645\C,0,0.210609,0.128417,-1.014299\C,0,4.20793
 2,-0.092809,0.643926\C,0,3.597422,-1.253619,0.168286\C,0,2.313367,-1.1
 60836,-0.356836\C,0,1.60391,0.038061,-0.443073\C,0,2.264105,1.162225,0
 .055607\C,0,3.542703,1.134203,0.59363\H,0,5.208593,-0.144004,1.059774\
 H,0,4.093398,-2.216665,0.200588\H,0,3.993085,2.04883,0.961065\F,0,1.72
 0839,-2.286208,-0.81702\F,0,1.59764,2.346042,0.013307\H,0,-2.42577,3.1
 59194,-1.371876\H,0,-2.719198,3.893329,0.211204\H,0,-1.17237,3.116977,
 -0.127867\H,0,-2.72004,1.659477,1.303548\H,0,-3.909858,1.696731,0.0159
 46\H,0,-4.053494,-0.579765,-0.447943\H,0,-3.708296,-2.096038,1.416651\
 H,0,-3.37909,-0.438839,1.920682\H,0,-1.102974,-1.073687,1.323853\H,0,-
 0.015421,-0.795371,-1.547\H,0,0.174404,0.946878,-1.750207\H,0,-2.17466
 5,0.649451,-1.520783\C,0,-2.560324,-1.978214,-1.096471\H,0,-1.565185,-
 2.33276,-0.815313\H,0,-3.244967,-2.828348,-1.004232\H,0,-2.539776,-1.6
 77413,-2.149673\H,0,-0.52577,1.157686,0.564649\\Version=ES64L-G09RevD.
 01\State=1-A\HF=-836.4607756\RMSD=8.722e-09\Dipole=0.4953127,1.2447037
 ,-0.71637\Quadrupole=12.749263,-6.8098729,-5.93939,-3.5852967,5.993116
 3,4.0282915\PG=C01 [X(C13H19F2N1O1)]\\@


 ALL MY ATTEMPTS TO ADAPT THE THEORETICAL FOUNDATIONS OF PHYSICS
 TO THESE NEW NOTIONS FAILED COMPLETELY. IT WAS AS IF THE GROUND HAD
 BEEN PULLED OUT FROM UNDER ONE WITH NO FIRM FOUNDATION TO BE SEEN ANYWHERE,
 UPON WHICH ONE COULD HAVE BUILT.  -- A.EINSTEIN
 Job cpu time:       0 days  1 hours 20 minutes 41.5 seconds.
 File lengths (MBytes):  RWF=    319 Int=      0 D2E=      0 Chk=     17 Scr=      1
 Normal termination of Gaussian 09 at Wed Jun 26 12:23:14 2019.
