 Entering Gaussian System, Link 0=/usr/local/Cluster-Apps/gaussian/g09/g09
 Initial command:
 /usr/local/Cluster-Apps/gaussian/g09/l1.exe "/home/ke291/rds/hpc-work/26Jun1158AT3NMR/Gau-272884.inp" -scrdir="/home/ke291/rds/hpc-work/26Jun1158AT3NMR/"
 Entering Link 1 = /usr/local/Cluster-Apps/gaussian/g09/l1.exe PID=    272909.
  
 Copyright (c) 1988,1990,1992,1993,1995,1998,2003,2009,2013,
            Gaussian, Inc.  All Rights Reserved.
  
 This is part of the Gaussian(R) 09 program.  It is based on
 the Gaussian(R) 03 system (copyright 2003, Gaussian, Inc.),
 the Gaussian(R) 98 system (copyright 1998, Gaussian, Inc.),
 the Gaussian(R) 94 system (copyright 1995, Gaussian, Inc.),
 the Gaussian 92(TM) system (copyright 1992, Gaussian, Inc.),
 the Gaussian 90(TM) system (copyright 1990, Gaussian, Inc.),
 the Gaussian 88(TM) system (copyright 1988, Gaussian, Inc.),
 the Gaussian 86(TM) system (copyright 1986, Carnegie Mellon
 University), and the Gaussian 82(TM) system (copyright 1983,
 Carnegie Mellon University). Gaussian is a federally registered
 trademark of Gaussian, Inc.
  
 This software contains proprietary and confidential information,
 including trade secrets, belonging to Gaussian, Inc.
  
 This software is provided under written license and may be
 used, copied, transmitted, or stored only in accord with that
 written license.
  
 The following legend is applicable only to US Government
 contracts under FAR:
  
                    RESTRICTED RIGHTS LEGEND
  
 Use, reproduction and disclosure by the US Government is
 subject to restrictions as set forth in subparagraphs (a)
 and (c) of the Commercial Computer Software - Restricted
 Rights clause in FAR 52.227-19.
  
 Gaussian, Inc.
 340 Quinnipiac St., Bldg. 40, Wallingford CT 06492
  
  
 ---------------------------------------------------------------
 Warning -- This program may not be used in any manner that
 competes with the business of Gaussian, Inc. or will provide
 assistance to any competitor of Gaussian, Inc.  The licensee
 of this program is prohibited from giving any competitor of
 Gaussian, Inc. access to this program.  By using this program,
 the user acknowledges that Gaussian, Inc. is engaged in the
 business of creating and licensing software in the field of
 computational chemistry and represents and warrants to the
 licensee that it is not a competitor of Gaussian, Inc. and that
 it will not use this program in any manner prohibited above.
 ---------------------------------------------------------------
  

 Cite this work as:
 Gaussian 09, Revision D.01,
 M. J. Frisch, G. W. Trucks, H. B. Schlegel, G. E. Scuseria, 
 M. A. Robb, J. R. Cheeseman, G. Scalmani, V. Barone, B. Mennucci, 
 G. A. Petersson, H. Nakatsuji, M. Caricato, X. Li, H. P. Hratchian, 
 A. F. Izmaylov, J. Bloino, G. Zheng, J. L. Sonnenberg, M. Hada, 
 M. Ehara, K. Toyota, R. Fukuda, J. Hasegawa, M. Ishida, T. Nakajima, 
 Y. Honda, O. Kitao, H. Nakai, T. Vreven, J. A. Montgomery, Jr., 
 J. E. Peralta, F. Ogliaro, M. Bearpark, J. J. Heyd, E. Brothers, 
 K. N. Kudin, V. N. Staroverov, T. Keith, R. Kobayashi, J. Normand, 
 K. Raghavachari, A. Rendell, J. C. Burant, S. S. Iyengar, J. Tomasi, 
 M. Cossi, N. Rega, J. M. Millam, M. Klene, J. E. Knox, J. B. Cross, 
 V. Bakken, C. Adamo, J. Jaramillo, R. Gomperts, R. E. Stratmann, 
 O. Yazyev, A. J. Austin, R. Cammi, C. Pomelli, J. W. Ochterski, 
 R. L. Martin, K. Morokuma, V. G. Zakrzewski, G. A. Voth, 
 P. Salvador, J. J. Dannenberg, S. Dapprich, A. D. Daniels, 
 O. Farkas, J. B. Foresman, J. V. Ortiz, J. Cioslowski, 
 and D. J. Fox, Gaussian, Inc., Wallingford CT, 2013.
 
 ******************************************
 Gaussian 09:  ES64L-G09RevD.01 24-Apr-2013
                26-Jun-2019 
 ******************************************
 %nprocshared=4
 Will use up to    4 processors via shared memory.
 %mem=6000MB
 %chk=AT3_2ginp004.chk
 --------------------------------------------------------
 # m062x/def2tzvp int=ultrafine scrf=(solvent=chloroform)
 --------------------------------------------------------
 1/38=1/1;
 2/12=2,17=6,18=5,40=1/2;
 3/5=44,7=101,11=2,16=1,25=1,30=1,70=2201,72=7,74=-55,75=-5/1,2,3;
 4//1;
 5/5=2,38=5,53=7/2;
 6/7=2,8=2,9=2,10=2,28=1/1;
 99/5=1,9=1/99;
 ------------
 AT3_2ginp004
 ------------
 Symbolic Z-matrix:
 Charge =  0 Multiplicity = 1
 C                     3.03257   2.47722  -0.46459 
 C                     2.39697   1.58076   0.60455 
 C                     1.59776   0.38337   0.04922 
 C                     2.4371   -0.62077  -0.78526 
 C                     1.52882  -1.67429  -1.45117 
 O                     0.95562  -2.59322  -0.53269 
 N                     0.8545   -0.34791   1.10904 
 C                    -0.3452    0.32742   1.6388 
 C                    -3.67028   0.15567  -1.14267 
 C                    -3.33077  -0.97252  -0.39326 
 C                    -2.25823  -0.88267   0.48383 
 C                    -1.49949   0.27692   0.66383 
 C                    -1.88187   1.36805  -0.11761 
 C                    -2.94574   1.34051  -1.01195 
 H                    -4.50404   0.10932  -1.83533 
 H                    -3.87662  -1.90482  -0.47889 
 H                    -3.18588   2.22753  -1.58647 
 F                    -1.92593  -1.9696    1.21676 
 F                    -1.16621   2.51393  -0.00289 
 H                     3.50478   3.35179  -0.00602 
 H                     3.80263   1.95304  -1.03921 
 H                     2.27858   2.84119  -1.17178 
 H                     3.17127   1.2159    1.29181 
 H                     1.71762   2.19269   1.20965 
 H                     2.88665  -0.04587  -1.60588 
 H                     2.11884  -2.26149  -2.16602 
 H                     0.74801  -1.15287  -2.03277 
 H                     0.64136  -2.02574   0.20412 
 H                    -0.63374  -0.2062    2.54836 
 H                    -0.16528   1.3732    1.9176 
 H                     0.83427   0.7859   -0.62908 
 C                     3.57045  -1.29347   0.00469 
 H                     4.26135  -0.5646    0.43881 
 H                     3.17556  -1.91904   0.81028 
 H                     4.15206  -1.9475   -0.65348 
 H                     1.48275  -0.53742   1.88735 
 
                          Input orientation:                          
 ---------------------------------------------------------------------
 Center     Atomic      Atomic             Coordinates (Angstroms)
 Number     Number       Type             X           Y           Z
 ---------------------------------------------------------------------
      1          6           0        3.032574    2.477222   -0.464592
      2          6           0        2.396969    1.580756    0.604545
      3          6           0        1.597764    0.383370    0.049218
      4          6           0        2.437097   -0.620774   -0.785262
      5          6           0        1.528823   -1.674291   -1.451168
      6          8           0        0.955618   -2.593222   -0.532689
      7          7           0        0.854502   -0.347906    1.109038
      8          6           0       -0.345199    0.327422    1.638801
      9          6           0       -3.670279    0.155667   -1.142672
     10          6           0       -3.330769   -0.972524   -0.393264
     11          6           0       -2.258230   -0.882672    0.483826
     12          6           0       -1.499487    0.276916    0.663827
     13          6           0       -1.881869    1.368050   -0.117610
     14          6           0       -2.945742    1.340510   -1.011954
     15          1           0       -4.504035    0.109322   -1.835328
     16          1           0       -3.876622   -1.904819   -0.478888
     17          1           0       -3.185880    2.227531   -1.586470
     18          9           0       -1.925933   -1.969595    1.216764
     19          9           0       -1.166206    2.513929   -0.002887
     20          1           0        3.504780    3.351793   -0.006017
     21          1           0        3.802632    1.953040   -1.039215
     22          1           0        2.278577    2.841191   -1.171784
     23          1           0        3.171274    1.215901    1.291812
     24          1           0        1.717621    2.192693    1.209648
     25          1           0        2.886650   -0.045873   -1.605883
     26          1           0        2.118842   -2.261492   -2.166025
     27          1           0        0.748013   -1.152872   -2.032769
     28          1           0        0.641360   -2.025740    0.204118
     29          1           0       -0.633744   -0.206198    2.548360
     30          1           0       -0.165275    1.373195    1.917601
     31          1           0        0.834270    0.785904   -0.629080
     32          6           0        3.570451   -1.293472    0.004689
     33          1           0        4.261348   -0.564597    0.438814
     34          1           0        3.175563   -1.919041    0.810281
     35          1           0        4.152058   -1.947497   -0.653475
     36          1           0        1.482753   -0.537417    1.887346
 ---------------------------------------------------------------------
                    Distance matrix (angstroms):
                    1          2          3          4          5
     1  C    0.000000
     2  C    1.533199   0.000000
     3  C    2.589768   1.543000   0.000000
     4  C    3.170962   2.603826   1.552141   0.000000
     5  C    4.524341   3.946513   2.547524   1.542171   0.000000
     6  O    5.479761   4.559922   3.100172   2.479743   1.420071
     7  N    3.898930   2.520606   1.486749   2.483432   2.961192
     8  C    4.522748   3.187478   2.510978   3.810030   4.131189
     9  C    7.125844   6.472646   5.405990   6.166899   5.520378
    10  C    7.238644   6.349948   5.130758   5.791862   5.022676
    11  C    6.338848   5.268200   4.081720   4.870859   4.325810
    12  C    5.162776   4.109244   3.159437   4.289802   4.177448
    13  C    5.049991   4.344561   3.620120   4.801526   4.760991
    14  C    6.109990   5.587070   4.762945   5.733496   5.413286
    15  H    8.017876   7.466053   6.392071   7.057974   6.302716
    16  H    8.181655   7.258168   5.956812   6.450247   5.497027
    17  H    6.323775   6.032169   5.381418   6.353947   6.121352
    18  F    6.869347   5.627369   4.395003   4.986327   4.374975
    19  F    4.224248   3.733095   3.490204   4.839656   5.186703
    20  H    1.094598   2.176374   3.528639   4.186700   5.590562
    21  H    1.094508   2.194637   2.917189   2.924670   4.300865
    22  H    1.095950   2.181297   2.827585   3.487080   4.585822
    23  H    2.166823   1.097726   2.170963   2.868210   4.309849
    24  H    2.147822   1.096417   2.152815   3.523196   4.697782
    25  H    2.773057   2.787777   2.141223   1.098193   2.125882
    26  H    5.117147   4.745133   3.489143   2.167890   1.097246
    27  H    4.566835   4.140918   2.723378   2.166196   1.104446
    28  H    5.142154   4.031044   2.596635   2.485452   1.910780
    29  H    5.451652   4.019558   3.401901   4.551370   4.777888
    30  H    4.137627   2.886571   2.752983   4.248967   4.848272
    31  H    2.778516   2.143746   1.097745   2.138268   2.685292
    32  C    3.837665   3.161973   2.589455   1.536566   2.536294
    33  H    3.402748   2.847089   2.853963   2.197592   3.502877
    34  H    4.579615   3.591255   2.893054   2.185540   2.808168
    35  H    4.568048   4.136607   3.528617   2.172246   2.755416
    36  H    4.125725   2.639702   2.059075   2.839112   3.527078
                    6          7          8          9         10
     6  O    0.000000
     7  N    2.783332   0.000000
     8  C    3.864926   1.475127   0.000000
     9  C    5.415477   5.079117   4.338462   0.000000
    10  C    4.584672   4.490384   3.838330   1.396315   0.000000
    11  C    3.779961   3.219622   2.541256   2.391135   1.388416
    12  C    3.961929   2.475859   1.511789   2.826743   2.456041
    13  C    4.890327   3.454981   2.555238   2.391450   2.766511
    14  C    5.560985   4.668106   3.849113   1.394953   2.425108
    15  H    6.229641   6.131253   5.423381   1.084928   2.150928
    16  H    4.881325   5.227717   4.683850   2.174578   1.083725
    17  H    6.442214   5.497575   4.699176   2.173527   3.418345
    18  F    3.428240   3.220605   2.820128   3.623040   2.357945
    19  F    5.555701   3.675559   2.854821   3.623657   4.122267
    20  H    6.489901   4.685626   5.164744   7.936541   8.097803
    21  H    5.388001   4.312866   5.197971   7.686719   7.737027
    22  H    5.629521   4.171388   4.593759   6.527003   6.827538
    23  H    4.769419   2.801130   3.643539   7.338778   7.064365
    24  H    5.149890   2.685096   2.814007   6.221925   6.170427
    25  H    3.371886   3.404651   4.594798   6.576359   6.401986
    26  H    2.032467   3.998300   5.220218   6.356401   5.873873
    27  H    2.089964   3.245036   4.106922   4.693171   4.399655
    28  H    0.981671   1.918186   2.927283   5.016235   4.152582
    29  H    4.209135   2.075236   1.093301   4.793246   4.063785
    30  H    4.795079   2.157755   1.097152   4.809646   4.567587
    31  H    3.382678   2.075329   2.597044   4.577329   4.527166
    32  C    2.969087   3.080594   4.542019   7.472925   6.920131
    33  H    3.998373   3.478901   4.843133   8.119765   7.648464
    34  H    2.680717   2.818696   4.257794   7.415119   6.684068
    35  H    3.263247   4.066819   5.536705   8.114898   7.550562
    36  H    3.218816   1.018026   2.037432   6.017899   5.344202
                   11         12         13         14         15
    11  C    0.000000
    12  C    1.397403   0.000000
    13  C    2.359899   1.395505   0.000000
    14  C    2.766328   2.455835   1.390121   0.000000
    15  H    3.377302   3.911671   3.377974   2.149894   0.000000
    16  H    2.142614   3.422943   3.849835   3.418019   2.508055
    17  H    3.849678   3.422376   2.143992   1.083762   2.507244
    18  F    1.352413   2.352532   3.594770   4.118736   4.503751
    19  F    3.600875   2.357925   1.355866   2.358363   4.503452
    20  H    7.168188   5.911535   5.741400   6.831281   8.831824
    21  H    6.862577   5.815687   5.788361   6.776171   8.545982
    22  H    6.098427   4.921254   4.537702   5.437931   7.342154
    23  H    5.876765   4.805421   5.248226   6.537641   8.361453
    24  H    5.078590   3.783901   3.924026   5.235331   7.233348
    25  H    5.615773   4.949139   5.191619   6.024251   7.395874
    26  H    5.299209   5.248227   5.777133   6.321100   7.042203
    27  H    3.929854   3.790406   4.115721   4.571963   5.405194
    28  H    3.129291   3.177544   4.241227   5.067324   5.932362
    29  H    2.712724   2.129407   3.338183   4.518128   5.856230
    30  H    3.394865   2.133987   2.662481   4.039104   5.874239
    31  H    3.685955   2.716082   2.824519   3.839619   5.514553
    32  C    5.862751   5.348350   6.068480   7.101563   8.399453
    33  H    6.527488   5.826319   6.464043   7.594492   9.080629
    34  H    5.541366   5.167182   6.102751   7.170466   8.371961
    35  H    6.596901   6.214761   6.905670   7.830598   8.975256
    36  H    4.010489   3.324739   4.355610   5.616415   7.079421
                   16         17         18         19         20
    16  H    0.000000
    17  H    4.333610   0.000000
    18  F    2.585463   5.202062   0.000000
    19  F    5.205599   2.582410   4.708155   0.000000
    20  H    9.074176   6.966113   7.700974   4.745539   0.000000
    21  H    8.612084   7.015279   7.300203   5.106655   1.764291
    22  H    7.803281   5.514420   6.821050   3.652390   1.767286
    23  H    7.908673   7.051334   6.011201   4.709018   2.521432
    24  H    7.136968   5.644804   5.531743   3.144820   2.452609
    25  H    7.104058   6.484162   5.901610   5.054486   3.806020
    26  H    6.238528   6.973327   5.280972   6.186708   6.172149
    27  H    4.936316   5.205941   4.286781   4.607612   5.656810
    28  H    4.570917   5.995355   2.760362   4.890679   6.095998
    29  H    4.750348   5.434451   2.559779   3.767156   6.025904
    30  H    5.501148   4.704515   3.842569   2.447736   4.591782
    31  H    5.427251   4.376813   4.314932   2.716633   3.755478
    32  C    7.487756   7.783139   5.668907   6.077193   4.645742
    33  H    8.298489   8.207250   6.392313   6.255459   4.013525
    34  H    7.169064   7.962816   5.117914   6.258069   5.343820
    35  H    8.030691   8.493920   6.359265   6.972196   5.377792
    36  H    6.015958   6.442707   3.757653   4.461017   4.774869
                   21         22         23         24         25
    21  H    0.000000
    22  H    1.768935   0.000000
    23  H    2.525010   3.083469   0.000000
    24  H    3.076051   2.531095   1.753277   0.000000
    25  H    2.270636   2.982169   3.173282   3.782198   0.000000
    26  H    4.676230   5.201096   5.015627   5.603205   2.410862
    27  H    4.468169   4.363079   4.747222   4.758804   2.445700
    28  H    5.231654   5.316070   4.253443   4.468177   3.498186
    29  H    6.100364   5.622069   4.251993   3.616040   5.447625
    30  H    4.982295   4.203775   3.398369   2.172112   4.872673
    31  H    3.215834   2.569972   3.055538   2.477960   2.420384
    32  C    3.418111   4.488704   2.848329   4.127742   2.148960
    33  H    2.955247   4.257323   2.255225   3.829802   2.517867
    34  H    4.336688   5.233830   3.171711   4.380804   3.070843
    35  H    3.935109   5.168182   3.840985   5.151590   2.474775
    36  H    4.488761   4.626727   2.505970   2.822754   3.796734
                   26         27         28         29         30
    26  H    0.000000
    27  H    1.768041   0.000000
    28  H    2.802875   2.403526   0.000000
    29  H    5.833214   4.877724   3.229875   0.000000
    30  H    5.924875   4.777084   3.890944   1.764030   0.000000
    31  H    3.646772   2.395127   2.938839   3.638057   2.798140
    32  C    2.785001   3.483843   3.025816   5.032662   4.972524
    33  H    3.775576   4.335702   3.910797   5.342337   5.053399
    34  H    3.176843   3.816143   2.607873   4.523889   4.819354
    35  H    2.553501   3.757846   3.614774   6.015627   6.023022
    36  H    4.450490   4.035583   2.399230   2.241920   2.523361
                   31         32         33         34         35
    31  H    0.000000
    32  C    3.494589   0.000000
    33  H    3.835246   1.094103   0.000000
    34  H    3.856182   1.093733   1.775228   0.000000
    35  H    4.298813   1.095078   1.765631   1.759811   0.000000
    36  H    2.916180   2.911099   3.133620   2.436095   3.945793
                   36
    36  H    0.000000
 Stoichiometry    C13H19F2NO
 Framework group  C1[X(C13H19F2NO)]
 Deg. of freedom   102
 Full point group                 C1      NOp   1
 Largest Abelian subgroup         C1      NOp   1
 Largest concise Abelian subgroup C1      NOp   1
                         Standard orientation:                         
 ---------------------------------------------------------------------
 Center     Atomic      Atomic             Coordinates (Angstroms)
 Number     Number       Type             X           Y           Z
 ---------------------------------------------------------------------
      1          6           0        3.032574    2.477222   -0.464592
      2          6           0        2.396969    1.580756    0.604545
      3          6           0        1.597764    0.383370    0.049218
      4          6           0        2.437097   -0.620774   -0.785262
      5          6           0        1.528823   -1.674291   -1.451168
      6          8           0        0.955618   -2.593222   -0.532689
      7          7           0        0.854502   -0.347906    1.109038
      8          6           0       -0.345199    0.327422    1.638801
      9          6           0       -3.670279    0.155667   -1.142672
     10          6           0       -3.330769   -0.972524   -0.393264
     11          6           0       -2.258230   -0.882672    0.483826
     12          6           0       -1.499487    0.276916    0.663827
     13          6           0       -1.881869    1.368050   -0.117610
     14          6           0       -2.945742    1.340510   -1.011954
     15          1           0       -4.504035    0.109322   -1.835328
     16          1           0       -3.876622   -1.904819   -0.478888
     17          1           0       -3.185880    2.227531   -1.586470
     18          9           0       -1.925933   -1.969595    1.216764
     19          9           0       -1.166206    2.513929   -0.002887
     20          1           0        3.504780    3.351793   -0.006017
     21          1           0        3.802632    1.953040   -1.039215
     22          1           0        2.278577    2.841191   -1.171784
     23          1           0        3.171274    1.215901    1.291812
     24          1           0        1.717621    2.192693    1.209648
     25          1           0        2.886650   -0.045873   -1.605883
     26          1           0        2.118842   -2.261492   -2.166025
     27          1           0        0.748013   -1.152872   -2.032769
     28          1           0        0.641360   -2.025740    0.204118
     29          1           0       -0.633744   -0.206198    2.548360
     30          1           0       -0.165275    1.373195    1.917601
     31          1           0        0.834270    0.785904   -0.629080
     32          6           0        3.570451   -1.293472    0.004689
     33          1           0        4.261348   -0.564597    0.438814
     34          1           0        3.175563   -1.919041    0.810281
     35          1           0        4.152058   -1.947497   -0.653475
     36          1           0        1.482753   -0.537417    1.887346
 ---------------------------------------------------------------------
 Rotational constants (GHZ):      0.6380461      0.3450539      0.2717564
 Standard basis: def2TZVP (5D, 7F)
 There are   726 symmetry adapted cartesian basis functions of A   symmetry.
 There are   641 symmetry adapted basis functions of A   symmetry.
   641 basis functions,  1019 primitive gaussians,   726 cartesian basis functions
    65 alpha electrons       65 beta electrons
       nuclear repulsion energy      1315.0682171110 Hartrees.
 NAtoms=   36 NActive=   36 NUniq=   36 SFac= 1.00D+00 NAtFMM=   60 NAOKFM=F Big=F
 Integral buffers will be    131072 words long.
 Raffenetti 2 integral format.
 Two-electron integral symmetry is turned on.
 ------------------------------------------------------------------------------
 Polarizable Continuum Model (PCM)
 =================================
 Model                : PCM (using non-symmetric T matrix).
 Atomic radii         : UFF (Universal Force Field).
 Polarization charges : Total charges.
 Charge compensation  : None.
 Solution method      : On-the-fly selection.
 Cavity type          : Scaled VdW (van der Waals Surface) (Alpha=1.100).
 Cavity algorithm     : GePol (No added spheres)
                        Default sphere list used, NSphG=   36.
                        Lebedev-Laikov grids with approx.  5.0 points / Ang**2.
                        Smoothing algorithm: Karplus/York (Gamma=1.0000).
                        Polarization charges: spherical gaussians, with
                                              point-specific exponents (IZeta= 3).
                        Self-potential: point-specific (ISelfS= 7).
                        Self-field    : sphere-specific E.n sum rule (ISelfD= 2).
 Solvent              : Chloroform, Eps=   4.711300 Eps(inf)=   2.090627
 ------------------------------------------------------------------------------
 One-electron integrals computed using PRISM.
   1 Symmetry operations used in ECPInt.
 ECPInt:  NShTT=   34716 NPrTT=  103716 LenC2=   31933 LenP2D=   69741.
 LDataN:  DoStor=T MaxTD1= 6 Len=  172
 NBasis=   641 RedAO= T EigKep=  1.08D-05  NBF=   641
 NBsUse=   641 1.00D-06 EigRej= -1.00D+00 NBFU=   641
 ExpMin= 9.52D-02 ExpMax= 3.55D+04 ExpMxC= 1.21D+03 IAcc=3 IRadAn=         5 AccDes= 0.00D+00
 Harris functional with IExCor= 1009 and IRadAn=       5 diagonalized for initial guess.
 HarFok:  IExCor= 1009 AccDes= 0.00D+00 IRadAn=         5 IDoV= 1 UseB2=F ITyADJ=14
 ICtDFT=  3500011 ScaDFX=  1.000000  1.000000  1.000000  1.000000
 FoFCou: FMM=F IPFlag=           0 FMFlag=      100000 FMFlg1=           0
         NFxFlg=           0 DoJE=T BraDBF=F KetDBF=T FulRan=T
         wScrn=  0.000000 ICntrl=     500 IOpCl=  0 I1Cent=   200000004 NGrid=           0
         NMat0=    1 NMatS0=      1 NMatT0=    0 NMatD0=    1 NMtDS0=    0 NMtDT0=    0
 Petite list used in FoFCou.
 Requested convergence on RMS density matrix=1.00D-08 within 128 cycles.
 Requested convergence on MAX density matrix=1.00D-06.
 Requested convergence on             energy=1.00D-06.
 No special actions if energy rises.
 Inv3:  Mode=1 IEnd=    18169563.
 Iteration    1 A*A^-1 deviation from unit magnitude is 3.55D-15 for   2455.
 Iteration    1 A*A^-1 deviation from orthogonality  is 5.55D-15 for   2461     16.
 Iteration    1 A^-1*A deviation from unit magnitude is 3.55D-15 for   2455.
 Iteration    1 A^-1*A deviation from orthogonality  is 8.16D-13 for   2156   1795.
 Error on total polarization charges =  0.01219
 SCF Done:  E(RM062X) =  -836.463694825     A.U. after   12 cycles
            NFock= 12  Conv=0.86D-08     -V/T= 2.0052

 **********************************************************************

            Population analysis using the SCF density.

 **********************************************************************

 Orbital symmetries:
       Occupied  (A) (A) (A) (A) (A) (A) (A) (A) (A) (A) (A) (A)
                 (A) (A) (A) (A) (A) (A) (A) (A) (A) (A) (A) (A)
                 (A) (A) (A) (A) (A) (A) (A) (A) (A) (A) (A) (A)
                 (A) (A) (A) (A) (A) (A) (A) (A) (A) (A) (A) (A)
                 (A) (A) (A) (A) (A) (A) (A) (A) (A) (A) (A) (A)
                 (A) (A) (A) (A) (A)
       Virtual   (A) (A) (A) (A) (A) (A) (A) (A) (A) (A) (A) (A)
                 (A) (A) (A) (A) (A) (A) (A) (A) (A) (A) (A) (A)
                 (A) (A) (A) (A) (A) (A) (A) (A) (A) (A) (A) (A)
                 (A) (A) (A) (A) (A) (A) (A) (A) (A) (A) (A) (A)
                 (A) (A) (A) (A) (A) (A) (A) (A) (A) (A) (A) (A)
                 (A) (A) (A) (A) (A) (A) (A) (A) (A) (A) (A) (A)
                 (A) (A) (A) (A) (A) (A) (A) (A) (A) (A) (A) (A)
                 (A) (A) (A) (A) (A) (A) (A) (A) (A) (A) (A) (A)
                 (A) (A) (A) (A) (A) (A) (A) (A) (A) (A) (A) (A)
                 (A) (A) (A) (A) (A) (A) (A) (A) (A) (A) (A) (A)
                 (A) (A) (A) (A) (A) (A) (A) (A) (A) (A) (A) (A)
                 (A) (A) (A) (A) (A) (A) (A) (A) (A) (A) (A) (A)
                 (A) (A) (A) (A) (A) (A) (A) (A) (A) (A) (A) (A)
                 (A) (A) (A) (A) (A) (A) (A) (A) (A) (A) (A) (A)
                 (A) (A) (A) (A) (A) (A) (A) (A) (A) (A) (A) (A)
                 (A) (A) (A) (A) (A) (A) (A) (A) (A) (A) (A) (A)
                 (A) (A) (A) (A) (A) (A) (A) (A) (A) (A) (A) (A)
                 (A) (A) (A) (A) (A) (A) (A) (A) (A) (A) (A) (A)
                 (A) (A) (A) (A) (A) (A) (A) (A) (A) (A) (A) (A)
                 (A) (A) (A) (A) (A) (A) (A) (A) (A) (A) (A) (A)
                 (A) (A) (A) (A) (A) (A) (A) (A) (A) (A) (A) (A)
                 (A) (A) (A) (A) (A) (A) (A) (A) (A) (A) (A) (A)
                 (A) (A) (A) (A) (A) (A) (A) (A) (A) (A) (A) (A)
                 (A) (A) (A) (A) (A) (A) (A) (A) (A) (A) (A) (A)
                 (A) (A) (A) (A) (A) (A) (A) (A) (A) (A) (A) (A)
                 (A) (A) (A) (A) (A) (A) (A) (A) (A) (A) (A) (A)
                 (A) (A) (A) (A) (A) (A) (A) (A) (A) (A) (A) (A)
                 (A) (A) (A) (A) (A) (A) (A) (A) (A) (A) (A) (A)
                 (A) (A) (A) (A) (A) (A) (A) (A) (A) (A) (A) (A)
                 (A) (A) (A) (A) (A) (A) (A) (A) (A) (A) (A) (A)
                 (A) (A) (A) (A) (A) (A) (A) (A) (A) (A) (A) (A)
                 (A) (A) (A) (A) (A) (A) (A) (A) (A) (A) (A) (A)
                 (A) (A) (A) (A) (A) (A) (A) (A) (A) (A) (A) (A)
                 (A) (A) (A) (A) (A) (A) (A) (A) (A) (A) (A) (A)
                 (A) (A) (A) (A) (A) (A) (A) (A) (A) (A) (A) (A)
                 (A) (A) (A) (A) (A) (A) (A) (A) (A) (A) (A) (A)
                 (A) (A) (A) (A) (A) (A) (A) (A) (A) (A) (A) (A)
                 (A) (A) (A) (A) (A) (A) (A) (A) (A) (A) (A) (A)
                 (A) (A) (A) (A) (A) (A) (A) (A) (A) (A) (A) (A)
                 (A) (A) (A) (A) (A) (A) (A) (A) (A) (A) (A) (A)
                 (A) (A) (A) (A) (A) (A) (A) (A) (A) (A) (A) (A)
                 (A) (A) (A) (A) (A) (A) (A) (A) (A) (A) (A) (A)
                 (A) (A) (A) (A) (A) (A) (A) (A) (A) (A) (A) (A)
                 (A) (A) (A) (A) (A) (A) (A) (A) (A) (A) (A) (A)
                 (A) (A) (A) (A) (A) (A) (A) (A) (A) (A) (A) (A)
                 (A) (A) (A) (A) (A) (A) (A) (A) (A) (A) (A) (A)
                 (A) (A) (A) (A) (A) (A) (A) (A) (A) (A) (A) (A)
                 (A) (A) (A) (A) (A) (A) (A) (A) (A) (A) (A) (A)
 The electronic state is 1-A.
 Alpha  occ. eigenvalues --  -25.26997 -25.26749 -19.59943 -14.75051 -10.64435
 Alpha  occ. eigenvalues --  -10.64331 -10.58230 -10.57054 -10.57031 -10.57019
 Alpha  occ. eigenvalues --  -10.56654 -10.55829 -10.55755 -10.53822 -10.53379
 Alpha  occ. eigenvalues --  -10.52618 -10.52171  -1.38229  -1.38047  -1.12206
 Alpha  occ. eigenvalues --   -1.02790  -0.98334  -0.90582  -0.87508  -0.86119
 Alpha  occ. eigenvalues --   -0.85342  -0.79019  -0.76549  -0.74427  -0.72781
 Alpha  occ. eigenvalues --   -0.70439  -0.69029  -0.65364  -0.63993  -0.62158
 Alpha  occ. eigenvalues --   -0.59156  -0.57835  -0.57383  -0.57273  -0.56572
 Alpha  occ. eigenvalues --   -0.55458  -0.54714  -0.54347  -0.53079  -0.51663
 Alpha  occ. eigenvalues --   -0.49733  -0.48854  -0.48076  -0.47760  -0.46517
 Alpha  occ. eigenvalues --   -0.46299  -0.44865  -0.43964  -0.43654  -0.43449
 Alpha  occ. eigenvalues --   -0.42475  -0.42077  -0.41346  -0.38807  -0.38272
 Alpha  occ. eigenvalues --   -0.37640  -0.33215  -0.32012  -0.31354  -0.30141
 Alpha virt. eigenvalues --    0.00175   0.01766   0.05907   0.07170   0.07634
 Alpha virt. eigenvalues --    0.08785   0.09039   0.11047   0.11429   0.11898
 Alpha virt. eigenvalues --    0.12379   0.12570   0.13576   0.13763   0.14156
 Alpha virt. eigenvalues --    0.15003   0.15735   0.15849   0.16735   0.17178
 Alpha virt. eigenvalues --    0.17643   0.18039   0.19048   0.19309   0.19686
 Alpha virt. eigenvalues --    0.20956   0.21168   0.21799   0.21935   0.22529
 Alpha virt. eigenvalues --    0.22948   0.23626   0.24698   0.24882   0.25185
 Alpha virt. eigenvalues --    0.25524   0.26546   0.26865   0.27310   0.28109
 Alpha virt. eigenvalues --    0.28682   0.29934   0.30639   0.31504   0.32168
 Alpha virt. eigenvalues --    0.32940   0.33300   0.33955   0.34657   0.35627
 Alpha virt. eigenvalues --    0.35913   0.36415   0.36890   0.37590   0.37840
 Alpha virt. eigenvalues --    0.38858   0.39162   0.39506   0.39849   0.40498
 Alpha virt. eigenvalues --    0.41007   0.41841   0.41978   0.42798   0.43236
 Alpha virt. eigenvalues --    0.43799   0.44329   0.44751   0.45005   0.45930
 Alpha virt. eigenvalues --    0.46142   0.46677   0.46954   0.47316   0.47792
 Alpha virt. eigenvalues --    0.48385   0.48776   0.49029   0.49707   0.50356
 Alpha virt. eigenvalues --    0.50697   0.51332   0.51504   0.52363   0.52477
 Alpha virt. eigenvalues --    0.52991   0.53797   0.54004   0.55017   0.55643
 Alpha virt. eigenvalues --    0.55961   0.56327   0.56912   0.57399   0.57457
 Alpha virt. eigenvalues --    0.58434   0.58946   0.60808   0.61304   0.62454
 Alpha virt. eigenvalues --    0.64582   0.64980   0.66522   0.67516   0.68015
 Alpha virt. eigenvalues --    0.68481   0.68865   0.69886   0.70154   0.70821
 Alpha virt. eigenvalues --    0.71617   0.73675   0.74163   0.74966   0.75841
 Alpha virt. eigenvalues --    0.77277   0.78315   0.78438   0.79876   0.80257
 Alpha virt. eigenvalues --    0.81104   0.81770   0.83263   0.83558   0.84795
 Alpha virt. eigenvalues --    0.86782   0.87197   0.87760   0.88602   0.89428
 Alpha virt. eigenvalues --    0.89862   0.90604   0.92269   0.92408   0.94285
 Alpha virt. eigenvalues --    0.95025   0.95581   0.96415   0.97066   0.98356
 Alpha virt. eigenvalues --    0.98920   1.00090   1.00630   1.01692   1.02592
 Alpha virt. eigenvalues --    1.04360   1.04890   1.06079   1.07206   1.07486
 Alpha virt. eigenvalues --    1.09224   1.09413   1.10369   1.11813   1.12143
 Alpha virt. eigenvalues --    1.12746   1.13878   1.15470   1.16833   1.17787
 Alpha virt. eigenvalues --    1.17859   1.19005   1.19786   1.20232   1.22351
 Alpha virt. eigenvalues --    1.23249   1.23852   1.24268   1.25478   1.26571
 Alpha virt. eigenvalues --    1.27200   1.27941   1.28896   1.30812   1.31495
 Alpha virt. eigenvalues --    1.32380   1.33468   1.33974   1.36105   1.37220
 Alpha virt. eigenvalues --    1.37597   1.38157   1.39008   1.40775   1.42745
 Alpha virt. eigenvalues --    1.44232   1.45550   1.47518   1.48351   1.50332
 Alpha virt. eigenvalues --    1.51282   1.51885   1.53603   1.54063   1.55461
 Alpha virt. eigenvalues --    1.56368   1.57192   1.57455   1.58809   1.58884
 Alpha virt. eigenvalues --    1.59382   1.60534   1.61157   1.62120   1.62626
 Alpha virt. eigenvalues --    1.63563   1.63790   1.64467   1.65055   1.65924
 Alpha virt. eigenvalues --    1.67142   1.67283   1.67827   1.69219   1.69836
 Alpha virt. eigenvalues --    1.71153   1.71475   1.73029   1.73475   1.74000
 Alpha virt. eigenvalues --    1.75357   1.76630   1.76982   1.78540   1.79324
 Alpha virt. eigenvalues --    1.80773   1.82675   1.83752   1.84502   1.85704
 Alpha virt. eigenvalues --    1.87115   1.88139   1.89049   1.89817   1.91708
 Alpha virt. eigenvalues --    1.92402   1.93703   1.93939   1.94640   1.96425
 Alpha virt. eigenvalues --    1.97010   1.98602   1.99960   2.00428   2.01917
 Alpha virt. eigenvalues --    2.03230   2.04005   2.06548   2.07169   2.07745
 Alpha virt. eigenvalues --    2.10773   2.11420   2.11899   2.12638   2.13171
 Alpha virt. eigenvalues --    2.14568   2.15292   2.15991   2.17212   2.17659
 Alpha virt. eigenvalues --    2.18511   2.19029   2.20255   2.21539   2.23781
 Alpha virt. eigenvalues --    2.23940   2.24581   2.25386   2.27034   2.29003
 Alpha virt. eigenvalues --    2.29380   2.29915   2.31166   2.32132   2.32410
 Alpha virt. eigenvalues --    2.34040   2.34822   2.35237   2.35569   2.36205
 Alpha virt. eigenvalues --    2.37192   2.38061   2.40149   2.41485   2.42459
 Alpha virt. eigenvalues --    2.43413   2.44175   2.44821   2.45491   2.46115
 Alpha virt. eigenvalues --    2.46689   2.49545   2.50914   2.51500   2.51947
 Alpha virt. eigenvalues --    2.52764   2.54177   2.55256   2.55660   2.57170
 Alpha virt. eigenvalues --    2.57494   2.58495   2.58921   2.59282   2.60175
 Alpha virt. eigenvalues --    2.60839   2.61219   2.61900   2.63008   2.63547
 Alpha virt. eigenvalues --    2.64559   2.65607   2.65753   2.66887   2.67607
 Alpha virt. eigenvalues --    2.68364   2.69055   2.69295   2.70188   2.71099
 Alpha virt. eigenvalues --    2.71427   2.72907   2.73903   2.75066   2.75554
 Alpha virt. eigenvalues --    2.76356   2.77265   2.77858   2.78258   2.79857
 Alpha virt. eigenvalues --    2.81103   2.81528   2.82589   2.82704   2.84009
 Alpha virt. eigenvalues --    2.84932   2.86160   2.87375   2.89324   2.89927
 Alpha virt. eigenvalues --    2.91831   2.92250   2.92935   2.94113   2.94464
 Alpha virt. eigenvalues --    2.96361   2.96598   2.98160   2.99006   3.00270
 Alpha virt. eigenvalues --    3.01203   3.01323   3.02835   3.04975   3.05288
 Alpha virt. eigenvalues --    3.06198   3.06940   3.07796   3.08193   3.09119
 Alpha virt. eigenvalues --    3.09534   3.10454   3.11828   3.13670   3.14050
 Alpha virt. eigenvalues --    3.14236   3.15128   3.15418   3.16227   3.17335
 Alpha virt. eigenvalues --    3.17615   3.18900   3.19946   3.21212   3.21669
 Alpha virt. eigenvalues --    3.22597   3.23254   3.23874   3.24156   3.25734
 Alpha virt. eigenvalues --    3.26354   3.27251   3.27763   3.28249   3.29570
 Alpha virt. eigenvalues --    3.30343   3.31443   3.31856   3.32288   3.33305
 Alpha virt. eigenvalues --    3.34564   3.35646   3.36154   3.36920   3.38205
 Alpha virt. eigenvalues --    3.38857   3.39668   3.40086   3.40961   3.42803
 Alpha virt. eigenvalues --    3.43628   3.44177   3.44636   3.46142   3.46634
 Alpha virt. eigenvalues --    3.46986   3.48093   3.48531   3.49924   3.50500
 Alpha virt. eigenvalues --    3.51339   3.52815   3.54330   3.54925   3.55418
 Alpha virt. eigenvalues --    3.56461   3.57232   3.58188   3.59335   3.60523
 Alpha virt. eigenvalues --    3.60898   3.61724   3.62245   3.62753   3.63333
 Alpha virt. eigenvalues --    3.65230   3.67594   3.69905   3.70372   3.72474
 Alpha virt. eigenvalues --    3.73786   3.74457   3.76468   3.76772   3.77218
 Alpha virt. eigenvalues --    3.80322   3.81395   3.83740   3.86021   3.86642
 Alpha virt. eigenvalues --    3.87296   3.89123   3.90961   3.93097   3.93858
 Alpha virt. eigenvalues --    3.95744   3.97976   4.00495   4.02204   4.02610
 Alpha virt. eigenvalues --    4.04326   4.04483   4.05381   4.06289   4.07436
 Alpha virt. eigenvalues --    4.09337   4.09517   4.12301   4.13414   4.14001
 Alpha virt. eigenvalues --    4.14630   4.15680   4.16463   4.17683   4.18584
 Alpha virt. eigenvalues --    4.19537   4.21762   4.22097   4.24143   4.25223
 Alpha virt. eigenvalues --    4.26134   4.26788   4.31363   4.33825   4.34949
 Alpha virt. eigenvalues --    4.35978   4.36742   4.39219   4.39981   4.41062
 Alpha virt. eigenvalues --    4.42253   4.46152   4.47301   4.48310   4.51024
 Alpha virt. eigenvalues --    4.52727   4.55061   4.55885   4.57912   4.61088
 Alpha virt. eigenvalues --    4.62018   4.62970   4.64796   4.66658   4.68151
 Alpha virt. eigenvalues --    4.74264   4.74964   4.77813   4.78999   4.84638
 Alpha virt. eigenvalues --    4.87609   4.89075   4.92195   4.95378   4.99224
 Alpha virt. eigenvalues --    5.01846   5.05839   5.08882   5.09980   5.12428
 Alpha virt. eigenvalues --    5.15108   5.19223   5.25903   5.30747   5.31858
 Alpha virt. eigenvalues --    5.34182   5.37850   5.39998   5.43270   5.43780
 Alpha virt. eigenvalues --    5.50627   5.51756   5.56058   5.60102   5.69370
 Alpha virt. eigenvalues --    5.73480   5.79156   5.85456   5.95313   6.26685
 Alpha virt. eigenvalues --    6.52034   6.75217   6.78486   6.90221   6.90640
 Alpha virt. eigenvalues --    6.91255   6.92450   6.99268   6.99980   7.00790
 Alpha virt. eigenvalues --    7.08405   7.10048   7.19360   7.21867   7.24583
 Alpha virt. eigenvalues --    7.36429   7.39564   7.53997   7.56000   8.36554
 Alpha virt. eigenvalues --    8.38082   8.55083   8.55842   8.74743   8.75808
 Alpha virt. eigenvalues --    8.96788   8.97295   9.00146   9.01824  22.25223
 Alpha virt. eigenvalues --   22.42777  22.50675  22.55560  22.62150  22.65467
 Alpha virt. eigenvalues --   22.74508  22.76745  22.78324  22.80924  22.94694
 Alpha virt. eigenvalues --   23.03180  23.48295  32.63309  44.09783  57.53398
 Alpha virt. eigenvalues --   57.59127
          Condensed to atoms (all electrons):
               1          2          3          4          5          6
     1  C    5.097354   0.216925  -0.053569   0.030685  -0.000493   0.000172
     2  C    0.216925   5.250578   0.198894  -0.057185   0.011838  -0.000539
     3  C   -0.053569   0.198894   5.576636   0.129885  -0.035746  -0.006799
     4  C    0.030685  -0.057185   0.129885   5.471457   0.282233  -0.031938
     5  C   -0.000493   0.011838  -0.035746   0.282233   4.881110   0.222435
     6  O    0.000172  -0.000539  -0.006799  -0.031938   0.222435   8.155076
     7  N    0.012588  -0.050793   0.098334  -0.047372   0.021770  -0.056181
     8  C   -0.003416   0.025315  -0.089720   0.010201   0.001375  -0.000903
     9  C    0.000001   0.000018  -0.000343   0.000062  -0.000052  -0.000162
    10  C   -0.000003  -0.000004  -0.000465  -0.000183   0.001086   0.001224
    11  C    0.000011  -0.001166   0.002896  -0.003889   0.001987   0.012280
    12  C    0.002136  -0.017834   0.047777   0.002703  -0.004685  -0.004150
    13  C    0.000642   0.001509   0.007566   0.002526  -0.002083  -0.000551
    14  C    0.000008  -0.000202   0.002316  -0.000100  -0.000239   0.000127
    15  H    0.000000   0.000000   0.000001   0.000000  -0.000002  -0.000001
    16  H    0.000000   0.000000  -0.000003   0.000003   0.000009  -0.000016
    17  H    0.000001  -0.000011   0.000018  -0.000002   0.000000   0.000001
    18  F    0.000000   0.000026   0.000096  -0.000162  -0.000346  -0.001164
    19  F   -0.000982   0.001357  -0.006294   0.000227   0.000156   0.000000
    20  H    0.415340  -0.044096   0.012974  -0.000493   0.000010   0.000000
    21  H    0.421357  -0.037822  -0.020080   0.015195   0.000723  -0.000014
    22  H    0.409021  -0.046932   0.009546  -0.008680  -0.000184  -0.000002
    23  H   -0.041555   0.417677  -0.019359  -0.024425  -0.000962  -0.000005
    24  H   -0.033714   0.439840  -0.062909   0.010679  -0.000314   0.000004
    25  H   -0.001362  -0.012033  -0.055742   0.445811  -0.036519   0.006212
    26  H    0.000143  -0.000928   0.015190  -0.050889   0.431261  -0.036854
    27  H   -0.000089   0.001601  -0.012915  -0.070769   0.431535  -0.048581
    28  H   -0.000146   0.001119  -0.006610  -0.005034  -0.045913   0.312965
    29  H   -0.000014   0.000591   0.006790   0.000047   0.000006  -0.000046
    30  H   -0.000972  -0.002112  -0.008687  -0.001483   0.000136  -0.000261
    31  H   -0.004775  -0.044955   0.452552  -0.045557  -0.009718  -0.000906
    32  C   -0.009987   0.014842  -0.031988   0.199502  -0.051371  -0.006110
    33  H   -0.003008   0.007333  -0.008387  -0.043613   0.008381   0.000639
    34  H    0.000226  -0.002163  -0.012381  -0.030435  -0.014610   0.011169
    35  H    0.000308  -0.000809   0.011704  -0.043201  -0.003174  -0.000228
    36  H    0.001204  -0.009352  -0.026123  -0.005488  -0.001794   0.000949
               7          8          9         10         11         12
     1  C    0.012588  -0.003416   0.000001  -0.000003   0.000011   0.002136
     2  C   -0.050793   0.025315   0.000018  -0.000004  -0.001166  -0.017834
     3  C    0.098334  -0.089720  -0.000343  -0.000465   0.002896   0.047777
     4  C   -0.047372   0.010201   0.000062  -0.000183  -0.003889   0.002703
     5  C    0.021770   0.001375  -0.000052   0.001086   0.001987  -0.004685
     6  O   -0.056181  -0.000903  -0.000162   0.001224   0.012280  -0.004150
     7  N    7.085567   0.234663   0.000404   0.000330   0.008296  -0.097528
     8  C    0.234663   5.266596  -0.003976   0.007404  -0.066495   0.105943
     9  C    0.000404  -0.003976   5.038163   0.417982  -0.023943  -0.074976
    10  C    0.000330   0.007404   0.417982   5.052886   0.535724  -0.004659
    11  C    0.008296  -0.066495  -0.023943   0.535724   4.870622   0.256486
    12  C   -0.097528   0.105943  -0.074976  -0.004659   0.256486   5.810552
    13  C   -0.000811  -0.066519  -0.005497  -0.091513   0.020558   0.240460
    14  C   -0.001122   0.003855   0.417516  -0.023153  -0.065328   0.002621
    15  H   -0.000004   0.000085   0.403237  -0.024251   0.002205  -0.000495
    16  H   -0.000004  -0.000150  -0.033275   0.412401  -0.039881   0.013884
    17  H    0.000011  -0.000379  -0.031889   0.004452  -0.000907   0.012766
    18  F   -0.004186   0.018081   0.009587  -0.051463   0.243058  -0.075187
    19  F   -0.000046   0.005236   0.009171  -0.000667   0.007127  -0.067792
    20  H   -0.000531   0.000039   0.000000   0.000000   0.000000  -0.000016
    21  H   -0.000365   0.000162   0.000000   0.000000  -0.000002  -0.000089
    22  H    0.000293  -0.000311  -0.000007   0.000005   0.000006   0.000322
    23  H   -0.002186  -0.003437  -0.000002   0.000003   0.000075   0.000917
    24  H   -0.005892   0.010101   0.000006  -0.000008  -0.000372  -0.004891
    25  H    0.007432  -0.000432   0.000009  -0.000013  -0.000058   0.000091
    26  H    0.000074   0.000108   0.000005   0.000020   0.000223  -0.000098
    27  H   -0.004315   0.000515   0.000139  -0.000470  -0.006270   0.003144
    28  H    0.035897   0.002245   0.000013  -0.000515  -0.003980  -0.005262
    29  H   -0.031974   0.417810   0.000191  -0.001142  -0.012972  -0.032253
    30  H   -0.045413   0.491682   0.000048  -0.000286   0.005998  -0.097941
    31  H   -0.042820  -0.019863  -0.000354   0.000753   0.002134   0.009775
    32  C   -0.006595  -0.000908  -0.000004   0.000000  -0.000022   0.000782
    33  H   -0.001005  -0.000061   0.000000   0.000000  -0.000008  -0.000016
    34  H    0.008898   0.000411   0.000001  -0.000006  -0.000134   0.000087
    35  H   -0.000273   0.000022   0.000000   0.000000  -0.000002   0.000004
    36  H    0.360908  -0.046992  -0.000017   0.000097   0.001617   0.015718
              13         14         15         16         17         18
     1  C    0.000642   0.000008   0.000000   0.000000   0.000001   0.000000
     2  C    0.001509  -0.000202   0.000000   0.000000  -0.000011   0.000026
     3  C    0.007566   0.002316   0.000001  -0.000003   0.000018   0.000096
     4  C    0.002526  -0.000100   0.000000   0.000003  -0.000002  -0.000162
     5  C   -0.002083  -0.000239  -0.000002   0.000009   0.000000  -0.000346
     6  O   -0.000551   0.000127  -0.000001  -0.000016   0.000001  -0.001164
     7  N   -0.000811  -0.001122  -0.000004  -0.000004   0.000011  -0.004186
     8  C   -0.066519   0.003855   0.000085  -0.000150  -0.000379   0.018081
     9  C   -0.005497   0.417516   0.403237  -0.033275  -0.031889   0.009587
    10  C   -0.091513  -0.023153  -0.024251   0.412401   0.004452  -0.051463
    11  C    0.020558  -0.065328   0.002205  -0.039881  -0.000907   0.243058
    12  C    0.240460   0.002621  -0.000495   0.013884   0.012766  -0.075187
    13  C    4.914551   0.499817   0.001978  -0.001088  -0.042030   0.008928
    14  C    0.499817   5.051158  -0.024196   0.004270   0.414218  -0.001142
    15  H    0.001978  -0.024196   0.475117  -0.003264  -0.003219  -0.000101
    16  H   -0.001088   0.004270  -0.003264   0.472180  -0.000143   0.001660
    17  H   -0.042030   0.414218  -0.003219  -0.000143   0.472564   0.000010
    18  F    0.008928  -0.001142  -0.000101   0.001660   0.000010   9.053337
    19  F    0.237166  -0.047807  -0.000111   0.000010   0.001284  -0.000034
    20  H   -0.000020   0.000000   0.000000   0.000000   0.000000   0.000000
    21  H    0.000022   0.000001   0.000000   0.000000   0.000000   0.000000
    22  H   -0.000459  -0.000007   0.000000   0.000000   0.000007   0.000000
    23  H   -0.000274   0.000009   0.000000   0.000000   0.000000  -0.000001
    24  H    0.002484  -0.000028   0.000000   0.000000  -0.000002  -0.000003
    25  H    0.000142  -0.000032   0.000000   0.000000  -0.000001  -0.000001
    26  H   -0.000006  -0.000011   0.000000  -0.000001   0.000000  -0.000009
    27  H    0.001602   0.000410   0.000005   0.000014  -0.000005   0.000117
    28  H    0.000630   0.000060   0.000001   0.000003  -0.000002   0.005391
    29  H    0.008735  -0.000519   0.000002  -0.000013   0.000005   0.002752
    30  H   -0.010574  -0.000987   0.000002   0.000002  -0.000066   0.000529
    31  H   -0.018214   0.000474  -0.000002   0.000006   0.000053   0.000070
    32  C   -0.000095   0.000015   0.000000   0.000000   0.000000   0.000023
    33  H    0.000002   0.000000   0.000000   0.000000   0.000000   0.000000
    34  H    0.000022  -0.000003   0.000000   0.000000   0.000000  -0.000014
    35  H    0.000003   0.000000   0.000000   0.000000   0.000000   0.000000
    36  H   -0.001072   0.000068   0.000000   0.000000   0.000000  -0.000087
              19         20         21         22         23         24
     1  C   -0.000982   0.415340   0.421357   0.409021  -0.041555  -0.033714
     2  C    0.001357  -0.044096  -0.037822  -0.046932   0.417677   0.439840
     3  C   -0.006294   0.012974  -0.020080   0.009546  -0.019359  -0.062909
     4  C    0.000227  -0.000493   0.015195  -0.008680  -0.024425   0.010679
     5  C    0.000156   0.000010   0.000723  -0.000184  -0.000962  -0.000314
     6  O    0.000000   0.000000  -0.000014  -0.000002  -0.000005   0.000004
     7  N   -0.000046  -0.000531  -0.000365   0.000293  -0.002186  -0.005892
     8  C    0.005236   0.000039   0.000162  -0.000311  -0.003437   0.010101
     9  C    0.009171   0.000000   0.000000  -0.000007  -0.000002   0.000006
    10  C   -0.000667   0.000000   0.000000   0.000005   0.000003  -0.000008
    11  C    0.007127   0.000000  -0.000002   0.000006   0.000075  -0.000372
    12  C   -0.067792  -0.000016  -0.000089   0.000322   0.000917  -0.004891
    13  C    0.237166  -0.000020   0.000022  -0.000459  -0.000274   0.002484
    14  C   -0.047807   0.000000   0.000001  -0.000007   0.000009  -0.000028
    15  H   -0.000111   0.000000   0.000000   0.000000   0.000000   0.000000
    16  H    0.000010   0.000000   0.000000   0.000000   0.000000   0.000000
    17  H    0.001284   0.000000   0.000000   0.000007   0.000000  -0.000002
    18  F   -0.000034   0.000000   0.000000   0.000000  -0.000001  -0.000003
    19  F    9.064878  -0.000001   0.000008   0.000853   0.000109   0.000475
    20  H   -0.000001   0.520389  -0.023870  -0.022700  -0.003754  -0.006063
    21  H    0.000008  -0.023870   0.530656  -0.029436  -0.003751   0.006378
    22  H    0.000853  -0.022700  -0.029436   0.534577   0.006638  -0.003711
    23  H    0.000109  -0.003754  -0.003751   0.006638   0.535085  -0.025193
    24  H    0.000475  -0.006063   0.006378  -0.003711  -0.025193   0.536679
    25  H   -0.000002   0.000446  -0.009038   0.001382   0.001436  -0.000576
    26  H    0.000000  -0.000002  -0.000004   0.000009   0.000016   0.000015
    27  H   -0.000077   0.000001  -0.000022   0.000019  -0.000025  -0.000038
    28  H   -0.000020   0.000003   0.000000   0.000003  -0.000018  -0.000021
    29  H    0.000513   0.000000   0.000001  -0.000006  -0.000148   0.000697
    30  H    0.002891   0.000114  -0.000049   0.000140   0.000449  -0.006157
    31  H    0.006620  -0.000071   0.000914   0.000742   0.006453  -0.004782
    32  C   -0.000009   0.000027  -0.003091   0.000819   0.003831  -0.000763
    33  H    0.000000   0.000087   0.001749  -0.000119  -0.007083   0.000644
    34  H    0.000000   0.000015  -0.000084  -0.000004   0.000281  -0.000161
    35  H    0.000000  -0.000006   0.000064  -0.000001   0.000066   0.000025
    36  H    0.000002  -0.000036   0.000029  -0.000029   0.003453   0.000324
              25         26         27         28         29         30
     1  C   -0.001362   0.000143  -0.000089  -0.000146  -0.000014  -0.000972
     2  C   -0.012033  -0.000928   0.001601   0.001119   0.000591  -0.002112
     3  C   -0.055742   0.015190  -0.012915  -0.006610   0.006790  -0.008687
     4  C    0.445811  -0.050889  -0.070769  -0.005034   0.000047  -0.001483
     5  C   -0.036519   0.431261   0.431535  -0.045913   0.000006   0.000136
     6  O    0.006212  -0.036854  -0.048581   0.312965  -0.000046  -0.000261
     7  N    0.007432   0.000074  -0.004315   0.035897  -0.031974  -0.045413
     8  C   -0.000432   0.000108   0.000515   0.002245   0.417810   0.491682
     9  C    0.000009   0.000005   0.000139   0.000013   0.000191   0.000048
    10  C   -0.000013   0.000020  -0.000470  -0.000515  -0.001142  -0.000286
    11  C   -0.000058   0.000223  -0.006270  -0.003980  -0.012972   0.005998
    12  C    0.000091  -0.000098   0.003144  -0.005262  -0.032253  -0.097941
    13  C    0.000142  -0.000006   0.001602   0.000630   0.008735  -0.010574
    14  C   -0.000032  -0.000011   0.000410   0.000060  -0.000519  -0.000987
    15  H    0.000000   0.000000   0.000005   0.000001   0.000002   0.000002
    16  H    0.000000  -0.000001   0.000014   0.000003  -0.000013   0.000002
    17  H   -0.000001   0.000000  -0.000005  -0.000002   0.000005  -0.000066
    18  F   -0.000001  -0.000009   0.000117   0.005391   0.002752   0.000529
    19  F   -0.000002   0.000000  -0.000077  -0.000020   0.000513   0.002891
    20  H    0.000446  -0.000002   0.000001   0.000003   0.000000   0.000114
    21  H   -0.009038  -0.000004  -0.000022   0.000000   0.000001  -0.000049
    22  H    0.001382   0.000009   0.000019   0.000003  -0.000006   0.000140
    23  H    0.001436   0.000016  -0.000025  -0.000018  -0.000148   0.000449
    24  H   -0.000576   0.000015  -0.000038  -0.000021   0.000697  -0.006157
    25  H    0.546554  -0.002612   0.002251   0.000089   0.000017   0.000053
    26  H   -0.002612   0.554240  -0.039399   0.005397  -0.000002  -0.000005
    27  H    0.002251  -0.039399   0.596067   0.004105   0.000039   0.000050
    28  H    0.000089   0.005397   0.004105   0.349580  -0.000783   0.000568
    29  H    0.000017  -0.000002   0.000039  -0.000783   0.476860  -0.012276
    30  H    0.000053  -0.000005   0.000050   0.000568  -0.012276   0.490989
    31  H   -0.003921  -0.000633   0.003882   0.000294  -0.000640  -0.000032
    32  C   -0.046343  -0.016223   0.012168  -0.003975  -0.000050   0.000024
    33  H   -0.003808  -0.000338  -0.000173  -0.000010   0.000008   0.000004
    34  H    0.007333  -0.000389   0.000719   0.001269   0.000064   0.000078
    35  H   -0.004827   0.003290  -0.000009  -0.000017   0.000000  -0.000002
    36  H   -0.000325   0.000020  -0.000169  -0.002192  -0.008691  -0.001207
              31         32         33         34         35         36
     1  C   -0.004775  -0.009987  -0.003008   0.000226   0.000308   0.001204
     2  C   -0.044955   0.014842   0.007333  -0.002163  -0.000809  -0.009352
     3  C    0.452552  -0.031988  -0.008387  -0.012381   0.011704  -0.026123
     4  C   -0.045557   0.199502  -0.043613  -0.030435  -0.043201  -0.005488
     5  C   -0.009718  -0.051371   0.008381  -0.014610  -0.003174  -0.001794
     6  O   -0.000906  -0.006110   0.000639   0.011169  -0.000228   0.000949
     7  N   -0.042820  -0.006595  -0.001005   0.008898  -0.000273   0.360908
     8  C   -0.019863  -0.000908  -0.000061   0.000411   0.000022  -0.046992
     9  C   -0.000354  -0.000004   0.000000   0.000001   0.000000  -0.000017
    10  C    0.000753   0.000000   0.000000  -0.000006   0.000000   0.000097
    11  C    0.002134  -0.000022  -0.000008  -0.000134  -0.000002   0.001617
    12  C    0.009775   0.000782  -0.000016   0.000087   0.000004   0.015718
    13  C   -0.018214  -0.000095   0.000002   0.000022   0.000003  -0.001072
    14  C    0.000474   0.000015   0.000000  -0.000003   0.000000   0.000068
    15  H   -0.000002   0.000000   0.000000   0.000000   0.000000   0.000000
    16  H    0.000006   0.000000   0.000000   0.000000   0.000000   0.000000
    17  H    0.000053   0.000000   0.000000   0.000000   0.000000   0.000000
    18  F    0.000070   0.000023   0.000000  -0.000014   0.000000  -0.000087
    19  F    0.006620  -0.000009   0.000000   0.000000   0.000000   0.000002
    20  H   -0.000071   0.000027   0.000087   0.000015  -0.000006  -0.000036
    21  H    0.000914  -0.003091   0.001749  -0.000084   0.000064   0.000029
    22  H    0.000742   0.000819  -0.000119  -0.000004  -0.000001  -0.000029
    23  H    0.006453   0.003831  -0.007083   0.000281   0.000066   0.003453
    24  H   -0.004782  -0.000763   0.000644  -0.000161   0.000025   0.000324
    25  H   -0.003921  -0.046343  -0.003808   0.007333  -0.004827  -0.000325
    26  H   -0.000633  -0.016223  -0.000338  -0.000389   0.003290   0.000020
    27  H    0.003882   0.012168  -0.000173   0.000719  -0.000009  -0.000169
    28  H    0.000294  -0.003975  -0.000010   0.001269  -0.000017  -0.002192
    29  H   -0.000640  -0.000050   0.000008   0.000064   0.000000  -0.008691
    30  H   -0.000032   0.000024   0.000004   0.000078  -0.000002  -0.001207
    31  H    0.510801   0.008720  -0.000035  -0.000339  -0.000347   0.006168
    32  C    0.008720   5.169143   0.416061   0.409726   0.414816   0.003271
    33  H   -0.000035   0.416061   0.530154  -0.027223  -0.021469  -0.000444
    34  H   -0.000339   0.409726  -0.027223   0.518545  -0.021570  -0.003558
    35  H   -0.000347   0.414816  -0.021469  -0.021570   0.511202   0.000101
    36  H    0.006168   0.003271  -0.000444  -0.003558   0.000101   0.460138
 Mulliken charges:
               1
     1  C   -0.454032
     2  C   -0.260527
     3  C   -0.115053
     4  C   -0.130318
     5  C   -0.087846
     6  O   -0.527840
     7  N   -0.476048
     8  C   -0.298286
     9  C   -0.122057
    10  C   -0.235565
    11  C    0.254127
    12  C   -0.038299
    13  C    0.291461
    14  C   -0.232066
    15  H    0.173011
    16  H    0.173397
    17  H    0.173267
    18  F   -0.209765
    19  F   -0.214242
    20  H    0.152215
    21  H    0.150457
    22  H    0.148204
    23  H    0.155681
    24  H    0.147246
    25  H    0.158384
    26  H    0.138393
    27  H    0.124946
    28  H    0.354866
    29  H    0.186402
    30  H    0.194752
    31  H    0.187553
    32  C   -0.476232
    33  H    0.151741
    34  H    0.154231
    35  H    0.154332
    36  H    0.253510
 Sum of Mulliken charges =   0.00000
 Mulliken charges with hydrogens summed into heavy atoms:
               1
     1  C   -0.003156
     2  C    0.042400
     3  C    0.072500
     4  C    0.028066
     5  C    0.175494
     6  O   -0.172974
     7  N   -0.222539
     8  C    0.082868
     9  C    0.050955
    10  C   -0.062168
    11  C    0.254127
    12  C   -0.038299
    13  C    0.291461
    14  C   -0.058799
    18  F   -0.209765
    19  F   -0.214242
    32  C   -0.015929
 Electronic spatial extent (au):  <R**2>=           4319.3035
 Charge=              0.0000 electrons
 Dipole moment (field-independent basis, Debye):
    X=             -0.5615    Y=              3.6020    Z=              0.2179  Tot=              3.6520
 Quadrupole moment (field-independent basis, Debye-Ang):
   XX=            -89.5462   YY=           -116.8049   ZZ=            -96.3188
   XY=              2.9046   XZ=              6.6076   YZ=             -1.1718
 Traceless Quadrupole moment (field-independent basis, Debye-Ang):
   XX=             11.3438   YY=            -15.9150   ZZ=              4.5711
   XY=              2.9046   XZ=              6.6076   YZ=             -1.1718
 Octapole moment (field-independent basis, Debye-Ang**2):
  XXX=            -42.2454  YYY=             29.8138  ZZZ=             16.8149  XYY=            -14.1276
  XXY=             -4.2194  XXZ=            -26.0143  XZZ=             -3.0048  YZZ=              0.0283
  YYZ=              2.4557  XYZ=              3.8421
 Hexadecapole moment (field-independent basis, Debye-Ang**3):
 XXXX=          -3388.4118 YYYY=          -1646.6234 ZZZZ=           -623.7353 XXXY=             33.7014
 XXXZ=             99.5457 YYYX=             38.4260 YYYZ=            -28.0705 ZZZX=             -2.7666
 ZZZY=            -17.9305 XXYY=           -817.7060 XXZZ=           -656.9825 YYZZ=           -352.0756
 XXYZ=             -0.4638 YYXZ=             20.1653 ZZXY=            -26.2378
 N-N= 1.315068217111D+03 E-N=-4.586362651510D+03  KE= 8.321486860997D+02
 1\1\GINC-CPU-E-827\SP\RM062X\def2TZVP\C13H19F2N1O1\KE291\26-Jun-2019\0
 \\# m062x/def2tzvp int=ultrafine scrf=(solvent=chloroform)\\AT3_2ginp0
 04\\0,1\C,0,3.032574,2.477222,-0.464592\C,0,2.396969,1.580756,0.604545
 \C,0,1.597764,0.38337,0.049218\C,0,2.437097,-0.620774,-0.785262\C,0,1.
 528823,-1.674291,-1.451168\O,0,0.955618,-2.593222,-0.532689\N,0,0.8545
 02,-0.347906,1.109038\C,0,-0.345199,0.327422,1.638801\C,0,-3.670279,0.
 155667,-1.142672\C,0,-3.330769,-0.972524,-0.393264\C,0,-2.25823,-0.882
 672,0.483826\C,0,-1.499487,0.276916,0.663827\C,0,-1.881869,1.36805,-0.
 11761\C,0,-2.945742,1.34051,-1.011954\H,0,-4.504035,0.109322,-1.835328
 \H,0,-3.876622,-1.904819,-0.478888\H,0,-3.18588,2.227531,-1.58647\F,0,
 -1.925933,-1.969595,1.216764\F,0,-1.166206,2.513929,-0.002887\H,0,3.50
 478,3.351793,-0.006017\H,0,3.802632,1.95304,-1.039215\H,0,2.278577,2.8
 41191,-1.171784\H,0,3.171274,1.215901,1.291812\H,0,1.717621,2.192693,1
 .209648\H,0,2.88665,-0.045873,-1.605883\H,0,2.118842,-2.261492,-2.1660
 25\H,0,0.748013,-1.152872,-2.032769\H,0,0.64136,-2.02574,0.204118\H,0,
 -0.633744,-0.206198,2.54836\H,0,-0.165275,1.373195,1.917601\H,0,0.8342
 7,0.785904,-0.62908\C,0,3.570451,-1.293472,0.004689\H,0,4.261348,-0.56
 4597,0.438814\H,0,3.175563,-1.919041,0.810281\H,0,4.152058,-1.947497,-
 0.653475\H,0,1.482753,-0.537417,1.887346\\Version=ES64L-G09RevD.01\Sta
 te=1-A\HF=-836.4636948\RMSD=8.609e-09\Dipole=-0.2209197,1.4171224,0.08
 57424\Quadrupole=8.4338405,-11.8323767,3.3985362,2.1595054,4.9126116,-
 0.8711892\PG=C01 [X(C13H19F2N1O1)]\\@


 Discoveries are often made by not following instructions,
 by going off the main road, by trying the untried.
 -- Frank Tyger
 Job cpu time:       0 days  1 hours 21 minutes  4.8 seconds.
 File lengths (MBytes):  RWF=    315 Int=      0 D2E=      0 Chk=     17 Scr=      1
 Normal termination of Gaussian 09 at Wed Jun 26 12:23:20 2019.
