 Entering Gaussian System, Link 0=/usr/local/Cluster-Apps/gaussian/g09/g09
 Initial command:
 /usr/local/Cluster-Apps/gaussian/g09/l1.exe "/home/ke291/rds/hpc-work/26Jun1158AT3NMR/Gau-19562.inp" -scrdir="/home/ke291/rds/hpc-work/26Jun1158AT3NMR/"
 Entering Link 1 = /usr/local/Cluster-Apps/gaussian/g09/l1.exe PID=     19570.
  
 Copyright (c) 1988,1990,1992,1993,1995,1998,2003,2009,2013,
            Gaussian, Inc.  All Rights Reserved.
  
 This is part of the Gaussian(R) 09 program.  It is based on
 the Gaussian(R) 03 system (copyright 2003, Gaussian, Inc.),
 the Gaussian(R) 98 system (copyright 1998, Gaussian, Inc.),
 the Gaussian(R) 94 system (copyright 1995, Gaussian, Inc.),
 the Gaussian 92(TM) system (copyright 1992, Gaussian, Inc.),
 the Gaussian 90(TM) system (copyright 1990, Gaussian, Inc.),
 the Gaussian 88(TM) system (copyright 1988, Gaussian, Inc.),
 the Gaussian 86(TM) system (copyright 1986, Carnegie Mellon
 University), and the Gaussian 82(TM) system (copyright 1983,
 Carnegie Mellon University). Gaussian is a federally registered
 trademark of Gaussian, Inc.
  
 This software contains proprietary and confidential information,
 including trade secrets, belonging to Gaussian, Inc.
  
 This software is provided under written license and may be
 used, copied, transmitted, or stored only in accord with that
 written license.
  
 The following legend is applicable only to US Government
 contracts under FAR:
  
                    RESTRICTED RIGHTS LEGEND
  
 Use, reproduction and disclosure by the US Government is
 subject to restrictions as set forth in subparagraphs (a)
 and (c) of the Commercial Computer Software - Restricted
 Rights clause in FAR 52.227-19.
  
 Gaussian, Inc.
 340 Quinnipiac St., Bldg. 40, Wallingford CT 06492
  
  
 ---------------------------------------------------------------
 Warning -- This program may not be used in any manner that
 competes with the business of Gaussian, Inc. or will provide
 assistance to any competitor of Gaussian, Inc.  The licensee
 of this program is prohibited from giving any competitor of
 Gaussian, Inc. access to this program.  By using this program,
 the user acknowledges that Gaussian, Inc. is engaged in the
 business of creating and licensing software in the field of
 computational chemistry and represents and warrants to the
 licensee that it is not a competitor of Gaussian, Inc. and that
 it will not use this program in any manner prohibited above.
 ---------------------------------------------------------------
  

 Cite this work as:
 Gaussian 09, Revision D.01,
 M. J. Frisch, G. W. Trucks, H. B. Schlegel, G. E. Scuseria, 
 M. A. Robb, J. R. Cheeseman, G. Scalmani, V. Barone, B. Mennucci, 
 G. A. Petersson, H. Nakatsuji, M. Caricato, X. Li, H. P. Hratchian, 
 A. F. Izmaylov, J. Bloino, G. Zheng, J. L. Sonnenberg, M. Hada, 
 M. Ehara, K. Toyota, R. Fukuda, J. Hasegawa, M. Ishida, T. Nakajima, 
 Y. Honda, O. Kitao, H. Nakai, T. Vreven, J. A. Montgomery, Jr., 
 J. E. Peralta, F. Ogliaro, M. Bearpark, J. J. Heyd, E. Brothers, 
 K. N. Kudin, V. N. Staroverov, T. Keith, R. Kobayashi, J. Normand, 
 K. Raghavachari, A. Rendell, J. C. Burant, S. S. Iyengar, J. Tomasi, 
 M. Cossi, N. Rega, J. M. Millam, M. Klene, J. E. Knox, J. B. Cross, 
 V. Bakken, C. Adamo, J. Jaramillo, R. Gomperts, R. E. Stratmann, 
 O. Yazyev, A. J. Austin, R. Cammi, C. Pomelli, J. W. Ochterski, 
 R. L. Martin, K. Morokuma, V. G. Zakrzewski, G. A. Voth, 
 P. Salvador, J. J. Dannenberg, S. Dapprich, A. D. Daniels, 
 O. Farkas, J. B. Foresman, J. V. Ortiz, J. Cioslowski, 
 and D. J. Fox, Gaussian, Inc., Wallingford CT, 2013.
 
 ******************************************
 Gaussian 09:  ES64L-G09RevD.01 24-Apr-2013
                26-Jun-2019 
 ******************************************
 %nprocshared=4
 Will use up to    4 processors via shared memory.
 %mem=6000MB
 %chk=AT3_2ginp010.chk
 --------------------------------------------------------
 # m062x/def2tzvp int=ultrafine scrf=(solvent=chloroform)
 --------------------------------------------------------
 1/38=1/1;
 2/12=2,17=6,18=5,40=1/2;
 3/5=44,7=101,11=2,16=1,25=1,30=1,70=2201,72=7,74=-55,75=-5/1,2,3;
 4//1;
 5/5=2,38=5,53=7/2;
 6/7=2,8=2,9=2,10=2,28=1/1;
 99/5=1,9=1/99;
 ------------
 AT3_2ginp010
 ------------
 Symbolic Z-matrix:
 Charge =  0 Multiplicity = 1
 C                    -1.15569   2.95369  -0.69987 
 C                    -0.77948   1.4937   -0.97746 
 C                    -1.39073   0.46918   0.00144 
 C                    -2.9435    0.50685   0.06523 
 C                    -3.47443  -0.47252   1.13093 
 O                    -3.33649  -1.83672   0.75842 
 N                    -0.92524  -0.91967  -0.27621 
 C                     0.23061  -1.40399   0.49477 
 C                     4.02135   0.63203  -0.1182 
 C                     3.5424   -0.25546  -1.08469 
 C                     2.32663  -0.88333  -0.85269 
 C                     1.55211  -0.68272   0.29217 
 C                     2.08059   0.21727   1.2186 
 C                     3.29202   0.87744   1.04562 
 H                     4.96889   1.13655  -0.27489 
 H                     4.08988  -0.46205  -1.99695 
 H                     3.64251   1.56273   1.80864 
 F                     1.84499  -1.74136  -1.78605 
 F                     1.36784   0.46243   2.34539 
 H                    -0.91145   3.23669   0.33048 
 H                    -0.60601   3.62591  -1.36623 
 H                    -2.22274   3.14106  -0.85244 
 H                    -1.06831   1.22883  -2.00322 
 H                     0.31008   1.39409  -0.93608 
 H                    -3.2199    1.51191   0.41191 
 H                    -4.54384  -0.28798   1.29378 
 H                    -2.96564  -0.26782   2.09018 
 H                    -2.44562  -1.87075   0.3459 
 H                    -0.03057  -1.36619   1.55441 
 H                     0.36933  -2.4574    0.23385 
 H                    -1.03098   0.71599   1.00951 
 C                    -3.62193   0.25892  -1.29036 
 H                    -3.36607  -0.72875  -1.68394 
 H                    -4.71107   0.29286  -1.18156 
 H                    -3.34133   1.00993  -2.03461 
 H                    -0.74376  -1.04002  -1.26964 
 
                          Input orientation:                          
 ---------------------------------------------------------------------
 Center     Atomic      Atomic             Coordinates (Angstroms)
 Number     Number       Type             X           Y           Z
 ---------------------------------------------------------------------
      1          6           0       -1.155690    2.953686   -0.699867
      2          6           0       -0.779475    1.493698   -0.977463
      3          6           0       -1.390725    0.469178    0.001439
      4          6           0       -2.943496    0.506853    0.065232
      5          6           0       -3.474431   -0.472523    1.130926
      6          8           0       -3.336493   -1.836719    0.758423
      7          7           0       -0.925244   -0.919670   -0.276208
      8          6           0        0.230613   -1.403991    0.494774
      9          6           0        4.021350    0.632029   -0.118195
     10          6           0        3.542404   -0.255462   -1.084685
     11          6           0        2.326629   -0.883327   -0.852694
     12          6           0        1.552113   -0.682716    0.292167
     13          6           0        2.080588    0.217267    1.218596
     14          6           0        3.292020    0.877437    1.045620
     15          1           0        4.968892    1.136546   -0.274892
     16          1           0        4.089882   -0.462050   -1.996947
     17          1           0        3.642507    1.562729    1.808643
     18          9           0        1.844991   -1.741360   -1.786051
     19          9           0        1.367836    0.462426    2.345385
     20          1           0       -0.911453    3.236694    0.330483
     21          1           0       -0.606007    3.625909   -1.366226
     22          1           0       -2.222744    3.141057   -0.852435
     23          1           0       -1.068305    1.228826   -2.003221
     24          1           0        0.310082    1.394091   -0.936079
     25          1           0       -3.219903    1.511913    0.411914
     26          1           0       -4.543843   -0.287984    1.293777
     27          1           0       -2.965640   -0.267818    2.090176
     28          1           0       -2.445618   -1.870747    0.345902
     29          1           0       -0.030565   -1.366194    1.554409
     30          1           0        0.369325   -2.457403    0.233852
     31          1           0       -1.030976    0.715988    1.009505
     32          6           0       -3.621934    0.258915   -1.290359
     33          1           0       -3.366073   -0.728746   -1.683939
     34          1           0       -4.711068    0.292862   -1.181562
     35          1           0       -3.341332    1.009933   -2.034613
     36          1           0       -0.743758   -1.040024   -1.269637
 ---------------------------------------------------------------------
                    Distance matrix (angstroms):
                    1          2          3          4          5
     1  C    0.000000
     2  C    1.533024   0.000000
     3  C    2.592268   1.543216   0.000000
     4  C    3.125479   2.596933   1.554537   0.000000
     5  C    4.524077   3.946406   2.550367   1.541679   0.000000
     6  O    5.461730   4.543492   3.110659   2.475336   1.420850
     7  N    3.903265   2.517410   1.490859   2.494973   2.945899
     8  C    4.726347   3.403581   2.526040   3.729718   3.872941
     9  C    5.703523   4.952649   5.415846   6.968385   7.679002
    10  C    5.702526   4.663657   5.102992   6.631013   7.361523
    11  C    5.183876   3.913272   4.046917   5.527152   6.144575
    12  C    4.641093   3.432935   3.173591   4.655864   5.100377
    13  C    4.652095   3.825168   3.687132   5.162899   5.598369
    14  C    5.209574   4.587997   4.815090   6.322986   6.900328
    15  H    6.402586   5.802145   6.400505   7.944689   8.709485
    16  H    6.392628   5.345553   5.907435   7.393224   8.185507
    17  H    5.590177   5.226957   5.458504   6.894185   7.433193
    18  F    5.676913   4.243493   4.307140   5.604580   6.197980
    19  F    4.674197   4.088494   3.619915   4.877361   5.079034
    20  H    1.096069   2.183157   2.827917   3.413442   4.579067
    21  H    1.094564   2.174293   3.528632   4.152281   5.591133
    22  H    1.094070   2.193729   2.925798   2.881081   4.307946
    23  H    2.163680   1.098071   2.167875   2.883762   4.301966
    24  H    2.153281   1.094883   2.151081   3.517895   4.698861
    25  H    2.752407   2.808272   2.145152   1.098515   2.125970
    26  H    5.095353   4.743774   3.490786   2.168455   1.097368
    27  H    4.630156   4.158445   2.717783   2.168180   1.104958
    28  H    5.102225   3.980806   2.589730   2.445330   1.905190
    29  H    5.000903   3.892329   2.762307   3.769764   3.583043
    30  H    5.698893   4.289315   3.422962   4.448599   4.418026
    31  H    2.818652   2.148517   1.098422   2.143157   2.719885
    32  C    3.700383   3.114830   2.586744   1.536027   2.533649
    33  H    4.406188   3.482651   2.859636   2.182859   2.828579
    34  H    4.466848   4.115955   3.529201   2.173614   2.731792
    35  H    3.215082   2.813309   2.871026   2.195612   3.498003
    36  H    4.055126   2.550762   2.076509   3.002258   3.679855
                    6          7          8          9         10
     6  O    0.000000
     7  N    2.779490   0.000000
     8  C    3.602917   1.471389   0.000000
     9  C    7.810316   5.186668   4.346354   0.000000
    10  C    7.294974   4.588539   3.844707   1.396829   0.000000
    11  C    5.964529   3.302777   2.545593   2.389115   1.387856
    12  C    5.044560   2.552743   1.519095   2.827381   2.457545
    13  C    5.811659   3.544304   2.564138   2.392822   2.768661
    14  C    7.168424   4.770968   3.857533   1.395211   2.425768
    15  H    8.881862   6.242505   5.431206   1.084863   2.151353
    16  H    8.039454   5.321827   4.689337   2.175182   1.083805
    17  H    7.833623   5.601184   4.708365   2.173115   3.418653
    18  F    5.773319   3.260215   2.814640   3.626466   2.362418
    19  F    5.471309   3.747153   2.863835   3.624794   4.124256
    20  H    5.639457   4.200432   4.781973   5.596261   5.833926
    21  H    6.466065   4.685332   5.427997   5.650958   5.688024
    22  H    5.349164   4.301749   5.337733   6.769272   6.695313
    23  H    4.708388   2.760267   3.854723   5.460227   4.930056
    24  H    5.158195   2.704616   3.143711   3.875975   3.631944
    25  H    3.368531   3.413439   4.518343   7.313751   7.147882
    26  H    2.035406   3.994764   4.967827   8.729411   8.428851
    27  H    2.091064   3.191849   3.748630   7.382727   7.241169
    28  H    0.982339   1.898185   2.720705   6.949888   6.364914
    29  H    3.432805   2.085903   1.092002   4.817522   4.578717
    30  H    3.793878   2.073811   1.094074   4.796438   4.081117
    31  H    3.448879   2.083174   2.520092   5.177331   5.123002
    32  C    2.944599   3.112829   4.560052   7.741639   7.185724
    33  H    2.682091   2.824147   4.258978   7.673153   6.950551
    34  H    3.191882   4.077053   5.487224   8.803460   8.272233
    35  H    3.988045   3.557083   4.998362   7.617385   7.063244
    36  H    3.386743   1.017017   2.048174   5.179559   4.361299
                   11         12         13         14         15
    11  C    0.000000
    12  C    1.396720   0.000000
    13  C    2.358407   1.395538   0.000000
    14  C    2.763307   2.455411   1.390436   0.000000
    15  H    3.375692   3.912243   3.379035   2.150067   0.000000
    16  H    2.143793   3.424764   3.852071   3.418775   2.508713
    17  H    3.846744   3.422202   2.144298   1.083822   2.506401
    18  F    1.356227   2.350637   3.594389   4.119509   4.508293
    19  F    3.599728   2.358180   1.355644   2.358836   4.504208
    20  H    5.372118   4.629514   4.342579   4.873059   6.273401
    21  H    5.403451   5.096273   5.051528   5.344690   6.202212
    22  H    6.073916   5.493715   5.599677   6.256134   7.488074
    23  H    4.160586   3.973586   4.617238   5.332105   6.280397
    24  H    3.043033   2.713735   3.026918   3.617460   4.712537
    25  H    6.172554   5.253844   5.515619   6.573377   8.226115
    26  H    7.222545   6.190292   6.644096   7.925941   9.745878
    27  H    6.086661   4.880069   5.143868   6.446783   8.397772
    28  H    5.018563   4.170870   5.060429   6.400204   8.025220
    29  H    3.403479   2.136648   2.660279   4.041326   5.882569
    30  H    2.736665   2.133519   3.324455   4.508023   5.859292
    31  H    4.159219   3.023788   3.158207   4.326160   6.150200
    32  C    6.073028   5.491978   6.230196   7.324079   8.695039
    33  H    5.755147   5.300535   6.243858   7.372959   8.656580
    34  H    7.142881   6.507770   7.203684   8.327754   9.758867
    35  H    6.091564   5.676687   6.372512   7.314831   8.495438
    36  H    3.102527   2.799629   3.968503   5.032353   6.193654
                   16         17         18         19         20
    16  H    0.000000
    17  H    4.333865   0.000000
    18  F    2.592421   5.202874   0.000000
    19  F    5.207690   2.583193   4.706709   0.000000
    20  H    6.641610   5.072048   6.071138   4.117226   0.000000
    21  H    6.257842   5.690903   5.915338   5.261154   1.767373
    22  H    7.358093   6.631261   6.423091   5.503942   1.768594
    23  H    5.428259   6.069065   4.166109   5.043067   3.082582
    24  H    4.342532   4.320532   3.592972   3.571393   2.547845
    25  H    7.945571   7.003292   6.408431   5.087935   2.882784
    26  H    9.241232   8.408719   7.239810   6.051194   5.152237
    27  H    8.156144   6.862782   6.351270   4.401977   4.426941
    28  H    7.084217   7.140983   4.792837   4.897352   5.332903
    29  H    5.514317   4.704751   3.849303   2.434136   4.843608
    30  H    4.774981   5.418039   2.601983   3.739117   5.837163
    31  H    6.053901   4.816330   4.703709   2.757384   2.613296
    32  C    7.777607   8.004739   5.842438   6.177205   4.340623
    33  H    7.467286   8.158994   5.309520   6.329632   5.080135
    34  H    8.870821   8.963041   6.890963   7.030020   5.038800
    35  H    7.575691   7.990632   5.876167   6.454488   4.056656
    36  H    4.922104   5.957302   2.731332   4.447985   4.569335
                   21         22         23         24         25
    21  H    0.000000
    22  H    1.764342   0.000000
    23  H    2.522992   2.512701   0.000000
    24  H    2.450563   3.078002   1.751016   0.000000
    25  H    3.803053   2.290636   3.246905   3.780445   0.000000
    26  H    6.156357   4.663909   5.024965   5.600198   2.402109
    27  H    5.716266   4.564130   4.753496   4.759256   2.459401
    28  H    6.043904   5.157893   4.125860   4.460552   3.470773
    29  H    5.812257   5.560023   4.524131   3.733329   4.445298
    30  H    6.365391   6.264311   4.545279   4.025699   5.354412
    31  H    3.780521   3.281477   3.056291   2.458365   2.404582
    32  C    4.520865   3.233613   2.823105   4.107906   2.151596
    33  H    5.165455   4.119948   3.035419   4.310435   3.071566
    34  H    5.291014   3.796353   3.849789   5.146350   2.499765
    35  H    3.843446   2.681506   2.283758   3.832385   2.500445
    36  H    4.668965   4.454536   2.406482   2.673342   3.933356
                   26         27         28         29         30
    26  H    0.000000
    27  H    1.767875   0.000000
    28  H    2.793950   2.425345   0.000000
    29  H    4.647596   3.179330   2.747279   0.000000
    30  H    5.474399   4.400251   2.877607   1.759125   0.000000
    31  H    3.664561   2.424593   3.022049   2.373441   3.554278
    32  C    2.797637   3.483703   2.931984   4.861236   5.062781
    33  H    3.232368   3.823185   2.504328   4.692425   4.540856
    34  H    2.548068   3.750353   3.485199   5.669666   5.947920
    35  H    3.769456   4.334475   3.842847   5.430307   5.562133
    36  H    4.645137   4.101391   2.489256   2.930916   2.346997
                   31         32         33         34         35
    31  H    0.000000
    32  C    3.494475   0.000000
    33  H    3.846372   1.093547   0.000000
    34  H    4.303822   1.095081   1.762123   0.000000
    35  H    3.832858   1.093928   1.773863   1.765804   0.000000
    36  H    2.891463   3.157779   2.673028   4.186155   3.396307
                   36
    36  H    0.000000
 Stoichiometry    C13H19F2NO
 Framework group  C1[X(C13H19F2NO)]
 Deg. of freedom   102
 Full point group                 C1      NOp   1
 Largest Abelian subgroup         C1      NOp   1
 Largest concise Abelian subgroup C1      NOp   1
                         Standard orientation:                         
 ---------------------------------------------------------------------
 Center     Atomic      Atomic             Coordinates (Angstroms)
 Number     Number       Type             X           Y           Z
 ---------------------------------------------------------------------
      1          6           0       -1.155690    2.953686   -0.699867
      2          6           0       -0.779475    1.493698   -0.977463
      3          6           0       -1.390725    0.469178    0.001439
      4          6           0       -2.943496    0.506853    0.065232
      5          6           0       -3.474431   -0.472523    1.130926
      6          8           0       -3.336493   -1.836719    0.758423
      7          7           0       -0.925244   -0.919670   -0.276208
      8          6           0        0.230613   -1.403991    0.494774
      9          6           0        4.021350    0.632029   -0.118195
     10          6           0        3.542404   -0.255462   -1.084685
     11          6           0        2.326629   -0.883327   -0.852694
     12          6           0        1.552113   -0.682716    0.292167
     13          6           0        2.080588    0.217267    1.218596
     14          6           0        3.292020    0.877437    1.045620
     15          1           0        4.968892    1.136546   -0.274892
     16          1           0        4.089882   -0.462050   -1.996947
     17          1           0        3.642507    1.562729    1.808643
     18          9           0        1.844991   -1.741360   -1.786051
     19          9           0        1.367836    0.462426    2.345385
     20          1           0       -0.911453    3.236694    0.330483
     21          1           0       -0.606007    3.625909   -1.366226
     22          1           0       -2.222744    3.141057   -0.852435
     23          1           0       -1.068305    1.228826   -2.003221
     24          1           0        0.310082    1.394091   -0.936079
     25          1           0       -3.219903    1.511913    0.411914
     26          1           0       -4.543843   -0.287984    1.293777
     27          1           0       -2.965640   -0.267818    2.090176
     28          1           0       -2.445618   -1.870747    0.345902
     29          1           0       -0.030565   -1.366194    1.554409
     30          1           0        0.369325   -2.457403    0.233852
     31          1           0       -1.030976    0.715988    1.009505
     32          6           0       -3.621934    0.258915   -1.290359
     33          1           0       -3.366073   -0.728746   -1.683939
     34          1           0       -4.711068    0.292862   -1.181562
     35          1           0       -3.341332    1.009933   -2.034613
     36          1           0       -0.743758   -1.040024   -1.269637
 ---------------------------------------------------------------------
 Rotational constants (GHZ):      0.7210522      0.2753156      0.2658365
 Standard basis: def2TZVP (5D, 7F)
 There are   726 symmetry adapted cartesian basis functions of A   symmetry.
 There are   641 symmetry adapted basis functions of A   symmetry.
   641 basis functions,  1019 primitive gaussians,   726 cartesian basis functions
    65 alpha electrons       65 beta electrons
       nuclear repulsion energy      1299.4183403130 Hartrees.
 NAtoms=   36 NActive=   36 NUniq=   36 SFac= 1.00D+00 NAtFMM=   60 NAOKFM=F Big=F
 Integral buffers will be    131072 words long.
 Raffenetti 2 integral format.
 Two-electron integral symmetry is turned on.
 ------------------------------------------------------------------------------
 Polarizable Continuum Model (PCM)
 =================================
 Model                : PCM (using non-symmetric T matrix).
 Atomic radii         : UFF (Universal Force Field).
 Polarization charges : Total charges.
 Charge compensation  : None.
 Solution method      : On-the-fly selection.
 Cavity type          : Scaled VdW (van der Waals Surface) (Alpha=1.100).
 Cavity algorithm     : GePol (No added spheres)
                        Default sphere list used, NSphG=   36.
                        Lebedev-Laikov grids with approx.  5.0 points / Ang**2.
                        Smoothing algorithm: Karplus/York (Gamma=1.0000).
                        Polarization charges: spherical gaussians, with
                                              point-specific exponents (IZeta= 3).
                        Self-potential: point-specific (ISelfS= 7).
                        Self-field    : sphere-specific E.n sum rule (ISelfD= 2).
 Solvent              : Chloroform, Eps=   4.711300 Eps(inf)=   2.090627
 ------------------------------------------------------------------------------
 One-electron integrals computed using PRISM.
   1 Symmetry operations used in ECPInt.
 ECPInt:  NShTT=   34716 NPrTT=  103716 LenC2=   31653 LenP2D=   69075.
 LDataN:  DoStor=T MaxTD1= 6 Len=  172
 NBasis=   641 RedAO= T EigKep=  1.08D-05  NBF=   641
 NBsUse=   641 1.00D-06 EigRej= -1.00D+00 NBFU=   641
 ExpMin= 9.52D-02 ExpMax= 3.55D+04 ExpMxC= 1.21D+03 IAcc=3 IRadAn=         5 AccDes= 0.00D+00
 Harris functional with IExCor= 1009 and IRadAn=       5 diagonalized for initial guess.
 HarFok:  IExCor= 1009 AccDes= 0.00D+00 IRadAn=         5 IDoV= 1 UseB2=F ITyADJ=14
 ICtDFT=  3500011 ScaDFX=  1.000000  1.000000  1.000000  1.000000
 FoFCou: FMM=F IPFlag=           0 FMFlag=      100000 FMFlg1=           0
         NFxFlg=           0 DoJE=T BraDBF=F KetDBF=T FulRan=T
         wScrn=  0.000000 ICntrl=     500 IOpCl=  0 I1Cent=   200000004 NGrid=           0
         NMat0=    1 NMatS0=      1 NMatT0=    0 NMatD0=    1 NMtDS0=    0 NMtDT0=    0
 Petite list used in FoFCou.
 Requested convergence on RMS density matrix=1.00D-08 within 128 cycles.
 Requested convergence on MAX density matrix=1.00D-06.
 Requested convergence on             energy=1.00D-06.
 No special actions if energy rises.
 Inv3:  Mode=1 IEnd=    17685552.
 Iteration    1 A*A^-1 deviation from unit magnitude is 1.22D-14 for   2418.
 Iteration    1 A*A^-1 deviation from orthogonality  is 6.53D-15 for   2418     16.
 Iteration    1 A^-1*A deviation from unit magnitude is 1.22D-14 for   2418.
 Iteration    1 A^-1*A deviation from orthogonality  is 3.09D-15 for   1713   1680.
 Error on total polarization charges =  0.01207
 SCF Done:  E(RM062X) =  -836.462300579     A.U. after   12 cycles
            NFock= 12  Conv=0.96D-08     -V/T= 2.0052

 **********************************************************************

            Population analysis using the SCF density.

 **********************************************************************

 Orbital symmetries:
       Occupied  (A) (A) (A) (A) (A) (A) (A) (A) (A) (A) (A) (A)
                 (A) (A) (A) (A) (A) (A) (A) (A) (A) (A) (A) (A)
                 (A) (A) (A) (A) (A) (A) (A) (A) (A) (A) (A) (A)
                 (A) (A) (A) (A) (A) (A) (A) (A) (A) (A) (A) (A)
                 (A) (A) (A) (A) (A) (A) (A) (A) (A) (A) (A) (A)
                 (A) (A) (A) (A) (A)
       Virtual   (A) (A) (A) (A) (A) (A) (A) (A) (A) (A) (A) (A)
                 (A) (A) (A) (A) (A) (A) (A) (A) (A) (A) (A) (A)
                 (A) (A) (A) (A) (A) (A) (A) (A) (A) (A) (A) (A)
                 (A) (A) (A) (A) (A) (A) (A) (A) (A) (A) (A) (A)
                 (A) (A) (A) (A) (A) (A) (A) (A) (A) (A) (A) (A)
                 (A) (A) (A) (A) (A) (A) (A) (A) (A) (A) (A) (A)
                 (A) (A) (A) (A) (A) (A) (A) (A) (A) (A) (A) (A)
                 (A) (A) (A) (A) (A) (A) (A) (A) (A) (A) (A) (A)
                 (A) (A) (A) (A) (A) (A) (A) (A) (A) (A) (A) (A)
                 (A) (A) (A) (A) (A) (A) (A) (A) (A) (A) (A) (A)
                 (A) (A) (A) (A) (A) (A) (A) (A) (A) (A) (A) (A)
                 (A) (A) (A) (A) (A) (A) (A) (A) (A) (A) (A) (A)
                 (A) (A) (A) (A) (A) (A) (A) (A) (A) (A) (A) (A)
                 (A) (A) (A) (A) (A) (A) (A) (A) (A) (A) (A) (A)
                 (A) (A) (A) (A) (A) (A) (A) (A) (A) (A) (A) (A)
                 (A) (A) (A) (A) (A) (A) (A) (A) (A) (A) (A) (A)
                 (A) (A) (A) (A) (A) (A) (A) (A) (A) (A) (A) (A)
                 (A) (A) (A) (A) (A) (A) (A) (A) (A) (A) (A) (A)
                 (A) (A) (A) (A) (A) (A) (A) (A) (A) (A) (A) (A)
                 (A) (A) (A) (A) (A) (A) (A) (A) (A) (A) (A) (A)
                 (A) (A) (A) (A) (A) (A) (A) (A) (A) (A) (A) (A)
                 (A) (A) (A) (A) (A) (A) (A) (A) (A) (A) (A) (A)
                 (A) (A) (A) (A) (A) (A) (A) (A) (A) (A) (A) (A)
                 (A) (A) (A) (A) (A) (A) (A) (A) (A) (A) (A) (A)
                 (A) (A) (A) (A) (A) (A) (A) (A) (A) (A) (A) (A)
                 (A) (A) (A) (A) (A) (A) (A) (A) (A) (A) (A) (A)
                 (A) (A) (A) (A) (A) (A) (A) (A) (A) (A) (A) (A)
                 (A) (A) (A) (A) (A) (A) (A) (A) (A) (A) (A) (A)
                 (A) (A) (A) (A) (A) (A) (A) (A) (A) (A) (A) (A)
                 (A) (A) (A) (A) (A) (A) (A) (A) (A) (A) (A) (A)
                 (A) (A) (A) (A) (A) (A) (A) (A) (A) (A) (A) (A)
                 (A) (A) (A) (A) (A) (A) (A) (A) (A) (A) (A) (A)
                 (A) (A) (A) (A) (A) (A) (A) (A) (A) (A) (A) (A)
                 (A) (A) (A) (A) (A) (A) (A) (A) (A) (A) (A) (A)
                 (A) (A) (A) (A) (A) (A) (A) (A) (A) (A) (A) (A)
                 (A) (A) (A) (A) (A) (A) (A) (A) (A) (A) (A) (A)
                 (A) (A) (A) (A) (A) (A) (A) (A) (A) (A) (A) (A)
                 (A) (A) (A) (A) (A) (A) (A) (A) (A) (A) (A) (A)
                 (A) (A) (A) (A) (A) (A) (A) (A) (A) (A) (A) (A)
                 (A) (A) (A) (A) (A) (A) (A) (A) (A) (A) (A) (A)
                 (A) (A) (A) (A) (A) (A) (A) (A) (A) (A) (A) (A)
                 (A) (A) (A) (A) (A) (A) (A) (A) (A) (A) (A) (A)
                 (A) (A) (A) (A) (A) (A) (A) (A) (A) (A) (A) (A)
                 (A) (A) (A) (A) (A) (A) (A) (A) (A) (A) (A) (A)
                 (A) (A) (A) (A) (A) (A) (A) (A) (A) (A) (A) (A)
                 (A) (A) (A) (A) (A) (A) (A) (A) (A) (A) (A) (A)
                 (A) (A) (A) (A) (A) (A) (A) (A) (A) (A) (A) (A)
                 (A) (A) (A) (A) (A) (A) (A) (A) (A) (A) (A) (A)
 The electronic state is 1-A.
 Alpha  occ. eigenvalues --  -25.27179 -25.27031 -19.59984 -14.75044 -10.64569
 Alpha  occ. eigenvalues --  -10.64534 -10.58339 -10.57158 -10.57084 -10.57070
 Alpha  occ. eigenvalues --  -10.56866 -10.56059 -10.56039 -10.53722 -10.53435
 Alpha  occ. eigenvalues --  -10.52647 -10.52053  -1.38395  -1.38272  -1.12286
 Alpha  occ. eigenvalues --   -1.02692  -0.98504  -0.90633  -0.87611  -0.86343
 Alpha  occ. eigenvalues --   -0.85285  -0.79088  -0.76511  -0.74413  -0.72983
 Alpha  occ. eigenvalues --   -0.70561  -0.69416  -0.65620  -0.64128  -0.62006
 Alpha  occ. eigenvalues --   -0.59065  -0.58466  -0.57659  -0.57483  -0.56830
 Alpha  occ. eigenvalues --   -0.55477  -0.54853  -0.54159  -0.52895  -0.51658
 Alpha  occ. eigenvalues --   -0.49897  -0.48766  -0.48181  -0.47734  -0.46433
 Alpha  occ. eigenvalues --   -0.46409  -0.45190  -0.44143  -0.43912  -0.43401
 Alpha  occ. eigenvalues --   -0.42892  -0.42172  -0.41338  -0.38824  -0.38067
 Alpha  occ. eigenvalues --   -0.37749  -0.33249  -0.32363  -0.31621  -0.29839
 Alpha virt. eigenvalues --   -0.00018   0.01466   0.05803   0.07071   0.07783
 Alpha virt. eigenvalues --    0.08500   0.08913   0.10878   0.11357   0.11963
 Alpha virt. eigenvalues --    0.12065   0.12434   0.13246   0.13702   0.14240
 Alpha virt. eigenvalues --    0.15197   0.15539   0.15953   0.16378   0.16528
 Alpha virt. eigenvalues --    0.17338   0.18155   0.19123   0.19448   0.19586
 Alpha virt. eigenvalues --    0.20622   0.20986   0.21531   0.21966   0.22360
 Alpha virt. eigenvalues --    0.22693   0.23351   0.24408   0.24510   0.24887
 Alpha virt. eigenvalues --    0.26018   0.26504   0.27220   0.27397   0.28263
 Alpha virt. eigenvalues --    0.29629   0.29877   0.30596   0.31443   0.32558
 Alpha virt. eigenvalues --    0.32771   0.33395   0.33897   0.34564   0.35354
 Alpha virt. eigenvalues --    0.35821   0.36517   0.36991   0.37533   0.37757
 Alpha virt. eigenvalues --    0.37892   0.38446   0.39499   0.40168   0.41116
 Alpha virt. eigenvalues --    0.41382   0.41675   0.42493   0.42829   0.43061
 Alpha virt. eigenvalues --    0.43945   0.44368   0.44580   0.44990   0.45582
 Alpha virt. eigenvalues --    0.46042   0.46274   0.46984   0.47365   0.47624
 Alpha virt. eigenvalues --    0.48068   0.48950   0.49096   0.49997   0.50075
 Alpha virt. eigenvalues --    0.50802   0.50888   0.51433   0.51562   0.52125
 Alpha virt. eigenvalues --    0.52856   0.53207   0.53817   0.54335   0.55323
 Alpha virt. eigenvalues --    0.55680   0.56169   0.56356   0.57360   0.57735
 Alpha virt. eigenvalues --    0.58131   0.59529   0.60669   0.61375   0.62346
 Alpha virt. eigenvalues --    0.62884   0.64087   0.65222   0.66847   0.67032
 Alpha virt. eigenvalues --    0.68220   0.69349   0.69939   0.70362   0.71453
 Alpha virt. eigenvalues --    0.72018   0.73045   0.73760   0.74845   0.76288
 Alpha virt. eigenvalues --    0.76526   0.77279   0.78223   0.79103   0.79642
 Alpha virt. eigenvalues --    0.80249   0.81218   0.82623   0.84531   0.86272
 Alpha virt. eigenvalues --    0.86758   0.86909   0.87667   0.88855   0.89310
 Alpha virt. eigenvalues --    0.90080   0.91325   0.91738   0.92935   0.93653
 Alpha virt. eigenvalues --    0.94511   0.95624   0.96502   0.96814   0.97491
 Alpha virt. eigenvalues --    0.99806   0.99966   1.01554   1.01962   1.02725
 Alpha virt. eigenvalues --    1.03936   1.04040   1.04657   1.06301   1.07495
 Alpha virt. eigenvalues --    1.08077   1.09374   1.10304   1.12187   1.12447
 Alpha virt. eigenvalues --    1.13547   1.14180   1.15128   1.15750   1.17399
 Alpha virt. eigenvalues --    1.17873   1.18112   1.19131   1.21090   1.21664
 Alpha virt. eigenvalues --    1.23026   1.23885   1.24944   1.25307   1.26495
 Alpha virt. eigenvalues --    1.27680   1.28744   1.29310   1.30196   1.30618
 Alpha virt. eigenvalues --    1.31158   1.33053   1.35319   1.36091   1.37601
 Alpha virt. eigenvalues --    1.38087   1.38828   1.39177   1.41273   1.42566
 Alpha virt. eigenvalues --    1.43580   1.46027   1.48107   1.49070   1.49925
 Alpha virt. eigenvalues --    1.50773   1.51865   1.52888   1.53816   1.54396
 Alpha virt. eigenvalues --    1.56023   1.56408   1.57236   1.58346   1.59202
 Alpha virt. eigenvalues --    1.59767   1.60018   1.61192   1.61933   1.62517
 Alpha virt. eigenvalues --    1.63467   1.64447   1.65060   1.65533   1.66129
 Alpha virt. eigenvalues --    1.66757   1.67676   1.68130   1.69472   1.70120
 Alpha virt. eigenvalues --    1.70666   1.71610   1.71959   1.73017   1.74238
 Alpha virt. eigenvalues --    1.75337   1.76214   1.77717   1.78974   1.79983
 Alpha virt. eigenvalues --    1.81665   1.82513   1.83903   1.84804   1.86080
 Alpha virt. eigenvalues --    1.88170   1.88675   1.90008   1.91433   1.91768
 Alpha virt. eigenvalues --    1.92677   1.93467   1.93533   1.94042   1.96648
 Alpha virt. eigenvalues --    1.97932   1.98297   1.99463   2.01060   2.01627
 Alpha virt. eigenvalues --    2.03447   2.04118   2.05577   2.07121   2.07183
 Alpha virt. eigenvalues --    2.09121   2.10207   2.10639   2.11347   2.13036
 Alpha virt. eigenvalues --    2.13386   2.14384   2.15227   2.15921   2.17689
 Alpha virt. eigenvalues --    2.18539   2.19342   2.19546   2.20902   2.22503
 Alpha virt. eigenvalues --    2.23306   2.24472   2.25884   2.26908   2.28108
 Alpha virt. eigenvalues --    2.29494   2.30009   2.30717   2.31092   2.31698
 Alpha virt. eigenvalues --    2.32998   2.33594   2.34723   2.36051   2.36629
 Alpha virt. eigenvalues --    2.38379   2.39485   2.40193   2.41442   2.42124
 Alpha virt. eigenvalues --    2.43609   2.43680   2.45062   2.46483   2.46690
 Alpha virt. eigenvalues --    2.47438   2.49476   2.50613   2.51115   2.52207
 Alpha virt. eigenvalues --    2.53200   2.54639   2.55404   2.55948   2.56499
 Alpha virt. eigenvalues --    2.57374   2.58132   2.58295   2.59357   2.60005
 Alpha virt. eigenvalues --    2.60448   2.61442   2.63101   2.63277   2.63953
 Alpha virt. eigenvalues --    2.64641   2.65067   2.65869   2.66070   2.66986
 Alpha virt. eigenvalues --    2.67823   2.68112   2.69232   2.70128   2.71165
 Alpha virt. eigenvalues --    2.72112   2.72461   2.73677   2.74508   2.75797
 Alpha virt. eigenvalues --    2.76100   2.77414   2.79060   2.79330   2.79451
 Alpha virt. eigenvalues --    2.80931   2.81297   2.82099   2.82752   2.83975
 Alpha virt. eigenvalues --    2.84644   2.84849   2.87536   2.88699   2.90051
 Alpha virt. eigenvalues --    2.91199   2.92230   2.92749   2.93425   2.94341
 Alpha virt. eigenvalues --    2.95109   2.96206   2.98658   2.99585   3.00134
 Alpha virt. eigenvalues --    3.00678   3.01463   3.02998   3.03621   3.05131
 Alpha virt. eigenvalues --    3.05557   3.06355   3.07055   3.07333   3.08618
 Alpha virt. eigenvalues --    3.10825   3.11553   3.12242   3.13588   3.13772
 Alpha virt. eigenvalues --    3.14740   3.15573   3.15967   3.16790   3.17338
 Alpha virt. eigenvalues --    3.18450   3.19060   3.19779   3.20237   3.20927
 Alpha virt. eigenvalues --    3.22795   3.23768   3.24262   3.24758   3.25314
 Alpha virt. eigenvalues --    3.25899   3.27059   3.27923   3.28606   3.29068
 Alpha virt. eigenvalues --    3.31001   3.31345   3.32228   3.33598   3.33861
 Alpha virt. eigenvalues --    3.34277   3.34537   3.37082   3.37354   3.39111
 Alpha virt. eigenvalues --    3.40196   3.40378   3.40657   3.41792   3.42604
 Alpha virt. eigenvalues --    3.43184   3.43820   3.43927   3.45274   3.45563
 Alpha virt. eigenvalues --    3.46194   3.47752   3.49183   3.49881   3.50310
 Alpha virt. eigenvalues --    3.52340   3.53124   3.54114   3.55398   3.55980
 Alpha virt. eigenvalues --    3.56476   3.57267   3.58205   3.59646   3.60445
 Alpha virt. eigenvalues --    3.60981   3.61587   3.62443   3.63868   3.64958
 Alpha virt. eigenvalues --    3.65835   3.67168   3.68049   3.68875   3.70580
 Alpha virt. eigenvalues --    3.71393   3.74438   3.76660   3.77190   3.77830
 Alpha virt. eigenvalues --    3.81197   3.82294   3.83371   3.84391   3.86513
 Alpha virt. eigenvalues --    3.88511   3.89082   3.89991   3.93038   3.93728
 Alpha virt. eigenvalues --    3.94577   3.97622   3.99544   4.01702   4.03156
 Alpha virt. eigenvalues --    4.03676   4.04108   4.04910   4.06510   4.08027
 Alpha virt. eigenvalues --    4.08661   4.09155   4.10335   4.12208   4.13787
 Alpha virt. eigenvalues --    4.14296   4.15568   4.16591   4.17364   4.18517
 Alpha virt. eigenvalues --    4.19563   4.20794   4.21846   4.23652   4.24328
 Alpha virt. eigenvalues --    4.25863   4.27079   4.27744   4.29808   4.34986
 Alpha virt. eigenvalues --    4.35384   4.36667   4.38909   4.39304   4.40707
 Alpha virt. eigenvalues --    4.43096   4.45499   4.47729   4.50131   4.52278
 Alpha virt. eigenvalues --    4.52994   4.55820   4.55996   4.57794   4.58450
 Alpha virt. eigenvalues --    4.62592   4.63320   4.65151   4.65999   4.67355
 Alpha virt. eigenvalues --    4.73525   4.75986   4.77707   4.79324   4.83865
 Alpha virt. eigenvalues --    4.87619   4.88713   4.93841   4.95018   4.99280
 Alpha virt. eigenvalues --    5.01747   5.04375   5.07820   5.09112   5.13481
 Alpha virt. eigenvalues --    5.14917   5.19858   5.27103   5.29814   5.30567
 Alpha virt. eigenvalues --    5.32058   5.34877   5.38678   5.42071   5.43313
 Alpha virt. eigenvalues --    5.50205   5.51553   5.55360   5.59353   5.66042
 Alpha virt. eigenvalues --    5.72747   5.78752   5.90067   5.94788   6.27389
 Alpha virt. eigenvalues --    6.51535   6.74830   6.78280   6.89977   6.90303
 Alpha virt. eigenvalues --    6.90892   6.92078   6.98519   6.99503   7.00270
 Alpha virt. eigenvalues --    7.08158   7.09655   7.18371   7.21418   7.24000
 Alpha virt. eigenvalues --    7.35912   7.38975   7.53470   7.55077   8.35682
 Alpha virt. eigenvalues --    8.37272   8.54051   8.55466   8.73972   8.75176
 Alpha virt. eigenvalues --    8.96065   8.96768   8.99549   9.01470  22.29650
 Alpha virt. eigenvalues --   22.43725  22.51192  22.54864  22.61830  22.66497
 Alpha virt. eigenvalues --   22.73821  22.76345  22.78374  22.79808  22.95251
 Alpha virt. eigenvalues --   23.02792  23.47503  32.62483  44.08363  57.51635
 Alpha virt. eigenvalues --   57.57249
          Condensed to atoms (all electrons):
               1          2          3          4          5          6
     1  C    5.096713   0.213653  -0.060096   0.040643  -0.000699   0.000186
     2  C    0.213653   5.312911   0.143607  -0.049014   0.012949  -0.000075
     3  C   -0.060096   0.143607   5.707506   0.069043  -0.038483  -0.013772
     4  C    0.040643  -0.049014   0.069043   5.522081   0.291942  -0.029221
     5  C   -0.000699   0.012949  -0.038483   0.291942   4.874999   0.221393
     6  O    0.000186  -0.000075  -0.013772  -0.029221   0.221393   8.158576
     7  N    0.011718  -0.029644   0.085774  -0.045859   0.015113  -0.055186
     8  C    0.000239   0.007080  -0.057800   0.008547  -0.003857   0.006499
     9  C   -0.000030  -0.000241   0.000743  -0.000016   0.000001   0.000000
    10  C   -0.000088   0.002652  -0.002341   0.000036  -0.000001   0.000001
    11  C   -0.000016  -0.006496  -0.000060  -0.000495   0.000072  -0.000052
    12  C   -0.001611  -0.009839   0.031257  -0.007782   0.001291   0.000570
    13  C    0.002163  -0.021100   0.027698  -0.000394  -0.000333   0.000110
    14  C    0.000253   0.001118  -0.001594   0.000047  -0.000005   0.000002
    15  H   -0.000001  -0.000007   0.000002   0.000000   0.000000   0.000000
    16  H    0.000003   0.000023  -0.000020   0.000000   0.000000   0.000000
    17  H    0.000010   0.000010  -0.000040   0.000000   0.000000   0.000000
    18  F    0.000013   0.001787  -0.002211   0.000104   0.000003   0.000000
    19  F   -0.000416   0.002270  -0.009113   0.000489  -0.000073   0.000000
    20  H    0.412533  -0.046882   0.011023  -0.011176  -0.000288  -0.000002
    21  H    0.414547  -0.044118   0.013711  -0.000997   0.000012   0.000000
    22  H    0.422096  -0.037590  -0.024125   0.018951   0.000888  -0.000024
    23  H   -0.037576   0.414618  -0.012002  -0.028535  -0.001196  -0.000029
    24  H   -0.034472   0.446493  -0.073910   0.013162  -0.000270  -0.000013
    25  H    0.000514  -0.016426  -0.050284   0.446600  -0.040866   0.006523
    26  H    0.000193  -0.001098   0.013258  -0.043549   0.428483  -0.038060
    27  H   -0.000078   0.002108  -0.003517  -0.075121   0.434621  -0.047330
    28  H   -0.000116   0.000471  -0.007102   0.000834  -0.047763   0.315416
    29  H   -0.000065   0.001938  -0.010842  -0.002734   0.000544   0.001261
    30  H    0.000066  -0.001367   0.011089  -0.000596  -0.000260   0.000257
    31  H   -0.006121  -0.031702   0.445605  -0.051279  -0.010633  -0.000499
    32  C   -0.015350   0.026750  -0.030441   0.190194  -0.050008  -0.003199
    33  H    0.000618  -0.005813  -0.003549  -0.030801  -0.015746   0.010050
    34  H    0.000494  -0.001216   0.011893  -0.043979  -0.002170  -0.000543
    35  H   -0.005085   0.014001  -0.019351  -0.037780   0.008233   0.000870
    36  H    0.000659   0.000874  -0.048384  -0.003754  -0.001117   0.000698
               7          8          9         10         11         12
     1  C    0.011718   0.000239  -0.000030  -0.000088  -0.000016  -0.001611
     2  C   -0.029644   0.007080  -0.000241   0.002652  -0.006496  -0.009839
     3  C    0.085774  -0.057800   0.000743  -0.002341  -0.000060   0.031257
     4  C   -0.045859   0.008547  -0.000016   0.000036  -0.000495  -0.007782
     5  C    0.015113  -0.003857   0.000001  -0.000001   0.000072   0.001291
     6  O   -0.055186   0.006499   0.000000   0.000001  -0.000052   0.000570
     7  N    7.075875   0.186213  -0.000452   0.003184  -0.001656  -0.047209
     8  C    0.186213   5.328137  -0.003415   0.006834  -0.049317   0.010399
     9  C   -0.000452  -0.003415   5.038399   0.416586  -0.012641  -0.091239
    10  C    0.003184   0.006834   0.416586   5.050693   0.505071   0.023256
    11  C   -0.001656  -0.049317  -0.012641   0.505071   4.886333   0.199993
    12  C   -0.047209   0.010399  -0.091239   0.023256   0.199993   6.084822
    13  C    0.002558  -0.052939  -0.010705  -0.083359   0.045401   0.156630
    14  C    0.000981   0.007113   0.424069  -0.024616  -0.078841   0.019077
    15  H   -0.000003   0.000066   0.403739  -0.025209   0.002771  -0.000701
    16  H    0.000052  -0.000244  -0.032950   0.415834  -0.043936   0.014264
    17  H    0.000024  -0.000231  -0.032345   0.004646  -0.001356   0.012809
    18  F   -0.002863   0.020482   0.009302  -0.047151   0.245854  -0.083764
    19  F    0.000074   0.002557   0.009193  -0.000601   0.008144  -0.066961
    20  H    0.000002   0.000364  -0.000013   0.000014   0.000012  -0.000395
    21  H   -0.000516  -0.000025   0.000012  -0.000002   0.000036   0.000044
    22  H   -0.000185  -0.000055   0.000002   0.000001  -0.000025   0.000039
    23  H   -0.006853   0.001945  -0.000007  -0.000033   0.000498  -0.001976
    24  H   -0.004482  -0.006963  -0.000830   0.001080  -0.011475   0.026738
    25  H    0.005210   0.000013   0.000000   0.000000  -0.000010  -0.000191
    26  H   -0.000426   0.000466   0.000000   0.000000  -0.000003   0.000025
    27  H   -0.002979  -0.002864   0.000000  -0.000001   0.000033  -0.000885
    28  H    0.037089  -0.006505   0.000000  -0.000004  -0.000072   0.002373
    29  H   -0.029793   0.456130  -0.000313   0.000059   0.006990  -0.058214
    30  H   -0.045995   0.443265   0.000181  -0.000847  -0.011476  -0.055763
    31  H   -0.042013   0.011991  -0.000038   0.000098   0.002179  -0.018401
    32  C   -0.005151   0.000172   0.000002  -0.000006   0.000120  -0.000085
    33  H    0.007011  -0.000007   0.000000  -0.000001   0.000005  -0.000065
    34  H   -0.000307   0.000010   0.000000   0.000000  -0.000002   0.000005
    35  H    0.000040  -0.000147   0.000000   0.000000   0.000007  -0.000042
    36  H    0.373076  -0.015446  -0.000103   0.000500   0.001996  -0.019496
              13         14         15         16         17         18
     1  C    0.002163   0.000253  -0.000001   0.000003   0.000010   0.000013
     2  C   -0.021100   0.001118  -0.000007   0.000023   0.000010   0.001787
     3  C    0.027698  -0.001594   0.000002  -0.000020  -0.000040  -0.002211
     4  C   -0.000394   0.000047   0.000000   0.000000   0.000000   0.000104
     5  C   -0.000333  -0.000005   0.000000   0.000000   0.000000   0.000003
     6  O    0.000110   0.000002   0.000000   0.000000   0.000000   0.000000
     7  N    0.002558   0.000981  -0.000003   0.000052   0.000024  -0.002863
     8  C   -0.052939   0.007113   0.000066  -0.000244  -0.000231   0.020482
     9  C   -0.010705   0.424069   0.403739  -0.032950  -0.032345   0.009302
    10  C   -0.083359  -0.024616  -0.025209   0.415834   0.004646  -0.047151
    11  C    0.045401  -0.078841   0.002771  -0.043936  -0.001356   0.245854
    12  C    0.156630   0.019077  -0.000701   0.014264   0.012809  -0.083764
    13  C    4.941156   0.500395   0.002371  -0.001179  -0.040995   0.008807
    14  C    0.500395   5.033368  -0.024149   0.004502   0.414259  -0.001110
    15  H    0.002371  -0.024149   0.474039  -0.003286  -0.003236  -0.000103
    16  H   -0.001179   0.004502  -0.003286   0.471548  -0.000132   0.001641
    17  H   -0.040995   0.414259  -0.003236  -0.000132   0.471292   0.000010
    18  F    0.008807  -0.001110  -0.000103   0.001641   0.000010   9.059215
    19  F    0.231913  -0.044331  -0.000110   0.000010   0.001379  -0.000035
    20  H    0.000019   0.000032   0.000000   0.000000   0.000009   0.000000
    21  H    0.000005  -0.000032   0.000000   0.000000  -0.000002  -0.000001
    22  H   -0.000024   0.000005   0.000000   0.000000   0.000000   0.000000
    23  H    0.000738   0.000002   0.000000  -0.000001   0.000000  -0.000117
    24  H   -0.007697   0.002044  -0.000011  -0.000003  -0.000018  -0.000346
    25  H    0.000040   0.000003   0.000000   0.000000   0.000000   0.000000
    26  H    0.000008   0.000000   0.000000   0.000000   0.000000   0.000000
    27  H   -0.000120   0.000002   0.000000   0.000000   0.000000   0.000000
    28  H   -0.000242  -0.000002   0.000000   0.000000   0.000000   0.000009
    29  H   -0.014562   0.000790   0.000003   0.000002  -0.000026   0.000558
    30  H    0.009354  -0.000502   0.000001  -0.000010   0.000004   0.000873
    31  H   -0.001904  -0.000552   0.000002  -0.000002  -0.000003  -0.000038
    32  C    0.000027  -0.000003   0.000000   0.000000   0.000000  -0.000010
    33  H   -0.000010   0.000000   0.000000   0.000000   0.000000  -0.000007
    34  H    0.000001   0.000000   0.000000   0.000000   0.000000   0.000000
    35  H   -0.000012   0.000000   0.000000   0.000000   0.000000   0.000000
    36  H    0.001390   0.000221   0.000000   0.000009  -0.000001   0.003811
              19         20         21         22         23         24
     1  C   -0.000416   0.412533   0.414547   0.422096  -0.037576  -0.034472
     2  C    0.002270  -0.046882  -0.044118  -0.037590   0.414618   0.446493
     3  C   -0.009113   0.011023   0.013711  -0.024125  -0.012002  -0.073910
     4  C    0.000489  -0.011176  -0.000997   0.018951  -0.028535   0.013162
     5  C   -0.000073  -0.000288   0.000012   0.000888  -0.001196  -0.000270
     6  O    0.000000  -0.000002   0.000000  -0.000024  -0.000029  -0.000013
     7  N    0.000074   0.000002  -0.000516  -0.000185  -0.006853  -0.004482
     8  C    0.002557   0.000364  -0.000025  -0.000055   0.001945  -0.006963
     9  C    0.009193  -0.000013   0.000012   0.000002  -0.000007  -0.000830
    10  C   -0.000601   0.000014  -0.000002   0.000001  -0.000033   0.001080
    11  C    0.008144   0.000012   0.000036  -0.000025   0.000498  -0.011475
    12  C   -0.066961  -0.000395   0.000044   0.000039  -0.001976   0.026738
    13  C    0.231913   0.000019   0.000005  -0.000024   0.000738  -0.007697
    14  C   -0.044331   0.000032  -0.000032   0.000005   0.000002   0.002044
    15  H   -0.000110   0.000000   0.000000   0.000000   0.000000  -0.000011
    16  H    0.000010   0.000000   0.000000   0.000000  -0.000001  -0.000003
    17  H    0.001379   0.000009  -0.000002   0.000000   0.000000  -0.000018
    18  F   -0.000035   0.000000  -0.000001   0.000000  -0.000117  -0.000346
    19  F    9.065275   0.000234   0.000003   0.000001  -0.000004  -0.000557
    20  H    0.000234   0.530639  -0.022372  -0.029508   0.006361  -0.004189
    21  H    0.000003  -0.022372   0.519140  -0.023489  -0.003402  -0.006560
    22  H    0.000001  -0.029508  -0.023489   0.528559  -0.004178   0.006887
    23  H   -0.000004   0.006361  -0.003402  -0.004178   0.524527  -0.025159
    24  H   -0.000557  -0.004189  -0.006560   0.006887  -0.025159   0.527583
    25  H   -0.000007   0.001235   0.000555  -0.010247   0.001738  -0.000704
    26  H    0.000000   0.000005  -0.000003  -0.000001   0.000012   0.000013
    27  H    0.000029   0.000043   0.000003  -0.000056   0.000002  -0.000032
    28  H    0.000010   0.000001   0.000002   0.000005   0.000043   0.000042
    29  H    0.005908  -0.000020   0.000002   0.000001  -0.000079   0.000152
    30  H    0.000533  -0.000001  -0.000001  -0.000001   0.000062  -0.000083
    31  H    0.008895   0.000934  -0.000079   0.000918   0.005240  -0.003987
    32  C   -0.000011   0.001068   0.000175  -0.003503   0.002799  -0.000799
    33  H    0.000000  -0.000015   0.000020  -0.000104   0.000815  -0.000153
    34  H    0.000000  -0.000008  -0.000006   0.000043   0.000119   0.000022
    35  H    0.000000  -0.000070   0.000093   0.002000  -0.008486   0.000785
    36  H   -0.000088   0.000009  -0.000047   0.000032   0.002908  -0.000341
              25         26         27         28         29         30
     1  C    0.000514   0.000193  -0.000078  -0.000116  -0.000065   0.000066
     2  C   -0.016426  -0.001098   0.002108   0.000471   0.001938  -0.001367
     3  C   -0.050284   0.013258  -0.003517  -0.007102  -0.010842   0.011089
     4  C    0.446600  -0.043549  -0.075121   0.000834  -0.002734  -0.000596
     5  C   -0.040866   0.428483   0.434621  -0.047763   0.000544  -0.000260
     6  O    0.006523  -0.038060  -0.047330   0.315416   0.001261   0.000257
     7  N    0.005210  -0.000426  -0.002979   0.037089  -0.029793  -0.045995
     8  C    0.000013   0.000466  -0.002864  -0.006505   0.456130   0.443265
     9  C    0.000000   0.000000   0.000000   0.000000  -0.000313   0.000181
    10  C    0.000000   0.000000  -0.000001  -0.000004   0.000059  -0.000847
    11  C   -0.000010  -0.000003   0.000033  -0.000072   0.006990  -0.011476
    12  C   -0.000191   0.000025  -0.000885   0.002373  -0.058214  -0.055763
    13  C    0.000040   0.000008  -0.000120  -0.000242  -0.014562   0.009354
    14  C    0.000003   0.000000   0.000002  -0.000002   0.000790  -0.000502
    15  H    0.000000   0.000000   0.000000   0.000000   0.000003   0.000001
    16  H    0.000000   0.000000   0.000000   0.000000   0.000002  -0.000010
    17  H    0.000000   0.000000   0.000000   0.000000  -0.000026   0.000004
    18  F    0.000000   0.000000   0.000000   0.000009   0.000558   0.000873
    19  F   -0.000007   0.000000   0.000029   0.000010   0.005908   0.000533
    20  H    0.001235   0.000005   0.000043   0.000001  -0.000020  -0.000001
    21  H    0.000555  -0.000003   0.000003   0.000002   0.000002  -0.000001
    22  H   -0.010247  -0.000001  -0.000056   0.000005   0.000001  -0.000001
    23  H    0.001738   0.000012   0.000002   0.000043  -0.000079   0.000062
    24  H   -0.000704   0.000013  -0.000032   0.000042   0.000152  -0.000083
    25  H    0.544434  -0.003001   0.002613  -0.000058  -0.000091   0.000018
    26  H   -0.003001   0.559483  -0.042026   0.005360   0.000002   0.000001
    27  H    0.002613  -0.042026   0.595841   0.002709  -0.000511   0.000040
    28  H   -0.000058   0.005360   0.002709   0.342411  -0.000139  -0.001185
    29  H   -0.000091   0.000002  -0.000511  -0.000139   0.452355  -0.011985
    30  H    0.000018   0.000001   0.000040  -0.001185  -0.011985   0.473879
    31  H   -0.001619  -0.000458   0.002388   0.000668  -0.004244   0.000557
    32  C   -0.045206  -0.018930   0.013216  -0.004200  -0.000001   0.000039
    33  H    0.007526  -0.000259   0.000600   0.001441  -0.000057   0.000040
    34  H   -0.004111   0.003232  -0.000009  -0.000026   0.000001  -0.000002
    35  H   -0.004358  -0.000371  -0.000135  -0.000001   0.000000  -0.000001
    36  H   -0.000235   0.000049  -0.000167  -0.000409   0.003704  -0.005043
              31         32         33         34         35         36
     1  C   -0.006121  -0.015350   0.000618   0.000494  -0.005085   0.000659
     2  C   -0.031702   0.026750  -0.005813  -0.001216   0.014001   0.000874
     3  C    0.445605  -0.030441  -0.003549   0.011893  -0.019351  -0.048384
     4  C   -0.051279   0.190194  -0.030801  -0.043979  -0.037780  -0.003754
     5  C   -0.010633  -0.050008  -0.015746  -0.002170   0.008233  -0.001117
     6  O   -0.000499  -0.003199   0.010050  -0.000543   0.000870   0.000698
     7  N   -0.042013  -0.005151   0.007011  -0.000307   0.000040   0.373076
     8  C    0.011991   0.000172  -0.000007   0.000010  -0.000147  -0.015446
     9  C   -0.000038   0.000002   0.000000   0.000000   0.000000  -0.000103
    10  C    0.000098  -0.000006  -0.000001   0.000000   0.000000   0.000500
    11  C    0.002179   0.000120   0.000005  -0.000002   0.000007   0.001996
    12  C   -0.018401  -0.000085  -0.000065   0.000005  -0.000042  -0.019496
    13  C   -0.001904   0.000027  -0.000010   0.000001  -0.000012   0.001390
    14  C   -0.000552  -0.000003   0.000000   0.000000   0.000000   0.000221
    15  H    0.000002   0.000000   0.000000   0.000000   0.000000   0.000000
    16  H   -0.000002   0.000000   0.000000   0.000000   0.000000   0.000009
    17  H   -0.000003   0.000000   0.000000   0.000000   0.000000  -0.000001
    18  F   -0.000038  -0.000010  -0.000007   0.000000   0.000000   0.003811
    19  F    0.008895  -0.000011   0.000000   0.000000   0.000000  -0.000088
    20  H    0.000934   0.001068  -0.000015  -0.000008  -0.000070   0.000009
    21  H   -0.000079   0.000175   0.000020  -0.000006   0.000093  -0.000047
    22  H    0.000918  -0.003503  -0.000104   0.000043   0.002000   0.000032
    23  H    0.005240   0.002799   0.000815   0.000119  -0.008486   0.002908
    24  H   -0.003987  -0.000799  -0.000153   0.000022   0.000785  -0.000341
    25  H   -0.001619  -0.045206   0.007526  -0.004111  -0.004358  -0.000235
    26  H   -0.000458  -0.018930  -0.000259   0.003232  -0.000371   0.000049
    27  H    0.002388   0.013216   0.000600  -0.000009  -0.000135  -0.000167
    28  H    0.000668  -0.004200   0.001441  -0.000026  -0.000001  -0.000409
    29  H   -0.004244  -0.000001  -0.000057   0.000001   0.000000   0.003704
    30  H    0.000557   0.000039   0.000040  -0.000002  -0.000001  -0.005043
    31  H    0.484995   0.007136  -0.000104  -0.000288  -0.000112   0.004562
    32  C    0.007136   5.167737   0.407536   0.413698   0.416896   0.001063
    33  H   -0.000104   0.407536   0.518522  -0.021568  -0.027017  -0.002435
    34  H   -0.000288   0.413698  -0.021568   0.513371  -0.021816   0.000054
    35  H   -0.000112   0.416896  -0.027017  -0.021816   0.529231  -0.000180
    36  H    0.004562   0.001063  -0.002435   0.000054  -0.000180   0.447096
 Mulliken charges:
               1
     1  C   -0.455493
     2  C   -0.302685
     3  C   -0.103172
     4  C   -0.139589
     5  C   -0.076776
     6  O   -0.534406
     7  N   -0.482422
     8  C   -0.298705
     9  C   -0.116891
    10  C   -0.246284
    11  C    0.312412
    12  C   -0.118975
    13  C    0.304791
    14  C   -0.232547
    15  H    0.173820
    16  H    0.173876
    17  H    0.173930
    18  F   -0.214714
    19  F   -0.214611
    20  H    0.150400
    21  H    0.153292
    22  H    0.152688
    23  H    0.167205
    24  H    0.158052
    25  H    0.160393
    26  H    0.137599
    27  H    0.121582
    28  H    0.358939
    29  H    0.203276
    30  H    0.194858
    31  H    0.197907
    32  C   -0.471727
    33  H    0.153525
    34  H    0.153108
    35  H    0.152807
    36  H    0.254538
 Sum of Mulliken charges =   0.00000
 Mulliken charges with hydrogens summed into heavy atoms:
               1
     1  C    0.000887
     2  C    0.022572
     3  C    0.094735
     4  C    0.020804
     5  C    0.182406
     6  O   -0.175467
     7  N   -0.227885
     8  C    0.099429
     9  C    0.056930
    10  C   -0.072408
    11  C    0.312412
    12  C   -0.118975
    13  C    0.304791
    14  C   -0.058618
    18  F   -0.214714
    19  F   -0.214611
    32  C   -0.012287
 Electronic spatial extent (au):  <R**2>=           4605.7647
 Charge=              0.0000 electrons
 Dipole moment (field-independent basis, Debye):
    X=              4.4359    Y=              3.4141    Z=             -1.3147  Tot=              5.7499
 Quadrupole moment (field-independent basis, Debye-Ang):
   XX=           -101.3042   YY=           -107.4049   ZZ=           -104.1813
   XY=             -6.8889   XZ=              1.2984   YZ=              1.7149
 Traceless Quadrupole moment (field-independent basis, Debye-Ang):
   XX=              2.9926   YY=             -3.1081   ZZ=              0.1155
   XY=             -6.8889   XZ=              1.2984   YZ=              1.7149
 Octapole moment (field-independent basis, Debye-Ang**2):
  XXX=            103.0171  YYY=             -4.9175  ZZZ=             -1.7702  XYY=             25.7054
  XXY=             60.0222  XXZ=            -13.9336  XZZ=              5.3757  YZZ=             -0.4310
  YYZ=              0.6982  XYZ=             -6.4785
 Hexadecapole moment (field-independent basis, Debye-Ang**3):
 XXXX=          -3941.9397 YYYY=          -1136.4861 ZZZZ=           -845.1256 XXXY=            -48.6003
 XXXZ=            -49.3838 YYYX=            -33.5158 YYYZ=             36.7461 ZZZX=            -22.4585
 ZZZY=             27.6488 XXYY=           -958.8624 XXZZ=           -806.3476 YYZZ=           -328.7003
 XXYZ=             64.2699 YYXZ=             36.8010 ZZXY=              3.4770
 N-N= 1.299418340313D+03 E-N=-4.554568594722D+03  KE= 8.321455426951D+02
 1\1\GINC-CPU-E-855\SP\RM062X\def2TZVP\C13H19F2N1O1\KE291\26-Jun-2019\0
 \\# m062x/def2tzvp int=ultrafine scrf=(solvent=chloroform)\\AT3_2ginp0
 10\\0,1\C,0,-1.15569,2.953686,-0.699867\C,0,-0.779475,1.493698,-0.9774
 63\C,0,-1.390725,0.469178,0.001439\C,0,-2.943496,0.506853,0.065232\C,0
 ,-3.474431,-0.472523,1.130926\O,0,-3.336493,-1.836719,0.758423\N,0,-0.
 925244,-0.91967,-0.276208\C,0,0.230613,-1.403991,0.494774\C,0,4.02135,
 0.632029,-0.118195\C,0,3.542404,-0.255462,-1.084685\C,0,2.326629,-0.88
 3327,-0.852694\C,0,1.552113,-0.682716,0.292167\C,0,2.080588,0.217267,1
 .218596\C,0,3.29202,0.877437,1.04562\H,0,4.968892,1.136546,-0.274892\H
 ,0,4.089882,-0.46205,-1.996947\H,0,3.642507,1.562729,1.808643\F,0,1.84
 4991,-1.74136,-1.786051\F,0,1.367836,0.462426,2.345385\H,0,-0.911453,3
 .236694,0.330483\H,0,-0.606007,3.625909,-1.366226\H,0,-2.222744,3.1410
 57,-0.852435\H,0,-1.068305,1.228826,-2.003221\H,0,0.310082,1.394091,-0
 .936079\H,0,-3.219903,1.511913,0.411914\H,0,-4.543843,-0.287984,1.2937
 77\H,0,-2.96564,-0.267818,2.090176\H,0,-2.445618,-1.870747,0.345902\H,
 0,-0.030565,-1.366194,1.554409\H,0,0.369325,-2.457403,0.233852\H,0,-1.
 030976,0.715988,1.009505\C,0,-3.621934,0.258915,-1.290359\H,0,-3.36607
 3,-0.728746,-1.683939\H,0,-4.711068,0.292862,-1.181562\H,0,-3.341332,1
 .009933,-2.034613\H,0,-0.743758,-1.040024,-1.269637\\Version=ES64L-G09
 RevD.01\State=1-A\HF=-836.4623006\RMSD=9.581e-09\Dipole=1.7452119,1.34
 32159,-0.5172526\Quadrupole=2.2249243,-2.3108218,0.0858975,-5.1217104,
 0.9653068,1.2749688\PG=C01 [X(C13H19F2N1O1)]\\@


 ALL THINGS ARE POSSIBLE EXCEPT SKIING THROUGH A REVOLVING DOOR.
 Job cpu time:       0 days  1 hours 22 minutes 42.9 seconds.
 File lengths (MBytes):  RWF=    313 Int=      0 D2E=      0 Chk=     17 Scr=      1
 Normal termination of Gaussian 09 at Wed Jun 26 12:23:45 2019.
