 Entering Gaussian System, Link 0=/usr/local/Cluster-Apps/gaussian/g09/g09
 Initial command:
 /usr/local/Cluster-Apps/gaussian/g09/l1.exe "/home/ke291/rds/hpc-work/26Jun1158AT3NMR/Gau-110018.inp" -scrdir="/home/ke291/rds/hpc-work/26Jun1158AT3NMR/"
 Entering Link 1 = /usr/local/Cluster-Apps/gaussian/g09/l1.exe PID=    110035.
  
 Copyright (c) 1988,1990,1992,1993,1995,1998,2003,2009,2013,
            Gaussian, Inc.  All Rights Reserved.
  
 This is part of the Gaussian(R) 09 program.  It is based on
 the Gaussian(R) 03 system (copyright 2003, Gaussian, Inc.),
 the Gaussian(R) 98 system (copyright 1998, Gaussian, Inc.),
 the Gaussian(R) 94 system (copyright 1995, Gaussian, Inc.),
 the Gaussian 92(TM) system (copyright 1992, Gaussian, Inc.),
 the Gaussian 90(TM) system (copyright 1990, Gaussian, Inc.),
 the Gaussian 88(TM) system (copyright 1988, Gaussian, Inc.),
 the Gaussian 86(TM) system (copyright 1986, Carnegie Mellon
 University), and the Gaussian 82(TM) system (copyright 1983,
 Carnegie Mellon University). Gaussian is a federally registered
 trademark of Gaussian, Inc.
  
 This software contains proprietary and confidential information,
 including trade secrets, belonging to Gaussian, Inc.
  
 This software is provided under written license and may be
 used, copied, transmitted, or stored only in accord with that
 written license.
  
 The following legend is applicable only to US Government
 contracts under FAR:
  
                    RESTRICTED RIGHTS LEGEND
  
 Use, reproduction and disclosure by the US Government is
 subject to restrictions as set forth in subparagraphs (a)
 and (c) of the Commercial Computer Software - Restricted
 Rights clause in FAR 52.227-19.
  
 Gaussian, Inc.
 340 Quinnipiac St., Bldg. 40, Wallingford CT 06492
  
  
 ---------------------------------------------------------------
 Warning -- This program may not be used in any manner that
 competes with the business of Gaussian, Inc. or will provide
 assistance to any competitor of Gaussian, Inc.  The licensee
 of this program is prohibited from giving any competitor of
 Gaussian, Inc. access to this program.  By using this program,
 the user acknowledges that Gaussian, Inc. is engaged in the
 business of creating and licensing software in the field of
 computational chemistry and represents and warrants to the
 licensee that it is not a competitor of Gaussian, Inc. and that
 it will not use this program in any manner prohibited above.
 ---------------------------------------------------------------
  

 Cite this work as:
 Gaussian 09, Revision D.01,
 M. J. Frisch, G. W. Trucks, H. B. Schlegel, G. E. Scuseria, 
 M. A. Robb, J. R. Cheeseman, G. Scalmani, V. Barone, B. Mennucci, 
 G. A. Petersson, H. Nakatsuji, M. Caricato, X. Li, H. P. Hratchian, 
 A. F. Izmaylov, J. Bloino, G. Zheng, J. L. Sonnenberg, M. Hada, 
 M. Ehara, K. Toyota, R. Fukuda, J. Hasegawa, M. Ishida, T. Nakajima, 
 Y. Honda, O. Kitao, H. Nakai, T. Vreven, J. A. Montgomery, Jr., 
 J. E. Peralta, F. Ogliaro, M. Bearpark, J. J. Heyd, E. Brothers, 
 K. N. Kudin, V. N. Staroverov, T. Keith, R. Kobayashi, J. Normand, 
 K. Raghavachari, A. Rendell, J. C. Burant, S. S. Iyengar, J. Tomasi, 
 M. Cossi, N. Rega, J. M. Millam, M. Klene, J. E. Knox, J. B. Cross, 
 V. Bakken, C. Adamo, J. Jaramillo, R. Gomperts, R. E. Stratmann, 
 O. Yazyev, A. J. Austin, R. Cammi, C. Pomelli, J. W. Ochterski, 
 R. L. Martin, K. Morokuma, V. G. Zakrzewski, G. A. Voth, 
 P. Salvador, J. J. Dannenberg, S. Dapprich, A. D. Daniels, 
 O. Farkas, J. B. Foresman, J. V. Ortiz, J. Cioslowski, 
 and D. J. Fox, Gaussian, Inc., Wallingford CT, 2013.
 
 ******************************************
 Gaussian 09:  ES64L-G09RevD.01 24-Apr-2013
                26-Jun-2019 
 ******************************************
 %nprocshared=4
 Will use up to    4 processors via shared memory.
 %mem=6000MB
 %chk=AT3_1ginp014.chk
 --------------------------------------------------------
 # m062x/def2tzvp int=ultrafine scrf=(solvent=chloroform)
 --------------------------------------------------------
 1/38=1/1;
 2/12=2,17=6,18=5,40=1/2;
 3/5=44,7=101,11=2,16=1,25=1,30=1,70=2201,72=7,74=-55,75=-5/1,2,3;
 4//1;
 5/5=2,38=5,53=7/2;
 6/7=2,8=2,9=2,10=2,28=1/1;
 99/5=1,9=1/99;
 ------------
 AT3_1ginp014
 ------------
 Symbolic Z-matrix:
 Charge =  0 Multiplicity = 1
 C                     2.07906   2.74474  -0.02358 
 C                     2.19272   1.71503   1.10721 
 C                     1.89433   0.2503    0.69587 
 C                     2.92656  -0.34445  -0.29777 
 C                     2.66568  -1.84054  -0.50593 
 O                     3.51111  -2.3056   -1.56184 
 N                     0.54242   0.04557   0.14212 
 C                    -0.56288   0.37007   1.05045 
 C                    -4.3767   -0.37844  -0.87859 
 C                    -3.61265   0.73023  -1.24874 
 C                    -2.39969   0.9329   -0.60533 
 C                    -1.89552   0.09657   0.39225 
 C                    -2.69938  -0.99766   0.71448 
 C                    -3.92511  -1.25349   0.10945 
 H                    -5.32933  -0.56122  -1.36449 
 H                    -3.93823   1.42415  -2.01491 
 H                    -4.49996  -2.12058   0.41349 
 F                    -1.64343   2.00361  -0.96431 
 F                    -2.26782  -1.84787   1.67468 
 H                     1.07016   2.76558  -0.45017 
 H                     2.29317   3.75119   0.34951 
 H                     2.7815    2.54051  -0.83871 
 H                     3.19127   1.76324   1.55426 
 H                     1.50258   1.99483   1.91209 
 H                     2.77703   0.13611  -1.27606 
 H                     1.60852  -1.99571  -0.74657 
 H                     2.88027  -2.37986   0.43248 
 H                     3.33335  -3.24724  -1.68169 
 H                    -0.46918  -0.25821   1.9404 
 H                    -0.5608    1.41686   1.39403 
 H                     1.94207  -0.35303   1.61574 
 C                     4.38326  -0.11653   0.13215 
 H                     4.5494   -0.47168   1.15701 
 H                     5.05207  -0.67364  -0.52802 
 H                     4.67007   0.9375    0.09066 
 H                     0.44327   0.60305  -0.70383 
 
                          Input orientation:                          
 ---------------------------------------------------------------------
 Center     Atomic      Atomic             Coordinates (Angstroms)
 Number     Number       Type             X           Y           Z
 ---------------------------------------------------------------------
      1          6           0        2.079056    2.744735   -0.023581
      2          6           0        2.192719    1.715026    1.107209
      3          6           0        1.894333    0.250300    0.695872
      4          6           0        2.926563   -0.344448   -0.297774
      5          6           0        2.665678   -1.840539   -0.505932
      6          8           0        3.511112   -2.305604   -1.561844
      7          7           0        0.542423    0.045568    0.142115
      8          6           0       -0.562883    0.370069    1.050448
      9          6           0       -4.376699   -0.378435   -0.878590
     10          6           0       -3.612654    0.730231   -1.248740
     11          6           0       -2.399686    0.932898   -0.605331
     12          6           0       -1.895521    0.096572    0.392247
     13          6           0       -2.699377   -0.997662    0.714483
     14          6           0       -3.925107   -1.253493    0.109448
     15          1           0       -5.329333   -0.561221   -1.364486
     16          1           0       -3.938233    1.424151   -2.014907
     17          1           0       -4.499964   -2.120578    0.413488
     18          9           0       -1.643425    2.003612   -0.964314
     19          9           0       -2.267821   -1.847871    1.674676
     20          1           0        1.070162    2.765575   -0.450168
     21          1           0        2.293165    3.751190    0.349514
     22          1           0        2.781500    2.540508   -0.838705
     23          1           0        3.191269    1.763236    1.554258
     24          1           0        1.502581    1.994834    1.912089
     25          1           0        2.777029    0.136113   -1.276056
     26          1           0        1.608520   -1.995709   -0.746568
     27          1           0        2.880267   -2.379861    0.432482
     28          1           0        3.333350   -3.247241   -1.681687
     29          1           0       -0.469178   -0.258213    1.940395
     30          1           0       -0.560796    1.416856    1.394030
     31          1           0        1.942074   -0.353027    1.615736
     32          6           0        4.383265   -0.116533    0.132150
     33          1           0        4.549400   -0.471682    1.157011
     34          1           0        5.052069   -0.673643   -0.528022
     35          1           0        4.670073    0.937502    0.090661
     36          1           0        0.443267    0.603053   -0.703829
 ---------------------------------------------------------------------
                    Distance matrix (angstroms):
                    1          2          3          4          5
     1  C    0.000000
     2  C    1.533592   0.000000
     3  C    2.602680   1.550372   0.000000
     4  C    3.215043   2.598834   1.551308   0.000000
     5  C    4.647744   3.932932   2.531978   1.532866   0.000000
     6  O    5.470188   5.002746   3.774109   2.405349   1.430383
     7  N    3.110337   2.538104   1.475203   2.455553   2.913001
     8  C    3.711121   3.066834   2.485554   3.808474   4.211023
     9  C    7.222327   7.175181   6.496159   7.326400   7.202201
    10  C    6.160747   6.342135   5.859928   6.694821   6.824813
    11  C    4.866243   4.963336   4.538465   5.485903   5.775790
    12  C    4.794053   4.454691   3.805104   4.891127   5.036235
    13  C    6.114221   5.607630   4.760244   5.753482   5.566298
    14  C    7.214811   6.872803   6.039136   6.923697   6.645432
    15  H    8.222627   8.238437   7.555461   8.327346   8.142111
    16  H    6.474341   6.886275   6.537972   7.293964   7.519764
    17  H    8.194254   7.745006   6.825528   7.669018   7.229812
    18  F    3.910384   4.369267   4.283229   5.180970   5.792752
    19  F    6.547629   5.736957   4.762762   5.756081   5.393933
    20  H    1.095572   2.188426   2.884315   3.625147   4.874943
    21  H    1.094529   2.174892   3.540517   4.194571   5.669038
    22  H    1.095246   2.194234   2.896039   2.938813   4.395193
    23  H    2.165626   1.095116   2.169757   2.818231   4.184235
    24  H    2.154413   1.096547   2.162418   3.519014   4.680781
    25  H    2.976704   2.917934   2.163490   1.100152   2.124298
    26  H    4.818291   4.188954   2.684563   2.159934   1.095247
    27  H    5.206862   4.206671   2.821203   2.162943   1.103421
    28  H    6.342424   5.805435   4.467253   3.241435   1.951153
    29  H    4.400954   3.416660   2.719119   4.067910   4.279672
    30  H    3.277454   2.784424   2.806410   4.257472   4.962924
    31  H    3.507457   2.144357   1.101105   2.151932   2.690310
    32  C    3.677021   3.017257   2.578203   1.535826   2.515840
    33  H    4.223948   3.215294   2.789854   2.183160   2.861391
    34  H    4.558352   4.068858   3.510397   2.163136   2.656501
    35  H    3.161093   2.788404   2.922885   2.198660   3.477216
    36  H    2.779450   2.752621   2.046751   2.688754   3.308990
                    6          7          8          9         10
     6  O    0.000000
     7  N    4.152662   0.000000
     8  C    5.529985   1.466994   0.000000
     9  C    8.148520   5.041763   4.338967   0.000000
    10  C    7.749992   4.434851   3.836285   1.396394   0.000000
    11  C    6.807374   3.162599   2.536183   2.388063   1.387927
    12  C    6.230618   2.451273   1.511275   2.827880   2.458233
    13  C    6.742592   3.453288   2.558939   2.394730   2.770187
    14  C    7.693992   4.652682   3.850453   1.394948   2.424348
    15  H    9.013062   6.092254   5.423860   1.084904   2.151333
    16  H    8.343206   5.160379   4.679795   2.175497   1.083761
    17  H    8.253091   5.494679   4.702090   2.172492   3.417226
    18  F    6.745045   3.136248   2.809858   3.626608   2.362257
    19  F    6.639326   3.719049   2.866310   3.622951   4.123293
    20  H    5.736804   2.833328   3.264527   6.303700   5.168086
    21  H    6.466950   4.103626   4.481105   7.940348   6.823438
    22  H    4.953793   3.492878   4.411871   7.730565   6.658111
    23  H    5.134964   3.458456   4.035889   8.232839   7.430832
    24  H    5.881851   2.802561   2.765579   6.927209   6.144566
    25  H    2.565645   2.648183   4.077054   7.183214   6.417302
    26  H    2.092980   2.468427   3.679832   6.201278   5.911310
    27  H    2.093040   3.381203   4.449638   7.641215   7.393051
    28  H    0.965734   4.685949   5.977468   8.265583   8.015903
    29  H    5.683326   2.085529   1.093400   4.819735   4.585744
    30  H    6.258940   2.159818   1.101733   4.790510   4.095061
    31  H    4.046165   2.071101   2.667813   6.793320   6.343002
    32  C    2.902120   3.844274   5.054150   8.821970   8.158345
    33  H    3.439983   4.165744   5.182214   9.155742   8.593681
    34  H    2.471160   4.615545   5.925250   9.439900   8.807254
    35  H    3.819908   4.223232   5.350421   9.193216   8.392885
    36  H    4.313716   1.017960   2.035708   4.921985   4.094337
                   11         12         13         14         15
    11  C    0.000000
    12  C    1.395989   0.000000
    13  C    2.357708   1.395481   0.000000
    14  C    2.760095   2.453950   1.390658   0.000000
    15  H    3.375135   3.912783   3.380719   2.150249   0.000000
    16  H    2.143679   3.424840   3.853506   3.418016   2.509962
    17  H    3.843550   3.420428   2.143281   1.083853   2.506120
    18  F    1.359128   2.353850   3.597366   4.119195   4.508262
    19  F    3.598402   2.358832   1.353169   2.355806   4.501647
    20  H    3.927165   4.077808   5.452320   6.435743   7.270288
    21  H    5.556739   5.559060   6.900020   7.985699   8.923966
    22  H    5.429877   5.418726   6.706046   7.763505   8.699585
    23  H    6.050790   5.477542   6.559534   7.863265   9.301765
    24  H    4.763696   4.178566   5.295823   6.577305   7.996525
    25  H    5.280447   4.961605   5.936221   6.983499   8.136781
    26  H    4.966125   4.237080   4.657118   5.648422   7.111497
    27  H    6.318966   5.379823   5.755209   6.905517   8.598493
    28  H    7.176337   6.543957   6.869937   7.737467   9.075098
    29  H    3.409740   2.134734   2.650176   4.035641   5.885164
    30  H    2.759198   2.127959   3.296242   4.483247   5.853302
    31  H    5.043572   4.052925   4.771884   6.124015   7.861198
    32  C    6.903159   6.287783   7.160958   8.385836   9.837288
    33  H    7.305374   6.514966   7.281295   8.574724  10.195849
    34  H    7.623359   7.050470   7.857081   9.018441  10.415653
    35  H    7.103937   6.626096   7.644790   8.870058  10.215270
    36  H    2.863718   2.632078   3.801330   4.815690   5.925784
                   16         17         18         19         20
    16  H    0.000000
    17  H    4.333330   0.000000
    18  F    2.589530   5.202605   0.000000
    19  F    5.206671   2.578260   4.710420   0.000000
    20  H    5.415888   7.459671   2.865046   6.077909   0.000000
    21  H    7.059456   8.979329   4.502989   7.342216   1.762573
    22  H    6.912634   8.735756   4.459147   7.146369   1.769264
    23  H    7.980208   8.691400   5.456670   6.546469   3.085693
    24  H    6.734199   7.430543   4.262760   5.388755   2.522159
    25  H    6.877477   7.803963   4.808862   6.171995   3.241845
    26  H    6.638569   6.218915   5.159179   4.572778   4.800782
    27  H    8.182430   7.384809   6.452105   5.322487   5.525492
    28  H    8.649211   8.186570   7.270101   6.678063   6.541606
    29  H    5.523505   4.695432   3.864200   2.415106   4.150621
    30  H    4.798748   5.384417   2.660480   3.694745   2.807157
    31  H    7.135681   6.787451   5.006616   4.467801   3.841076
    32  C    8.731030   9.110824   6.482148   7.043711   4.429706
    33  H    9.257168   9.228362   6.998441   6.973978   5.016767
    34  H    9.350781   9.706771   7.224104   7.733788   5.262116
    35  H    8.875425   9.671900   6.489208   7.642106   4.073537
    36  H    4.646576   5.753442   2.526599   4.360540   2.265798
                   21         22         23         24         25
    21  H    0.000000
    22  H    1.765244   0.000000
    23  H    2.491979   2.549183   0.000000
    24  H    2.480212   3.082249   1.741651   0.000000
    25  H    3.993167   2.443852   3.290866   3.904271   0.000000
    26  H    5.890414   4.686324   4.682794   4.796260   2.488059
    27  H    6.159656   5.082883   4.303528   4.819254   3.043006
    28  H    7.361100   5.874793   5.966272   6.614098   3.452697
    29  H    5.122183   5.111080   4.199313   2.994137   4.586819
    30  H    3.832130   4.173565   3.771425   2.204534   4.462145
    31  H    4.309429   3.886060   2.458218   2.406955   3.049405
    32  C    4.401709   3.250858   2.641359   3.990538   2.151016
    33  H    4.855440   4.022641   2.645219   3.992111   3.070917
    34  H    5.287794   3.947502   3.706325   5.066930   2.528056
    35  H    3.692362   2.645762   2.238485   3.803756   2.468553
    36  H    3.800318   3.039615   3.741189   3.146780   2.447840
                   26         27         28         29         30
    26  H    0.000000
    27  H    1.776252   0.000000
    28  H    2.327191   2.329666   0.000000
    29  H    3.815166   4.241930   6.042598   0.000000
    30  H    4.575335   5.213497   6.810155   1.764303   0.000000
    31  H    2.896574   2.527519   4.602730   2.434857   3.073434
    32  C    3.464485   2.733470   3.767447   5.180350   5.327979
    33  H    3.820346   2.636682   4.152194   5.083836   5.453151
    34  H    3.695085   2.924119   3.302778   6.062164   6.290368
    35  H    4.321780   3.784857   4.737100   5.591346   5.412074
    36  H    2.848369   4.015962   4.912591   2.926817   2.464027
                   31         32         33         34         35
    31  H    0.000000
    32  C    2.866421   0.000000
    33  H    2.650030   1.097302   0.000000
    34  H    3.790852   1.092473   1.769972   0.000000
    35  H    3.381316   1.093147   1.771289   1.767619   0.000000
    36  H    2.922481   4.091485   4.634448   4.785595   4.313810
                   36
    36  H    0.000000
 Stoichiometry    C13H19F2NO
 Framework group  C1[X(C13H19F2NO)]
 Deg. of freedom   102
 Full point group                 C1      NOp   1
 Largest Abelian subgroup         C1      NOp   1
 Largest concise Abelian subgroup C1      NOp   1
                         Standard orientation:                         
 ---------------------------------------------------------------------
 Center     Atomic      Atomic             Coordinates (Angstroms)
 Number     Number       Type             X           Y           Z
 ---------------------------------------------------------------------
      1          6           0        2.079056    2.744735   -0.023581
      2          6           0        2.192719    1.715026    1.107209
      3          6           0        1.894333    0.250300    0.695872
      4          6           0        2.926563   -0.344448   -0.297774
      5          6           0        2.665678   -1.840539   -0.505932
      6          8           0        3.511112   -2.305604   -1.561844
      7          7           0        0.542423    0.045568    0.142115
      8          6           0       -0.562883    0.370069    1.050448
      9          6           0       -4.376699   -0.378435   -0.878590
     10          6           0       -3.612654    0.730231   -1.248740
     11          6           0       -2.399686    0.932898   -0.605331
     12          6           0       -1.895521    0.096572    0.392247
     13          6           0       -2.699377   -0.997662    0.714483
     14          6           0       -3.925107   -1.253493    0.109448
     15          1           0       -5.329333   -0.561221   -1.364486
     16          1           0       -3.938233    1.424151   -2.014907
     17          1           0       -4.499964   -2.120578    0.413488
     18          9           0       -1.643425    2.003612   -0.964314
     19          9           0       -2.267821   -1.847871    1.674676
     20          1           0        1.070162    2.765575   -0.450168
     21          1           0        2.293165    3.751190    0.349514
     22          1           0        2.781500    2.540508   -0.838705
     23          1           0        3.191269    1.763236    1.554258
     24          1           0        1.502581    1.994834    1.912089
     25          1           0        2.777029    0.136113   -1.276056
     26          1           0        1.608520   -1.995709   -0.746568
     27          1           0        2.880267   -2.379861    0.432482
     28          1           0        3.333350   -3.247241   -1.681687
     29          1           0       -0.469178   -0.258213    1.940395
     30          1           0       -0.560796    1.416856    1.394030
     31          1           0        1.942074   -0.353027    1.615736
     32          6           0        4.383265   -0.116533    0.132150
     33          1           0        4.549400   -0.471682    1.157011
     34          1           0        5.052069   -0.673643   -0.528022
     35          1           0        4.670073    0.937502    0.090661
     36          1           0        0.443267    0.603053   -0.703829
 ---------------------------------------------------------------------
 Rotational constants (GHZ):      0.6918185      0.2400499      0.2104508
 Standard basis: def2TZVP (5D, 7F)
 There are   726 symmetry adapted cartesian basis functions of A   symmetry.
 There are   641 symmetry adapted basis functions of A   symmetry.
   641 basis functions,  1019 primitive gaussians,   726 cartesian basis functions
    65 alpha electrons       65 beta electrons
       nuclear repulsion energy      1256.1798911431 Hartrees.
 NAtoms=   36 NActive=   36 NUniq=   36 SFac= 1.00D+00 NAtFMM=   60 NAOKFM=F Big=F
 Integral buffers will be    131072 words long.
 Raffenetti 2 integral format.
 Two-electron integral symmetry is turned on.
 ------------------------------------------------------------------------------
 Polarizable Continuum Model (PCM)
 =================================
 Model                : PCM (using non-symmetric T matrix).
 Atomic radii         : UFF (Universal Force Field).
 Polarization charges : Total charges.
 Charge compensation  : None.
 Solution method      : On-the-fly selection.
 Cavity type          : Scaled VdW (van der Waals Surface) (Alpha=1.100).
 Cavity algorithm     : GePol (No added spheres)
                        Default sphere list used, NSphG=   36.
                        Lebedev-Laikov grids with approx.  5.0 points / Ang**2.
                        Smoothing algorithm: Karplus/York (Gamma=1.0000).
                        Polarization charges: spherical gaussians, with
                                              point-specific exponents (IZeta= 3).
                        Self-potential: point-specific (ISelfS= 7).
                        Self-field    : sphere-specific E.n sum rule (ISelfD= 2).
 Solvent              : Chloroform, Eps=   4.711300 Eps(inf)=   2.090627
 ------------------------------------------------------------------------------
 One-electron integrals computed using PRISM.
   1 Symmetry operations used in ECPInt.
 ECPInt:  NShTT=   34716 NPrTT=  103716 LenC2=   30692 LenP2D=   66575.
 LDataN:  DoStor=T MaxTD1= 6 Len=  172
 NBasis=   641 RedAO= T EigKep=  1.16D-05  NBF=   641
 NBsUse=   641 1.00D-06 EigRej= -1.00D+00 NBFU=   641
 ExpMin= 9.52D-02 ExpMax= 3.55D+04 ExpMxC= 1.21D+03 IAcc=3 IRadAn=         5 AccDes= 0.00D+00
 Harris functional with IExCor= 1009 and IRadAn=       5 diagonalized for initial guess.
 HarFok:  IExCor= 1009 AccDes= 0.00D+00 IRadAn=         5 IDoV= 1 UseB2=F ITyADJ=14
 ICtDFT=  3500011 ScaDFX=  1.000000  1.000000  1.000000  1.000000
 FoFCou: FMM=F IPFlag=           0 FMFlag=      100000 FMFlg1=           0
         NFxFlg=           0 DoJE=T BraDBF=F KetDBF=T FulRan=T
         wScrn=  0.000000 ICntrl=     500 IOpCl=  0 I1Cent=   200000004 NGrid=           0
         NMat0=    1 NMatS0=      1 NMatT0=    0 NMatD0=    1 NMtDS0=    0 NMtDT0=    0
 Petite list used in FoFCou.
 Requested convergence on RMS density matrix=1.00D-08 within 128 cycles.
 Requested convergence on MAX density matrix=1.00D-06.
 Requested convergence on             energy=1.00D-06.
 No special actions if energy rises.
 Inv3:  Mode=1 IEnd=    18495867.
 Iteration    1 A*A^-1 deviation from unit magnitude is 4.66D-15 for    601.
 Iteration    1 A*A^-1 deviation from orthogonality  is 3.03D-15 for   2482   2387.
 Iteration    1 A^-1*A deviation from unit magnitude is 4.44D-15 for    601.
 Iteration    1 A^-1*A deviation from orthogonality  is 4.63D-11 for   2378   2354.
 Error on total polarization charges =  0.01243
 SCF Done:  E(RM062X) =  -836.456340840     A.U. after   12 cycles
            NFock= 12  Conv=0.80D-08     -V/T= 2.0052

 **********************************************************************

            Population analysis using the SCF density.

 **********************************************************************

 Orbital symmetries:
       Occupied  (A) (A) (A) (A) (A) (A) (A) (A) (A) (A) (A) (A)
                 (A) (A) (A) (A) (A) (A) (A) (A) (A) (A) (A) (A)
                 (A) (A) (A) (A) (A) (A) (A) (A) (A) (A) (A) (A)
                 (A) (A) (A) (A) (A) (A) (A) (A) (A) (A) (A) (A)
                 (A) (A) (A) (A) (A) (A) (A) (A) (A) (A) (A) (A)
                 (A) (A) (A) (A) (A)
       Virtual   (A) (A) (A) (A) (A) (A) (A) (A) (A) (A) (A) (A)
                 (A) (A) (A) (A) (A) (A) (A) (A) (A) (A) (A) (A)
                 (A) (A) (A) (A) (A) (A) (A) (A) (A) (A) (A) (A)
                 (A) (A) (A) (A) (A) (A) (A) (A) (A) (A) (A) (A)
                 (A) (A) (A) (A) (A) (A) (A) (A) (A) (A) (A) (A)
                 (A) (A) (A) (A) (A) (A) (A) (A) (A) (A) (A) (A)
                 (A) (A) (A) (A) (A) (A) (A) (A) (A) (A) (A) (A)
                 (A) (A) (A) (A) (A) (A) (A) (A) (A) (A) (A) (A)
                 (A) (A) (A) (A) (A) (A) (A) (A) (A) (A) (A) (A)
                 (A) (A) (A) (A) (A) (A) (A) (A) (A) (A) (A) (A)
                 (A) (A) (A) (A) (A) (A) (A) (A) (A) (A) (A) (A)
                 (A) (A) (A) (A) (A) (A) (A) (A) (A) (A) (A) (A)
                 (A) (A) (A) (A) (A) (A) (A) (A) (A) (A) (A) (A)
                 (A) (A) (A) (A) (A) (A) (A) (A) (A) (A) (A) (A)
                 (A) (A) (A) (A) (A) (A) (A) (A) (A) (A) (A) (A)
                 (A) (A) (A) (A) (A) (A) (A) (A) (A) (A) (A) (A)
                 (A) (A) (A) (A) (A) (A) (A) (A) (A) (A) (A) (A)
                 (A) (A) (A) (A) (A) (A) (A) (A) (A) (A) (A) (A)
                 (A) (A) (A) (A) (A) (A) (A) (A) (A) (A) (A) (A)
                 (A) (A) (A) (A) (A) (A) (A) (A) (A) (A) (A) (A)
                 (A) (A) (A) (A) (A) (A) (A) (A) (A) (A) (A) (A)
                 (A) (A) (A) (A) (A) (A) (A) (A) (A) (A) (A) (A)
                 (A) (A) (A) (A) (A) (A) (A) (A) (A) (A) (A) (A)
                 (A) (A) (A) (A) (A) (A) (A) (A) (A) (A) (A) (A)
                 (A) (A) (A) (A) (A) (A) (A) (A) (A) (A) (A) (A)
                 (A) (A) (A) (A) (A) (A) (A) (A) (A) (A) (A) (A)
                 (A) (A) (A) (A) (A) (A) (A) (A) (A) (A) (A) (A)
                 (A) (A) (A) (A) (A) (A) (A) (A) (A) (A) (A) (A)
                 (A) (A) (A) (A) (A) (A) (A) (A) (A) (A) (A) (A)
                 (A) (A) (A) (A) (A) (A) (A) (A) (A) (A) (A) (A)
                 (A) (A) (A) (A) (A) (A) (A) (A) (A) (A) (A) (A)
                 (A) (A) (A) (A) (A) (A) (A) (A) (A) (A) (A) (A)
                 (A) (A) (A) (A) (A) (A) (A) (A) (A) (A) (A) (A)
                 (A) (A) (A) (A) (A) (A) (A) (A) (A) (A) (A) (A)
                 (A) (A) (A) (A) (A) (A) (A) (A) (A) (A) (A) (A)
                 (A) (A) (A) (A) (A) (A) (A) (A) (A) (A) (A) (A)
                 (A) (A) (A) (A) (A) (A) (A) (A) (A) (A) (A) (A)
                 (A) (A) (A) (A) (A) (A) (A) (A) (A) (A) (A) (A)
                 (A) (A) (A) (A) (A) (A) (A) (A) (A) (A) (A) (A)
                 (A) (A) (A) (A) (A) (A) (A) (A) (A) (A) (A) (A)
                 (A) (A) (A) (A) (A) (A) (A) (A) (A) (A) (A) (A)
                 (A) (A) (A) (A) (A) (A) (A) (A) (A) (A) (A) (A)
                 (A) (A) (A) (A) (A) (A) (A) (A) (A) (A) (A) (A)
                 (A) (A) (A) (A) (A) (A) (A) (A) (A) (A) (A) (A)
                 (A) (A) (A) (A) (A) (A) (A) (A) (A) (A) (A) (A)
                 (A) (A) (A) (A) (A) (A) (A) (A) (A) (A) (A) (A)
                 (A) (A) (A) (A) (A) (A) (A) (A) (A) (A) (A) (A)
                 (A) (A) (A) (A) (A) (A) (A) (A) (A) (A) (A) (A)
 The electronic state is 1-A.
 Alpha  occ. eigenvalues --  -25.26995 -25.26695 -19.62117 -14.73570 -10.64270
 Alpha  occ. eigenvalues --  -10.64253 -10.57585 -10.57181 -10.56958 -10.56658
 Alpha  occ. eigenvalues --  -10.56555 -10.55782 -10.55728 -10.53677 -10.52927
 Alpha  occ. eigenvalues --  -10.52351 -10.51860  -1.38124  -1.38010  -1.13740
 Alpha  occ. eigenvalues --   -1.02217  -0.98249  -0.90547  -0.87191  -0.86058
 Alpha  occ. eigenvalues --   -0.85074  -0.78691  -0.76093  -0.74565  -0.72721
 Alpha  occ. eigenvalues --   -0.70743  -0.67591  -0.65357  -0.63870  -0.62094
 Alpha  occ. eigenvalues --   -0.59130  -0.58535  -0.57408  -0.57220  -0.57192
 Alpha  occ. eigenvalues --   -0.55157  -0.54458  -0.53896  -0.53428  -0.51064
 Alpha  occ. eigenvalues --   -0.49834  -0.49073  -0.47956  -0.47372  -0.47034
 Alpha  occ. eigenvalues --   -0.46029  -0.44615  -0.44096  -0.43952  -0.43098
 Alpha  occ. eigenvalues --   -0.41785  -0.40978  -0.40462  -0.39320  -0.37809
 Alpha  occ. eigenvalues --   -0.37204  -0.34761  -0.31788  -0.31309  -0.29222
 Alpha virt. eigenvalues --    0.00513   0.01823   0.06128   0.07281   0.07816
 Alpha virt. eigenvalues --    0.08271   0.09319   0.10265   0.11471   0.12038
 Alpha virt. eigenvalues --    0.12462   0.12712   0.13024   0.13833   0.14476
 Alpha virt. eigenvalues --    0.14822   0.16036   0.16340   0.17128   0.17311
 Alpha virt. eigenvalues --    0.17852   0.18237   0.19086   0.19320   0.19990
 Alpha virt. eigenvalues --    0.20441   0.20739   0.21420   0.21901   0.22295
 Alpha virt. eigenvalues --    0.22584   0.23339   0.24024   0.24724   0.25152
 Alpha virt. eigenvalues --    0.26100   0.26986   0.27242   0.28087   0.28397
 Alpha virt. eigenvalues --    0.29193   0.29773   0.30491   0.31422   0.32301
 Alpha virt. eigenvalues --    0.32453   0.32931   0.33797   0.34344   0.34712
 Alpha virt. eigenvalues --    0.36492   0.36846   0.37082   0.37336   0.38270
 Alpha virt. eigenvalues --    0.39032   0.39530   0.39789   0.40150   0.40699
 Alpha virt. eigenvalues --    0.41090   0.41938   0.42599   0.42812   0.43353
 Alpha virt. eigenvalues --    0.43725   0.44314   0.44804   0.45049   0.46009
 Alpha virt. eigenvalues --    0.46139   0.46830   0.46981   0.47345   0.47392
 Alpha virt. eigenvalues --    0.47968   0.48397   0.48735   0.49770   0.50334
 Alpha virt. eigenvalues --    0.50575   0.50705   0.51329   0.52083   0.52182
 Alpha virt. eigenvalues --    0.53087   0.53434   0.54151   0.54728   0.55029
 Alpha virt. eigenvalues --    0.55427   0.55990   0.56174   0.57343   0.57804
 Alpha virt. eigenvalues --    0.58248   0.59832   0.62084   0.63049   0.63393
 Alpha virt. eigenvalues --    0.63872   0.64447   0.65086   0.66121   0.66574
 Alpha virt. eigenvalues --    0.67815   0.68637   0.69209   0.70746   0.71142
 Alpha virt. eigenvalues --    0.71464   0.72688   0.73100   0.73622   0.75045
 Alpha virt. eigenvalues --    0.76489   0.76998   0.78061   0.79118   0.79618
 Alpha virt. eigenvalues --    0.80579   0.81320   0.81598   0.82503   0.83964
 Alpha virt. eigenvalues --    0.84269   0.85595   0.87546   0.87782   0.88281
 Alpha virt. eigenvalues --    0.89568   0.90101   0.90225   0.91072   0.91854
 Alpha virt. eigenvalues --    0.92400   0.93501   0.95884   0.96286   0.97364
 Alpha virt. eigenvalues --    0.98755   0.99136   1.00180   1.00774   1.01481
 Alpha virt. eigenvalues --    1.02528   1.03385   1.04718   1.06817   1.07235
 Alpha virt. eigenvalues --    1.07835   1.08820   1.09023   1.10077   1.10598
 Alpha virt. eigenvalues --    1.11173   1.12033   1.14168   1.15012   1.15389
 Alpha virt. eigenvalues --    1.16742   1.18181   1.19286   1.19868   1.21018
 Alpha virt. eigenvalues --    1.21978   1.22414   1.24152   1.24802   1.25224
 Alpha virt. eigenvalues --    1.25709   1.25817   1.28548   1.28650   1.30205
 Alpha virt. eigenvalues --    1.31976   1.32980   1.34476   1.34830   1.36090
 Alpha virt. eigenvalues --    1.36813   1.37453   1.39148   1.39473   1.42024
 Alpha virt. eigenvalues --    1.44047   1.45113   1.45665   1.47518   1.49486
 Alpha virt. eigenvalues --    1.50977   1.51248   1.52230   1.53152   1.53992
 Alpha virt. eigenvalues --    1.56144   1.57330   1.57607   1.58379   1.58670
 Alpha virt. eigenvalues --    1.59554   1.60215   1.60712   1.61704   1.62451
 Alpha virt. eigenvalues --    1.63097   1.63823   1.64482   1.64722   1.65277
 Alpha virt. eigenvalues --    1.66441   1.67002   1.67770   1.68269   1.68623
 Alpha virt. eigenvalues --    1.69257   1.69921   1.70750   1.71220   1.72425
 Alpha virt. eigenvalues --    1.73551   1.74469   1.76364   1.78959   1.79658
 Alpha virt. eigenvalues --    1.80481   1.80943   1.83350   1.83658   1.85455
 Alpha virt. eigenvalues --    1.85930   1.87607   1.89759   1.90474   1.92128
 Alpha virt. eigenvalues --    1.92236   1.92987   1.94231   1.96146   1.96972
 Alpha virt. eigenvalues --    1.97463   1.98521   1.99535   2.00256   2.00885
 Alpha virt. eigenvalues --    2.02919   2.03986   2.04786   2.06188   2.07480
 Alpha virt. eigenvalues --    2.08509   2.09361   2.10698   2.11298   2.11872
 Alpha virt. eigenvalues --    2.12512   2.13780   2.15234   2.15688   2.16966
 Alpha virt. eigenvalues --    2.17765   2.18425   2.18697   2.19831   2.20118
 Alpha virt. eigenvalues --    2.21637   2.22857   2.23371   2.25800   2.26358
 Alpha virt. eigenvalues --    2.27619   2.29045   2.29620   2.30497   2.31221
 Alpha virt. eigenvalues --    2.32139   2.33197   2.34226   2.34526   2.37438
 Alpha virt. eigenvalues --    2.38027   2.39358   2.39888   2.41690   2.42107
 Alpha virt. eigenvalues --    2.43086   2.43180   2.44500   2.44934   2.46099
 Alpha virt. eigenvalues --    2.47735   2.48879   2.49248   2.49803   2.51027
 Alpha virt. eigenvalues --    2.52594   2.53467   2.54578   2.55711   2.56015
 Alpha virt. eigenvalues --    2.56609   2.57868   2.58346   2.59250   2.59543
 Alpha virt. eigenvalues --    2.59962   2.61498   2.61763   2.62790   2.63388
 Alpha virt. eigenvalues --    2.64138   2.65897   2.66174   2.66712   2.67156
 Alpha virt. eigenvalues --    2.67882   2.68706   2.69645   2.70025   2.70546
 Alpha virt. eigenvalues --    2.71784   2.72972   2.73610   2.74625   2.75699
 Alpha virt. eigenvalues --    2.76384   2.77105   2.78001   2.78918   2.79833
 Alpha virt. eigenvalues --    2.80439   2.80889   2.82032   2.82901   2.85055
 Alpha virt. eigenvalues --    2.85338   2.85904   2.86904   2.88300   2.88878
 Alpha virt. eigenvalues --    2.90151   2.90648   2.91222   2.92650   2.92816
 Alpha virt. eigenvalues --    2.93580   2.94270   2.94894   2.96680   2.98654
 Alpha virt. eigenvalues --    2.98966   3.00227   3.00743   3.02713   3.03117
 Alpha virt. eigenvalues --    3.04106   3.05861   3.06827   3.08055   3.08451
 Alpha virt. eigenvalues --    3.09176   3.09420   3.10786   3.11898   3.12275
 Alpha virt. eigenvalues --    3.13143   3.14544   3.14960   3.16351   3.17446
 Alpha virt. eigenvalues --    3.17847   3.18466   3.19229   3.20531   3.20840
 Alpha virt. eigenvalues --    3.21809   3.22021   3.23513   3.23916   3.25265
 Alpha virt. eigenvalues --    3.25953   3.26499   3.26992   3.29009   3.29966
 Alpha virt. eigenvalues --    3.30540   3.31281   3.32722   3.33349   3.33769
 Alpha virt. eigenvalues --    3.35037   3.35533   3.36321   3.36975   3.38678
 Alpha virt. eigenvalues --    3.39758   3.40614   3.40821   3.42440   3.42858
 Alpha virt. eigenvalues --    3.43493   3.44297   3.44896   3.46769   3.46978
 Alpha virt. eigenvalues --    3.48039   3.48723   3.49162   3.50232   3.51407
 Alpha virt. eigenvalues --    3.52616   3.53223   3.54267   3.54560   3.55980
 Alpha virt. eigenvalues --    3.57189   3.57485   3.58215   3.59344   3.60671
 Alpha virt. eigenvalues --    3.61667   3.62309   3.62404   3.63369   3.64561
 Alpha virt. eigenvalues --    3.65756   3.67225   3.68438   3.69646   3.71056
 Alpha virt. eigenvalues --    3.73556   3.74331   3.75720   3.77007   3.78027
 Alpha virt. eigenvalues --    3.80656   3.82390   3.84008   3.86072   3.86908
 Alpha virt. eigenvalues --    3.89546   3.89806   3.90752   3.93227   3.93588
 Alpha virt. eigenvalues --    3.95266   3.97573   3.98228   3.99014   4.00762
 Alpha virt. eigenvalues --    4.02688   4.03171   4.04341   4.05516   4.05986
 Alpha virt. eigenvalues --    4.06658   4.08241   4.09059   4.12509   4.12987
 Alpha virt. eigenvalues --    4.14220   4.15044   4.16167   4.17502   4.18012
 Alpha virt. eigenvalues --    4.19708   4.20161   4.22965   4.23923   4.24995
 Alpha virt. eigenvalues --    4.26212   4.29331   4.31255   4.32598   4.34403
 Alpha virt. eigenvalues --    4.36083   4.36939   4.37398   4.39709   4.41018
 Alpha virt. eigenvalues --    4.44483   4.47377   4.47549   4.49164   4.51081
 Alpha virt. eigenvalues --    4.52845   4.54814   4.55873   4.57995   4.60540
 Alpha virt. eigenvalues --    4.62623   4.64142   4.64754   4.65530   4.71241
 Alpha virt. eigenvalues --    4.72788   4.75547   4.77449   4.79424   4.83438
 Alpha virt. eigenvalues --    4.85291   4.88820   4.91798   4.94444   4.97086
 Alpha virt. eigenvalues --    5.01823   5.03459   5.08851   5.09935   5.12756
 Alpha virt. eigenvalues --    5.17381   5.23304   5.27875   5.29060   5.29965
 Alpha virt. eigenvalues --    5.33204   5.36586   5.39903   5.41336   5.43609
 Alpha virt. eigenvalues --    5.47473   5.53336   5.60423   5.63282   5.66180
 Alpha virt. eigenvalues --    5.72627   5.75414   5.88044   5.88629   6.26127
 Alpha virt. eigenvalues --    6.46627   6.68390   6.73572   6.90310   6.90576
 Alpha virt. eigenvalues --    6.91105   6.92294   6.97906   6.99588   7.00559
 Alpha virt. eigenvalues --    7.08351   7.09893   7.14045   7.21498   7.24229
 Alpha virt. eigenvalues --    7.35973   7.39230   7.53457   7.55634   8.35767
 Alpha virt. eigenvalues --    8.37269   8.53030   8.55453   8.74089   8.75124
 Alpha virt. eigenvalues --    8.96289   8.96849   9.00312   9.04411  22.20808
 Alpha virt. eigenvalues --   22.44202  22.49233  22.54223  22.62656  22.64732
 Alpha virt. eigenvalues --   22.74045  22.74304  22.75884  22.79081  22.93741
 Alpha virt. eigenvalues --   23.02521  23.47628  32.62604  43.97966  57.47364
 Alpha virt. eigenvalues --   57.56113
          Condensed to atoms (all electrons):
               1          2          3          4          5          6
     1  C    5.155124   0.136205  -0.028204   0.024413  -0.000781  -0.000026
     2  C    0.136205   5.528779   0.095026  -0.054203   0.008364  -0.000229
     3  C   -0.028204   0.095026   5.543385   0.104348  -0.029915   0.009709
     4  C    0.024413  -0.054203   0.104348   5.560385   0.204067  -0.084363
     5  C   -0.000781   0.008364  -0.029915   0.204067   4.973834   0.261571
     6  O   -0.000026  -0.000229   0.009709  -0.084363   0.261571   8.096797
     7  N    0.017630  -0.065824   0.184928  -0.064191  -0.029786   0.000724
     8  C    0.003324  -0.004513  -0.034558   0.000446   0.002531   0.000005
     9  C    0.000006   0.000016  -0.000049  -0.000002  -0.000005   0.000000
    10  C    0.000061  -0.000268   0.000378   0.000013   0.000021   0.000000
    11  C    0.002678  -0.004219   0.004524   0.000414   0.000110  -0.000002
    12  C   -0.006024   0.011994   0.001713  -0.000179  -0.000265  -0.000002
    13  C   -0.000601   0.002425  -0.004630  -0.000143  -0.000532   0.000003
    14  C   -0.000003  -0.000003  -0.000007  -0.000003   0.000020   0.000000
    15  H    0.000000   0.000000   0.000000   0.000000   0.000000   0.000000
    16  H   -0.000006   0.000001  -0.000002   0.000000   0.000000   0.000000
    17  H    0.000000   0.000000   0.000000   0.000000   0.000000   0.000000
    18  F   -0.002226  -0.000683  -0.000039   0.000021   0.000018   0.000000
    19  F   -0.000003   0.000038  -0.000027  -0.000007  -0.000011   0.000000
    20  H    0.417507  -0.054872   0.007481  -0.008010  -0.000113   0.000000
    21  H    0.414542  -0.039653   0.009823  -0.000927   0.000023  -0.000001
    22  H    0.411141  -0.037006  -0.011584   0.013689   0.000651  -0.000009
    23  H   -0.030541   0.407679  -0.024225  -0.019600  -0.001396  -0.000009
    24  H   -0.045914   0.438839  -0.055695   0.011048  -0.000162   0.000004
    25  H    0.001564  -0.021614   0.014070   0.391245  -0.047637   0.011671
    26  H   -0.000327   0.001100  -0.002938  -0.067949   0.454659  -0.041725
    27  H   -0.000112   0.000489   0.002599  -0.037229   0.417956  -0.049980
    28  H   -0.000006   0.000092  -0.002294   0.017737  -0.046146   0.303910
    29  H    0.001665  -0.012395   0.012806   0.001371   0.000193  -0.000006
    30  H   -0.009365   0.032895  -0.019310  -0.001020  -0.000446   0.000002
    31  H    0.011675  -0.079404   0.441949  -0.003398  -0.014718  -0.000189
    32  C   -0.012350   0.033680  -0.068712   0.255832  -0.053346  -0.014061
    33  H    0.001460  -0.013250   0.011395  -0.047685  -0.006267  -0.000197
    34  H    0.000135  -0.001672   0.016561  -0.053965  -0.008053   0.015413
    35  H   -0.003759   0.014184  -0.026641  -0.028525   0.009246   0.000361
    36  H    0.008710  -0.020128  -0.035900   0.003881  -0.001317  -0.000112
               7          8          9         10         11         12
     1  C    0.017630   0.003324   0.000006   0.000061   0.002678  -0.006024
     2  C   -0.065824  -0.004513   0.000016  -0.000268  -0.004219   0.011994
     3  C    0.184928  -0.034558  -0.000049   0.000378   0.004524   0.001713
     4  C   -0.064191   0.000446  -0.000002   0.000013   0.000414  -0.000179
     5  C   -0.029786   0.002531  -0.000005   0.000021   0.000110  -0.000265
     6  O    0.000724   0.000005   0.000000   0.000000  -0.000002  -0.000002
     7  N    6.897240   0.213761   0.000660  -0.000778  -0.004050  -0.051188
     8  C    0.213761   5.182022  -0.006204   0.011565  -0.059960   0.253746
     9  C    0.000660  -0.006204   5.028054   0.431206  -0.026896  -0.081117
    10  C   -0.000778   0.011565   0.431206   5.064980   0.512788   0.004050
    11  C   -0.004050  -0.059960  -0.026896   0.512788   4.857335   0.280104
    12  C   -0.051188   0.253746  -0.081117   0.004050   0.280104   5.586740
    13  C    0.036045  -0.115098  -0.012694  -0.090663   0.017036   0.263069
    14  C   -0.000411   0.007729   0.423432  -0.024605  -0.074910   0.007903
    15  H    0.000000   0.000093   0.403431  -0.024949   0.002727  -0.000395
    16  H    0.000023  -0.000286  -0.029401   0.411106  -0.040305   0.012177
    17  H   -0.000005  -0.000286  -0.033767   0.004319  -0.000781   0.014468
    18  F   -0.003653   0.021022   0.008221  -0.046233   0.245252  -0.085117
    19  F   -0.000495   0.013251   0.010025  -0.000847   0.006368  -0.088056
    20  H    0.000212   0.007648  -0.000014   0.000140   0.000334  -0.003003
    21  H    0.000108  -0.000265   0.000000   0.000000  -0.000020   0.000047
    22  H   -0.000889  -0.000418   0.000000   0.000002  -0.000035   0.000187
    23  H    0.005126   0.000947   0.000000   0.000001   0.000043  -0.000214
    24  H   -0.000872  -0.002873  -0.000003   0.000030   0.000424   0.000739
    25  H   -0.012094   0.000074   0.000000   0.000005  -0.000053   0.000085
    26  H    0.024873  -0.002128   0.000018  -0.000071  -0.000125   0.000472
    27  H    0.000296   0.000078   0.000000   0.000000  -0.000020   0.000029
    28  H    0.000200  -0.000015   0.000000   0.000000   0.000000   0.000001
    29  H   -0.039995   0.427288  -0.000683   0.001123   0.016690  -0.020498
    30  H   -0.068959   0.399107   0.000745  -0.005171  -0.030941  -0.010030
    31  H   -0.040833  -0.009630  -0.000004   0.000026   0.000077  -0.000446
    32  C    0.011674  -0.000791   0.000000   0.000000   0.000009   0.000118
    33  H   -0.000355   0.000010   0.000000   0.000000   0.000000   0.000003
    34  H   -0.000506   0.000047   0.000000   0.000000   0.000000  -0.000004
    35  H    0.000059  -0.000042   0.000000   0.000000   0.000000   0.000001
    36  H    0.376597  -0.043624  -0.000141   0.000698   0.002531  -0.013283
              13         14         15         16         17         18
     1  C   -0.000601  -0.000003   0.000000  -0.000006   0.000000  -0.002226
     2  C    0.002425  -0.000003   0.000000   0.000001   0.000000  -0.000683
     3  C   -0.004630  -0.000007   0.000000  -0.000002   0.000000  -0.000039
     4  C   -0.000143  -0.000003   0.000000   0.000000   0.000000   0.000021
     5  C   -0.000532   0.000020   0.000000   0.000000   0.000000   0.000018
     6  O    0.000003   0.000000   0.000000   0.000000   0.000000   0.000000
     7  N    0.036045  -0.000411   0.000000   0.000023  -0.000005  -0.003653
     8  C   -0.115098   0.007729   0.000093  -0.000286  -0.000286   0.021022
     9  C   -0.012694   0.423432   0.403431  -0.029401  -0.033767   0.008221
    10  C   -0.090663  -0.024605  -0.024949   0.411106   0.004319  -0.046233
    11  C    0.017036  -0.074910   0.002727  -0.040305  -0.000781   0.245252
    12  C    0.263069   0.007903  -0.000395   0.012177   0.014468  -0.085117
    13  C    4.873170   0.523184   0.001741  -0.000390  -0.041859   0.003980
    14  C    0.523184   5.049421  -0.024303   0.003507   0.413229  -0.000412
    15  H    0.001741  -0.024303   0.476111  -0.003169  -0.003354  -0.000111
    16  H   -0.000390   0.003507  -0.003169   0.471438  -0.000151   0.001946
    17  H   -0.041859   0.413229  -0.003354  -0.000151   0.475243   0.000012
    18  F    0.003980  -0.000412  -0.000111   0.001946   0.000012   9.063629
    19  F    0.259839  -0.048968  -0.000106   0.000010   0.001610  -0.000032
    20  H   -0.000237   0.000006   0.000000   0.000006   0.000000   0.003760
    21  H    0.000002   0.000000   0.000000   0.000000   0.000000   0.000027
    22  H    0.000007   0.000000   0.000000   0.000000   0.000000   0.000066
    23  H   -0.000028   0.000000   0.000000   0.000000   0.000000  -0.000007
    24  H   -0.000187   0.000006   0.000000   0.000000   0.000000   0.000089
    25  H   -0.000001   0.000000   0.000000   0.000000   0.000000  -0.000055
    26  H    0.000940  -0.000038   0.000000   0.000000   0.000000  -0.000008
    27  H    0.000058   0.000000   0.000000   0.000000   0.000000   0.000000
    28  H    0.000001   0.000000   0.000000   0.000000   0.000000   0.000000
    29  H   -0.043114   0.000263   0.000002   0.000004   0.000002   0.000646
    30  H    0.027157  -0.000720   0.000004  -0.000042   0.000004   0.000629
    31  H   -0.000553   0.000002   0.000000   0.000000   0.000000  -0.000025
    32  C   -0.000002   0.000000   0.000000   0.000000   0.000000  -0.000003
    33  H    0.000000   0.000000   0.000000   0.000000   0.000000   0.000000
    34  H    0.000000   0.000000   0.000000   0.000000   0.000000   0.000000
    35  H    0.000000   0.000000   0.000000   0.000000   0.000000   0.000000
    36  H   -0.001399   0.000190   0.000000   0.000030   0.000002   0.005246
              19         20         21         22         23         24
     1  C   -0.000003   0.417507   0.414542   0.411141  -0.030541  -0.045914
     2  C    0.000038  -0.054872  -0.039653  -0.037006   0.407679   0.438839
     3  C   -0.000027   0.007481   0.009823  -0.011584  -0.024225  -0.055695
     4  C   -0.000007  -0.008010  -0.000927   0.013689  -0.019600   0.011048
     5  C   -0.000011  -0.000113   0.000023   0.000651  -0.001396  -0.000162
     6  O    0.000000   0.000000  -0.000001  -0.000009  -0.000009   0.000004
     7  N   -0.000495   0.000212   0.000108  -0.000889   0.005126  -0.000872
     8  C    0.013251   0.007648  -0.000265  -0.000418   0.000947  -0.002873
     9  C    0.010025  -0.000014   0.000000   0.000000   0.000000  -0.000003
    10  C   -0.000847   0.000140   0.000000   0.000002   0.000001   0.000030
    11  C    0.006368   0.000334  -0.000020  -0.000035   0.000043   0.000424
    12  C   -0.088056  -0.003003   0.000047   0.000187  -0.000214   0.000739
    13  C    0.259839  -0.000237   0.000002   0.000007  -0.000028  -0.000187
    14  C   -0.048968   0.000006   0.000000   0.000000   0.000000   0.000006
    15  H   -0.000106   0.000000   0.000000   0.000000   0.000000   0.000000
    16  H    0.000010   0.000006   0.000000   0.000000   0.000000   0.000000
    17  H    0.001610   0.000000   0.000000   0.000000   0.000000   0.000000
    18  F   -0.000032   0.003760   0.000027   0.000066  -0.000007   0.000089
    19  F    9.054814   0.000001   0.000000   0.000000   0.000000   0.000000
    20  H    0.000001   0.533965  -0.021237  -0.029802   0.005714  -0.001993
    21  H    0.000000  -0.021237   0.514551  -0.022204  -0.004473  -0.004962
    22  H    0.000000  -0.029802  -0.022204   0.527837  -0.002724   0.005758
    23  H    0.000000   0.005714  -0.004473  -0.002724   0.518469  -0.016180
    24  H    0.000000  -0.001993  -0.004962   0.005758  -0.016180   0.521584
    25  H    0.000000   0.000830  -0.000086  -0.005933   0.001674  -0.000452
    26  H    0.000071  -0.000030   0.000002  -0.000019  -0.000105  -0.000106
    27  H   -0.000002   0.000004  -0.000002  -0.000024  -0.000016  -0.000019
    28  H    0.000000   0.000000   0.000000   0.000001   0.000000  -0.000001
    29  H    0.007714   0.000162  -0.000005  -0.000020   0.000241   0.001134
    30  H    0.000136  -0.001820  -0.000014   0.000090  -0.000757  -0.009384
    31  H   -0.000048  -0.000187  -0.000289  -0.000317   0.001216  -0.003853
    32  C    0.000000   0.000565   0.000621  -0.002980  -0.000490  -0.001003
    33  H    0.000000  -0.000023  -0.000024  -0.000054   0.000176  -0.000248
    34  H    0.000000   0.000017  -0.000007   0.000006   0.000726   0.000015
    35  H    0.000000  -0.000046   0.000077   0.001377  -0.009566   0.000647
    36  H   -0.000052  -0.002381   0.000092  -0.000324  -0.000121   0.000549
              25         26         27         28         29         30
     1  C    0.001564  -0.000327  -0.000112  -0.000006   0.001665  -0.009365
     2  C   -0.021614   0.001100   0.000489   0.000092  -0.012395   0.032895
     3  C    0.014070  -0.002938   0.002599  -0.002294   0.012806  -0.019310
     4  C    0.391245  -0.067949  -0.037229   0.017737   0.001371  -0.001020
     5  C   -0.047637   0.454659   0.417956  -0.046146   0.000193  -0.000446
     6  O    0.011671  -0.041725  -0.049980   0.303910  -0.000006   0.000002
     7  N   -0.012094   0.024873   0.000296   0.000200  -0.039995  -0.068959
     8  C    0.000074  -0.002128   0.000078  -0.000015   0.427288   0.399107
     9  C    0.000000   0.000018   0.000000   0.000000  -0.000683   0.000745
    10  C    0.000005  -0.000071   0.000000   0.000000   0.001123  -0.005171
    11  C   -0.000053  -0.000125  -0.000020   0.000000   0.016690  -0.030941
    12  C    0.000085   0.000472   0.000029   0.000001  -0.020498  -0.010030
    13  C   -0.000001   0.000940   0.000058   0.000001  -0.043114   0.027157
    14  C    0.000000  -0.000038   0.000000   0.000000   0.000263  -0.000720
    15  H    0.000000   0.000000   0.000000   0.000000   0.000002   0.000004
    16  H    0.000000   0.000000   0.000000   0.000000   0.000004  -0.000042
    17  H    0.000000   0.000000   0.000000   0.000000   0.000002   0.000004
    18  F   -0.000055  -0.000008   0.000000   0.000000   0.000646   0.000629
    19  F    0.000000   0.000071  -0.000002   0.000000   0.007714   0.000136
    20  H    0.000830  -0.000030   0.000004   0.000000   0.000162  -0.001820
    21  H   -0.000086   0.000002  -0.000002   0.000000  -0.000005  -0.000014
    22  H   -0.005933  -0.000019  -0.000024   0.000001  -0.000020   0.000090
    23  H    0.001674  -0.000105  -0.000016   0.000000   0.000241  -0.000757
    24  H   -0.000452  -0.000106  -0.000019  -0.000001   0.001134  -0.009384
    25  H    0.565724  -0.011645   0.012998  -0.000797  -0.000046   0.000084
    26  H   -0.011645   0.550665  -0.050615  -0.003240  -0.000372   0.000397
    27  H    0.012998  -0.050615   0.597138  -0.004904  -0.000158   0.000067
    28  H   -0.000797  -0.003240  -0.004904   0.401146  -0.000001   0.000000
    29  H   -0.000046  -0.000372  -0.000158  -0.000001   0.517216  -0.040835
    30  H    0.000084   0.000397   0.000067   0.000000  -0.040835   0.569796
    31  H    0.007292  -0.002773   0.007323  -0.000058   0.002280  -0.002114
    32  C   -0.058346   0.009569  -0.026401   0.001459   0.000026   0.000112
    33  H    0.008246  -0.000126   0.005589  -0.000101  -0.000002   0.000002
    34  H   -0.001862   0.000752  -0.000212  -0.001341   0.000002  -0.000003
    35  H   -0.006900  -0.000160  -0.000268   0.000024  -0.000001  -0.000006
    36  H    0.001700  -0.000216   0.000029   0.000009   0.005663  -0.006115
              31         32         33         34         35         36
     1  C    0.011675  -0.012350   0.001460   0.000135  -0.003759   0.008710
     2  C   -0.079404   0.033680  -0.013250  -0.001672   0.014184  -0.020128
     3  C    0.441949  -0.068712   0.011395   0.016561  -0.026641  -0.035900
     4  C   -0.003398   0.255832  -0.047685  -0.053965  -0.028525   0.003881
     5  C   -0.014718  -0.053346  -0.006267  -0.008053   0.009246  -0.001317
     6  O   -0.000189  -0.014061  -0.000197   0.015413   0.000361  -0.000112
     7  N   -0.040833   0.011674  -0.000355  -0.000506   0.000059   0.376597
     8  C   -0.009630  -0.000791   0.000010   0.000047  -0.000042  -0.043624
     9  C   -0.000004   0.000000   0.000000   0.000000   0.000000  -0.000141
    10  C    0.000026   0.000000   0.000000   0.000000   0.000000   0.000698
    11  C    0.000077   0.000009   0.000000   0.000000   0.000000   0.002531
    12  C   -0.000446   0.000118   0.000003  -0.000004   0.000001  -0.013283
    13  C   -0.000553  -0.000002   0.000000   0.000000   0.000000  -0.001399
    14  C    0.000002   0.000000   0.000000   0.000000   0.000000   0.000190
    15  H    0.000000   0.000000   0.000000   0.000000   0.000000   0.000000
    16  H    0.000000   0.000000   0.000000   0.000000   0.000000   0.000030
    17  H    0.000000   0.000000   0.000000   0.000000   0.000000   0.000002
    18  F   -0.000025  -0.000003   0.000000   0.000000   0.000000   0.005246
    19  F   -0.000048   0.000000   0.000000   0.000000   0.000000  -0.000052
    20  H   -0.000187   0.000565  -0.000023   0.000017  -0.000046  -0.002381
    21  H   -0.000289   0.000621  -0.000024  -0.000007   0.000077   0.000092
    22  H   -0.000317  -0.002980  -0.000054   0.000006   0.001377  -0.000324
    23  H    0.001216  -0.000490   0.000176   0.000726  -0.009566  -0.000121
    24  H   -0.003853  -0.001003  -0.000248   0.000015   0.000647   0.000549
    25  H    0.007292  -0.058346   0.008246  -0.001862  -0.006900   0.001700
    26  H   -0.002773   0.009569  -0.000126   0.000752  -0.000160  -0.000216
    27  H    0.007323  -0.026401   0.005589  -0.000212  -0.000268   0.000029
    28  H   -0.000058   0.001459  -0.000101  -0.001341   0.000024   0.000009
    29  H    0.002280   0.000026  -0.000002   0.000002  -0.000001   0.005663
    30  H   -0.002114   0.000112   0.000002  -0.000003  -0.000006  -0.006115
    31  H    0.519284  -0.010873   0.003794  -0.000103   0.000199   0.006561
    32  C   -0.010873   5.177881   0.406493   0.417453   0.417258   0.000118
    33  H    0.003794   0.406493   0.526302  -0.020601  -0.027382   0.000001
    34  H   -0.000103   0.417453  -0.020601   0.494379  -0.021304  -0.000028
    35  H    0.000199   0.417258  -0.027382  -0.021304   0.526325   0.000045
    36  H    0.006561   0.000118   0.000001  -0.000028   0.000045   0.474485
 Mulliken charges:
               1
     1  C   -0.467591
     2  C   -0.301869
     3  C   -0.115966
     4  C   -0.117510
     5  C   -0.092366
     6  O   -0.509261
     7  N   -0.385271
     8  C   -0.264003
     9  C   -0.114832
    10  C   -0.248923
    11  C    0.292875
    12  C   -0.077826
    13  C    0.303473
    14  C   -0.254509
    15  H    0.172278
    16  H    0.173503
    17  H    0.171314
    18  F   -0.215960
    19  F   -0.215227
    20  H    0.145417
    21  H    0.154254
    22  H    0.153529
    23  H    0.168437
    24  H    0.163042
    25  H    0.150259
    26  H    0.141197
    27  H    0.125310
    28  H    0.334325
    29  H    0.161643
    30  H    0.175822
    31  H    0.168136
    32  C   -0.483509
    33  H    0.152847
    34  H    0.164155
    35  H    0.154796
    36  H    0.238007
 Sum of Mulliken charges =   0.00000
 Mulliken charges with hydrogens summed into heavy atoms:
               1
     1  C   -0.014390
     2  C    0.029611
     3  C    0.052170
     4  C    0.032749
     5  C    0.174141
     6  O   -0.174936
     7  N   -0.147263
     8  C    0.073462
     9  C    0.057446
    10  C   -0.075420
    11  C    0.292875
    12  C   -0.077826
    13  C    0.303473
    14  C   -0.083195
    18  F   -0.215960
    19  F   -0.215227
    32  C   -0.011711
 Electronic spatial extent (au):  <R**2>=           5380.2193
 Charge=              0.0000 electrons
 Dipole moment (field-independent basis, Debye):
    X=             -2.3697    Y=             -0.0114    Z=              0.4635  Tot=              2.4146
 Quadrupole moment (field-independent basis, Debye-Ang):
   XX=            -96.6800   YY=            -98.1282   ZZ=           -103.9223
   XY=              2.0217   XZ=             10.2794   YZ=              1.4807
 Traceless Quadrupole moment (field-independent basis, Debye-Ang):
   XX=              2.8968   YY=              1.4486   ZZ=             -4.3455
   XY=              2.0217   XZ=             10.2794   YZ=              1.4807
 Octapole moment (field-independent basis, Debye-Ang**2):
  XXX=           -118.1632  YYY=            -44.8812  ZZZ=              1.0242  XYY=             16.7661
  XXY=             -9.9617  XXZ=             -9.0103  XZZ=            -12.0742  YZZ=              3.3601
  YYZ=            -10.2158  XYZ=             -0.1164
 Hexadecapole moment (field-independent basis, Debye-Ang**3):
 XXXX=          -4934.6785 YYYY=          -1230.2024 ZZZZ=           -638.9052 XXXY=            115.9497
 XXXZ=            179.9586 YYYX=           -110.0905 YYYZ=             49.8849 ZZZX=              2.6288
 ZZZY=            -26.6059 XXYY=          -1000.0244 XXZZ=           -964.3448 YYZZ=           -320.9704
 XXYZ=            -39.8064 YYXZ=            -30.7524 ZZXY=            -29.5982
 N-N= 1.256179891143D+03 E-N=-4.468792629363D+03  KE= 8.321532813145D+02
 1\1\GINC-CPU-E-160\SP\RM062X\def2TZVP\C13H19F2N1O1\KE291\26-Jun-2019\0
 \\# m062x/def2tzvp int=ultrafine scrf=(solvent=chloroform)\\AT3_1ginp0
 14\\0,1\C,0,2.079056,2.744735,-0.023581\C,0,2.192719,1.715026,1.107209
 \C,0,1.894333,0.2503,0.695872\C,0,2.926563,-0.344448,-0.297774\C,0,2.6
 65678,-1.840539,-0.505932\O,0,3.511112,-2.305604,-1.561844\N,0,0.54242
 3,0.045568,0.142115\C,0,-0.562883,0.370069,1.050448\C,0,-4.376699,-0.3
 78435,-0.87859\C,0,-3.612654,0.730231,-1.24874\C,0,-2.399686,0.932898,
 -0.605331\C,0,-1.895521,0.096572,0.392247\C,0,-2.699377,-0.997662,0.71
 4483\C,0,-3.925107,-1.253493,0.109448\H,0,-5.329333,-0.561221,-1.36448
 6\H,0,-3.938233,1.424151,-2.014907\H,0,-4.499964,-2.120578,0.413488\F,
 0,-1.643425,2.003612,-0.964314\F,0,-2.267821,-1.847871,1.674676\H,0,1.
 070162,2.765575,-0.450168\H,0,2.293165,3.75119,0.349514\H,0,2.7815,2.5
 40508,-0.838705\H,0,3.191269,1.763236,1.554258\H,0,1.502581,1.994834,1
 .912089\H,0,2.777029,0.136113,-1.276056\H,0,1.60852,-1.995709,-0.74656
 8\H,0,2.880267,-2.379861,0.432482\H,0,3.33335,-3.247241,-1.681687\H,0,
 -0.469178,-0.258213,1.940395\H,0,-0.560796,1.416856,1.39403\H,0,1.9420
 74,-0.353027,1.615736\C,0,4.383265,-0.116533,0.13215\H,0,4.5494,-0.471
 682,1.157011\H,0,5.052069,-0.673643,-0.528022\H,0,4.670073,0.937502,0.
 090661\H,0,0.443267,0.603053,-0.703829\\Version=ES64L-G09RevD.01\State
 =1-A\HF=-836.4563408\RMSD=7.973e-09\Dipole=-0.9323021,-0.0044948,0.182
 3597\Quadrupole=2.153735,1.0770206,-3.2307556,1.5030675,7.6424959,1.10
 08324\PG=C01 [X(C13H19F2N1O1)]\\@


 FESTINA LENTE!
     - IMPERATOR AUGUSTUS 
 Job cpu time:       0 days  1 hours 17 minutes  4.9 seconds.
 File lengths (MBytes):  RWF=    317 Int=      0 D2E=      0 Chk=     17 Scr=      1
 Normal termination of Gaussian 09 at Wed Jun 26 12:22:20 2019.
