 Entering Gaussian System, Link 0=/usr/local/Cluster-Apps/gaussian/g09/g09
 Initial command:
 /usr/local/Cluster-Apps/gaussian/g09/l1.exe "/home/ke291/rds/hpc-work/26Jun1158AT3NMR/Gau-272936.inp" -scrdir="/home/ke291/rds/hpc-work/26Jun1158AT3NMR/"
 Entering Link 1 = /usr/local/Cluster-Apps/gaussian/g09/l1.exe PID=    272942.
  
 Copyright (c) 1988,1990,1992,1993,1995,1998,2003,2009,2013,
            Gaussian, Inc.  All Rights Reserved.
  
 This is part of the Gaussian(R) 09 program.  It is based on
 the Gaussian(R) 03 system (copyright 2003, Gaussian, Inc.),
 the Gaussian(R) 98 system (copyright 1998, Gaussian, Inc.),
 the Gaussian(R) 94 system (copyright 1995, Gaussian, Inc.),
 the Gaussian 92(TM) system (copyright 1992, Gaussian, Inc.),
 the Gaussian 90(TM) system (copyright 1990, Gaussian, Inc.),
 the Gaussian 88(TM) system (copyright 1988, Gaussian, Inc.),
 the Gaussian 86(TM) system (copyright 1986, Carnegie Mellon
 University), and the Gaussian 82(TM) system (copyright 1983,
 Carnegie Mellon University). Gaussian is a federally registered
 trademark of Gaussian, Inc.
  
 This software contains proprietary and confidential information,
 including trade secrets, belonging to Gaussian, Inc.
  
 This software is provided under written license and may be
 used, copied, transmitted, or stored only in accord with that
 written license.
  
 The following legend is applicable only to US Government
 contracts under FAR:
  
                    RESTRICTED RIGHTS LEGEND
  
 Use, reproduction and disclosure by the US Government is
 subject to restrictions as set forth in subparagraphs (a)
 and (c) of the Commercial Computer Software - Restricted
 Rights clause in FAR 52.227-19.
  
 Gaussian, Inc.
 340 Quinnipiac St., Bldg. 40, Wallingford CT 06492
  
  
 ---------------------------------------------------------------
 Warning -- This program may not be used in any manner that
 competes with the business of Gaussian, Inc. or will provide
 assistance to any competitor of Gaussian, Inc.  The licensee
 of this program is prohibited from giving any competitor of
 Gaussian, Inc. access to this program.  By using this program,
 the user acknowledges that Gaussian, Inc. is engaged in the
 business of creating and licensing software in the field of
 computational chemistry and represents and warrants to the
 licensee that it is not a competitor of Gaussian, Inc. and that
 it will not use this program in any manner prohibited above.
 ---------------------------------------------------------------
  

 Cite this work as:
 Gaussian 09, Revision D.01,
 M. J. Frisch, G. W. Trucks, H. B. Schlegel, G. E. Scuseria, 
 M. A. Robb, J. R. Cheeseman, G. Scalmani, V. Barone, B. Mennucci, 
 G. A. Petersson, H. Nakatsuji, M. Caricato, X. Li, H. P. Hratchian, 
 A. F. Izmaylov, J. Bloino, G. Zheng, J. L. Sonnenberg, M. Hada, 
 M. Ehara, K. Toyota, R. Fukuda, J. Hasegawa, M. Ishida, T. Nakajima, 
 Y. Honda, O. Kitao, H. Nakai, T. Vreven, J. A. Montgomery, Jr., 
 J. E. Peralta, F. Ogliaro, M. Bearpark, J. J. Heyd, E. Brothers, 
 K. N. Kudin, V. N. Staroverov, T. Keith, R. Kobayashi, J. Normand, 
 K. Raghavachari, A. Rendell, J. C. Burant, S. S. Iyengar, J. Tomasi, 
 M. Cossi, N. Rega, J. M. Millam, M. Klene, J. E. Knox, J. B. Cross, 
 V. Bakken, C. Adamo, J. Jaramillo, R. Gomperts, R. E. Stratmann, 
 O. Yazyev, A. J. Austin, R. Cammi, C. Pomelli, J. W. Ochterski, 
 R. L. Martin, K. Morokuma, V. G. Zakrzewski, G. A. Voth, 
 P. Salvador, J. J. Dannenberg, S. Dapprich, A. D. Daniels, 
 O. Farkas, J. B. Foresman, J. V. Ortiz, J. Cioslowski, 
 and D. J. Fox, Gaussian, Inc., Wallingford CT, 2013.
 
 ******************************************
 Gaussian 09:  ES64L-G09RevD.01 24-Apr-2013
                26-Jun-2019 
 ******************************************
 %nprocshared=4
 Will use up to    4 processors via shared memory.
 %mem=6000MB
 %chk=AT3_1ginp020.chk
 --------------------------------------------------------
 # m062x/def2tzvp int=ultrafine scrf=(solvent=chloroform)
 --------------------------------------------------------
 1/38=1/1;
 2/12=2,17=6,18=5,40=1/2;
 3/5=44,7=101,11=2,16=1,25=1,30=1,70=2201,72=7,74=-55,75=-5/1,2,3;
 4//1;
 5/5=2,38=5,53=7/2;
 6/7=2,8=2,9=2,10=2,28=1/1;
 99/5=1,9=1/99;
 ------------
 AT3_1ginp020
 ------------
 Symbolic Z-matrix:
 Charge =  0 Multiplicity = 1
 C                     2.08406  -2.13198   2.1098 
 C                     2.53937  -0.76339   1.59499 
 C                     1.89879  -0.38002   0.24677 
 C                     2.58352   0.8334   -0.45538 
 C                     4.01559   0.52803  -0.90411 
 O                     3.99955  -0.61494  -1.75834 
 N                     0.45103  -0.21194   0.46125 
 C                    -0.36886  -0.13897  -0.75204 
 C                    -4.564     0.28292   0.27884 
 C                    -4.10401  -0.92742  -0.23991 
 C                    -2.75598  -1.04407  -0.56214 
 C                    -1.83386  -0.00898  -0.40192 
 C                    -2.3541    1.17474   0.12449 
 C                    -3.68683   1.35283   0.4684 
 H                    -5.61149   0.39365   0.53871 
 H                    -4.76478  -1.77242  -0.39525 
 H                    -4.01625   2.30303   0.87245 
 F                    -2.31774  -2.21994  -1.06798 
 F                    -1.48958   2.20634   0.31457 
 H                     2.50904  -2.34656   3.09598 
 H                     0.99446  -2.16867   2.18568 
 H                     2.39959  -2.93145   1.42945 
 H                     2.29726   0.00654   2.34007 
 H                     3.63084  -0.75856   1.49672 
 H                     2.02054   1.01892  -1.37998 
 H                     4.66399   0.35856  -0.03077 
 H                     4.41629   1.40613  -1.43472 
 H                     4.91314  -0.81932  -1.99586 
 H                    -0.10433   0.69718  -1.41987 
 H                    -0.21866  -1.05982  -1.32154 
 H                     2.01353  -1.23344  -0.43286 
 C                     2.55419   2.12526   0.37513 
 H                     1.53107   2.39753   0.65373 
 H                     3.14031   2.03391   1.29593 
 H                     2.96506   2.96398  -0.19671 
 H                     0.28544   0.62223   1.02002 
 
                          Input orientation:                          
 ---------------------------------------------------------------------
 Center     Atomic      Atomic             Coordinates (Angstroms)
 Number     Number       Type             X           Y           Z
 ---------------------------------------------------------------------
      1          6           0        2.084061   -2.131983    2.109801
      2          6           0        2.539365   -0.763391    1.594988
      3          6           0        1.898793   -0.380018    0.246767
      4          6           0        2.583517    0.833399   -0.455378
      5          6           0        4.015593    0.528030   -0.904113
      6          8           0        3.999547   -0.614943   -1.758336
      7          7           0        0.451026   -0.211938    0.461246
      8          6           0       -0.368858   -0.138971   -0.752038
      9          6           0       -4.564000    0.282920    0.278841
     10          6           0       -4.104012   -0.927419   -0.239913
     11          6           0       -2.755983   -1.044067   -0.562136
     12          6           0       -1.833862   -0.008982   -0.401916
     13          6           0       -2.354101    1.174740    0.124491
     14          6           0       -3.686834    1.352828    0.468398
     15          1           0       -5.611487    0.393645    0.538712
     16          1           0       -4.764777   -1.772421   -0.395248
     17          1           0       -4.016247    2.303028    0.872451
     18          9           0       -2.317737   -2.219939   -1.067982
     19          9           0       -1.489577    2.206337    0.314566
     20          1           0        2.509042   -2.346564    3.095981
     21          1           0        0.994455   -2.168674    2.185678
     22          1           0        2.399585   -2.931446    1.429452
     23          1           0        2.297258    0.006541    2.340066
     24          1           0        3.630838   -0.758561    1.496721
     25          1           0        2.020544    1.018924   -1.379979
     26          1           0        4.663988    0.358557   -0.030774
     27          1           0        4.416289    1.406132   -1.434724
     28          1           0        4.913137   -0.819321   -1.995861
     29          1           0       -0.104330    0.697176   -1.419872
     30          1           0       -0.218663   -1.059817   -1.321538
     31          1           0        2.013534   -1.233443   -0.432864
     32          6           0        2.554189    2.125264    0.375131
     33          1           0        1.531071    2.397533    0.653729
     34          1           0        3.140307    2.033913    1.295927
     35          1           0        2.965062    2.963982   -0.196706
     36          1           0        0.285439    0.622230    1.020024
 ---------------------------------------------------------------------
                    Distance matrix (angstroms):
                    1          2          3          4          5
     1  C    0.000000
     2  C    1.531463   0.000000
     3  C    2.564099   1.541106   0.000000
     4  C    3.952605   2.599171   1.560204   0.000000
     5  C    4.459839   3.176873   2.574863   1.531488   0.000000
     6  O    4.575257   3.660458   2.913554   2.408430   1.427004
     7  N    3.011828   2.439392   1.473188   2.545672   3.888174
     8  C    4.263687   3.788957   2.489569   3.122504   4.437502
     9  C    7.306222   7.299644   6.496785   7.206185   8.664230
    10  C    6.727881   6.894072   6.047328   6.918811   8.275716
    11  C    5.634610   5.724742   4.770977   5.660966   6.960077
    12  C    5.115269   4.866402   3.806727   4.497299   5.895482
    13  C    5.879894   5.464863   4.529827   4.983255   6.484540
    14  C    6.938396   6.671817   5.852444   6.359282   7.867113
    15  H    8.250368   8.300051   7.555666   8.266782   9.735526
    16  H    7.301448   7.637386   6.837700   7.796880   9.090980
    17  H    7.642913   7.273310   6.525175   6.890561   8.415299
    18  F    5.429721   5.727511   4.784663   5.806931   6.905741
    19  F    5.900405   5.166347   4.263201   4.366677   5.882924
    20  H    1.095082   2.181819   3.515356   4.767584   5.151091
    21  H    1.092861   2.170364   2.788636   4.302643   5.093751
    22  H    1.096162   2.178854   2.856453   4.214318   4.474928
    23  H    2.161425   1.098432   2.165665   2.929189   3.708008
    24  H    2.157469   1.095898   2.169253   2.727986   2.750883
    25  H    4.702214   3.506601   2.148992   1.098292   2.108944
    26  H    4.176227   2.901016   2.875557   2.175804   1.100844
    27  H    5.524600   4.172389   3.515043   2.155503   1.101439
    28  H    5.155891   4.304895   3.782676   3.245258   1.952653
    29  H    5.025116   4.267524   2.819669   2.858903   4.155524
    30  H    4.269211   4.025011   2.721273   3.490947   4.541412
    31  H    2.697683   2.147005   1.096995   2.144114   2.707970
    32  C    4.621066   3.135697   2.592771   1.536073   2.514622
    33  H    4.789829   3.448777   2.831188   2.187299   3.477753
    34  H    4.374098   2.876713   2.910182   2.195067   2.806062
    35  H    5.662596   4.157487   3.537787   2.179879   2.745524
    36  H    3.465306   2.707529   2.050692   2.739081   4.198241
                    6          7          8          9         10
     6  O    0.000000
     7  N    4.204873   0.000000
     8  C    4.508009   1.466149   0.000000
     9  C    8.848197   5.042682   4.340498   0.000000
    10  C    8.250510   4.663894   3.851662   1.394853   0.000000
    11  C    6.874026   3.467659   2.560005   2.395217   1.390905
    12  C    6.019612   2.450909   1.511860   2.828832   2.454252
    13  C    6.864171   3.147224   2.536795   2.388058   2.759357
    14  C    8.240808   4.423848   3.837173   1.396444   2.423895
    15  H    9.933059   6.093176   5.425392   1.084906   2.150337
    16  H    8.944895   5.511197   4.703144   2.172357   1.083867
    17  H    8.926844   5.143022   4.680360   2.175602   3.417725
    18  F    6.554440   3.746552   2.868515   3.622697   2.355225
    19  F    6.510532   3.104112   2.809649   3.626691   4.118634
    20  H    5.365120   3.966596   5.288008   8.054712   7.541528
    21  H    5.196143   2.664169   3.822106   6.367320   5.780880
    22  H    4.253006   3.482819   4.496787   7.755486   7.007116
    23  H    4.481175   2.643155   4.085395   7.169512   6.964541
    24  H    3.279019   3.388541   4.630159   8.350047   7.929206
    25  H    2.594056   2.714501   2.728419   6.830052   6.526729
    26  H    2.091328   4.279789   5.108551   9.233490   8.864271
    27  H    2.088814   4.683606   5.074548   9.211053   8.914514
    28  H    0.965834   5.129983   5.468953   9.808432   9.187166
    29  H    4.321808   2.161831   1.102324   4.790187   4.475385
    30  H    4.264036   2.084634   1.093090   4.821422   4.035267
    31  H    2.466509   2.069864   2.641123   6.787476   6.128234
    32  C    3.761579   3.145350   3.865420   7.353375   7.350428
    33  H    4.581096   2.830704   3.466953   6.462354   6.603640
    34  H    4.133189   3.601773   4.607583   7.965977   7.975491
    35  H    4.039499   4.103626   4.588217   8.006311   8.069490
    36  H    4.800467   1.017589   2.036599   4.917473   4.822461
                   11         12         13         14         15
    11  C    0.000000
    12  C    1.395485   0.000000
    13  C    2.357132   1.396048   0.000000
    14  C    2.770124   2.458755   1.387863   0.000000
    15  H    3.381240   3.913737   3.375241   2.151573   0.000000
    16  H    2.143270   3.420530   3.842817   3.416874   2.506201
    17  H    3.853485   3.425231   2.143643   1.083814   2.510362
    18  F    1.353002   2.359260   3.598216   4.123052   4.501230
    19  F    3.596876   2.353618   1.359310   2.362219   4.508463
    20  H    6.542080   6.046519   6.699216   7.679751   8.943789
    21  H    4.783410   4.399919   5.161370   6.104465   7.274369
    22  H    5.840249   5.460474   6.415701   7.504873   8.719342
    23  H    5.921300   4.958312   5.282859   6.412877   8.120528
    24  H    6.716538   5.833493   6.437403   7.685293   9.363009
    25  H    5.266879   4.107267   4.628739   6.008507   7.894317
    26  H    7.570051   6.518810   7.067095   8.424605  10.291304
    27  H    7.629310   6.491042   6.951466   8.323780  10.270145
    28  H    7.805221   6.979922   7.828469   9.205993  10.893257
    29  H    3.286168   2.127481   2.770306   4.102411   5.852945
    30  H    2.648572   2.135141   3.412380   4.588348   5.886903
    31  H    4.775025   4.037663   5.018588   6.324181   7.856992
    32  C    6.254683   4.941032   5.005759   6.289334   8.348864
    33  H    5.630433   4.269482   4.107296   5.324687   7.419227
    34  H    6.905983   5.639011   5.683217   6.910755   8.936316
    35  H    6.994880   5.648920   5.621214   6.876474   8.983577
    36  H    3.811827   2.629026   2.841552   4.076398   5.920950
                   16         17         18         19         20
    16  H    0.000000
    17  H    4.333202   0.000000
    18  F    2.576984   5.206481   0.000000
    19  F    5.202046   2.589333   4.710542   0.000000
    20  H    8.088681   8.315178   6.375925   6.667393   0.000000
    21  H    6.323523   6.843085   4.643226   5.367699   1.776027
    22  H    7.483378   8.298968   5.384844   6.539523   1.769572
    23  H    7.779395   6.876634   6.153875   4.825129   2.480597
    24  H    8.665668   8.260808   6.640698   6.033801   2.517501
    25  H    7.402829   6.570024   5.422938   4.074602   5.621331
    26  H    9.673444   8.941100   7.514581   6.434276   4.662410
    27  H    9.771166   8.788353   7.657023   6.211248   6.184465
    28  H    9.855576   9.884846   7.423492   7.448988   5.834295
    29  H    5.372944   4.810052   3.678662   2.684167   6.040447
    30  H    4.693929   5.526659   2.411698   3.867793   5.348885
    31  H    6.799810   7.111170   4.487366   4.966138   3.733271
    32  C    8.327827   6.591628   6.685733   4.045032   5.234721
    33  H    7.624078   5.552433   6.252892   3.045637   5.424710
    34  H    8.935245   7.174122   7.312562   4.735887   4.777789
    35  H    9.067709   7.093563   7.452525   4.547443   6.265113
    36  H    5.765590   4.620753   4.383403   2.481481   4.250617
                   21         22         23         24         25
    21  H    0.000000
    22  H    1.768640   0.000000
    23  H    2.540215   3.077573   0.000000
    24  H    3.068158   2.498387   1.753581   0.000000
    25  H    4.891579   4.862304   3.865259   3.745384   0.000000
    26  H    4.976447   4.252517   3.368413   2.156059   3.040433
    27  H    6.131517   5.575409   4.549526   3.727761   2.427452
    28  H    5.887452   4.744659   5.130802   3.721036   3.482176
    29  H    4.735020   5.249299   4.514614   4.957536   2.149466
    30  H    3.873214   4.233930   4.568842   4.780376   3.055917
    31  H    2.961409   2.549602   3.050770   2.562125   2.443406
    32  C    4.914138   5.167767   2.901029   3.276215   2.142236
    33  H    4.846140   5.454730   3.024503   3.883373   2.505218
    34  H    4.801882   5.022080   2.431295   2.842332   3.073198
    35  H    5.991928   6.141679   3.953180   4.143462   2.464853
    36  H    3.106541   4.155221   2.483747   3.650413   2.987971
                   26         27         28         29         30
    26  H    0.000000
    27  H    1.769136   0.000000
    28  H    2.304569   2.348270   0.000000
    29  H    4.978063   4.575897   5.273187   0.000000
    30  H    5.245773   5.251333   5.181498   1.763453   0.000000
    31  H    3.117859   3.707332   3.319963   3.030977   2.408857
    32  C    2.781594   2.694465   4.456099   3.511295   4.551059
    33  H    3.800150   3.697160   5.367201   3.140951   4.349312
    34  H    2.624606   3.078749   4.703163   4.437353   5.263551
    35  H    3.114823   2.462853   4.620101   4.006958   5.252838
    36  H    4.510587   4.868697   5.708697   2.471969   2.926827
                   31         32         33         34         35
    31  H    0.000000
    32  C    3.496581   0.000000
    33  H    3.820660   1.094768   0.000000
    34  H    3.864447   1.095329   1.770389   0.000000
    35  H    4.310401   1.095108   1.760805   1.767397   0.000000
    36  H    2.922451   2.796824   2.199425   3.196755   3.760933
                   36
    36  H    0.000000
 Stoichiometry    C13H19F2NO
 Framework group  C1[X(C13H19F2NO)]
 Deg. of freedom   102
 Full point group                 C1      NOp   1
 Largest Abelian subgroup         C1      NOp   1
 Largest concise Abelian subgroup C1      NOp   1
                         Standard orientation:                         
 ---------------------------------------------------------------------
 Center     Atomic      Atomic             Coordinates (Angstroms)
 Number     Number       Type             X           Y           Z
 ---------------------------------------------------------------------
      1          6           0        2.084061   -2.131983    2.109801
      2          6           0        2.539365   -0.763391    1.594988
      3          6           0        1.898793   -0.380018    0.246767
      4          6           0        2.583517    0.833399   -0.455378
      5          6           0        4.015593    0.528030   -0.904113
      6          8           0        3.999547   -0.614943   -1.758336
      7          7           0        0.451026   -0.211938    0.461246
      8          6           0       -0.368858   -0.138971   -0.752038
      9          6           0       -4.564000    0.282920    0.278841
     10          6           0       -4.104012   -0.927419   -0.239913
     11          6           0       -2.755983   -1.044067   -0.562136
     12          6           0       -1.833862   -0.008982   -0.401916
     13          6           0       -2.354101    1.174740    0.124491
     14          6           0       -3.686834    1.352828    0.468398
     15          1           0       -5.611487    0.393645    0.538712
     16          1           0       -4.764777   -1.772421   -0.395248
     17          1           0       -4.016247    2.303028    0.872451
     18          9           0       -2.317737   -2.219939   -1.067982
     19          9           0       -1.489577    2.206337    0.314566
     20          1           0        2.509042   -2.346564    3.095981
     21          1           0        0.994455   -2.168674    2.185678
     22          1           0        2.399585   -2.931446    1.429452
     23          1           0        2.297258    0.006541    2.340066
     24          1           0        3.630838   -0.758561    1.496721
     25          1           0        2.020544    1.018924   -1.379979
     26          1           0        4.663988    0.358557   -0.030774
     27          1           0        4.416289    1.406132   -1.434724
     28          1           0        4.913137   -0.819321   -1.995861
     29          1           0       -0.104330    0.697176   -1.419872
     30          1           0       -0.218663   -1.059817   -1.321538
     31          1           0        2.013534   -1.233443   -0.432864
     32          6           0        2.554189    2.125264    0.375131
     33          1           0        1.531071    2.397533    0.653729
     34          1           0        3.140307    2.033913    1.295927
     35          1           0        2.965062    2.963982   -0.196706
     36          1           0        0.285439    0.622230    1.020024
 ---------------------------------------------------------------------
 Rotational constants (GHZ):      0.7525288      0.2330346      0.2125329
 Standard basis: def2TZVP (5D, 7F)
 There are   726 symmetry adapted cartesian basis functions of A   symmetry.
 There are   641 symmetry adapted basis functions of A   symmetry.
   641 basis functions,  1019 primitive gaussians,   726 cartesian basis functions
    65 alpha electrons       65 beta electrons
       nuclear repulsion energy      1257.6926835363 Hartrees.
 NAtoms=   36 NActive=   36 NUniq=   36 SFac= 1.00D+00 NAtFMM=   60 NAOKFM=F Big=F
 Integral buffers will be    131072 words long.
 Raffenetti 2 integral format.
 Two-electron integral symmetry is turned on.
 ------------------------------------------------------------------------------
 Polarizable Continuum Model (PCM)
 =================================
 Model                : PCM (using non-symmetric T matrix).
 Atomic radii         : UFF (Universal Force Field).
 Polarization charges : Total charges.
 Charge compensation  : None.
 Solution method      : On-the-fly selection.
 Cavity type          : Scaled VdW (van der Waals Surface) (Alpha=1.100).
 Cavity algorithm     : GePol (No added spheres)
                        Default sphere list used, NSphG=   36.
                        Lebedev-Laikov grids with approx.  5.0 points / Ang**2.
                        Smoothing algorithm: Karplus/York (Gamma=1.0000).
                        Polarization charges: spherical gaussians, with
                                              point-specific exponents (IZeta= 3).
                        Self-potential: point-specific (ISelfS= 7).
                        Self-field    : sphere-specific E.n sum rule (ISelfD= 2).
 Solvent              : Chloroform, Eps=   4.711300 Eps(inf)=   2.090627
 ------------------------------------------------------------------------------
 One-electron integrals computed using PRISM.
   1 Symmetry operations used in ECPInt.
 ECPInt:  NShTT=   34716 NPrTT=  103716 LenC2=   30779 LenP2D=   66645.
 LDataN:  DoStor=T MaxTD1= 6 Len=  172
 NBasis=   641 RedAO= T EigKep=  1.16D-05  NBF=   641
 NBsUse=   641 1.00D-06 EigRej= -1.00D+00 NBFU=   641
 ExpMin= 9.52D-02 ExpMax= 3.55D+04 ExpMxC= 1.21D+03 IAcc=3 IRadAn=         5 AccDes= 0.00D+00
 Harris functional with IExCor= 1009 and IRadAn=       5 diagonalized for initial guess.
 HarFok:  IExCor= 1009 AccDes= 0.00D+00 IRadAn=         5 IDoV= 1 UseB2=F ITyADJ=14
 ICtDFT=  3500011 ScaDFX=  1.000000  1.000000  1.000000  1.000000
 FoFCou: FMM=F IPFlag=           0 FMFlag=      100000 FMFlg1=           0
         NFxFlg=           0 DoJE=T BraDBF=F KetDBF=T FulRan=T
         wScrn=  0.000000 ICntrl=     500 IOpCl=  0 I1Cent=   200000004 NGrid=           0
         NMat0=    1 NMatS0=      1 NMatT0=    0 NMatD0=    1 NMtDS0=    0 NMtDT0=    0
 Petite list used in FoFCou.
 Requested convergence on RMS density matrix=1.00D-08 within 128 cycles.
 Requested convergence on MAX density matrix=1.00D-06.
 Requested convergence on             energy=1.00D-06.
 No special actions if energy rises.
 Inv3:  Mode=1 IEnd=    19722288.
 Iteration    1 A*A^-1 deviation from unit magnitude is 6.00D-15 for    629.
 Iteration    1 A*A^-1 deviation from orthogonality  is 2.86D-15 for   1873   1747.
 Iteration    1 A^-1*A deviation from unit magnitude is 5.77D-15 for    612.
 Iteration    1 A^-1*A deviation from orthogonality  is 2.61D-10 for   2558   2523.
 Iteration    2 A*A^-1 deviation from unit magnitude is 1.20D-14 for    629.
 Iteration    2 A*A^-1 deviation from orthogonality  is 3.77D-15 for   1943    601.
 Iteration    2 A^-1*A deviation from unit magnitude is 1.11D-15 for    372.
 Iteration    2 A^-1*A deviation from orthogonality  is 4.02D-16 for   2343   1107.
 Error on total polarization charges =  0.01243
 SCF Done:  E(RM062X) =  -836.455605445     A.U. after   12 cycles
            NFock= 12  Conv=0.67D-08     -V/T= 2.0052

 **********************************************************************

            Population analysis using the SCF density.

 **********************************************************************

 Orbital symmetries:
       Occupied  (A) (A) (A) (A) (A) (A) (A) (A) (A) (A) (A) (A)
                 (A) (A) (A) (A) (A) (A) (A) (A) (A) (A) (A) (A)
                 (A) (A) (A) (A) (A) (A) (A) (A) (A) (A) (A) (A)
                 (A) (A) (A) (A) (A) (A) (A) (A) (A) (A) (A) (A)
                 (A) (A) (A) (A) (A) (A) (A) (A) (A) (A) (A) (A)
                 (A) (A) (A) (A) (A)
       Virtual   (A) (A) (A) (A) (A) (A) (A) (A) (A) (A) (A) (A)
                 (A) (A) (A) (A) (A) (A) (A) (A) (A) (A) (A) (A)
                 (A) (A) (A) (A) (A) (A) (A) (A) (A) (A) (A) (A)
                 (A) (A) (A) (A) (A) (A) (A) (A) (A) (A) (A) (A)
                 (A) (A) (A) (A) (A) (A) (A) (A) (A) (A) (A) (A)
                 (A) (A) (A) (A) (A) (A) (A) (A) (A) (A) (A) (A)
                 (A) (A) (A) (A) (A) (A) (A) (A) (A) (A) (A) (A)
                 (A) (A) (A) (A) (A) (A) (A) (A) (A) (A) (A) (A)
                 (A) (A) (A) (A) (A) (A) (A) (A) (A) (A) (A) (A)
                 (A) (A) (A) (A) (A) (A) (A) (A) (A) (A) (A) (A)
                 (A) (A) (A) (A) (A) (A) (A) (A) (A) (A) (A) (A)
                 (A) (A) (A) (A) (A) (A) (A) (A) (A) (A) (A) (A)
                 (A) (A) (A) (A) (A) (A) (A) (A) (A) (A) (A) (A)
                 (A) (A) (A) (A) (A) (A) (A) (A) (A) (A) (A) (A)
                 (A) (A) (A) (A) (A) (A) (A) (A) (A) (A) (A) (A)
                 (A) (A) (A) (A) (A) (A) (A) (A) (A) (A) (A) (A)
                 (A) (A) (A) (A) (A) (A) (A) (A) (A) (A) (A) (A)
                 (A) (A) (A) (A) (A) (A) (A) (A) (A) (A) (A) (A)
                 (A) (A) (A) (A) (A) (A) (A) (A) (A) (A) (A) (A)
                 (A) (A) (A) (A) (A) (A) (A) (A) (A) (A) (A) (A)
                 (A) (A) (A) (A) (A) (A) (A) (A) (A) (A) (A) (A)
                 (A) (A) (A) (A) (A) (A) (A) (A) (A) (A) (A) (A)
                 (A) (A) (A) (A) (A) (A) (A) (A) (A) (A) (A) (A)
                 (A) (A) (A) (A) (A) (A) (A) (A) (A) (A) (A) (A)
                 (A) (A) (A) (A) (A) (A) (A) (A) (A) (A) (A) (A)
                 (A) (A) (A) (A) (A) (A) (A) (A) (A) (A) (A) (A)
                 (A) (A) (A) (A) (A) (A) (A) (A) (A) (A) (A) (A)
                 (A) (A) (A) (A) (A) (A) (A) (A) (A) (A) (A) (A)
                 (A) (A) (A) (A) (A) (A) (A) (A) (A) (A) (A) (A)
                 (A) (A) (A) (A) (A) (A) (A) (A) (A) (A) (A) (A)
                 (A) (A) (A) (A) (A) (A) (A) (A) (A) (A) (A) (A)
                 (A) (A) (A) (A) (A) (A) (A) (A) (A) (A) (A) (A)
                 (A) (A) (A) (A) (A) (A) (A) (A) (A) (A) (A) (A)
                 (A) (A) (A) (A) (A) (A) (A) (A) (A) (A) (A) (A)
                 (A) (A) (A) (A) (A) (A) (A) (A) (A) (A) (A) (A)
                 (A) (A) (A) (A) (A) (A) (A) (A) (A) (A) (A) (A)
                 (A) (A) (A) (A) (A) (A) (A) (A) (A) (A) (A) (A)
                 (A) (A) (A) (A) (A) (A) (A) (A) (A) (A) (A) (A)
                 (A) (A) (A) (A) (A) (A) (A) (A) (A) (A) (A) (A)
                 (A) (A) (A) (A) (A) (A) (A) (A) (A) (A) (A) (A)
                 (A) (A) (A) (A) (A) (A) (A) (A) (A) (A) (A) (A)
                 (A) (A) (A) (A) (A) (A) (A) (A) (A) (A) (A) (A)
                 (A) (A) (A) (A) (A) (A) (A) (A) (A) (A) (A) (A)
                 (A) (A) (A) (A) (A) (A) (A) (A) (A) (A) (A) (A)
                 (A) (A) (A) (A) (A) (A) (A) (A) (A) (A) (A) (A)
                 (A) (A) (A) (A) (A) (A) (A) (A) (A) (A) (A) (A)
                 (A) (A) (A) (A) (A) (A) (A) (A) (A) (A) (A) (A)
                 (A) (A) (A) (A) (A) (A) (A) (A) (A) (A) (A) (A)
 The electronic state is 1-A.
 Alpha  occ. eigenvalues --  -25.26904 -25.26512 -19.62677 -14.73289 -10.64123
 Alpha  occ. eigenvalues --  -10.64122 -10.58116 -10.57322 -10.56809 -10.56437
 Alpha  occ. eigenvalues --  -10.55978 -10.55676 -10.55601 -10.53712 -10.52642
 Alpha  occ. eigenvalues --  -10.52586 -10.51450  -1.38032  -1.37836  -1.14378
 Alpha  occ. eigenvalues --   -1.01880  -0.98094  -0.90349  -0.87303  -0.85927
 Alpha  occ. eigenvalues --   -0.85131  -0.78161  -0.76725  -0.73829  -0.72570
 Alpha  occ. eigenvalues --   -0.70316  -0.68608  -0.65189  -0.63529  -0.61698
 Alpha  occ. eigenvalues --   -0.59061  -0.58487  -0.57685  -0.57248  -0.57080
 Alpha  occ. eigenvalues --   -0.55604  -0.54846  -0.54268  -0.52281  -0.51462
 Alpha  occ. eigenvalues --   -0.49466  -0.48436  -0.47942  -0.47455  -0.46893
 Alpha  occ. eigenvalues --   -0.45838  -0.44334  -0.44148  -0.43794  -0.43035
 Alpha  occ. eigenvalues --   -0.42360  -0.41190  -0.39573  -0.39058  -0.38480
 Alpha  occ. eigenvalues --   -0.36868  -0.35283  -0.31633  -0.31183  -0.28878
 Alpha virt. eigenvalues --    0.00659   0.01945   0.06286   0.06564   0.08022
 Alpha virt. eigenvalues --    0.08790   0.09182   0.10459   0.11564   0.12091
 Alpha virt. eigenvalues --    0.12804   0.12949   0.13172   0.13871   0.13997
 Alpha virt. eigenvalues --    0.15036   0.15669   0.16613   0.17115   0.17581
 Alpha virt. eigenvalues --    0.17784   0.18233   0.18531   0.19165   0.19874
 Alpha virt. eigenvalues --    0.20417   0.21093   0.21432   0.22022   0.22358
 Alpha virt. eigenvalues --    0.23035   0.23567   0.24252   0.24829   0.24997
 Alpha virt. eigenvalues --    0.26158   0.26981   0.27269   0.27817   0.28439
 Alpha virt. eigenvalues --    0.28697   0.30059   0.30260   0.30701   0.32045
 Alpha virt. eigenvalues --    0.33112   0.33337   0.33862   0.34447   0.35418
 Alpha virt. eigenvalues --    0.36368   0.36863   0.37296   0.37807   0.38001
 Alpha virt. eigenvalues --    0.38481   0.39143   0.39332   0.39918   0.40045
 Alpha virt. eigenvalues --    0.40790   0.41064   0.41768   0.42790   0.43124
 Alpha virt. eigenvalues --    0.43791   0.44161   0.44880   0.45234   0.45801
 Alpha virt. eigenvalues --    0.46371   0.46924   0.47144   0.47821   0.48189
 Alpha virt. eigenvalues --    0.48276   0.48466   0.49349   0.50043   0.50726
 Alpha virt. eigenvalues --    0.50987   0.51685   0.52113   0.52175   0.52757
 Alpha virt. eigenvalues --    0.53381   0.54104   0.54317   0.55108   0.55492
 Alpha virt. eigenvalues --    0.56088   0.56691   0.57256   0.57319   0.58933
 Alpha virt. eigenvalues --    0.59021   0.59422   0.61015   0.61657   0.62160
 Alpha virt. eigenvalues --    0.63743   0.64041   0.65103   0.65617   0.67038
 Alpha virt. eigenvalues --    0.67218   0.68289   0.69494   0.70297   0.70504
 Alpha virt. eigenvalues --    0.71144   0.71975   0.72700   0.74265   0.74658
 Alpha virt. eigenvalues --    0.75762   0.77394   0.78483   0.79181   0.79997
 Alpha virt. eigenvalues --    0.80234   0.81639   0.82122   0.82759   0.84259
 Alpha virt. eigenvalues --    0.85982   0.86781   0.87127   0.88873   0.89281
 Alpha virt. eigenvalues --    0.89698   0.90207   0.90718   0.91589   0.91947
 Alpha virt. eigenvalues --    0.92386   0.93727   0.94705   0.95560   0.96971
 Alpha virt. eigenvalues --    0.97307   0.99854   1.00213   1.01157   1.02080
 Alpha virt. eigenvalues --    1.02181   1.03671   1.05489   1.05984   1.07031
 Alpha virt. eigenvalues --    1.08596   1.09227   1.09499   1.10609   1.10677
 Alpha virt. eigenvalues --    1.12118   1.13078   1.14416   1.15032   1.16493
 Alpha virt. eigenvalues --    1.16762   1.17691   1.19170   1.19836   1.21479
 Alpha virt. eigenvalues --    1.21771   1.23273   1.23910   1.24764   1.25804
 Alpha virt. eigenvalues --    1.26068   1.27918   1.28315   1.29315   1.30132
 Alpha virt. eigenvalues --    1.32143   1.33883   1.34459   1.35054   1.36354
 Alpha virt. eigenvalues --    1.37005   1.38692   1.39965   1.40631   1.41824
 Alpha virt. eigenvalues --    1.43839   1.45254   1.45986   1.47427   1.49137
 Alpha virt. eigenvalues --    1.49399   1.51406   1.52870   1.53501   1.53958
 Alpha virt. eigenvalues --    1.55569   1.55748   1.56436   1.58488   1.58538
 Alpha virt. eigenvalues --    1.59319   1.59789   1.60589   1.61740   1.62919
 Alpha virt. eigenvalues --    1.63080   1.63707   1.65555   1.65616   1.66396
 Alpha virt. eigenvalues --    1.66769   1.67325   1.67732   1.68275   1.68896
 Alpha virt. eigenvalues --    1.69440   1.69855   1.70990   1.71369   1.72083
 Alpha virt. eigenvalues --    1.73939   1.74340   1.75372   1.76181   1.77792
 Alpha virt. eigenvalues --    1.79355   1.80974   1.83450   1.85214   1.86345
 Alpha virt. eigenvalues --    1.86760   1.89082   1.89990   1.90324   1.91149
 Alpha virt. eigenvalues --    1.92534   1.93071   1.94525   1.95986   1.96743
 Alpha virt. eigenvalues --    1.97211   1.97852   1.99663   2.00099   2.02051
 Alpha virt. eigenvalues --    2.02882   2.03648   2.04614   2.05516   2.07479
 Alpha virt. eigenvalues --    2.08650   2.09757   2.10123   2.11664   2.11944
 Alpha virt. eigenvalues --    2.13216   2.14197   2.14528   2.15484   2.17001
 Alpha virt. eigenvalues --    2.17593   2.18037   2.19243   2.19968   2.21022
 Alpha virt. eigenvalues --    2.22106   2.22849   2.23504   2.26098   2.26782
 Alpha virt. eigenvalues --    2.28248   2.29499   2.29907   2.30369   2.30780
 Alpha virt. eigenvalues --    2.31178   2.32103   2.33161   2.35169   2.35451
 Alpha virt. eigenvalues --    2.36436   2.38717   2.39815   2.40319   2.40976
 Alpha virt. eigenvalues --    2.41199   2.43605   2.43673   2.44016   2.46016
 Alpha virt. eigenvalues --    2.46516   2.47498   2.49127   2.49872   2.51719
 Alpha virt. eigenvalues --    2.52822   2.53451   2.54972   2.57068   2.57362
 Alpha virt. eigenvalues --    2.57492   2.58275   2.59133   2.60383   2.60741
 Alpha virt. eigenvalues --    2.61055   2.61633   2.61986   2.62586   2.63615
 Alpha virt. eigenvalues --    2.64292   2.65038   2.65907   2.66413   2.67393
 Alpha virt. eigenvalues --    2.67927   2.68410   2.69369   2.69883   2.70557
 Alpha virt. eigenvalues --    2.72073   2.72864   2.73523   2.74554   2.75140
 Alpha virt. eigenvalues --    2.75754   2.76497   2.78157   2.78388   2.79258
 Alpha virt. eigenvalues --    2.80169   2.80493   2.81836   2.82062   2.84540
 Alpha virt. eigenvalues --    2.84824   2.86205   2.87390   2.87776   2.88793
 Alpha virt. eigenvalues --    2.89583   2.90105   2.91112   2.92704   2.92836
 Alpha virt. eigenvalues --    2.93541   2.94710   2.96573   2.97190   2.98263
 Alpha virt. eigenvalues --    2.99407   2.99787   3.01562   3.03167   3.04337
 Alpha virt. eigenvalues --    3.04507   3.05676   3.06287   3.07372   3.08374
 Alpha virt. eigenvalues --    3.09567   3.10259   3.10381   3.11071   3.12033
 Alpha virt. eigenvalues --    3.13382   3.14174   3.14812   3.15223   3.16649
 Alpha virt. eigenvalues --    3.17526   3.18134   3.18645   3.19031   3.19537
 Alpha virt. eigenvalues --    3.21272   3.22404   3.23350   3.23830   3.25844
 Alpha virt. eigenvalues --    3.26766   3.26952   3.27409   3.28047   3.28810
 Alpha virt. eigenvalues --    3.30025   3.31105   3.31998   3.33090   3.34105
 Alpha virt. eigenvalues --    3.35451   3.35644   3.37006   3.37552   3.37788
 Alpha virt. eigenvalues --    3.38855   3.40186   3.41074   3.42046   3.42212
 Alpha virt. eigenvalues --    3.42754   3.43055   3.44970   3.46332   3.47089
 Alpha virt. eigenvalues --    3.47857   3.48540   3.49336   3.50446   3.51038
 Alpha virt. eigenvalues --    3.52070   3.53172   3.54503   3.55764   3.56711
 Alpha virt. eigenvalues --    3.57376   3.58270   3.58575   3.60389   3.60938
 Alpha virt. eigenvalues --    3.61086   3.62146   3.63261   3.63931   3.64415
 Alpha virt. eigenvalues --    3.66670   3.67092   3.68285   3.68379   3.70454
 Alpha virt. eigenvalues --    3.71731   3.74469   3.75795   3.78582   3.80291
 Alpha virt. eigenvalues --    3.81515   3.82460   3.83099   3.84580   3.87208
 Alpha virt. eigenvalues --    3.87467   3.89478   3.91894   3.93098   3.94231
 Alpha virt. eigenvalues --    3.95031   3.96869   3.99083   4.01659   4.02048
 Alpha virt. eigenvalues --    4.02822   4.03966   4.04267   4.05502   4.07505
 Alpha virt. eigenvalues --    4.08921   4.09526   4.11703   4.12833   4.13837
 Alpha virt. eigenvalues --    4.14415   4.16085   4.16683   4.17014   4.17933
 Alpha virt. eigenvalues --    4.18852   4.19910   4.20305   4.21752   4.23994
 Alpha virt. eigenvalues --    4.26123   4.28425   4.30957   4.33513   4.34707
 Alpha virt. eigenvalues --    4.35744   4.36948   4.37838   4.38787   4.41666
 Alpha virt. eigenvalues --    4.43279   4.45083   4.47875   4.49068   4.51841
 Alpha virt. eigenvalues --    4.53692   4.55637   4.57487   4.59363   4.61320
 Alpha virt. eigenvalues --    4.63294   4.65311   4.65368   4.66414   4.69309
 Alpha virt. eigenvalues --    4.73246   4.75052   4.78280   4.82885   4.84443
 Alpha virt. eigenvalues --    4.88541   4.89617   4.90254   4.94912   4.96668
 Alpha virt. eigenvalues --    5.01537   5.03703   5.08991   5.10444   5.12567
 Alpha virt. eigenvalues --    5.16404   5.23825   5.27709   5.29674   5.29979
 Alpha virt. eigenvalues --    5.32260   5.36833   5.39056   5.41348   5.43568
 Alpha virt. eigenvalues --    5.47868   5.53231   5.60240   5.62957   5.66452
 Alpha virt. eigenvalues --    5.73068   5.75679   5.87008   5.89483   6.25946
 Alpha virt. eigenvalues --    6.47988   6.68441   6.72480   6.90452   6.90734
 Alpha virt. eigenvalues --    6.91236   6.92433   6.97330   6.99686   7.00731
 Alpha virt. eigenvalues --    7.08487   7.10044   7.13816   7.21618   7.24368
 Alpha virt. eigenvalues --    7.36048   7.39389   7.53544   7.55769   8.35918
 Alpha virt. eigenvalues --    8.37500   8.53046   8.55564   8.74217   8.75288
 Alpha virt. eigenvalues --    8.96465   8.96767   9.00429   9.03576  22.20904
 Alpha virt. eigenvalues --   22.43582  22.48228  22.54968  22.61927  22.65221
 Alpha virt. eigenvalues --   22.74104  22.75080  22.77955  22.80685  22.93860
 Alpha virt. eigenvalues --   23.02714  23.47764  32.62709  43.97608  57.47541
 Alpha virt. eigenvalues --   57.56218
          Condensed to atoms (all electrons):
               1          2          3          4          5          6
     1  C    5.070974   0.247870  -0.047558   0.010987  -0.000551  -0.001470
     2  C    0.247870   5.224873   0.192027  -0.037829   0.000315   0.011386
     3  C   -0.047558   0.192027   5.574501   0.120168  -0.039287  -0.022183
     4  C    0.010987  -0.037829   0.120168   5.600185   0.198071  -0.083980
     5  C   -0.000551   0.000315  -0.039287   0.198071   4.951424   0.256167
     6  O   -0.001470   0.011386  -0.022183  -0.083980   0.256167   8.101450
     7  N   -0.014122  -0.063317   0.142667  -0.043848   0.008434   0.000266
     8  C    0.000284   0.007907  -0.040487  -0.001165   0.001029   0.000141
     9  C   -0.000004   0.000001  -0.000052   0.000015   0.000000   0.000000
    10  C    0.000015  -0.000003  -0.000024  -0.000002   0.000000   0.000000
    11  C   -0.000360  -0.000009  -0.004640   0.001547  -0.000029   0.000003
    12  C   -0.000242  -0.000500  -0.004595   0.009172  -0.000211   0.000028
    13  C   -0.000003   0.000411   0.005950  -0.002806   0.000036  -0.000002
    14  C    0.000016  -0.000013   0.000411  -0.000229   0.000002   0.000000
    15  H    0.000000   0.000000   0.000000   0.000000   0.000000   0.000000
    16  H    0.000000   0.000000   0.000000   0.000000   0.000000   0.000000
    17  H    0.000000   0.000000  -0.000001  -0.000001   0.000000   0.000000
    18  F    0.000000  -0.000010  -0.000052   0.000032   0.000000   0.000000
    19  F    0.000004   0.000076  -0.000525  -0.000342  -0.000010   0.000000
    20  H    0.421909  -0.053454   0.012613  -0.000395   0.000064   0.000007
    21  H    0.417812  -0.041623  -0.017973   0.001736  -0.000111   0.000019
    22  H    0.409678  -0.044333  -0.000729  -0.000296  -0.000208   0.000447
    23  H   -0.038853   0.414850  -0.008379  -0.019992  -0.000763   0.000159
    24  H   -0.030126   0.435382  -0.081451   0.019406  -0.004764  -0.002342
    25  H   -0.000202   0.007650  -0.089759   0.448223  -0.037391   0.008358
    26  H    0.001054  -0.005369  -0.026620  -0.034664   0.434760  -0.051324
    27  H   -0.000026   0.001079   0.011677  -0.059035   0.447816  -0.042015
    28  H   -0.000039  -0.000105   0.000395   0.015960  -0.037384   0.300858
    29  H   -0.000250  -0.000890  -0.008774   0.019162  -0.000627  -0.000091
    30  H    0.000143   0.001262   0.015242  -0.010123   0.000379  -0.000035
    31  H   -0.012182  -0.020520   0.466215  -0.086258  -0.002969   0.021398
    32  C   -0.000609   0.002250  -0.018528   0.168217  -0.038528   0.006608
    33  H   -0.000012  -0.005552   0.007297  -0.055619   0.011247  -0.000194
    34  H    0.000045   0.006929  -0.019817  -0.019866  -0.012069  -0.000085
    35  H    0.000043  -0.000518   0.011150  -0.038539  -0.008277  -0.000032
    36  H   -0.000446  -0.004084  -0.024090  -0.018360  -0.000220  -0.000037
               7          8          9         10         11         12
     1  C   -0.014122   0.000284  -0.000004   0.000015  -0.000360  -0.000242
     2  C   -0.063317   0.007907   0.000001  -0.000003  -0.000009  -0.000500
     3  C    0.142667  -0.040487  -0.000052  -0.000024  -0.004640  -0.004595
     4  C   -0.043848  -0.001165   0.000015  -0.000002   0.001547   0.009172
     5  C    0.008434   0.001029   0.000000   0.000000  -0.000029  -0.000211
     6  O    0.000266   0.000141   0.000000   0.000000   0.000003   0.000028
     7  N    6.907034   0.218195   0.000773  -0.000628   0.035896  -0.043508
     8  C    0.218195   5.153279  -0.007378   0.008548  -0.120615   0.266331
     9  C    0.000773  -0.007378   5.037716   0.417595  -0.004541  -0.085895
    10  C   -0.000628   0.008548   0.417595   5.054730   0.512770   0.014616
    11  C    0.035896  -0.120615  -0.004541   0.512770   4.890631   0.254270
    12  C   -0.043508   0.266331  -0.085895   0.014616   0.254270   5.588712
    13  C   -0.004819  -0.064147  -0.021194  -0.077068   0.024885   0.277609
    14  C   -0.001168   0.014985   0.419472  -0.018994  -0.101702   0.007514
    15  H    0.000001   0.000088   0.403339  -0.024004   0.001683  -0.000367
    16  H   -0.000005  -0.000264  -0.033732   0.412916  -0.041385   0.014301
    17  H    0.000021  -0.000138  -0.029505   0.003676  -0.000663   0.012062
    18  F   -0.000422   0.012236   0.009997  -0.048616   0.258938  -0.086395
    19  F   -0.003454   0.019361   0.008640  -0.000619   0.004890  -0.084156
    20  H    0.000704   0.000077   0.000000   0.000000   0.000008  -0.000006
    21  H    0.022668  -0.002133   0.000013  -0.000024   0.000843   0.000366
    22  H   -0.000230  -0.000078   0.000000   0.000000   0.000011   0.000040
    23  H   -0.013141  -0.000249   0.000000   0.000000  -0.000015  -0.000058
    24  H    0.008715  -0.000772   0.000000   0.000000   0.000008   0.000112
    25  H   -0.000706   0.000607  -0.000002   0.000001  -0.000283   0.000741
    26  H    0.000650  -0.000010   0.000000   0.000000  -0.000001   0.000012
    27  H   -0.000467  -0.000096   0.000000   0.000000   0.000002   0.000011
    28  H   -0.000025  -0.000002   0.000000   0.000000   0.000000  -0.000002
    29  H   -0.070907   0.394362   0.000939  -0.000975   0.028724  -0.008172
    30  H   -0.041622   0.435586  -0.000789   0.000557  -0.043182  -0.028567
    31  H   -0.043460  -0.012611  -0.000004   0.000010  -0.000336  -0.000073
    32  C    0.008196  -0.003291  -0.000002   0.000000  -0.000229  -0.001637
    33  H    0.001789   0.002003  -0.000018   0.000008  -0.000125  -0.000895
    34  H    0.000100   0.000182   0.000000   0.000000  -0.000002  -0.000016
    35  H   -0.000150  -0.000095   0.000000   0.000000   0.000002   0.000022
    36  H    0.373978  -0.047078  -0.000113   0.000136  -0.000846  -0.013253
              13         14         15         16         17         18
     1  C   -0.000003   0.000016   0.000000   0.000000   0.000000   0.000000
     2  C    0.000411  -0.000013   0.000000   0.000000   0.000000  -0.000010
     3  C    0.005950   0.000411   0.000000   0.000000  -0.000001  -0.000052
     4  C   -0.002806  -0.000229   0.000000   0.000000  -0.000001   0.000032
     5  C    0.000036   0.000002   0.000000   0.000000   0.000000   0.000000
     6  O   -0.000002   0.000000   0.000000   0.000000   0.000000   0.000000
     7  N   -0.004819  -0.001168   0.000001  -0.000005   0.000021  -0.000422
     8  C   -0.064147   0.014985   0.000088  -0.000264  -0.000138   0.012236
     9  C   -0.021194   0.419472   0.403339  -0.033732  -0.029505   0.009997
    10  C   -0.077068  -0.018994  -0.024004   0.412916   0.003676  -0.048616
    11  C    0.024885  -0.101702   0.001683  -0.041385  -0.000663   0.258938
    12  C    0.277609   0.007514  -0.000367   0.014301   0.012062  -0.086395
    13  C    4.862369   0.499828   0.002724  -0.000737  -0.041224   0.006386
    14  C    0.499828   5.093445  -0.025137   0.004287   0.412293  -0.000787
    15  H    0.002724  -0.025137   0.476539  -0.003331  -0.003206  -0.000108
    16  H   -0.000737   0.004287  -0.003331   0.475302  -0.000153   0.001628
    17  H   -0.041224   0.412293  -0.003206  -0.000153   0.472089   0.000010
    18  F    0.006386  -0.000787  -0.000108   0.001628   0.000010   9.053810
    19  F    0.246959  -0.048616  -0.000109   0.000012   0.001839  -0.000033
    20  H   -0.000002   0.000000   0.000000   0.000000   0.000000   0.000000
    21  H   -0.000160  -0.000049   0.000000   0.000000   0.000000   0.000038
    22  H   -0.000003   0.000000   0.000000   0.000000   0.000000   0.000000
    23  H    0.000016   0.000006   0.000000   0.000000   0.000000   0.000000
    24  H   -0.000016   0.000000   0.000000   0.000000   0.000000   0.000000
    25  H    0.000599   0.000027   0.000000   0.000000   0.000000   0.000002
    26  H   -0.000001   0.000000   0.000000   0.000000   0.000000   0.000000
    27  H   -0.000003   0.000000   0.000000   0.000000   0.000000   0.000000
    28  H    0.000000   0.000000   0.000000   0.000000   0.000000   0.000000
    29  H   -0.030645  -0.005975   0.000005   0.000002  -0.000053   0.000084
    30  H    0.016517   0.001357   0.000001   0.000002   0.000006   0.007949
    31  H    0.000035   0.000028   0.000000   0.000000   0.000000  -0.000055
    32  C    0.000690   0.000051   0.000000   0.000000  -0.000002  -0.000001
    33  H   -0.000430   0.000166   0.000000   0.000000   0.000009   0.000001
    34  H    0.000026   0.000001   0.000000   0.000000   0.000000   0.000000
    35  H   -0.000010  -0.000002   0.000000   0.000000   0.000000   0.000000
    36  H    0.001717   0.000685  -0.000001   0.000002   0.000029  -0.000053
              19         20         21         22         23         24
     1  C    0.000004   0.421909   0.417812   0.409678  -0.038853  -0.030126
     2  C    0.000076  -0.053454  -0.041623  -0.044333   0.414850   0.435382
     3  C   -0.000525   0.012613  -0.017973  -0.000729  -0.008379  -0.081451
     4  C   -0.000342  -0.000395   0.001736  -0.000296  -0.019992   0.019406
     5  C   -0.000010   0.000064  -0.000111  -0.000208  -0.000763  -0.004764
     6  O    0.000000   0.000007   0.000019   0.000447   0.000159  -0.002342
     7  N   -0.003454   0.000704   0.022668  -0.000230  -0.013141   0.008715
     8  C    0.019361   0.000077  -0.002133  -0.000078  -0.000249  -0.000772
     9  C    0.008640   0.000000   0.000013   0.000000   0.000000   0.000000
    10  C   -0.000619   0.000000  -0.000024   0.000000   0.000000   0.000000
    11  C    0.004890   0.000008   0.000843   0.000011  -0.000015   0.000008
    12  C   -0.084156  -0.000006   0.000366   0.000040  -0.000058   0.000112
    13  C    0.246959  -0.000002  -0.000160  -0.000003   0.000016  -0.000016
    14  C   -0.048616   0.000000  -0.000049   0.000000   0.000006   0.000000
    15  H   -0.000109   0.000000   0.000000   0.000000   0.000000   0.000000
    16  H    0.000012   0.000000   0.000000   0.000000   0.000000   0.000000
    17  H    0.001839   0.000000   0.000000   0.000000   0.000000   0.000000
    18  F   -0.000033   0.000000   0.000038   0.000000   0.000000   0.000000
    19  F    9.066301   0.000000  -0.000003   0.000000  -0.000043   0.000000
    20  H    0.000000   0.535673  -0.024984  -0.025477  -0.005201  -0.003541
    21  H   -0.000003  -0.024984   0.521471  -0.026777  -0.003552   0.007539
    22  H    0.000000  -0.025477  -0.026777   0.547150   0.007375  -0.006322
    23  H   -0.000043  -0.005201  -0.003552   0.007375   0.545679  -0.030937
    24  H    0.000000  -0.003541   0.007539  -0.006322  -0.030937   0.560438
    25  H    0.000054   0.000011  -0.000037  -0.000079  -0.000605   0.000155
    26  H    0.000000   0.000017  -0.000059  -0.000074  -0.000208  -0.002999
    27  H    0.000000   0.000001   0.000007   0.000005  -0.000083   0.000517
    28  H    0.000000  -0.000002  -0.000001   0.000027   0.000020  -0.000095
    29  H    0.000985   0.000006   0.000303   0.000041   0.000060   0.000082
    30  H    0.000598  -0.000017  -0.000362  -0.000060  -0.000031  -0.000014
    31  H   -0.000021  -0.000019  -0.000387   0.002589   0.005564  -0.002382
    32  C   -0.001373  -0.000010  -0.000328   0.000000   0.003365  -0.006549
    33  H    0.003029  -0.000001  -0.000048   0.000003   0.000340  -0.000019
    34  H    0.000037   0.000017  -0.000003  -0.000035  -0.005673  -0.000268
    35  H    0.000005  -0.000002   0.000001   0.000001   0.000170  -0.000041
    36  H    0.004717  -0.000076   0.000096   0.000021   0.001852   0.000417
              25         26         27         28         29         30
     1  C   -0.000202   0.001054  -0.000026  -0.000039  -0.000250   0.000143
     2  C    0.007650  -0.005369   0.001079  -0.000105  -0.000890   0.001262
     3  C   -0.089759  -0.026620   0.011677   0.000395  -0.008774   0.015242
     4  C    0.448223  -0.034664  -0.059035   0.015960   0.019162  -0.010123
     5  C   -0.037391   0.434760   0.447816  -0.037384  -0.000627   0.000379
     6  O    0.008358  -0.051324  -0.042015   0.300858  -0.000091  -0.000035
     7  N   -0.000706   0.000650  -0.000467  -0.000025  -0.070907  -0.041622
     8  C    0.000607  -0.000010  -0.000096  -0.000002   0.394362   0.435586
     9  C   -0.000002   0.000000   0.000000   0.000000   0.000939  -0.000789
    10  C    0.000001   0.000000   0.000000   0.000000  -0.000975   0.000557
    11  C   -0.000283  -0.000001   0.000002   0.000000   0.028724  -0.043182
    12  C    0.000741   0.000012   0.000011  -0.000002  -0.008172  -0.028567
    13  C    0.000599  -0.000001  -0.000003   0.000000  -0.030645   0.016517
    14  C    0.000027   0.000000   0.000000   0.000000  -0.005975   0.001357
    15  H    0.000000   0.000000   0.000000   0.000000   0.000005   0.000001
    16  H    0.000000   0.000000   0.000000   0.000000   0.000002   0.000002
    17  H    0.000000   0.000000   0.000000   0.000000  -0.000053   0.000006
    18  F    0.000002   0.000000   0.000000   0.000000   0.000084   0.007949
    19  F    0.000054   0.000000   0.000000   0.000000   0.000985   0.000598
    20  H    0.000011   0.000017   0.000001  -0.000002   0.000006  -0.000017
    21  H   -0.000037  -0.000059   0.000007  -0.000001   0.000303  -0.000362
    22  H   -0.000079  -0.000074   0.000005   0.000027   0.000041  -0.000060
    23  H   -0.000605  -0.000208  -0.000083   0.000020   0.000060  -0.000031
    24  H    0.000155  -0.002999   0.000517  -0.000095   0.000082  -0.000014
    25  H    0.581716   0.013371  -0.018938  -0.000669  -0.009584   0.002174
    26  H    0.013371   0.593167  -0.056749  -0.006903  -0.000107   0.000018
    27  H   -0.018938  -0.056749   0.582931  -0.003419   0.000294  -0.000036
    28  H   -0.000669  -0.006903  -0.003419   0.398166   0.000001   0.000003
    29  H   -0.009584  -0.000107   0.000294   0.000001   0.580491  -0.042697
    30  H    0.002174   0.000018  -0.000036   0.000003  -0.042697   0.516171
    31  H   -0.001692   0.000571   0.000652  -0.001181  -0.002090   0.001158
    32  C   -0.043803  -0.001277  -0.000796  -0.001064  -0.004519   0.000789
    33  H   -0.005593  -0.000473  -0.000110   0.000029  -0.001149   0.000079
    34  H    0.008369   0.005018  -0.000963  -0.000007  -0.000125   0.000005
    35  H   -0.008264  -0.000874   0.003673  -0.000013   0.000157  -0.000004
    36  H    0.001608   0.000084  -0.000052   0.000001  -0.005466   0.005636
              31         32         33         34         35         36
     1  C   -0.012182  -0.000609  -0.000012   0.000045   0.000043  -0.000446
     2  C   -0.020520   0.002250  -0.005552   0.006929  -0.000518  -0.004084
     3  C    0.466215  -0.018528   0.007297  -0.019817   0.011150  -0.024090
     4  C   -0.086258   0.168217  -0.055619  -0.019866  -0.038539  -0.018360
     5  C   -0.002969  -0.038528   0.011247  -0.012069  -0.008277  -0.000220
     6  O    0.021398   0.006608  -0.000194  -0.000085  -0.000032  -0.000037
     7  N   -0.043460   0.008196   0.001789   0.000100  -0.000150   0.373978
     8  C   -0.012611  -0.003291   0.002003   0.000182  -0.000095  -0.047078
     9  C   -0.000004  -0.000002  -0.000018   0.000000   0.000000  -0.000113
    10  C    0.000010   0.000000   0.000008   0.000000   0.000000   0.000136
    11  C   -0.000336  -0.000229  -0.000125  -0.000002   0.000002  -0.000846
    12  C   -0.000073  -0.001637  -0.000895  -0.000016   0.000022  -0.013253
    13  C    0.000035   0.000690  -0.000430   0.000026  -0.000010   0.001717
    14  C    0.000028   0.000051   0.000166   0.000001  -0.000002   0.000685
    15  H    0.000000   0.000000   0.000000   0.000000   0.000000  -0.000001
    16  H    0.000000   0.000000   0.000000   0.000000   0.000000   0.000002
    17  H    0.000000  -0.000002   0.000009   0.000000   0.000000   0.000029
    18  F   -0.000055  -0.000001   0.000001   0.000000   0.000000  -0.000053
    19  F   -0.000021  -0.001373   0.003029   0.000037   0.000005   0.004717
    20  H   -0.000019  -0.000010  -0.000001   0.000017  -0.000002  -0.000076
    21  H   -0.000387  -0.000328  -0.000048  -0.000003   0.000001   0.000096
    22  H    0.002589   0.000000   0.000003  -0.000035   0.000001   0.000021
    23  H    0.005564   0.003365   0.000340  -0.005673   0.000170   0.001852
    24  H   -0.002382  -0.006549  -0.000019  -0.000268  -0.000041   0.000417
    25  H   -0.001692  -0.043803  -0.005593   0.008369  -0.008264   0.001608
    26  H    0.000571  -0.001277  -0.000473   0.005018  -0.000874   0.000084
    27  H    0.000652  -0.000796  -0.000110  -0.000963   0.003673  -0.000052
    28  H   -0.001181  -0.001064   0.000029  -0.000007  -0.000013   0.000001
    29  H   -0.002090  -0.004519  -0.001149  -0.000125   0.000157  -0.005466
    30  H    0.001158   0.000789   0.000079   0.000005  -0.000004   0.005636
    31  H    0.486332   0.010478   0.000012  -0.000235  -0.000220   0.005765
    32  C    0.010478   5.161195   0.416375   0.408993   0.420004   0.005609
    33  H    0.000012   0.416375   0.523252  -0.026604  -0.018651   0.000686
    34  H   -0.000235   0.408993  -0.026604   0.521039  -0.025794  -0.000027
    35  H   -0.000220   0.420004  -0.018651  -0.025794   0.507347  -0.000082
    36  H    0.005765   0.005609   0.000686  -0.000027  -0.000082   0.482552
 Mulliken charges:
               1
     1  C   -0.433778
     2  C   -0.276136
     3  C   -0.104792
     4  C   -0.099534
     5  C   -0.126345
     6  O   -0.503504
     7  N   -0.384088
     8  C   -0.234592
     9  C   -0.115270
    10  C   -0.254619
    11  C    0.303854
    12  C   -0.087373
    13  C    0.296512
    14  C   -0.251901
    15  H    0.171882
    16  H    0.171156
    17  H    0.172911
    18  F   -0.214577
    19  F   -0.218205
    20  H    0.142081
    21  H    0.145703
    22  H    0.137311
    23  H    0.148328
    24  H    0.139868
    25  H    0.143940
    26  H    0.138990
    27  H    0.134126
    28  H    0.335451
    29  H    0.167398
    30  H    0.161910
    31  H    0.185887
    32  C   -0.490278
    33  H    0.149169
    34  H    0.160830
    35  H    0.158993
    36  H    0.228696
 Sum of Mulliken charges =   0.00000
 Mulliken charges with hydrogens summed into heavy atoms:
               1
     1  C   -0.008683
     2  C    0.012060
     3  C    0.081095
     4  C    0.044405
     5  C    0.146770
     6  O   -0.168053
     7  N   -0.155393
     8  C    0.094716
     9  C    0.056611
    10  C   -0.083463
    11  C    0.303854
    12  C   -0.087373
    13  C    0.296512
    14  C   -0.078991
    18  F   -0.214577
    19  F   -0.218205
    32  C   -0.021287
 Electronic spatial extent (au):  <R**2>=           5357.2286
 Charge=              0.0000 electrons
 Dipole moment (field-independent basis, Debye):
    X=              0.6269    Y=              1.9989    Z=              0.2189  Tot=              2.1063
 Quadrupole moment (field-independent basis, Debye-Ang):
   XX=            -71.9062   YY=           -106.1702   ZZ=           -105.3762
   XY=              0.0091   XZ=             -4.3523   YZ=              0.6506
 Traceless Quadrupole moment (field-independent basis, Debye-Ang):
   XX=             22.5780   YY=            -11.6860   ZZ=            -10.8920
   XY=              0.0091   XZ=             -4.3523   YZ=              0.6506
 Octapole moment (field-independent basis, Debye-Ang**2):
  XXX=             11.2968  YYY=              3.3334  ZZZ=            -10.3268  XYY=             -1.1313
  XXY=              1.8570  XXZ=            -12.9967  XZZ=             11.0007  YZZ=              4.5102
  YYZ=             -3.8856  XYZ=             -4.6273
 Hexadecapole moment (field-independent basis, Debye-Ang**3):
 XXXX=          -4047.0040 YYYY=          -1188.6187 ZZZZ=           -745.5437 XXXY=            -40.0693
 XXXZ=           -267.7566 YYYX=             -8.0942 YYYZ=             31.4046 ZZZX=            -21.3130
 ZZZY=             31.4479 XXYY=           -999.2573 XXZZ=           -965.2367 YYZZ=           -320.3489
 XXYZ=             49.6703 YYXZ=            -35.7948 ZZXY=             -7.7989
 N-N= 1.257692683536D+03 E-N=-4.472128027226D+03  KE= 8.321547920661D+02
 1\1\GINC-CPU-E-827\SP\RM062X\def2TZVP\C13H19F2N1O1\KE291\26-Jun-2019\0
 \\# m062x/def2tzvp int=ultrafine scrf=(solvent=chloroform)\\AT3_1ginp0
 20\\0,1\C,0,2.084061,-2.131983,2.109801\C,0,2.539365,-0.763391,1.59498
 8\C,0,1.898793,-0.380018,0.246767\C,0,2.583517,0.833399,-0.455378\C,0,
 4.015593,0.52803,-0.904113\O,0,3.999547,-0.614943,-1.758336\N,0,0.4510
 26,-0.211938,0.461246\C,0,-0.368858,-0.138971,-0.752038\C,0,-4.564,0.2
 8292,0.278841\C,0,-4.104012,-0.927419,-0.239913\C,0,-2.755983,-1.04406
 7,-0.562136\C,0,-1.833862,-0.008982,-0.401916\C,0,-2.354101,1.17474,0.
 124491\C,0,-3.686834,1.352828,0.468398\H,0,-5.611487,0.393645,0.538712
 \H,0,-4.764777,-1.772421,-0.395248\H,0,-4.016247,2.303028,0.872451\F,0
 ,-2.317737,-2.219939,-1.067982\F,0,-1.489577,2.206337,0.314566\H,0,2.5
 09042,-2.346564,3.095981\H,0,0.994455,-2.168674,2.185678\H,0,2.399585,
 -2.931446,1.429452\H,0,2.297258,0.006541,2.340066\H,0,3.630838,-0.7585
 61,1.496721\H,0,2.020544,1.018924,-1.379979\H,0,4.663988,0.358557,-0.0
 30774\H,0,4.416289,1.406132,-1.434724\H,0,4.913137,-0.819321,-1.995861
 \H,0,-0.10433,0.697176,-1.419872\H,0,-0.218663,-1.059817,-1.321538\H,0
 ,2.013534,-1.233443,-0.432864\C,0,2.554189,2.125264,0.375131\H,0,1.531
 071,2.397533,0.653729\H,0,3.140307,2.033913,1.295927\H,0,2.965062,2.96
 3982,-0.196706\H,0,0.285439,0.62223,1.020024\\Version=ES64L-G09RevD.01
 \State=1-A\HF=-836.4556054\RMSD=6.734e-09\Dipole=0.2466509,0.7864397,0
 .0861219\Quadrupole=16.7862084,-8.6882793,-8.0979291,0.0067339,-3.2358
 105,0.4837051\PG=C01 [X(C13H19F2N1O1)]\\@


 THE RARE EARTHS PERPLEX US IN OUR RESEARCHES,
 BAFFLE US IN OUR SPECULATIONS, AND HAUNT US IN OUR
 VERY DREAMS.  THEY STRETCH LIKE AN UNKNOWN BEFORE US,
 MOCKING, MYSTIFYING, AND MURMURING STRANGE REVELATIONS
 AND POSSIBILITIES.  -- SIR WILLIAM CROOKE, 1832-1919
 Job cpu time:       0 days  1 hours 12 minutes 23.9 seconds.
 File lengths (MBytes):  RWF=    324 Int=      0 D2E=      0 Chk=     17 Scr=      1
 Normal termination of Gaussian 09 at Wed Jun 26 12:21:10 2019.
