 Entering Gaussian System, Link 0=/usr/local/Cluster-Apps/gaussian/g09/g09
 Initial command:
 /usr/local/Cluster-Apps/gaussian/g09/l1.exe "/home/ke291/rds/hpc-work/26Jun1158AT3NMR/Gau-37434.inp" -scrdir="/home/ke291/rds/hpc-work/26Jun1158AT3NMR/"
 Entering Link 1 = /usr/local/Cluster-Apps/gaussian/g09/l1.exe PID=     37452.
  
 Copyright (c) 1988,1990,1992,1993,1995,1998,2003,2009,2013,
            Gaussian, Inc.  All Rights Reserved.
  
 This is part of the Gaussian(R) 09 program.  It is based on
 the Gaussian(R) 03 system (copyright 2003, Gaussian, Inc.),
 the Gaussian(R) 98 system (copyright 1998, Gaussian, Inc.),
 the Gaussian(R) 94 system (copyright 1995, Gaussian, Inc.),
 the Gaussian 92(TM) system (copyright 1992, Gaussian, Inc.),
 the Gaussian 90(TM) system (copyright 1990, Gaussian, Inc.),
 the Gaussian 88(TM) system (copyright 1988, Gaussian, Inc.),
 the Gaussian 86(TM) system (copyright 1986, Carnegie Mellon
 University), and the Gaussian 82(TM) system (copyright 1983,
 Carnegie Mellon University). Gaussian is a federally registered
 trademark of Gaussian, Inc.
  
 This software contains proprietary and confidential information,
 including trade secrets, belonging to Gaussian, Inc.
  
 This software is provided under written license and may be
 used, copied, transmitted, or stored only in accord with that
 written license.
  
 The following legend is applicable only to US Government
 contracts under FAR:
  
                    RESTRICTED RIGHTS LEGEND
  
 Use, reproduction and disclosure by the US Government is
 subject to restrictions as set forth in subparagraphs (a)
 and (c) of the Commercial Computer Software - Restricted
 Rights clause in FAR 52.227-19.
  
 Gaussian, Inc.
 340 Quinnipiac St., Bldg. 40, Wallingford CT 06492
  
  
 ---------------------------------------------------------------
 Warning -- This program may not be used in any manner that
 competes with the business of Gaussian, Inc. or will provide
 assistance to any competitor of Gaussian, Inc.  The licensee
 of this program is prohibited from giving any competitor of
 Gaussian, Inc. access to this program.  By using this program,
 the user acknowledges that Gaussian, Inc. is engaged in the
 business of creating and licensing software in the field of
 computational chemistry and represents and warrants to the
 licensee that it is not a competitor of Gaussian, Inc. and that
 it will not use this program in any manner prohibited above.
 ---------------------------------------------------------------
  

 Cite this work as:
 Gaussian 09, Revision D.01,
 M. J. Frisch, G. W. Trucks, H. B. Schlegel, G. E. Scuseria, 
 M. A. Robb, J. R. Cheeseman, G. Scalmani, V. Barone, B. Mennucci, 
 G. A. Petersson, H. Nakatsuji, M. Caricato, X. Li, H. P. Hratchian, 
 A. F. Izmaylov, J. Bloino, G. Zheng, J. L. Sonnenberg, M. Hada, 
 M. Ehara, K. Toyota, R. Fukuda, J. Hasegawa, M. Ishida, T. Nakajima, 
 Y. Honda, O. Kitao, H. Nakai, T. Vreven, J. A. Montgomery, Jr., 
 J. E. Peralta, F. Ogliaro, M. Bearpark, J. J. Heyd, E. Brothers, 
 K. N. Kudin, V. N. Staroverov, T. Keith, R. Kobayashi, J. Normand, 
 K. Raghavachari, A. Rendell, J. C. Burant, S. S. Iyengar, J. Tomasi, 
 M. Cossi, N. Rega, J. M. Millam, M. Klene, J. E. Knox, J. B. Cross, 
 V. Bakken, C. Adamo, J. Jaramillo, R. Gomperts, R. E. Stratmann, 
 O. Yazyev, A. J. Austin, R. Cammi, C. Pomelli, J. W. Ochterski, 
 R. L. Martin, K. Morokuma, V. G. Zakrzewski, G. A. Voth, 
 P. Salvador, J. J. Dannenberg, S. Dapprich, A. D. Daniels, 
 O. Farkas, J. B. Foresman, J. V. Ortiz, J. Cioslowski, 
 and D. J. Fox, Gaussian, Inc., Wallingford CT, 2013.
 
 ******************************************
 Gaussian 09:  ES64L-G09RevD.01 24-Apr-2013
                26-Jun-2019 
 ******************************************
 %nprocshared=4
 Will use up to    4 processors via shared memory.
 %mem=6000MB
 %chk=AT3_1ginp005.chk
 --------------------------------------------------------
 # m062x/def2tzvp int=ultrafine scrf=(solvent=chloroform)
 --------------------------------------------------------
 1/38=1/1;
 2/12=2,17=6,18=5,40=1/2;
 3/5=44,7=101,11=2,16=1,25=1,30=1,70=2201,72=7,74=-55,75=-5/1,2,3;
 4//1;
 5/5=2,38=5,53=7/2;
 6/7=2,8=2,9=2,10=2,28=1/1;
 99/5=1,9=1/99;
 ------------
 AT3_1ginp005
 ------------
 Symbolic Z-matrix:
 Charge =  0 Multiplicity = 1
 C                    -4.25483   1.94145  -0.06259 
 C                    -2.80061   1.69271   0.34965 
 C                    -2.09231   0.54342  -0.39435 
 C                    -2.78759  -0.83824  -0.24269 
 C                    -2.75047  -1.363     1.20638 
 O                    -1.44181  -1.70803   1.63987 
 N                    -0.67583   0.47505   0.07503 
 C                     0.32248   0.39661  -1.00931 
 C                     4.30787  -0.102     0.61721 
 C                     3.7618    1.17786   0.50556 
 C                     2.48271   1.30183  -0.02087 
 C                     1.71382   0.2205   -0.45356 
 C                     2.30777  -1.03459  -0.3073 
 C                     3.58329  -1.22342   0.21043 
 H                     5.30491  -0.22656   1.02629 
 H                     4.30259   2.06335   0.81856 
 H                     3.98574  -2.22648   0.2902 
 F                     1.93601   2.53872  -0.12165 
 F                     1.60361  -2.12043  -0.70354 
 H                    -4.91458   1.11942   0.22988 
 H                    -4.63553   2.85045   0.41326 
 H                    -4.34336   2.07223  -1.14701 
 H                    -2.22105   2.60638   0.16158 
 H                    -2.74773   1.51631   1.43163 
 H                    -3.8444   -0.68899  -0.50068 
 H                    -3.36633  -2.26887   1.27481 
 H                    -3.20916  -0.62236   1.88332 
 H                    -0.87312  -0.99671   1.27119 
 H                     0.0829   -0.46209  -1.636 
 H                     0.29638   1.2892   -1.65188 
 H                    -2.10469   0.80165  -1.46633 
 C                    -2.22323  -1.89078  -1.21018 
 H                    -1.20083  -2.16873  -0.94256 
 H                    -2.82776  -2.8036   -1.17427 
 H                    -2.22865  -1.52807  -2.24407 
 H                    -0.47077   1.3136    0.61449 
 
                          Input orientation:                          
 ---------------------------------------------------------------------
 Center     Atomic      Atomic             Coordinates (Angstroms)
 Number     Number       Type             X           Y           Z
 ---------------------------------------------------------------------
      1          6           0       -4.254834    1.941452   -0.062588
      2          6           0       -2.800614    1.692713    0.349652
      3          6           0       -2.092312    0.543416   -0.394350
      4          6           0       -2.787586   -0.838240   -0.242690
      5          6           0       -2.750469   -1.362997    1.206381
      6          8           0       -1.441811   -1.708029    1.639867
      7          7           0       -0.675831    0.475048    0.075025
      8          6           0        0.322484    0.396613   -1.009312
      9          6           0        4.307872   -0.102001    0.617209
     10          6           0        3.761801    1.177861    0.505556
     11          6           0        2.482706    1.301827   -0.020873
     12          6           0        1.713823    0.220499   -0.453562
     13          6           0        2.307765   -1.034589   -0.307304
     14          6           0        3.583291   -1.223415    0.210426
     15          1           0        5.304913   -0.226556    1.026290
     16          1           0        4.302592    2.063348    0.818561
     17          1           0        3.985740   -2.226475    0.290200
     18          9           0        1.936005    2.538723   -0.121647
     19          9           0        1.603614   -2.120430   -0.703542
     20          1           0       -4.914577    1.119420    0.229882
     21          1           0       -4.635526    2.850450    0.413262
     22          1           0       -4.343361    2.072228   -1.147008
     23          1           0       -2.221050    2.606375    0.161578
     24          1           0       -2.747725    1.516311    1.431626
     25          1           0       -3.844395   -0.688989   -0.500678
     26          1           0       -3.366328   -2.268874    1.274814
     27          1           0       -3.209156   -0.622356    1.883318
     28          1           0       -0.873115   -0.996709    1.271186
     29          1           0        0.082899   -0.462094   -1.635998
     30          1           0        0.296380    1.289196   -1.651879
     31          1           0       -2.104689    0.801646   -1.466327
     32          6           0       -2.223235   -1.890784   -1.210183
     33          1           0       -1.200827   -2.168730   -0.942558
     34          1           0       -2.827764   -2.803597   -1.174267
     35          1           0       -2.228653   -1.528069   -2.244068
     36          1           0       -0.470770    1.313596    0.614494
 ---------------------------------------------------------------------
                    Distance matrix (angstroms):
                    1          2          3          4          5
     1  C    0.000000
     2  C    1.531851   0.000000
     3  C    2.596357   1.541465   0.000000
     4  C    3.148324   2.599377   1.554149   0.000000
     5  C    3.846138   3.173935   2.574863   1.541608   0.000000
     6  O    4.912246   3.882788   3.103256   2.472178   1.421106
     7  N    3.870212   2.464311   1.493789   2.507026   2.993743
     8  C    4.922870   3.644228   2.496191   3.432944   4.177148
     9  C    8.829369   7.336427   6.511695   7.185193   7.194262
    10  C    8.072936   6.584426   5.956760   6.893403   7.025438
    11  C    6.767962   5.310702   4.652468   5.692545   5.999463
    12  C    6.224099   4.815881   3.820268   4.629047   5.019240
    13  C    7.210022   5.827976   4.675292   5.099542   5.290069
    14  C    8.457371   7.019788   5.974941   6.398574   6.413106
    15  H    9.862793   8.357093   7.571659   8.214195   8.137144
    16  H    8.603535   7.128308   6.684022   7.734086   7.850854
    17  H    9.241382   7.836975   6.714434   6.934631   6.852846
    18  F    6.219864   4.834606   4.503660   5.807826   6.241003
    19  F    7.157592   5.920009   4.566349   4.597720   4.814514
    20  H    1.093863   2.193593   2.947308   2.929138   3.435012
    21  H    1.094366   2.170554   3.527404   4.177510   4.683547
    22  H    1.095859   2.182680   2.823293   3.421849   4.458309
    23  H    2.151430   1.098201   2.140427   3.514224   4.138576
    24  H    2.164439   1.097535   2.170318   2.889435   2.888106
    25  H    2.698074   2.735881   2.144743   1.098034   2.136589
    26  H    4.506099   4.107326   3.509729   2.164365   1.097533
    27  H    3.384244   2.806881   2.791798   2.178127   1.103262
    28  H    4.674159   3.434744   2.575352   2.445840   1.913851
    29  H    5.202747   4.111040   2.698941   3.212861   4.113237
    30  H    4.864651   3.709491   2.800610   4.002829   4.948441
    31  H    2.809406   2.139180   1.102711   2.157049   3.499440
    32  C    4.486692   3.950684   2.570614   1.537005   2.529094
    33  H    5.195662   4.374913   2.907063   2.185823   2.769212
    34  H    5.078174   4.747617   3.514492   2.175334   2.783664
    35  H    4.571853   4.174681   2.780485   2.189471   3.493585
    36  H    3.895097   2.375299   2.059209   3.276095   3.565320
                    6          7          8          9         10
     6  O    0.000000
     7  N    2.793077   0.000000
     8  C    3.815810   1.475999   0.000000
     9  C    6.056733   5.046211   4.333302   0.000000
    10  C    6.057442   4.513522   3.838499   1.395961   0.000000
    11  C    5.217195   3.266361   2.542240   2.389375   1.388733
    12  C    4.249670   2.460619   1.508542   2.824827   2.455741
    13  C    4.278354   3.365565   2.546074   2.392671   2.769458
    14  C    5.246885   4.587290   3.839937   1.395729   2.425921
    15  H    6.934661   6.096429   5.418174   1.084874   2.150522
    16  H    6.920693   5.278280   4.686191   2.174697   1.083750
    17  H    5.616823   5.392103   4.689218   2.173498   3.418484
    18  F    5.705039   3.334535   2.824895   3.625615   2.361961
    19  F    3.864745   3.540980   2.840826   3.623734   4.122913
    20  H    4.694958   4.290241   5.429996   9.311040   8.680953
    21  H    5.699483   4.629916   5.711996   9.420347   8.562778
    22  H    5.520508   4.182717   4.959512   9.093050   8.320127
    23  H    4.626730   2.633961   3.567015   7.083059   6.160640
    24  H    3.484988   2.686511   4.078981   7.284481   6.583774
    25  H    3.375320   3.424356   4.335911   8.249466   7.896319
    26  H    2.037542   4.025839   5.092091   8.001320   7.954996
    27  H    2.088412   3.300296   4.677402   7.640649   7.330297
    28  H    0.982505   1.906775   2.927708   5.298190   5.176620
    29  H    3.822092   2.093205   1.089731   4.801771   4.561801
    30  H    4.779148   2.142482   1.100126   4.814173   4.083634
    31  H    4.048002   2.126986   2.502815   6.802840   6.200449
    32  C    2.960880   3.105379   3.428297   7.013877   6.941253
    33  H    2.634243   2.881086   2.984278   6.086872   6.158278
    34  H    3.322723   4.115952   4.493620   7.837430   7.880113
    35  H    3.966920   3.435393   3.425978   7.276451   7.125169
    36  H    3.335345   1.017959   2.026538   4.983908   4.236148
                   11         12         13         14         15
    11  C    0.000000
    12  C    1.395590   0.000000
    13  C    2.360400   1.396211   0.000000
    14  C    2.764351   2.453707   1.389484   0.000000
    15  H    3.375997   3.909699   3.378504   2.150196   0.000000
    16  H    2.143956   3.422881   3.852807   3.419069   2.508278
    17  H    3.847700   3.420887   2.143176   1.083724   2.506336
    18  F    1.356079   2.352381   3.597392   4.120377   4.507113
    19  F    3.598706   2.356817   1.353471   2.357773   4.503187
    20  H    7.403779   6.723901   7.555829   8.814931  10.338467
    21  H    7.297666   6.926923   7.988869   9.175319  10.423824
    22  H    6.961098   6.371754   7.388836   8.691128  10.153661
    23  H    4.884716   4.642631   5.829806   6.954139   8.087852
    24  H    5.432602   5.013828   5.923592   7.005654   8.249052
    25  H    6.650246   5.632333   6.164893   7.480762   9.287374
    26  H    6.974232   5.915420   6.018462   7.107961   8.911972
    27  H    6.302834   5.514266   5.950225   7.021195   8.566243
    28  H    4.267812   3.338952   3.551206   4.586520   6.230661
    29  H    3.388085   2.126970   2.653904   4.030091   5.866233
    30  H    2.727703   2.141780   3.354628   4.537089   5.878392
    31  H    4.835671   3.993051   4.917809   6.266218   7.884957
    32  C    5.809742   4.531050   4.698747   6.014919   8.027732
    33  H    5.144189   3.800357   3.741663   5.011066   7.069162
    34  H    6.810721   5.503688   5.500425   6.746553   8.810450
    35  H    5.928559   4.669745   4.957183   6.316332   8.315275
    36  H    3.021068   2.666093   3.752858   4.799490   5.991674
                   16         17         18         19         20
    16  H    0.000000
    17  H    4.333837   0.000000
    18  F    2.590503   5.203666   0.000000
    19  F    5.206273   2.583272   4.707100   0.000000
    20  H    9.284059   9.508643   7.004889   7.338578   0.000000
    21  H    8.981857  10.005825   6.600630   8.055046   1.762941
    22  H    8.866569   9.482528   6.379610   7.289825   1.769168
    23  H    6.579089   7.867479   4.167241   6.141594   3.077465
    24  H    7.098033   7.787866   5.039376   6.059619   2.509374
    25  H    8.699951   8.018751   6.631351   5.636575   2.224714
    26  H    8.819787   7.417828   7.292313   5.351285   3.869043
    27  H    8.048172   7.541734   6.362781   5.665583   2.945521
    28  H    6.029657   5.107165   4.725507   3.361025   4.679287
    29  H    5.496228   4.696323   3.838250   2.435596   5.563943
    30  H    4.769918   5.453713   2.567352   3.772765   5.542916
    31  H    6.918515   7.024829   4.599218   4.782455   3.297511
    32  C    7.895402   6.396500   6.172902   3.867066   4.287008
    33  H    7.162377   5.331370   5.716093   2.815022   5.096909
    34  H    8.860050   6.992966   7.234769   4.508371   4.660095
    35  H    8.058234   6.747516   6.195792   4.172575   4.510412
    36  H    4.836192   5.700680   2.799179   4.222893   4.464645
                   21         22         23         24         25
    21  H    0.000000
    22  H    1.767889   0.000000
    23  H    2.439797   2.549885   0.000000
    24  H    2.526022   3.082929   1.754608   0.000000
    25  H    3.740161   2.879415   3.732728   3.130468   0.000000
    26  H    5.344213   5.066062   5.130206   3.838605   2.424243
    27  H    4.031870   4.210710   3.790178   2.234019   2.468077
    28  H    5.449074   5.225767   4.003795   3.139295   3.473140
    29  H    6.118492   5.123834   4.237330   4.619181   4.094395
    30  H    5.570100   4.732360   3.370614   4.338912   4.731226
    31  H    3.759733   2.593838   2.433241   3.053256   2.486171
    32  C    5.561836   4.494929   4.701720   4.343103   2.139128
    33  H    6.231177   5.282333   5.006156   4.648566   3.061592
    34  H    6.144632   5.106021   5.605389   5.045660   2.441071
    35  H    5.659140   4.317137   4.783390   4.800876   2.520731
    36  H    4.443828   4.321501   2.222586   2.427617   4.078640
                   26         27         28         29         30
    26  H    0.000000
    27  H    1.762385   0.000000
    28  H    2.799023   2.443754   0.000000
    29  H    4.861527   4.821711   3.106685   0.000000
    30  H    5.885646   5.332957   3.890680   1.764325   0.000000
    31  H    4.305076   3.803650   3.499262   2.532068   2.457085
    32  C    2.761308   3.485785   2.963003   2.746039   4.081155
    33  H    3.100994   3.796081   2.526201   2.245310   3.834321
    34  H    2.563977   3.775195   3.614656   3.764013   5.171010
    35  H    3.771688   4.337859   3.804844   2.617121   3.829290
    36  H    4.653426   3.585608   2.435290   2.919647   2.392814
                   31         32         33         34         35
    31  H    0.000000
    32  C    2.707183   0.000000
    33  H    3.148719   1.092792   0.000000
    34  H    3.688619   1.095433   1.761723   0.000000
    35  H    2.459232   1.095678   1.777864   1.769288   0.000000
    36  H    2.694736   4.082723   3.883811   5.070144   4.397339
                   36
    36  H    0.000000
 Stoichiometry    C13H19F2NO
 Framework group  C1[X(C13H19F2NO)]
 Deg. of freedom   102
 Full point group                 C1      NOp   1
 Largest Abelian subgroup         C1      NOp   1
 Largest concise Abelian subgroup C1      NOp   1
                         Standard orientation:                         
 ---------------------------------------------------------------------
 Center     Atomic      Atomic             Coordinates (Angstroms)
 Number     Number       Type             X           Y           Z
 ---------------------------------------------------------------------
      1          6           0       -4.254834    1.941452   -0.062588
      2          6           0       -2.800614    1.692713    0.349652
      3          6           0       -2.092312    0.543416   -0.394350
      4          6           0       -2.787586   -0.838240   -0.242690
      5          6           0       -2.750469   -1.362997    1.206381
      6          8           0       -1.441811   -1.708029    1.639867
      7          7           0       -0.675831    0.475048    0.075025
      8          6           0        0.322484    0.396613   -1.009312
      9          6           0        4.307872   -0.102001    0.617209
     10          6           0        3.761801    1.177861    0.505556
     11          6           0        2.482706    1.301827   -0.020873
     12          6           0        1.713823    0.220499   -0.453562
     13          6           0        2.307765   -1.034589   -0.307304
     14          6           0        3.583291   -1.223415    0.210426
     15          1           0        5.304913   -0.226556    1.026290
     16          1           0        4.302592    2.063348    0.818561
     17          1           0        3.985740   -2.226475    0.290200
     18          9           0        1.936005    2.538723   -0.121647
     19          9           0        1.603614   -2.120430   -0.703542
     20          1           0       -4.914577    1.119420    0.229882
     21          1           0       -4.635526    2.850450    0.413262
     22          1           0       -4.343361    2.072228   -1.147008
     23          1           0       -2.221050    2.606375    0.161578
     24          1           0       -2.747725    1.516311    1.431626
     25          1           0       -3.844395   -0.688989   -0.500678
     26          1           0       -3.366328   -2.268874    1.274814
     27          1           0       -3.209156   -0.622356    1.883318
     28          1           0       -0.873115   -0.996709    1.271186
     29          1           0        0.082899   -0.462094   -1.635998
     30          1           0        0.296380    1.289196   -1.651879
     31          1           0       -2.104689    0.801646   -1.466327
     32          6           0       -2.223235   -1.890784   -1.210183
     33          1           0       -1.200827   -2.168730   -0.942558
     34          1           0       -2.827764   -2.803597   -1.174267
     35          1           0       -2.228653   -1.528069   -2.244068
     36          1           0       -0.470770    1.313596    0.614494
 ---------------------------------------------------------------------
 Rotational constants (GHZ):      0.7356145      0.2767711      0.2270777
 Standard basis: def2TZVP (5D, 7F)
 There are   726 symmetry adapted cartesian basis functions of A   symmetry.
 There are   641 symmetry adapted basis functions of A   symmetry.
   641 basis functions,  1019 primitive gaussians,   726 cartesian basis functions
    65 alpha electrons       65 beta electrons
       nuclear repulsion energy      1284.4114947957 Hartrees.
 NAtoms=   36 NActive=   36 NUniq=   36 SFac= 1.00D+00 NAtFMM=   60 NAOKFM=F Big=F
 Integral buffers will be    131072 words long.
 Raffenetti 2 integral format.
 Two-electron integral symmetry is turned on.
 ------------------------------------------------------------------------------
 Polarizable Continuum Model (PCM)
 =================================
 Model                : PCM (using non-symmetric T matrix).
 Atomic radii         : UFF (Universal Force Field).
 Polarization charges : Total charges.
 Charge compensation  : None.
 Solution method      : On-the-fly selection.
 Cavity type          : Scaled VdW (van der Waals Surface) (Alpha=1.100).
 Cavity algorithm     : GePol (No added spheres)
                        Default sphere list used, NSphG=   36.
                        Lebedev-Laikov grids with approx.  5.0 points / Ang**2.
                        Smoothing algorithm: Karplus/York (Gamma=1.0000).
                        Polarization charges: spherical gaussians, with
                                              point-specific exponents (IZeta= 3).
                        Self-potential: point-specific (ISelfS= 7).
                        Self-field    : sphere-specific E.n sum rule (ISelfD= 2).
 Solvent              : Chloroform, Eps=   4.711300 Eps(inf)=   2.090627
 ------------------------------------------------------------------------------
 One-electron integrals computed using PRISM.
   1 Symmetry operations used in ECPInt.
 ECPInt:  NShTT=   34716 NPrTT=  103716 LenC2=   31206 LenP2D=   67898.
 LDataN:  DoStor=T MaxTD1= 6 Len=  172
 NBasis=   641 RedAO= T EigKep=  1.15D-05  NBF=   641
 NBsUse=   641 1.00D-06 EigRej= -1.00D+00 NBFU=   641
 ExpMin= 9.52D-02 ExpMax= 3.55D+04 ExpMxC= 1.21D+03 IAcc=3 IRadAn=         5 AccDes= 0.00D+00
 Harris functional with IExCor= 1009 and IRadAn=       5 diagonalized for initial guess.
 HarFok:  IExCor= 1009 AccDes= 0.00D+00 IRadAn=         5 IDoV= 1 UseB2=F ITyADJ=14
 ICtDFT=  3500011 ScaDFX=  1.000000  1.000000  1.000000  1.000000
 FoFCou: FMM=F IPFlag=           0 FMFlag=      100000 FMFlg1=           0
         NFxFlg=           0 DoJE=T BraDBF=F KetDBF=T FulRan=T
         wScrn=  0.000000 ICntrl=     500 IOpCl=  0 I1Cent=   200000004 NGrid=           0
         NMat0=    1 NMatS0=      1 NMatT0=    0 NMatD0=    1 NMtDS0=    0 NMtDT0=    0
 Petite list used in FoFCou.
 Requested convergence on RMS density matrix=1.00D-08 within 128 cycles.
 Requested convergence on MAX density matrix=1.00D-06.
 Requested convergence on             energy=1.00D-06.
 No special actions if energy rises.
 Inv3:  Mode=1 IEnd=    19081452.
 Iteration    1 A*A^-1 deviation from unit magnitude is 4.77D-15 for   1258.
 Iteration    1 A*A^-1 deviation from orthogonality  is 2.63D-15 for   2502     61.
 Iteration    1 A^-1*A deviation from unit magnitude is 5.44D-15 for   2505.
 Iteration    1 A^-1*A deviation from orthogonality  is 2.98D-09 for   2282   2115.
 Iteration    2 A*A^-1 deviation from unit magnitude is 6.00D-15 for    615.
 Iteration    2 A*A^-1 deviation from orthogonality  is 3.36D-15 for   2324   1886.
 Iteration    2 A^-1*A deviation from unit magnitude is 8.88D-16 for    626.
 Iteration    2 A^-1*A deviation from orthogonality  is 3.58D-16 for   1928   1448.
 Error on total polarization charges =  0.01262
 SCF Done:  E(RM062X) =  -836.460249210     A.U. after   12 cycles
            NFock= 12  Conv=0.96D-08     -V/T= 2.0052

 **********************************************************************

            Population analysis using the SCF density.

 **********************************************************************

 Orbital symmetries:
       Occupied  (A) (A) (A) (A) (A) (A) (A) (A) (A) (A) (A) (A)
                 (A) (A) (A) (A) (A) (A) (A) (A) (A) (A) (A) (A)
                 (A) (A) (A) (A) (A) (A) (A) (A) (A) (A) (A) (A)
                 (A) (A) (A) (A) (A) (A) (A) (A) (A) (A) (A) (A)
                 (A) (A) (A) (A) (A) (A) (A) (A) (A) (A) (A) (A)
                 (A) (A) (A) (A) (A)
       Virtual   (A) (A) (A) (A) (A) (A) (A) (A) (A) (A) (A) (A)
                 (A) (A) (A) (A) (A) (A) (A) (A) (A) (A) (A) (A)
                 (A) (A) (A) (A) (A) (A) (A) (A) (A) (A) (A) (A)
                 (A) (A) (A) (A) (A) (A) (A) (A) (A) (A) (A) (A)
                 (A) (A) (A) (A) (A) (A) (A) (A) (A) (A) (A) (A)
                 (A) (A) (A) (A) (A) (A) (A) (A) (A) (A) (A) (A)
                 (A) (A) (A) (A) (A) (A) (A) (A) (A) (A) (A) (A)
                 (A) (A) (A) (A) (A) (A) (A) (A) (A) (A) (A) (A)
                 (A) (A) (A) (A) (A) (A) (A) (A) (A) (A) (A) (A)
                 (A) (A) (A) (A) (A) (A) (A) (A) (A) (A) (A) (A)
                 (A) (A) (A) (A) (A) (A) (A) (A) (A) (A) (A) (A)
                 (A) (A) (A) (A) (A) (A) (A) (A) (A) (A) (A) (A)
                 (A) (A) (A) (A) (A) (A) (A) (A) (A) (A) (A) (A)
                 (A) (A) (A) (A) (A) (A) (A) (A) (A) (A) (A) (A)
                 (A) (A) (A) (A) (A) (A) (A) (A) (A) (A) (A) (A)
                 (A) (A) (A) (A) (A) (A) (A) (A) (A) (A) (A) (A)
                 (A) (A) (A) (A) (A) (A) (A) (A) (A) (A) (A) (A)
                 (A) (A) (A) (A) (A) (A) (A) (A) (A) (A) (A) (A)
                 (A) (A) (A) (A) (A) (A) (A) (A) (A) (A) (A) (A)
                 (A) (A) (A) (A) (A) (A) (A) (A) (A) (A) (A) (A)
                 (A) (A) (A) (A) (A) (A) (A) (A) (A) (A) (A) (A)
                 (A) (A) (A) (A) (A) (A) (A) (A) (A) (A) (A) (A)
                 (A) (A) (A) (A) (A) (A) (A) (A) (A) (A) (A) (A)
                 (A) (A) (A) (A) (A) (A) (A) (A) (A) (A) (A) (A)
                 (A) (A) (A) (A) (A) (A) (A) (A) (A) (A) (A) (A)
                 (A) (A) (A) (A) (A) (A) (A) (A) (A) (A) (A) (A)
                 (A) (A) (A) (A) (A) (A) (A) (A) (A) (A) (A) (A)
                 (A) (A) (A) (A) (A) (A) (A) (A) (A) (A) (A) (A)
                 (A) (A) (A) (A) (A) (A) (A) (A) (A) (A) (A) (A)
                 (A) (A) (A) (A) (A) (A) (A) (A) (A) (A) (A) (A)
                 (A) (A) (A) (A) (A) (A) (A) (A) (A) (A) (A) (A)
                 (A) (A) (A) (A) (A) (A) (A) (A) (A) (A) (A) (A)
                 (A) (A) (A) (A) (A) (A) (A) (A) (A) (A) (A) (A)
                 (A) (A) (A) (A) (A) (A) (A) (A) (A) (A) (A) (A)
                 (A) (A) (A) (A) (A) (A) (A) (A) (A) (A) (A) (A)
                 (A) (A) (A) (A) (A) (A) (A) (A) (A) (A) (A) (A)
                 (A) (A) (A) (A) (A) (A) (A) (A) (A) (A) (A) (A)
                 (A) (A) (A) (A) (A) (A) (A) (A) (A) (A) (A) (A)
                 (A) (A) (A) (A) (A) (A) (A) (A) (A) (A) (A) (A)
                 (A) (A) (A) (A) (A) (A) (A) (A) (A) (A) (A) (A)
                 (A) (A) (A) (A) (A) (A) (A) (A) (A) (A) (A) (A)
                 (A) (A) (A) (A) (A) (A) (A) (A) (A) (A) (A) (A)
                 (A) (A) (A) (A) (A) (A) (A) (A) (A) (A) (A) (A)
                 (A) (A) (A) (A) (A) (A) (A) (A) (A) (A) (A) (A)
                 (A) (A) (A) (A) (A) (A) (A) (A) (A) (A) (A) (A)
                 (A) (A) (A) (A) (A) (A) (A) (A) (A) (A) (A) (A)
                 (A) (A) (A) (A) (A) (A) (A) (A) (A) (A) (A) (A)
                 (A) (A) (A) (A) (A) (A) (A) (A) (A) (A) (A) (A)
 The electronic state is 1-A.
 Alpha  occ. eigenvalues --  -25.27094 -25.26803 -19.59885 -14.75155 -10.64453
 Alpha  occ. eigenvalues --  -10.64414 -10.58143 -10.57300 -10.57111 -10.57071
 Alpha  occ. eigenvalues --  -10.56691 -10.55881 -10.55806 -10.53884 -10.53766
 Alpha  occ. eigenvalues --  -10.52814 -10.51995  -1.38324  -1.38075  -1.12148
 Alpha  occ. eigenvalues --   -1.02877  -0.98418  -0.90763  -0.87470  -0.86184
 Alpha  occ. eigenvalues --   -0.85650  -0.79111  -0.76030  -0.74207  -0.72874
 Alpha  occ. eigenvalues --   -0.70620  -0.69382  -0.65529  -0.63934  -0.62602
 Alpha  occ. eigenvalues --   -0.58798  -0.57990  -0.57577  -0.57469  -0.57230
 Alpha  occ. eigenvalues --   -0.54773  -0.54631  -0.53643  -0.52836  -0.51751
 Alpha  occ. eigenvalues --   -0.50421  -0.49512  -0.48291  -0.47817  -0.46734
 Alpha  occ. eigenvalues --   -0.45858  -0.44559  -0.44258  -0.44004  -0.43494
 Alpha  occ. eigenvalues --   -0.42853  -0.42388  -0.40936  -0.38495  -0.37975
 Alpha  occ. eigenvalues --   -0.37837  -0.33099  -0.32024  -0.31413  -0.30583
 Alpha virt. eigenvalues --    0.00220   0.01724   0.05979   0.07164   0.08253
 Alpha virt. eigenvalues --    0.08964   0.09293   0.10706   0.10781   0.11843
 Alpha virt. eigenvalues --    0.12146   0.12929   0.13285   0.13811   0.14514
 Alpha virt. eigenvalues --    0.15014   0.15454   0.16088   0.16595   0.17015
 Alpha virt. eigenvalues --    0.17383   0.18013   0.18597   0.19292   0.19884
 Alpha virt. eigenvalues --    0.20495   0.20679   0.21682   0.21931   0.22620
 Alpha virt. eigenvalues --    0.23016   0.23457   0.24289   0.24693   0.25210
 Alpha virt. eigenvalues --    0.25403   0.26025   0.27183   0.28063   0.28598
 Alpha virt. eigenvalues --    0.28826   0.29564   0.30286   0.30803   0.31770
 Alpha virt. eigenvalues --    0.33384   0.33505   0.34016   0.34420   0.36070
 Alpha virt. eigenvalues --    0.36470   0.37121   0.37184   0.37580   0.38400
 Alpha virt. eigenvalues --    0.38567   0.38864   0.39608   0.40524   0.41181
 Alpha virt. eigenvalues --    0.41494   0.41669   0.42012   0.42692   0.42980
 Alpha virt. eigenvalues --    0.43283   0.43988   0.44490   0.44718   0.45032
 Alpha virt. eigenvalues --    0.45431   0.45916   0.46420   0.47017   0.47839
 Alpha virt. eigenvalues --    0.48338   0.48613   0.49345   0.49451   0.49876
 Alpha virt. eigenvalues --    0.50464   0.51389   0.51540   0.51958   0.52500
 Alpha virt. eigenvalues --    0.52878   0.53214   0.54104   0.54719   0.55585
 Alpha virt. eigenvalues --    0.55825   0.56939   0.57644   0.58231   0.58815
 Alpha virt. eigenvalues --    0.59531   0.60193   0.61375   0.61767   0.62027
 Alpha virt. eigenvalues --    0.62207   0.63862   0.64917   0.66165   0.67025
 Alpha virt. eigenvalues --    0.68788   0.68948   0.69552   0.70149   0.70339
 Alpha virt. eigenvalues --    0.71894   0.72431   0.73266   0.75381   0.76196
 Alpha virt. eigenvalues --    0.77005   0.77909   0.78179   0.79053   0.80936
 Alpha virt. eigenvalues --    0.81230   0.82029   0.82589   0.83484   0.84573
 Alpha virt. eigenvalues --    0.85064   0.86669   0.87534   0.88892   0.89851
 Alpha virt. eigenvalues --    0.90163   0.90678   0.91928   0.92191   0.93299
 Alpha virt. eigenvalues --    0.93848   0.95400   0.95623   0.96818   0.97797
 Alpha virt. eigenvalues --    0.98904   0.99421   0.99799   1.01030   1.02306
 Alpha virt. eigenvalues --    1.02777   1.04885   1.05688   1.06569   1.07524
 Alpha virt. eigenvalues --    1.08601   1.09424   1.09717   1.11271   1.11974
 Alpha virt. eigenvalues --    1.12728   1.13140   1.14277   1.15105   1.16819
 Alpha virt. eigenvalues --    1.17575   1.18307   1.18766   1.20011   1.20277
 Alpha virt. eigenvalues --    1.21893   1.23283   1.24601   1.24679   1.25422
 Alpha virt. eigenvalues --    1.27417   1.28028   1.28237   1.29173   1.30430
 Alpha virt. eigenvalues --    1.31221   1.31419   1.34235   1.34913   1.35852
 Alpha virt. eigenvalues --    1.36581   1.38115   1.39935   1.40534   1.42251
 Alpha virt. eigenvalues --    1.42461   1.45283   1.45713   1.46481   1.49794
 Alpha virt. eigenvalues --    1.50948   1.51460   1.52653   1.53834   1.55086
 Alpha virt. eigenvalues --    1.55882   1.56861   1.57370   1.57794   1.58481
 Alpha virt. eigenvalues --    1.58701   1.59952   1.60702   1.60887   1.61548
 Alpha virt. eigenvalues --    1.62158   1.62559   1.64442   1.65012   1.65895
 Alpha virt. eigenvalues --    1.66722   1.67659   1.68233   1.69164   1.69386
 Alpha virt. eigenvalues --    1.70484   1.71110   1.71516   1.72035   1.73339
 Alpha virt. eigenvalues --    1.73677   1.74883   1.76116   1.78430   1.80893
 Alpha virt. eigenvalues --    1.81935   1.83224   1.83330   1.84553   1.84843
 Alpha virt. eigenvalues --    1.86363   1.88175   1.89440   1.90090   1.91894
 Alpha virt. eigenvalues --    1.92581   1.92715   1.94560   1.95705   1.96915
 Alpha virt. eigenvalues --    1.97411   1.98121   1.98855   2.01112   2.01669
 Alpha virt. eigenvalues --    2.02057   2.03127   2.03930   2.05861   2.08520
 Alpha virt. eigenvalues --    2.09329   2.10232   2.10857   2.11738   2.11917
 Alpha virt. eigenvalues --    2.13757   2.14875   2.15325   2.16292   2.16830
 Alpha virt. eigenvalues --    2.17807   2.18754   2.19671   2.20827   2.21797
 Alpha virt. eigenvalues --    2.23479   2.25705   2.26400   2.27757   2.28441
 Alpha virt. eigenvalues --    2.29020   2.29916   2.31231   2.31834   2.32426
 Alpha virt. eigenvalues --    2.32882   2.33827   2.35032   2.35771   2.37051
 Alpha virt. eigenvalues --    2.37517   2.38318   2.40243   2.41251   2.42290
 Alpha virt. eigenvalues --    2.43485   2.43738   2.44321   2.45611   2.45997
 Alpha virt. eigenvalues --    2.47081   2.48591   2.50369   2.51090   2.51788
 Alpha virt. eigenvalues --    2.52756   2.53520   2.55033   2.55549   2.56791
 Alpha virt. eigenvalues --    2.57009   2.57530   2.59204   2.59811   2.60338
 Alpha virt. eigenvalues --    2.60923   2.61879   2.62267   2.62836   2.63416
 Alpha virt. eigenvalues --    2.64392   2.64895   2.65624   2.66557   2.66827
 Alpha virt. eigenvalues --    2.67526   2.68641   2.69290   2.69824   2.71053
 Alpha virt. eigenvalues --    2.71456   2.72604   2.73798   2.74698   2.74872
 Alpha virt. eigenvalues --    2.76334   2.77177   2.77935   2.78634   2.78928
 Alpha virt. eigenvalues --    2.81155   2.81547   2.81845   2.83265   2.84379
 Alpha virt. eigenvalues --    2.85303   2.85792   2.87682   2.88342   2.89786
 Alpha virt. eigenvalues --    2.90171   2.90750   2.92391   2.92883   2.94121
 Alpha virt. eigenvalues --    2.95213   2.95654   2.97066   2.98685   2.99503
 Alpha virt. eigenvalues --    3.00287   3.01786   3.02637   3.02934   3.03426
 Alpha virt. eigenvalues --    3.04808   3.06575   3.06932   3.07345   3.07660
 Alpha virt. eigenvalues --    3.08783   3.09496   3.11032   3.12449   3.13784
 Alpha virt. eigenvalues --    3.14405   3.14903   3.15091   3.16075   3.17169
 Alpha virt. eigenvalues --    3.17805   3.18457   3.19447   3.20257   3.20686
 Alpha virt. eigenvalues --    3.22102   3.22326   3.23643   3.24814   3.25634
 Alpha virt. eigenvalues --    3.26488   3.27055   3.27951   3.28028   3.30588
 Alpha virt. eigenvalues --    3.30835   3.31658   3.32773   3.32917   3.33595
 Alpha virt. eigenvalues --    3.34166   3.34497   3.36428   3.37078   3.37230
 Alpha virt. eigenvalues --    3.39072   3.40254   3.40718   3.41685   3.42330
 Alpha virt. eigenvalues --    3.43155   3.43556   3.43926   3.45554   3.45975
 Alpha virt. eigenvalues --    3.46493   3.47927   3.49010   3.49816   3.50784
 Alpha virt. eigenvalues --    3.51966   3.53066   3.53703   3.54634   3.55328
 Alpha virt. eigenvalues --    3.55712   3.56362   3.57241   3.58150   3.59020
 Alpha virt. eigenvalues --    3.61253   3.61677   3.62387   3.62971   3.65520
 Alpha virt. eigenvalues --    3.67155   3.68048   3.68429   3.69903   3.70274
 Alpha virt. eigenvalues --    3.72774   3.75082   3.76020   3.77223   3.78853
 Alpha virt. eigenvalues --    3.80084   3.81555   3.83178   3.83740   3.86557
 Alpha virt. eigenvalues --    3.87816   3.89382   3.91150   3.93065   3.93964
 Alpha virt. eigenvalues --    3.95514   3.97876   3.99716   4.01848   4.02516
 Alpha virt. eigenvalues --    4.02685   4.04727   4.05008   4.06044   4.07029
 Alpha virt. eigenvalues --    4.07908   4.10045   4.10760   4.11256   4.11979
 Alpha virt. eigenvalues --    4.13489   4.14741   4.15612   4.16735   4.17726
 Alpha virt. eigenvalues --    4.18955   4.20038   4.20814   4.21676   4.24670
 Alpha virt. eigenvalues --    4.25246   4.27593   4.29061   4.33118   4.34765
 Alpha virt. eigenvalues --    4.35546   4.36787   4.38124   4.38478   4.41224
 Alpha virt. eigenvalues --    4.42844   4.45252   4.47091   4.48173   4.50559
 Alpha virt. eigenvalues --    4.52298   4.54472   4.56030   4.56833   4.61529
 Alpha virt. eigenvalues --    4.62898   4.64677   4.66241   4.68015   4.70446
 Alpha virt. eigenvalues --    4.73601   4.75495   4.78599   4.80531   4.82073
 Alpha virt. eigenvalues --    4.83910   4.88578   4.92969   4.95573   4.98047
 Alpha virt. eigenvalues --    5.00086   5.04609   5.08430   5.09686   5.11117
 Alpha virt. eigenvalues --    5.15326   5.18732   5.26774   5.29442   5.30781
 Alpha virt. eigenvalues --    5.31669   5.36536   5.38106   5.41594   5.43530
 Alpha virt. eigenvalues --    5.50913   5.52769   5.55705   5.65202   5.67895
 Alpha virt. eigenvalues --    5.73215   5.78931   5.87505   5.94986   6.27346
 Alpha virt. eigenvalues --    6.52133   6.74550   6.78597   6.90012   6.90528
 Alpha virt. eigenvalues --    6.91041   6.92275   6.99012   6.99649   7.00596
 Alpha virt. eigenvalues --    7.08202   7.09955   7.18872   7.21629   7.24367
 Alpha virt. eigenvalues --    7.36219   7.39296   7.53803   7.55852   8.35802
 Alpha virt. eigenvalues --    8.36877   8.54303   8.55848   8.74110   8.75253
 Alpha virt. eigenvalues --    8.96326   8.97543   8.99932   9.03045  22.22195
 Alpha virt. eigenvalues --   22.42870  22.53543  22.54235  22.61656  22.63988
 Alpha virt. eigenvalues --   22.73873  22.75152  22.76257  22.78948  22.93684
 Alpha virt. eigenvalues --   23.02607  23.48191  32.63992  44.08016  57.50364
 Alpha virt. eigenvalues --   57.56506
          Condensed to atoms (all electrons):
               1          2          3          4          5          6
     1  C    5.085992   0.219515  -0.048623   0.034690  -0.013627   0.000710
     2  C    0.219515   5.285735   0.182300  -0.054609   0.030010  -0.008935
     3  C   -0.048623   0.182300   5.556942   0.075604   0.015733  -0.004688
     4  C    0.034690  -0.054609   0.075604   5.587225   0.201863  -0.012289
     5  C   -0.013627   0.030010   0.015733   0.201863   4.937107   0.211132
     6  O    0.000710  -0.008935  -0.004688  -0.012289   0.211132   8.155663
     7  N    0.009318  -0.042300   0.098973  -0.046886   0.004731  -0.056623
     8  C   -0.000224  -0.000457  -0.049831   0.024331  -0.006872   0.008553
     9  C    0.000000  -0.000001  -0.000007  -0.000017   0.000006  -0.000028
    10  C    0.000001   0.000038  -0.000065   0.000061  -0.000017   0.000034
    11  C    0.000002   0.000589   0.001813  -0.000165   0.000100  -0.000087
    12  C    0.000076  -0.001746   0.021779  -0.009089   0.002141  -0.003122
    13  C   -0.000012  -0.000040  -0.005650   0.001236  -0.000379   0.001986
    14  C    0.000000   0.000000  -0.000206   0.000135  -0.000048   0.000246
    15  H    0.000000   0.000000   0.000000   0.000000   0.000000   0.000000
    16  H    0.000000   0.000000  -0.000001   0.000000   0.000000   0.000000
    17  H    0.000000   0.000000   0.000001  -0.000001   0.000000   0.000000
    18  F   -0.000004  -0.000265   0.000020  -0.000028   0.000001   0.000000
    19  F    0.000000  -0.000007   0.000008   0.000627   0.000028  -0.000303
    20  H    0.420099  -0.033564  -0.023048   0.017187  -0.004158  -0.000075
    21  H    0.418263  -0.047159   0.013683  -0.000872   0.000092   0.000002
    22  H    0.412237  -0.048562   0.010892  -0.010752   0.001216  -0.000014
    23  H   -0.023768   0.440314  -0.072891   0.015882  -0.001517   0.000033
    24  H   -0.044287   0.423077  -0.014597  -0.032081   0.005065   0.001678
    25  H   -0.004623  -0.015320  -0.068463   0.459864  -0.057360   0.006592
    26  H    0.001058  -0.003359   0.015028  -0.040352   0.422849  -0.036446
    27  H   -0.003462   0.014225  -0.029782  -0.052646   0.438285  -0.047284
    28  H   -0.000094  -0.002283   0.003412  -0.008010  -0.042444   0.313373
    29  H    0.000136   0.000190   0.017745  -0.004116   0.000947  -0.000653
    30  H   -0.000135   0.000919  -0.003995  -0.003090   0.000086  -0.000282
    31  H   -0.010734  -0.023346   0.476401  -0.093775   0.008671  -0.000881
    32  C   -0.000385   0.009329  -0.055709   0.199175  -0.047376  -0.013974
    33  H   -0.000098  -0.000414  -0.035195  -0.012771  -0.019167   0.014691
    34  H    0.000103  -0.000528   0.009925  -0.038785  -0.003520   0.000610
    35  H   -0.000148   0.001561   0.012413  -0.072300   0.009663   0.000562
    36  H    0.001137  -0.003731  -0.046604   0.001454   0.000945   0.001061
               7          8          9         10         11         12
     1  C    0.009318  -0.000224   0.000000   0.000001   0.000002   0.000076
     2  C   -0.042300  -0.000457  -0.000001   0.000038   0.000589  -0.001746
     3  C    0.098973  -0.049831  -0.000007  -0.000065   0.001813   0.021779
     4  C   -0.046886   0.024331  -0.000017   0.000061  -0.000165  -0.009089
     5  C    0.004731  -0.006872   0.000006  -0.000017   0.000100   0.002141
     6  O   -0.056623   0.008553  -0.000028   0.000034  -0.000087  -0.003122
     7  N    7.130429   0.142426   0.000933  -0.001304   0.008142  -0.060258
     8  C    0.142426   5.237804  -0.006883   0.014360  -0.081208   0.237408
     9  C    0.000933  -0.006883   5.024750   0.414597  -0.016201  -0.082827
    10  C   -0.001304   0.014360   0.414597   5.082267   0.498213   0.019869
    11  C    0.008142  -0.081208  -0.016201   0.498213   4.823052   0.282045
    12  C   -0.060258   0.237408  -0.082827   0.019869   0.282045   5.582033
    13  C    0.027472  -0.080639  -0.019293  -0.093206   0.048745   0.260989
    14  C   -0.000513   0.007934   0.437773  -0.021298  -0.076720   0.009987
    15  H    0.000000   0.000081   0.403405  -0.025358   0.002391  -0.000538
    16  H    0.000007  -0.000178  -0.032855   0.414125  -0.042276   0.014076
    17  H    0.000009  -0.000340  -0.029880   0.003630  -0.000457   0.012012
    18  F   -0.002587   0.016985   0.010103  -0.051053   0.253602  -0.085363
    19  F   -0.001160   0.011222   0.008201  -0.000382   0.005591  -0.076056
    20  H   -0.000193  -0.000083   0.000000   0.000000   0.000000  -0.000001
    21  H   -0.000413   0.000025   0.000000   0.000000   0.000000  -0.000002
    22  H    0.000080   0.000093   0.000000   0.000000   0.000000   0.000013
    23  H   -0.000686  -0.000153  -0.000003   0.000022   0.000051  -0.000457
    24  H   -0.001847  -0.000183   0.000001  -0.000009  -0.000008   0.000464
    25  H    0.006460   0.001316   0.000000   0.000000  -0.000015  -0.000133
    26  H   -0.001023   0.000164   0.000000   0.000000   0.000001   0.000028
    27  H   -0.000948   0.000228   0.000000   0.000001  -0.000012  -0.000261
    28  H    0.035318  -0.003161   0.000101  -0.000128   0.000117  -0.000803
    29  H   -0.059772   0.443270  -0.000462   0.000517   0.006932  -0.033228
    30  H   -0.047730   0.406741   0.000394  -0.002775  -0.016924  -0.016229
    31  H   -0.039889  -0.018957   0.000007  -0.000036  -0.000256   0.004644
    32  C    0.006640   0.005063   0.000019  -0.000012  -0.000416  -0.001165
    33  H    0.009910   0.008917  -0.000028   0.000019  -0.000472  -0.004985
    34  H   -0.000480  -0.000059   0.000000   0.000000   0.000004   0.000041
    35  H   -0.000140  -0.005085   0.000000  -0.000001   0.000049   0.000311
    36  H    0.371381  -0.030671  -0.000167   0.000360  -0.000075  -0.006130
              13         14         15         16         17         18
     1  C   -0.000012   0.000000   0.000000   0.000000   0.000000  -0.000004
     2  C   -0.000040   0.000000   0.000000   0.000000   0.000000  -0.000265
     3  C   -0.005650  -0.000206   0.000000  -0.000001   0.000001   0.000020
     4  C    0.001236   0.000135   0.000000   0.000000  -0.000001  -0.000028
     5  C   -0.000379  -0.000048   0.000000   0.000000   0.000000   0.000001
     6  O    0.001986   0.000246   0.000000   0.000000   0.000000   0.000000
     7  N    0.027472  -0.000513   0.000000   0.000007   0.000009  -0.002587
     8  C   -0.080639   0.007934   0.000081  -0.000178  -0.000340   0.016985
     9  C   -0.019293   0.437773   0.403405  -0.032855  -0.029880   0.010103
    10  C   -0.093206  -0.021298  -0.025358   0.414125   0.003630  -0.051053
    11  C    0.048745  -0.076720   0.002391  -0.042276  -0.000457   0.253602
    12  C    0.260989   0.009987  -0.000538   0.014076   0.012012  -0.085363
    13  C    4.855473   0.513081   0.002642  -0.000999  -0.037309   0.007041
    14  C    0.513081   5.032212  -0.024361   0.004248   0.409035  -0.001254
    15  H    0.002642  -0.024361   0.475376  -0.003284  -0.003168  -0.000099
    16  H   -0.000999   0.004248  -0.003284   0.473113  -0.000146   0.001378
    17  H   -0.037309   0.409035  -0.003168  -0.000146   0.470644   0.000010
    18  F    0.007041  -0.001254  -0.000099   0.001378   0.000010   9.060277
    19  F    0.240970  -0.043214  -0.000117   0.000011   0.001792  -0.000033
    20  H    0.000000   0.000000   0.000000   0.000000   0.000000   0.000000
    21  H    0.000000   0.000000   0.000000   0.000000   0.000000   0.000000
    22  H    0.000000   0.000000   0.000000   0.000000   0.000000   0.000000
    23  H   -0.000060   0.000003   0.000000   0.000000   0.000000   0.000229
    24  H   -0.000001  -0.000003   0.000000   0.000000   0.000000   0.000002
    25  H    0.000057   0.000002   0.000000   0.000000   0.000000   0.000000
    26  H   -0.000046   0.000000   0.000000   0.000000   0.000000   0.000000
    27  H    0.000107   0.000004   0.000000   0.000000   0.000000   0.000000
    28  H    0.000780  -0.000338   0.000000  -0.000001   0.000002  -0.000012
    29  H   -0.029298  -0.000692   0.000003   0.000009  -0.000029   0.000670
    30  H    0.015511  -0.000662   0.000003  -0.000023   0.000007   0.002617
    31  H    0.000426  -0.000012   0.000000   0.000000   0.000000  -0.000015
    32  C    0.000689  -0.000135   0.000000   0.000000  -0.000002   0.000002
    33  H    0.002338   0.000301   0.000000   0.000000   0.000003   0.000000
    34  H   -0.000034   0.000001   0.000000   0.000000   0.000000   0.000000
    35  H    0.000052   0.000003   0.000000   0.000000   0.000000   0.000000
    36  H   -0.001650   0.000081   0.000000   0.000021   0.000001   0.004129
              19         20         21         22         23         24
     1  C    0.000000   0.420099   0.418263   0.412237  -0.023768  -0.044287
     2  C   -0.000007  -0.033564  -0.047159  -0.048562   0.440314   0.423077
     3  C    0.000008  -0.023048   0.013683   0.010892  -0.072891  -0.014597
     4  C    0.000627   0.017187  -0.000872  -0.010752   0.015882  -0.032081
     5  C    0.000028  -0.004158   0.000092   0.001216  -0.001517   0.005065
     6  O   -0.000303  -0.000075   0.000002  -0.000014   0.000033   0.001678
     7  N   -0.001160  -0.000193  -0.000413   0.000080  -0.000686  -0.001847
     8  C    0.011222  -0.000083   0.000025   0.000093  -0.000153  -0.000183
     9  C    0.008201   0.000000   0.000000   0.000000  -0.000003   0.000001
    10  C   -0.000382   0.000000   0.000000   0.000000   0.000022  -0.000009
    11  C    0.005591   0.000000   0.000000   0.000000   0.000051  -0.000008
    12  C   -0.076056  -0.000001  -0.000002   0.000013  -0.000457   0.000464
    13  C    0.240970   0.000000   0.000000   0.000000  -0.000060  -0.000001
    14  C   -0.043214   0.000000   0.000000   0.000000   0.000003  -0.000003
    15  H   -0.000117   0.000000   0.000000   0.000000   0.000000   0.000000
    16  H    0.000011   0.000000   0.000000   0.000000   0.000000   0.000000
    17  H    0.001792   0.000000   0.000000   0.000000   0.000000   0.000000
    18  F   -0.000033   0.000000   0.000000   0.000000   0.000229   0.000002
    19  F    9.054090   0.000000   0.000000   0.000000   0.000000   0.000000
    20  H    0.000000   0.529806  -0.022896  -0.029796   0.005275  -0.004295
    21  H    0.000000  -0.022896   0.516293  -0.022659  -0.006875  -0.002460
    22  H    0.000000  -0.029796  -0.022659   0.531941  -0.003042   0.006307
    23  H    0.000000   0.005275  -0.006875  -0.003042   0.530231  -0.030394
    24  H    0.000000  -0.004295  -0.002460   0.006307  -0.030394   0.526246
    25  H   -0.000007  -0.009640   0.000513   0.001846  -0.000356   0.001792
    26  H    0.000001  -0.000163  -0.000005  -0.000026   0.000031   0.000371
    27  H   -0.000002   0.002574   0.000014  -0.000131   0.000833  -0.012366
    28  H    0.000946   0.000052   0.000007  -0.000009   0.000048   0.000809
    29  H    0.006095  -0.000008  -0.000002   0.000002   0.000147  -0.000022
    30  H    0.000705   0.000013   0.000007  -0.000008  -0.000128   0.000150
    31  H    0.000013   0.001324   0.000080   0.001168  -0.007401   0.006759
    32  C   -0.004565   0.001161   0.000007  -0.000382  -0.000366  -0.000835
    33  H    0.005607  -0.000015   0.000000   0.000009   0.000005   0.000001
    34  H    0.000028   0.000009  -0.000002   0.000005   0.000020  -0.000015
    35  H    0.000039   0.000016   0.000000   0.000063  -0.000038  -0.000012
    36  H   -0.000087  -0.000058  -0.000120   0.000027   0.002370  -0.000544
              25         26         27         28         29         30
     1  C   -0.004623   0.001058  -0.003462  -0.000094   0.000136  -0.000135
     2  C   -0.015320  -0.003359   0.014225  -0.002283   0.000190   0.000919
     3  C   -0.068463   0.015028  -0.029782   0.003412   0.017745  -0.003995
     4  C    0.459864  -0.040352  -0.052646  -0.008010  -0.004116  -0.003090
     5  C   -0.057360   0.422849   0.438285  -0.042444   0.000947   0.000086
     6  O    0.006592  -0.036446  -0.047284   0.313373  -0.000653  -0.000282
     7  N    0.006460  -0.001023  -0.000948   0.035318  -0.059772  -0.047730
     8  C    0.001316   0.000164   0.000228  -0.003161   0.443270   0.406741
     9  C    0.000000   0.000000   0.000000   0.000101  -0.000462   0.000394
    10  C    0.000000   0.000000   0.000001  -0.000128   0.000517  -0.002775
    11  C   -0.000015   0.000001  -0.000012   0.000117   0.006932  -0.016924
    12  C   -0.000133   0.000028  -0.000261  -0.000803  -0.033228  -0.016229
    13  C    0.000057  -0.000046   0.000107   0.000780  -0.029298   0.015511
    14  C    0.000002   0.000000   0.000004  -0.000338  -0.000692  -0.000662
    15  H    0.000000   0.000000   0.000000   0.000000   0.000003   0.000003
    16  H    0.000000   0.000000   0.000000  -0.000001   0.000009  -0.000023
    17  H    0.000000   0.000000   0.000000   0.000002  -0.000029   0.000007
    18  F    0.000000   0.000000   0.000000  -0.000012   0.000670   0.002617
    19  F   -0.000007   0.000001  -0.000002   0.000946   0.006095   0.000705
    20  H   -0.009640  -0.000163   0.002574   0.000052  -0.000008   0.000013
    21  H    0.000513  -0.000005   0.000014   0.000007  -0.000002   0.000007
    22  H    0.001846  -0.000026  -0.000131  -0.000009   0.000002  -0.000008
    23  H   -0.000356   0.000031   0.000833   0.000048   0.000147  -0.000128
    24  H    0.001792   0.000371  -0.012366   0.000809  -0.000022   0.000150
    25  H    0.552957  -0.004911   0.004649  -0.000761  -0.000505   0.000010
    26  H   -0.004911   0.561036  -0.043250   0.007119   0.000079  -0.000005
    27  H    0.004649  -0.043250   0.596458  -0.004203  -0.000121  -0.000008
    28  H   -0.000761   0.007119  -0.004203   0.345999  -0.001124   0.000655
    29  H   -0.000505   0.000079  -0.000121  -0.001124   0.496558  -0.024595
    30  H    0.000010  -0.000005  -0.000008   0.000655  -0.024595   0.512363
    31  H    0.000181  -0.000423  -0.000223   0.000633  -0.004320   0.006307
    32  C   -0.032051  -0.014595   0.009528  -0.001982  -0.005742   0.000870
    33  H    0.008367  -0.001475   0.001118  -0.000261  -0.012173   0.000596
    34  H   -0.006418   0.002940   0.000133  -0.000080   0.000712  -0.000029
    35  H   -0.004247  -0.000455  -0.000183  -0.000142  -0.001331   0.000036
    36  H   -0.000356   0.000071  -0.000309  -0.001881   0.006805  -0.006267
              31         32         33         34         35         36
     1  C   -0.010734  -0.000385  -0.000098   0.000103  -0.000148   0.001137
     2  C   -0.023346   0.009329  -0.000414  -0.000528   0.001561  -0.003731
     3  C    0.476401  -0.055709  -0.035195   0.009925   0.012413  -0.046604
     4  C   -0.093775   0.199175  -0.012771  -0.038785  -0.072300   0.001454
     5  C    0.008671  -0.047376  -0.019167  -0.003520   0.009663   0.000945
     6  O   -0.000881  -0.013974   0.014691   0.000610   0.000562   0.001061
     7  N   -0.039889   0.006640   0.009910  -0.000480  -0.000140   0.371381
     8  C   -0.018957   0.005063   0.008917  -0.000059  -0.005085  -0.030671
     9  C    0.000007   0.000019  -0.000028   0.000000   0.000000  -0.000167
    10  C   -0.000036  -0.000012   0.000019   0.000000  -0.000001   0.000360
    11  C   -0.000256  -0.000416  -0.000472   0.000004   0.000049  -0.000075
    12  C    0.004644  -0.001165  -0.004985   0.000041   0.000311  -0.006130
    13  C    0.000426   0.000689   0.002338  -0.000034   0.000052  -0.001650
    14  C   -0.000012  -0.000135   0.000301   0.000001   0.000003   0.000081
    15  H    0.000000   0.000000   0.000000   0.000000   0.000000   0.000000
    16  H    0.000000   0.000000   0.000000   0.000000   0.000000   0.000021
    17  H    0.000000  -0.000002   0.000003   0.000000   0.000000   0.000001
    18  F   -0.000015   0.000002   0.000000   0.000000   0.000000   0.004129
    19  F    0.000013  -0.004565   0.005607   0.000028   0.000039  -0.000087
    20  H    0.001324   0.001161  -0.000015   0.000009   0.000016  -0.000058
    21  H    0.000080   0.000007   0.000000  -0.000002   0.000000  -0.000120
    22  H    0.001168  -0.000382   0.000009   0.000005   0.000063   0.000027
    23  H   -0.007401  -0.000366   0.000005   0.000020  -0.000038   0.002370
    24  H    0.006759  -0.000835   0.000001  -0.000015  -0.000012  -0.000544
    25  H    0.000181  -0.032051   0.008367  -0.006418  -0.004247  -0.000356
    26  H   -0.000423  -0.014595  -0.001475   0.002940  -0.000455   0.000071
    27  H   -0.000223   0.009528   0.001118   0.000133  -0.000183  -0.000309
    28  H    0.000633  -0.001982  -0.000261  -0.000080  -0.000142  -0.001881
    29  H   -0.004320  -0.005742  -0.012173   0.000712  -0.001331   0.006805
    30  H    0.006307   0.000870   0.000596  -0.000029   0.000036  -0.006267
    31  H    0.520544  -0.006274   0.001402  -0.000476   0.001394   0.001516
    32  C   -0.006274   5.205760   0.409091   0.410708   0.426802  -0.000443
    33  H    0.001402   0.409091   0.511979  -0.020710  -0.029167  -0.000248
    34  H   -0.000476   0.410708  -0.020710   0.507855  -0.018083   0.000028
    35  H    0.001394   0.426802  -0.029167  -0.018083   0.520295  -0.000140
    36  H    0.001516  -0.000443  -0.000248   0.000028  -0.000140   0.456726
 Mulliken charges:
               1
     1  C   -0.453111
     2  C   -0.321176
     3  C   -0.053320
     4  C   -0.126704
     5  C   -0.094185
     6  O   -0.531241
     7  N   -0.487479
     8  C   -0.281938
     9  C   -0.111636
    10  C   -0.252471
    11  C    0.303857
    12  C   -0.065523
    13  C    0.289021
    14  C   -0.245590
    15  H    0.173022
    16  H    0.172775
    17  H    0.174186
    18  F   -0.216353
    19  F   -0.210042
    20  H    0.150479
    21  H    0.154481
    22  H    0.149482
    23  H    0.152642
    24  H    0.171236
    25  H    0.160561
    26  H    0.135758
    27  H    0.127034
    28  H    0.358343
    29  H    0.197377
    30  H    0.174893
    31  H    0.175551
    32  C   -0.498433
    33  H    0.162823
    34  H    0.156098
    35  H    0.158210
    36  H    0.251371
 Sum of Mulliken charges =   0.00000
 Mulliken charges with hydrogens summed into heavy atoms:
               1
     1  C    0.001331
     2  C    0.002702
     3  C    0.122231
     4  C    0.033857
     5  C    0.168608
     6  O   -0.172897
     7  N   -0.236107
     8  C    0.090333
     9  C    0.061386
    10  C   -0.079695
    11  C    0.303857
    12  C   -0.065523
    13  C    0.289021
    14  C   -0.071404
    18  F   -0.216353
    19  F   -0.210042
    32  C   -0.021303
 Electronic spatial extent (au):  <R**2>=           4925.1600
 Charge=              0.0000 electrons
 Dipole moment (field-independent basis, Debye):
    X=              0.8711    Y=              3.1089    Z=             -1.6747  Tot=              3.6371
 Quadrupole moment (field-independent basis, Debye-Ang):
   XX=            -82.3131   YY=           -108.1533   ZZ=           -107.2164
   XY=             -4.5546   XZ=              6.6977   YZ=              4.9272
 Traceless Quadrupole moment (field-independent basis, Debye-Ang):
   XX=             16.9145   YY=             -8.9257   ZZ=             -7.9888
   XY=             -4.5546   XZ=              6.6977   YZ=              4.9272
 Octapole moment (field-independent basis, Debye-Ang**2):
  XXX=             66.6069  YYY=              7.4801  ZZZ=            -14.5324  XYY=              6.6342
  XXY=             -4.8762  XXZ=             25.2459  XZZ=              4.7705  YZZ=             13.5890
  YYZ=             -3.3528  XYZ=             -4.9356
 Hexadecapole moment (field-independent basis, Debye-Ang**3):
 XXXX=          -4222.1353 YYYY=          -1419.3572 ZZZZ=           -528.4226 XXXY=             19.0881
 XXXZ=             96.7303 YYYX=            -13.3444 YYYZ=             20.5869 ZZZX=             -6.8197
 ZZZY=             19.1342 XXYY=           -937.5421 XXZZ=           -876.6881 YYZZ=           -336.8587
 XXYZ=             12.7625 YYXZ=             17.2497 ZZXY=             -5.8241
 N-N= 1.284411494796D+03 E-N=-4.524940589643D+03  KE= 8.321529650966D+02
 1\1\GINC-CPU-E-94\SP\RM062X\def2TZVP\C13H19F2N1O1\KE291\26-Jun-2019\0\
 \# m062x/def2tzvp int=ultrafine scrf=(solvent=chloroform)\\AT3_1ginp00
 5\\0,1\C,0,-4.254834,1.941452,-0.062588\C,0,-2.800614,1.692713,0.34965
 2\C,0,-2.092312,0.543416,-0.39435\C,0,-2.787586,-0.83824,-0.24269\C,0,
 -2.750469,-1.362997,1.206381\O,0,-1.441811,-1.708029,1.639867\N,0,-0.6
 75831,0.475048,0.075025\C,0,0.322484,0.396613,-1.009312\C,0,4.307872,-
 0.102001,0.617209\C,0,3.761801,1.177861,0.505556\C,0,2.482706,1.301827
 ,-0.020873\C,0,1.713823,0.220499,-0.453562\C,0,2.307765,-1.034589,-0.3
 07304\C,0,3.583291,-1.223415,0.210426\H,0,5.304913,-0.226556,1.02629\H
 ,0,4.302592,2.063348,0.818561\H,0,3.98574,-2.226475,0.2902\F,0,1.93600
 5,2.538723,-0.121647\F,0,1.603614,-2.12043,-0.703542\H,0,-4.914577,1.1
 1942,0.229882\H,0,-4.635526,2.85045,0.413262\H,0,-4.343361,2.072228,-1
 .147008\H,0,-2.22105,2.606375,0.161578\H,0,-2.747725,1.516311,1.431626
 \H,0,-3.844395,-0.688989,-0.500678\H,0,-3.366328,-2.268874,1.274814\H,
 0,-3.209156,-0.622356,1.883318\H,0,-0.873115,-0.996709,1.271186\H,0,0.
 082899,-0.462094,-1.635998\H,0,0.29638,1.289196,-1.651879\H,0,-2.10468
 9,0.801646,-1.466327\C,0,-2.223235,-1.890784,-1.210183\H,0,-1.200827,-
 2.16873,-0.942558\H,0,-2.827764,-2.803597,-1.174267\H,0,-2.228653,-1.5
 28069,-2.244068\H,0,-0.47077,1.313596,0.614494\\Version=ES64L-G09RevD.
 01\State=1-A\HF=-836.4602492\RMSD=9.574e-09\Dipole=0.3427069,1.2231229
 ,-0.6588948\Quadrupole=12.5755346,-6.6360282,-5.9395064,-3.3862342,4.9
 795961,3.6632801\PG=C01 [X(C13H19F2N1O1)]\\@


 ...THOSE SCIENCES ARE VAIN AND FULL OF ERRORS WHICH 
 ARE NOT BORN FROM EXPERIMENT, THE MOTHER OF CERTAINTY...

                          -- LEONARDO DA VINCI, 1452-1519
 Job cpu time:       0 days  1 hours 18 minutes 21.9 seconds.
 File lengths (MBytes):  RWF=    321 Int=      0 D2E=      0 Chk=     17 Scr=      1
 Normal termination of Gaussian 09 at Wed Jun 26 12:22:40 2019.
