 Entering Gaussian System, Link 0=/usr/local/Cluster-Apps/gaussian/g09/g09
 Initial command:
 /usr/local/Cluster-Apps/gaussian/g09/l1.exe "/home/ke291/rds/hpc-work/26Jun1158AT3NMR/Gau-272974.inp" -scrdir="/home/ke291/rds/hpc-work/26Jun1158AT3NMR/"
 Entering Link 1 = /usr/local/Cluster-Apps/gaussian/g09/l1.exe PID=    272989.
  
 Copyright (c) 1988,1990,1992,1993,1995,1998,2003,2009,2013,
            Gaussian, Inc.  All Rights Reserved.
  
 This is part of the Gaussian(R) 09 program.  It is based on
 the Gaussian(R) 03 system (copyright 2003, Gaussian, Inc.),
 the Gaussian(R) 98 system (copyright 1998, Gaussian, Inc.),
 the Gaussian(R) 94 system (copyright 1995, Gaussian, Inc.),
 the Gaussian 92(TM) system (copyright 1992, Gaussian, Inc.),
 the Gaussian 90(TM) system (copyright 1990, Gaussian, Inc.),
 the Gaussian 88(TM) system (copyright 1988, Gaussian, Inc.),
 the Gaussian 86(TM) system (copyright 1986, Carnegie Mellon
 University), and the Gaussian 82(TM) system (copyright 1983,
 Carnegie Mellon University). Gaussian is a federally registered
 trademark of Gaussian, Inc.
  
 This software contains proprietary and confidential information,
 including trade secrets, belonging to Gaussian, Inc.
  
 This software is provided under written license and may be
 used, copied, transmitted, or stored only in accord with that
 written license.
  
 The following legend is applicable only to US Government
 contracts under FAR:
  
                    RESTRICTED RIGHTS LEGEND
  
 Use, reproduction and disclosure by the US Government is
 subject to restrictions as set forth in subparagraphs (a)
 and (c) of the Commercial Computer Software - Restricted
 Rights clause in FAR 52.227-19.
  
 Gaussian, Inc.
 340 Quinnipiac St., Bldg. 40, Wallingford CT 06492
  
  
 ---------------------------------------------------------------
 Warning -- This program may not be used in any manner that
 competes with the business of Gaussian, Inc. or will provide
 assistance to any competitor of Gaussian, Inc.  The licensee
 of this program is prohibited from giving any competitor of
 Gaussian, Inc. access to this program.  By using this program,
 the user acknowledges that Gaussian, Inc. is engaged in the
 business of creating and licensing software in the field of
 computational chemistry and represents and warrants to the
 licensee that it is not a competitor of Gaussian, Inc. and that
 it will not use this program in any manner prohibited above.
 ---------------------------------------------------------------
  

 Cite this work as:
 Gaussian 09, Revision D.01,
 M. J. Frisch, G. W. Trucks, H. B. Schlegel, G. E. Scuseria, 
 M. A. Robb, J. R. Cheeseman, G. Scalmani, V. Barone, B. Mennucci, 
 G. A. Petersson, H. Nakatsuji, M. Caricato, X. Li, H. P. Hratchian, 
 A. F. Izmaylov, J. Bloino, G. Zheng, J. L. Sonnenberg, M. Hada, 
 M. Ehara, K. Toyota, R. Fukuda, J. Hasegawa, M. Ishida, T. Nakajima, 
 Y. Honda, O. Kitao, H. Nakai, T. Vreven, J. A. Montgomery, Jr., 
 J. E. Peralta, F. Ogliaro, M. Bearpark, J. J. Heyd, E. Brothers, 
 K. N. Kudin, V. N. Staroverov, T. Keith, R. Kobayashi, J. Normand, 
 K. Raghavachari, A. Rendell, J. C. Burant, S. S. Iyengar, J. Tomasi, 
 M. Cossi, N. Rega, J. M. Millam, M. Klene, J. E. Knox, J. B. Cross, 
 V. Bakken, C. Adamo, J. Jaramillo, R. Gomperts, R. E. Stratmann, 
 O. Yazyev, A. J. Austin, R. Cammi, C. Pomelli, J. W. Ochterski, 
 R. L. Martin, K. Morokuma, V. G. Zakrzewski, G. A. Voth, 
 P. Salvador, J. J. Dannenberg, S. Dapprich, A. D. Daniels, 
 O. Farkas, J. B. Foresman, J. V. Ortiz, J. Cioslowski, 
 and D. J. Fox, Gaussian, Inc., Wallingford CT, 2013.
 
 ******************************************
 Gaussian 09:  ES64L-G09RevD.01 24-Apr-2013
                26-Jun-2019 
 ******************************************
 %nprocshared=4
 Will use up to    4 processors via shared memory.
 %mem=6000MB
 %chk=AT3_1ginp018.chk
 --------------------------------------------------------
 # m062x/def2tzvp int=ultrafine scrf=(solvent=chloroform)
 --------------------------------------------------------
 1/38=1/1;
 2/12=2,17=6,18=5,40=1/2;
 3/5=44,7=101,11=2,16=1,25=1,30=1,70=2201,72=7,74=-55,75=-5/1,2,3;
 4//1;
 5/5=2,38=5,53=7/2;
 6/7=2,8=2,9=2,10=2,28=1/1;
 99/5=1,9=1/99;
 ------------
 AT3_1ginp018
 ------------
 Symbolic Z-matrix:
 Charge =  0 Multiplicity = 1
 C                     2.13272   2.80081  -0.48716 
 C                     2.42701   1.8587    0.68693 
 C                     2.07297   0.36995   0.44041 
 C                     3.09183  -0.33597  -0.50361 
 C                     2.47672  -1.54775  -1.23403 
 O                     1.8008   -2.44126  -0.35949 
 N                     0.68666   0.14156  -0.0188 
 C                    -0.35352   0.56878   0.92866 
 C                    -4.2541   -0.59771  -0.55904 
 C                    -3.39467  -1.56385  -0.03116 
 C                    -2.15504  -1.15443   0.44061 
 C                    -1.71934   0.17283   0.42403 
 C                    -2.61623   1.09101  -0.12393 
 C                    -3.87128   0.74263  -0.61052 
 H                    -5.22825  -0.89307  -0.93427 
 H                    -3.66827  -2.61136   0.01779 
 H                    -4.51905   1.50964  -1.01878 
 F                    -1.31715  -2.08538   0.95609 
 F                    -2.24035   2.39143  -0.18292 
 H                     1.0616    2.8483   -0.71276 
 H                     2.4573    3.81888  -0.25131 
 H                     2.65267   2.49582  -1.40156 
 H                     3.48981   1.92219   0.94838 
 H                     1.88489   2.2139    1.57164 
 H                     3.40339   0.37287  -1.28415 
 H                     3.27684  -2.11878  -1.71937 
 H                     1.80286  -1.20091  -2.03149 
 H                     1.03225  -1.91859  -0.06163 
 H                    -0.15833   0.05938   1.87865 
 H                    -0.35056   1.6471    1.13191 
 H                     2.13518  -0.14355   1.40934 
 C                     4.33673  -0.7662    0.28775 
 H                     4.08044  -1.58997   0.9623 
 H                     5.12648  -1.11481  -0.38605 
 H                     4.75069   0.04966   0.88881 
 H                     0.53165   0.60518  -0.91207 
 
                          Input orientation:                          
 ---------------------------------------------------------------------
 Center     Atomic      Atomic             Coordinates (Angstroms)
 Number     Number       Type             X           Y           Z
 ---------------------------------------------------------------------
      1          6           0        2.132721    2.800805   -0.487157
      2          6           0        2.427006    1.858701    0.686926
      3          6           0        2.072973    0.369951    0.440405
      4          6           0        3.091828   -0.335965   -0.503609
      5          6           0        2.476722   -1.547745   -1.234034
      6          8           0        1.800803   -2.441258   -0.359491
      7          7           0        0.686663    0.141555   -0.018799
      8          6           0       -0.353521    0.568781    0.928662
      9          6           0       -4.254096   -0.597707   -0.559036
     10          6           0       -3.394665   -1.563845   -0.031160
     11          6           0       -2.155042   -1.154428    0.440612
     12          6           0       -1.719344    0.172834    0.424027
     13          6           0       -2.616233    1.091005   -0.123928
     14          6           0       -3.871277    0.742629   -0.610524
     15          1           0       -5.228247   -0.893070   -0.934267
     16          1           0       -3.668274   -2.611358    0.017788
     17          1           0       -4.519048    1.509639   -1.018776
     18          9           0       -1.317152   -2.085382    0.956094
     19          9           0       -2.240347    2.391428   -0.182921
     20          1           0        1.061597    2.848296   -0.712761
     21          1           0        2.457299    3.818882   -0.251309
     22          1           0        2.652670    2.495823   -1.401555
     23          1           0        3.489806    1.922190    0.948376
     24          1           0        1.884891    2.213896    1.571643
     25          1           0        3.403390    0.372866   -1.284150
     26          1           0        3.276842   -2.118777   -1.719373
     27          1           0        1.802861   -1.200905   -2.031493
     28          1           0        1.032251   -1.918594   -0.061625
     29          1           0       -0.158328    0.059380    1.878654
     30          1           0       -0.350556    1.647098    1.131907
     31          1           0        2.135181   -0.143549    1.409338
     32          6           0        4.336734   -0.766201    0.287745
     33          1           0        4.080440   -1.589971    0.962298
     34          1           0        5.126479   -1.114809   -0.386052
     35          1           0        4.750685    0.049658    0.888808
     36          1           0        0.531653    0.605178   -0.912070
 ---------------------------------------------------------------------
                    Distance matrix (angstroms):
                    1          2          3          4          5
     1  C    0.000000
     2  C    1.533830   0.000000
     3  C    2.602497   1.549996   0.000000
     4  C    3.280165   2.583780   1.558058   0.000000
     5  C    4.425613   3.911066   2.577657   1.542818   0.000000
     6  O    5.254112   4.469538   2.935440   2.473818   1.421287
     7  N    3.063014   2.544687   1.478137   2.499577   2.744967
     8  C    3.628757   3.074681   2.483103   3.839322   4.143333
     9  C    7.235087   7.226582   6.478198   7.350795   6.830967
    10  C    7.057627   6.791268   5.818677   6.618572   5.993359
    11  C    5.906736   5.489516   4.494423   5.393615   4.940888
    12  C    4.751304   4.483691   3.797472   4.926130   4.828719
    13  C    5.060426   5.165375   4.777766   5.895961   5.842391
    14  C    6.348173   6.526665   6.047929   7.046959   6.777291
    15  H    8.247937   8.294782   7.536097   8.349819   7.738540
    16  H    7.949718   7.588255   6.482957   7.151800   6.360763
    17  H    6.796746   7.160931   6.847104   7.848381   7.637718
    18  F    6.153001   5.444902   4.217528   4.962892   4.413524
    19  F    4.402712   4.777511   4.804127   5.997800   6.234794
    20  H    1.095655   2.191521   2.914596   3.782208   4.647524
    21  H    1.094283   2.173364   3.538545   4.210586   5.455897
    22  H    1.095210   2.195131   2.871967   3.003030   4.050860
    23  H    2.162036   1.096326   2.162151   2.714021   4.222523
    24  H    2.155119   1.096712   2.171453   3.502165   4.729908
    25  H    2.853890   2.654463   2.178097   1.099435   2.133066
    26  H    5.199005   4.725762   3.508234   2.165810   1.096277
    27  H    4.302030   4.140114   2.941229   2.178069   1.100149
    28  H    4.864652   4.095562   2.563703   2.634753   1.896989
    29  H    4.285018   3.367748   2.672774   4.049073   4.383511
    30  H    3.181049   2.820928   2.825380   4.296215   4.878340
    31  H    3.502274   2.148499   1.098355   2.147455   3.012612
    32  C    4.263998   3.270553   2.537471   1.536599   2.527106
    33  H    5.017314   3.834451   2.853698   2.167664   2.719847
    34  H    4.929994   4.156946   3.494487   2.181793   2.815621
    35  H    4.039285   2.951758   2.733824   2.199849   3.497008
    36  H    2.750409   2.778574   2.064022   2.758095   2.919252
                    6          7          8          9         10
     6  O    0.000000
     7  N    2.833426   0.000000
     8  C    3.919284   1.470438   0.000000
     9  C    6.332480   5.024884   4.334562   0.000000
    10  C    5.279256   4.423322   3.836393   1.396674   0.000000
    11  C    4.236131   3.156884   2.540299   2.390661   1.388112
    12  C    4.454078   2.446619   1.508941   2.825794   2.455596
    13  C    5.660616   3.438260   2.549614   2.392418   2.768175
    14  C    6.509427   4.635326   3.843686   1.394884   2.425416
    15  H    7.220443   6.074100   5.419453   1.084900   2.151177
    16  H    5.484713   5.152217   4.683008   2.175018   1.083763
    17  H    7.482296   5.474581   4.693543   2.173124   3.418468
    18  F    3.402801   3.150387   2.823813   3.624146   2.358544
    19  F    6.302136   3.695437   2.849170   3.623752   4.123065
    20  H    5.352626   2.819327   3.145317   6.336810   6.307919
    21  H    6.295399   4.088025   4.456029   8.040135   7.954099
    22  H    5.117259   3.364487   4.263870   7.614669   7.411420
    23  H    4.858284   3.458858   4.074711   8.281919   7.778681
    24  H    5.040517   2.873996   2.851371   7.080400   6.686854
    25  H    3.367874   3.005865   4.364550   7.752735   7.178745
    26  H    2.032723   3.835372   5.235895   7.770139   6.904131
    27  H    2.081843   2.664401   4.067467   6.262484   5.580980
    28  H    0.975999   2.089373   3.014642   5.471529   4.441212
    29  H    3.885959   2.078723   1.095479   4.811384   4.093425
    30  H    4.854613   2.160233   1.097308   4.809996   4.574875
    31  H    2.918909   2.054036   2.632888   6.701016   5.888249
    32  C    3.107358   3.773726   4.918480   8.634106   7.778976
    33  H    2.769217   3.934267   4.931668   8.530154   7.540878
    34  H    3.580544   4.628746   5.881611   9.396409   8.540344
    35  H    4.057674   4.165149   5.130692   9.143381   8.354428
    36  H    3.346171   1.018287   2.042829   4.947217   4.571284
                   11         12         13         14         15
    11  C    0.000000
    12  C    1.397044   0.000000
    13  C    2.360799   1.395601   0.000000
    14  C    2.765714   2.454746   1.390423   0.000000
    15  H    3.376861   3.910692   3.378731   2.149811   0.000000
    16  H    2.142731   3.422730   3.851541   3.418364   2.508473
    17  H    3.849103   3.421560   2.143994   1.083781   2.506614
    18  F    1.354421   2.354654   3.597707   4.120133   4.504635
    19  F    3.601273   2.358387   1.354943   2.358244   4.503331
    20  H    5.262968   4.022936   4.118401   5.364469   7.321818
    21  H    6.818083   5.585167   5.761794   7.045796   9.040826
    22  H    6.311260   5.276697   5.600641   6.801566   8.591380
    23  H    6.448854   5.520003   6.254951   7.616238   9.352779
    24  H    5.380139   4.298077   4.939227   6.329293   8.156565
    25  H    6.016943   5.403729   6.172333   7.315140   8.730989
    26  H    5.924599   5.899790   6.897570   7.778997   8.628748
    27  H    4.666740   4.508067   5.331046   6.163791   7.122861
    28  H    3.315875   3.490158   4.730011   5.606067   6.403674
    29  H    2.743750   2.136722   3.334049   4.522038   5.875693
    30  H    3.403323   2.132634   2.649463   4.031080   5.874810
    31  H    4.512906   3.991027   5.143050   6.398648   7.763655
    32  C    6.505171   6.129963   7.208498   8.393742   9.643561
    33  H    6.272407   6.085615   7.294721   8.434726   9.525455
    34  H    7.328403   7.012813   8.055055   9.190216  10.371599
    35  H    7.024227   6.487871   7.508763   8.778749  10.187808
    36  H    3.484866   2.653123   3.281217   4.415384   5.951612
                   16         17         18         19         20
    16  H    0.000000
    17  H    4.333693   0.000000
    18  F    2.585506   5.203501   0.000000
    19  F    5.206451   2.582379   4.710783   0.000000
    20  H    7.260386   5.747108   5.725793   3.375247   0.000000
    21  H    8.884990   7.388574   7.110882   4.910212   1.761522
    22  H    8.249374   7.249318   6.504263   5.043568   1.769234
    23  H    8.523917   8.257217   6.258397   5.859579   3.084355
    24  H    7.518988   6.943823   5.395903   4.486379   2.509737
    25  H    7.785183   8.007977   5.774530   6.094183   3.455175
    26  H    7.176002   8.627406   5.316392   7.289857   5.531039
    27  H    6.010179   6.952638   4.409360   5.715733   4.322563
    28  H    4.751964   6.594379   2.565787   5.413031   4.811245
    29  H    4.787002   5.432700   2.606529   3.744775   3.997712
    30  H    5.512074   4.692617   3.859615   2.419527   2.615311
    31  H    6.458063   7.273756   3.986822   5.301570   3.821914
    32  C    8.219345   9.236413   5.844087   7.310960   4.979169
    33  H    7.872604   9.353258   5.420283   7.557474   5.622940
    34  H    8.930309  10.016200   6.653101   8.161194   5.686493
    35  H    8.872348   9.575927   6.432851   7.450303   4.899670
    36  H    5.371231   5.132155   3.761280   3.377326   2.313470
                   21         22         23         24         25
    21  H    0.000000
    22  H    1.764007   0.000000
    23  H    2.470376   2.559693   0.000000
    24  H    2.495353   3.083646   1.746226   0.000000
    25  H    3.719795   2.254842   2.718832   3.721664   0.000000
    26  H    6.171115   4.667455   4.846819   5.616081   2.532532
    27  H    5.366154   3.845100   4.634558   4.964895   2.365792
    28  H    5.914843   4.889606   4.670257   4.524603   3.516768
    29  H    5.050951   4.959610   4.200519   2.985120   4.773619
    30  H    3.809722   4.019718   3.854574   2.347733   4.642533
    31  H    4.308407   3.890398   2.512921   2.376244   3.021575
    32  C    4.984560   4.041115   2.895024   4.067051   2.153940
    33  H    5.776082   4.931535   3.561505   4.434089   3.059028
    34  H    5.611059   4.493066   3.699021   5.041898   2.447201
    35  H    4.557031   3.953625   2.258260   3.655539   2.577094
    36  H    3.804289   2.883201   3.734494   3.253929   2.905045
                   26         27         28         29         30
    26  H    0.000000
    27  H    1.764236   0.000000
    28  H    2.797569   2.233673   0.000000
    29  H    5.430521   4.552343   3.015716   0.000000
    30  H    5.955638   4.770265   4.006349   1.765058   0.000000
    31  H    3.872176   3.614935   2.555577   2.349813   3.076081
    32  C    2.642225   3.462419   3.517055   4.839231   5.339224
    33  H    2.848994   3.781735   3.232316   4.639744   5.490092
    34  H    2.491356   3.709626   4.184976   5.868287   6.319038
    35  H    3.698234   4.333790   4.313246   5.007824   5.351035
    36  H    3.950662   2.476088   2.709849   2.926108   2.457993
                   31         32         33         34         35
    31  H    0.000000
    32  C    2.548039   0.000000
    33  H    2.464957   1.095128   0.000000
    34  H    3.621413   1.095092   1.771447   0.000000
    35  H    2.673788   1.094650   1.772854   1.767052   0.000000
    36  H    2.919046   4.218872   4.574475   4.934316   4.620822
                   36
    36  H    0.000000
 Stoichiometry    C13H19F2NO
 Framework group  C1[X(C13H19F2NO)]
 Deg. of freedom   102
 Full point group                 C1      NOp   1
 Largest Abelian subgroup         C1      NOp   1
 Largest concise Abelian subgroup C1      NOp   1
                         Standard orientation:                         
 ---------------------------------------------------------------------
 Center     Atomic      Atomic             Coordinates (Angstroms)
 Number     Number       Type             X           Y           Z
 ---------------------------------------------------------------------
      1          6           0       -2.132721    2.800805    0.487157
      2          6           0       -2.427006    1.858701   -0.686926
      3          6           0       -2.072973    0.369951   -0.440405
      4          6           0       -3.091828   -0.335965    0.503609
      5          6           0       -2.476722   -1.547745    1.234034
      6          8           0       -1.800803   -2.441258    0.359491
      7          7           0       -0.686663    0.141555    0.018799
      8          6           0        0.353521    0.568781   -0.928662
      9          6           0        4.254096   -0.597707    0.559036
     10          6           0        3.394665   -1.563845    0.031160
     11          6           0        2.155042   -1.154428   -0.440612
     12          6           0        1.719344    0.172834   -0.424027
     13          6           0        2.616233    1.091005    0.123928
     14          6           0        3.871277    0.742629    0.610524
     15          1           0        5.228247   -0.893070    0.934267
     16          1           0        3.668274   -2.611358   -0.017788
     17          1           0        4.519048    1.509639    1.018776
     18          9           0        1.317152   -2.085382   -0.956094
     19          9           0        2.240347    2.391428    0.182921
     20          1           0       -1.061597    2.848296    0.712761
     21          1           0       -2.457299    3.818882    0.251309
     22          1           0       -2.652670    2.495823    1.401555
     23          1           0       -3.489806    1.922190   -0.948376
     24          1           0       -1.884891    2.213896   -1.571643
     25          1           0       -3.403390    0.372866    1.284150
     26          1           0       -3.276842   -2.118777    1.719373
     27          1           0       -1.802861   -1.200905    2.031493
     28          1           0       -1.032251   -1.918594    0.061625
     29          1           0        0.158328    0.059380   -1.878654
     30          1           0        0.350556    1.647098   -1.131907
     31          1           0       -2.135181   -0.143549   -1.409338
     32          6           0       -4.336734   -0.766201   -0.287745
     33          1           0       -4.080440   -1.589971   -0.962298
     34          1           0       -5.126479   -1.114809    0.386052
     35          1           0       -4.750685    0.049658   -0.888808
     36          1           0       -0.531653    0.605178    0.912070
 ---------------------------------------------------------------------
 Rotational constants (GHZ):      0.7190719      0.2843355      0.2221421
 Standard basis: def2TZVP (5D, 7F)
 There are   726 symmetry adapted cartesian basis functions of A   symmetry.
 There are   641 symmetry adapted basis functions of A   symmetry.
   641 basis functions,  1019 primitive gaussians,   726 cartesian basis functions
    65 alpha electrons       65 beta electrons
       nuclear repulsion energy      1283.0671733196 Hartrees.
 NAtoms=   36 NActive=   36 NUniq=   36 SFac= 1.00D+00 NAtFMM=   60 NAOKFM=F Big=F
 Integral buffers will be    131072 words long.
 Raffenetti 2 integral format.
 Two-electron integral symmetry is turned on.
 ------------------------------------------------------------------------------
 Polarizable Continuum Model (PCM)
 =================================
 Model                : PCM (using non-symmetric T matrix).
 Atomic radii         : UFF (Universal Force Field).
 Polarization charges : Total charges.
 Charge compensation  : None.
 Solution method      : On-the-fly selection.
 Cavity type          : Scaled VdW (van der Waals Surface) (Alpha=1.100).
 Cavity algorithm     : GePol (No added spheres)
                        Default sphere list used, NSphG=   36.
                        Lebedev-Laikov grids with approx.  5.0 points / Ang**2.
                        Smoothing algorithm: Karplus/York (Gamma=1.0000).
                        Polarization charges: spherical gaussians, with
                                              point-specific exponents (IZeta= 3).
                        Self-potential: point-specific (ISelfS= 7).
                        Self-field    : sphere-specific E.n sum rule (ISelfD= 2).
 Solvent              : Chloroform, Eps=   4.711300 Eps(inf)=   2.090627
 ------------------------------------------------------------------------------
 One-electron integrals computed using PRISM.
   1 Symmetry operations used in ECPInt.
 ECPInt:  NShTT=   34716 NPrTT=  103716 LenC2=   31187 LenP2D=   67810.
 LDataN:  DoStor=T MaxTD1= 6 Len=  172
 NBasis=   641 RedAO= T EigKep=  1.13D-05  NBF=   641
 NBsUse=   641 1.00D-06 EigRej= -1.00D+00 NBFU=   641
 ExpMin= 9.52D-02 ExpMax= 3.55D+04 ExpMxC= 1.21D+03 IAcc=3 IRadAn=         5 AccDes= 0.00D+00
 Harris functional with IExCor= 1009 and IRadAn=       5 diagonalized for initial guess.
 HarFok:  IExCor= 1009 AccDes= 0.00D+00 IRadAn=         5 IDoV= 1 UseB2=F ITyADJ=14
 ICtDFT=  3500011 ScaDFX=  1.000000  1.000000  1.000000  1.000000
 FoFCou: FMM=F IPFlag=           0 FMFlag=      100000 FMFlg1=           0
         NFxFlg=           0 DoJE=T BraDBF=F KetDBF=T FulRan=T
         wScrn=  0.000000 ICntrl=     500 IOpCl=  0 I1Cent=   200000004 NGrid=           0
         NMat0=    1 NMatS0=      1 NMatT0=    0 NMatD0=    1 NMtDS0=    0 NMtDT0=    0
 Petite list used in FoFCou.
 Requested convergence on RMS density matrix=1.00D-08 within 128 cycles.
 Requested convergence on MAX density matrix=1.00D-06.
 Requested convergence on             energy=1.00D-06.
 No special actions if energy rises.
 Inv3:  Mode=1 IEnd=    18213888.
 Iteration    1 A*A^-1 deviation from unit magnitude is 5.77D-15 for   2464.
 Iteration    1 A*A^-1 deviation from orthogonality  is 3.46D-15 for   2034    625.
 Iteration    1 A^-1*A deviation from unit magnitude is 5.77D-15 for   2464.
 Iteration    1 A^-1*A deviation from orthogonality  is 4.09D-11 for   2252   2241.
 Error on total polarization charges =  0.01265
 SCF Done:  E(RM062X) =  -836.460530945     A.U. after   12 cycles
            NFock= 12  Conv=0.76D-08     -V/T= 2.0052

 **********************************************************************

            Population analysis using the SCF density.

 **********************************************************************

 Orbital symmetries:
       Occupied  (A) (A) (A) (A) (A) (A) (A) (A) (A) (A) (A) (A)
                 (A) (A) (A) (A) (A) (A) (A) (A) (A) (A) (A) (A)
                 (A) (A) (A) (A) (A) (A) (A) (A) (A) (A) (A) (A)
                 (A) (A) (A) (A) (A) (A) (A) (A) (A) (A) (A) (A)
                 (A) (A) (A) (A) (A) (A) (A) (A) (A) (A) (A) (A)
                 (A) (A) (A) (A) (A)
       Virtual   (A) (A) (A) (A) (A) (A) (A) (A) (A) (A) (A) (A)
                 (A) (A) (A) (A) (A) (A) (A) (A) (A) (A) (A) (A)
                 (A) (A) (A) (A) (A) (A) (A) (A) (A) (A) (A) (A)
                 (A) (A) (A) (A) (A) (A) (A) (A) (A) (A) (A) (A)
                 (A) (A) (A) (A) (A) (A) (A) (A) (A) (A) (A) (A)
                 (A) (A) (A) (A) (A) (A) (A) (A) (A) (A) (A) (A)
                 (A) (A) (A) (A) (A) (A) (A) (A) (A) (A) (A) (A)
                 (A) (A) (A) (A) (A) (A) (A) (A) (A) (A) (A) (A)
                 (A) (A) (A) (A) (A) (A) (A) (A) (A) (A) (A) (A)
                 (A) (A) (A) (A) (A) (A) (A) (A) (A) (A) (A) (A)
                 (A) (A) (A) (A) (A) (A) (A) (A) (A) (A) (A) (A)
                 (A) (A) (A) (A) (A) (A) (A) (A) (A) (A) (A) (A)
                 (A) (A) (A) (A) (A) (A) (A) (A) (A) (A) (A) (A)
                 (A) (A) (A) (A) (A) (A) (A) (A) (A) (A) (A) (A)
                 (A) (A) (A) (A) (A) (A) (A) (A) (A) (A) (A) (A)
                 (A) (A) (A) (A) (A) (A) (A) (A) (A) (A) (A) (A)
                 (A) (A) (A) (A) (A) (A) (A) (A) (A) (A) (A) (A)
                 (A) (A) (A) (A) (A) (A) (A) (A) (A) (A) (A) (A)
                 (A) (A) (A) (A) (A) (A) (A) (A) (A) (A) (A) (A)
                 (A) (A) (A) (A) (A) (A) (A) (A) (A) (A) (A) (A)
                 (A) (A) (A) (A) (A) (A) (A) (A) (A) (A) (A) (A)
                 (A) (A) (A) (A) (A) (A) (A) (A) (A) (A) (A) (A)
                 (A) (A) (A) (A) (A) (A) (A) (A) (A) (A) (A) (A)
                 (A) (A) (A) (A) (A) (A) (A) (A) (A) (A) (A) (A)
                 (A) (A) (A) (A) (A) (A) (A) (A) (A) (A) (A) (A)
                 (A) (A) (A) (A) (A) (A) (A) (A) (A) (A) (A) (A)
                 (A) (A) (A) (A) (A) (A) (A) (A) (A) (A) (A) (A)
                 (A) (A) (A) (A) (A) (A) (A) (A) (A) (A) (A) (A)
                 (A) (A) (A) (A) (A) (A) (A) (A) (A) (A) (A) (A)
                 (A) (A) (A) (A) (A) (A) (A) (A) (A) (A) (A) (A)
                 (A) (A) (A) (A) (A) (A) (A) (A) (A) (A) (A) (A)
                 (A) (A) (A) (A) (A) (A) (A) (A) (A) (A) (A) (A)
                 (A) (A) (A) (A) (A) (A) (A) (A) (A) (A) (A) (A)
                 (A) (A) (A) (A) (A) (A) (A) (A) (A) (A) (A) (A)
                 (A) (A) (A) (A) (A) (A) (A) (A) (A) (A) (A) (A)
                 (A) (A) (A) (A) (A) (A) (A) (A) (A) (A) (A) (A)
                 (A) (A) (A) (A) (A) (A) (A) (A) (A) (A) (A) (A)
                 (A) (A) (A) (A) (A) (A) (A) (A) (A) (A) (A) (A)
                 (A) (A) (A) (A) (A) (A) (A) (A) (A) (A) (A) (A)
                 (A) (A) (A) (A) (A) (A) (A) (A) (A) (A) (A) (A)
                 (A) (A) (A) (A) (A) (A) (A) (A) (A) (A) (A) (A)
                 (A) (A) (A) (A) (A) (A) (A) (A) (A) (A) (A) (A)
                 (A) (A) (A) (A) (A) (A) (A) (A) (A) (A) (A) (A)
                 (A) (A) (A) (A) (A) (A) (A) (A) (A) (A) (A) (A)
                 (A) (A) (A) (A) (A) (A) (A) (A) (A) (A) (A) (A)
                 (A) (A) (A) (A) (A) (A) (A) (A) (A) (A) (A) (A)
                 (A) (A) (A) (A) (A) (A) (A) (A) (A) (A) (A) (A)
                 (A) (A) (A) (A) (A) (A) (A) (A) (A) (A) (A) (A)
 The electronic state is 1-A.
 Alpha  occ. eigenvalues --  -25.26970 -25.26888 -19.60723 -14.74668 -10.64468
 Alpha  occ. eigenvalues --  -10.64380 -10.58059 -10.57178 -10.57118 -10.56957
 Alpha  occ. eigenvalues --  -10.56685 -10.55859 -10.55818 -10.53794 -10.53380
 Alpha  occ. eigenvalues --  -10.52707 -10.52096  -1.38245  -1.38106  -1.12831
 Alpha  occ. eigenvalues --   -1.02780  -0.98385  -0.90611  -0.87379  -0.86174
 Alpha  occ. eigenvalues --   -0.85328  -0.78903  -0.76164  -0.74862  -0.72853
 Alpha  occ. eigenvalues --   -0.70899  -0.68180  -0.65471  -0.64131  -0.62618
 Alpha  occ. eigenvalues --   -0.58709  -0.58063  -0.57592  -0.57354  -0.56722
 Alpha  occ. eigenvalues --   -0.55398  -0.54630  -0.54162  -0.53589  -0.51354
 Alpha  occ. eigenvalues --   -0.49636  -0.48799  -0.48583  -0.47862  -0.47244
 Alpha  occ. eigenvalues --   -0.45690  -0.44822  -0.44114  -0.43516  -0.43201
 Alpha  occ. eigenvalues --   -0.42896  -0.41582  -0.40858  -0.39984  -0.37689
 Alpha  occ. eigenvalues --   -0.37422  -0.33561  -0.31997  -0.31429  -0.30273
 Alpha virt. eigenvalues --    0.00207   0.01741   0.05469   0.07434   0.07944
 Alpha virt. eigenvalues --    0.08846   0.09361   0.10930   0.11619   0.11828
 Alpha virt. eigenvalues --    0.12221   0.12382   0.13668   0.14011   0.14284
 Alpha virt. eigenvalues --    0.14733   0.15525   0.16291   0.16658   0.17548
 Alpha virt. eigenvalues --    0.17814   0.18038   0.18529   0.19019   0.19790
 Alpha virt. eigenvalues --    0.20462   0.20861   0.21306   0.21853   0.22327
 Alpha virt. eigenvalues --    0.22650   0.24563   0.24712   0.24898   0.25658
 Alpha virt. eigenvalues --    0.26560   0.26928   0.27356   0.27814   0.28590
 Alpha virt. eigenvalues --    0.29014   0.29382   0.29621   0.31346   0.31941
 Alpha virt. eigenvalues --    0.33339   0.33682   0.34017   0.34063   0.35464
 Alpha virt. eigenvalues --    0.35801   0.35871   0.36591   0.36969   0.37649
 Alpha virt. eigenvalues --    0.38257   0.39025   0.39358   0.39858   0.40985
 Alpha virt. eigenvalues --    0.41120   0.41516   0.42182   0.42499   0.42932
 Alpha virt. eigenvalues --    0.43563   0.43694   0.45074   0.45354   0.45454
 Alpha virt. eigenvalues --    0.45842   0.46229   0.46604   0.46962   0.47415
 Alpha virt. eigenvalues --    0.48037   0.48376   0.49128   0.49745   0.49874
 Alpha virt. eigenvalues --    0.50334   0.50701   0.51471   0.51619   0.52355
 Alpha virt. eigenvalues --    0.52508   0.53455   0.54159   0.54971   0.55249
 Alpha virt. eigenvalues --    0.56031   0.56644   0.56849   0.58314   0.58711
 Alpha virt. eigenvalues --    0.59092   0.60068   0.60987   0.61781   0.62771
 Alpha virt. eigenvalues --    0.63771   0.64182   0.65458   0.66007   0.66797
 Alpha virt. eigenvalues --    0.68604   0.68888   0.69495   0.70302   0.70437
 Alpha virt. eigenvalues --    0.71420   0.72580   0.73064   0.73223   0.75184
 Alpha virt. eigenvalues --    0.75854   0.77631   0.78169   0.78797   0.79564
 Alpha virt. eigenvalues --    0.80293   0.82221   0.83010   0.84541   0.85102
 Alpha virt. eigenvalues --    0.85658   0.87194   0.87874   0.88213   0.89694
 Alpha virt. eigenvalues --    0.89931   0.90181   0.91177   0.92037   0.92325
 Alpha virt. eigenvalues --    0.94250   0.95371   0.95673   0.96841   0.98249
 Alpha virt. eigenvalues --    0.98686   0.99643   1.00880   1.01701   1.02633
 Alpha virt. eigenvalues --    1.03226   1.04423   1.05646   1.06083   1.06842
 Alpha virt. eigenvalues --    1.07690   1.09270   1.10123   1.10651   1.11239
 Alpha virt. eigenvalues --    1.13185   1.13528   1.14891   1.15328   1.16109
 Alpha virt. eigenvalues --    1.18018   1.19057   1.19612   1.19935   1.20651
 Alpha virt. eigenvalues --    1.20961   1.23407   1.23970   1.24433   1.24808
 Alpha virt. eigenvalues --    1.26000   1.26919   1.27652   1.28781   1.30919
 Alpha virt. eigenvalues --    1.32170   1.32287   1.32965   1.34475   1.35614
 Alpha virt. eigenvalues --    1.37327   1.38161   1.38510   1.40878   1.42370
 Alpha virt. eigenvalues --    1.43152   1.44650   1.46061   1.47945   1.50137
 Alpha virt. eigenvalues --    1.50549   1.51654   1.51795   1.53782   1.54289
 Alpha virt. eigenvalues --    1.54818   1.56482   1.56584   1.57507   1.57971
 Alpha virt. eigenvalues --    1.58839   1.60188   1.60810   1.61751   1.62079
 Alpha virt. eigenvalues --    1.63343   1.63582   1.64075   1.64911   1.65355
 Alpha virt. eigenvalues --    1.66008   1.67099   1.67693   1.68738   1.69937
 Alpha virt. eigenvalues --    1.70578   1.70778   1.71766   1.71980   1.73482
 Alpha virt. eigenvalues --    1.73770   1.74708   1.75616   1.76524   1.78151
 Alpha virt. eigenvalues --    1.80616   1.82988   1.83904   1.84674   1.85957
 Alpha virt. eigenvalues --    1.86146   1.87254   1.89480   1.90205   1.92070
 Alpha virt. eigenvalues --    1.92892   1.93156   1.94375   1.95905   1.96202
 Alpha virt. eigenvalues --    1.97404   1.97600   1.98662   1.99818   2.00721
 Alpha virt. eigenvalues --    2.02031   2.04384   2.04676   2.05815   2.06531
 Alpha virt. eigenvalues --    2.07916   2.08612   2.10765   2.11366   2.12243
 Alpha virt. eigenvalues --    2.12788   2.13487   2.14547   2.15604   2.15967
 Alpha virt. eigenvalues --    2.18027   2.18236   2.19013   2.20392   2.21095
 Alpha virt. eigenvalues --    2.22354   2.23199   2.26433   2.26782   2.27733
 Alpha virt. eigenvalues --    2.28499   2.29158   2.30164   2.30878   2.31936
 Alpha virt. eigenvalues --    2.33051   2.34413   2.35173   2.36159   2.37007
 Alpha virt. eigenvalues --    2.38331   2.38926   2.40737   2.41131   2.41372
 Alpha virt. eigenvalues --    2.43511   2.43901   2.44687   2.45559   2.46963
 Alpha virt. eigenvalues --    2.48484   2.49104   2.50298   2.50860   2.51525
 Alpha virt. eigenvalues --    2.53286   2.53640   2.55304   2.55604   2.56206
 Alpha virt. eigenvalues --    2.56871   2.57708   2.58926   2.59366   2.60623
 Alpha virt. eigenvalues --    2.61306   2.61769   2.62318   2.62778   2.63397
 Alpha virt. eigenvalues --    2.64218   2.64994   2.65569   2.66375   2.66816
 Alpha virt. eigenvalues --    2.68037   2.69025   2.69226   2.70100   2.71081
 Alpha virt. eigenvalues --    2.72085   2.72684   2.74224   2.74808   2.75936
 Alpha virt. eigenvalues --    2.76917   2.77211   2.78602   2.79697   2.80386
 Alpha virt. eigenvalues --    2.80917   2.81462   2.82110   2.83448   2.84056
 Alpha virt. eigenvalues --    2.84724   2.87295   2.88079   2.88980   2.89307
 Alpha virt. eigenvalues --    2.89880   2.90753   2.92029   2.92373   2.93219
 Alpha virt. eigenvalues --    2.94252   2.94876   2.95748   2.97029   2.98436
 Alpha virt. eigenvalues --    2.99418   3.01081   3.02643   3.04033   3.04420
 Alpha virt. eigenvalues --    3.05219   3.06466   3.07173   3.08110   3.09157
 Alpha virt. eigenvalues --    3.09669   3.10470   3.11423   3.12069   3.12787
 Alpha virt. eigenvalues --    3.13217   3.13959   3.15690   3.15874   3.16426
 Alpha virt. eigenvalues --    3.17144   3.18429   3.19154   3.20063   3.21830
 Alpha virt. eigenvalues --    3.22546   3.22670   3.23591   3.24565   3.25163
 Alpha virt. eigenvalues --    3.25835   3.26381   3.27146   3.28477   3.28537
 Alpha virt. eigenvalues --    3.29093   3.30288   3.31793   3.32779   3.33416
 Alpha virt. eigenvalues --    3.34389   3.34550   3.36061   3.36715   3.37821
 Alpha virt. eigenvalues --    3.38404   3.39332   3.39566   3.40738   3.41244
 Alpha virt. eigenvalues --    3.43133   3.43330   3.44702   3.44919   3.46346
 Alpha virt. eigenvalues --    3.47926   3.48672   3.48807   3.49442   3.50481
 Alpha virt. eigenvalues --    3.51570   3.52669   3.54166   3.54708   3.54742
 Alpha virt. eigenvalues --    3.55678   3.57512   3.58348   3.58946   3.59572
 Alpha virt. eigenvalues --    3.61109   3.61756   3.62822   3.63170   3.64314
 Alpha virt. eigenvalues --    3.65921   3.67816   3.68634   3.69185   3.71315
 Alpha virt. eigenvalues --    3.73067   3.75153   3.77036   3.78515   3.80770
 Alpha virt. eigenvalues --    3.81417   3.84608   3.85396   3.86086   3.87222
 Alpha virt. eigenvalues --    3.88297   3.89005   3.90271   3.93085   3.94158
 Alpha virt. eigenvalues --    3.95011   3.97511   4.00116   4.00920   4.01367
 Alpha virt. eigenvalues --    4.02599   4.02737   4.05105   4.05989   4.07401
 Alpha virt. eigenvalues --    4.08321   4.09012   4.09728   4.11965   4.12836
 Alpha virt. eigenvalues --    4.14084   4.15639   4.16154   4.16803   4.18755
 Alpha virt. eigenvalues --    4.19152   4.19995   4.20689   4.22024   4.24135
 Alpha virt. eigenvalues --    4.24643   4.28365   4.30847   4.33528   4.34024
 Alpha virt. eigenvalues --    4.35623   4.36469   4.37345   4.38251   4.39043
 Alpha virt. eigenvalues --    4.42556   4.44535   4.46275   4.47237   4.51813
 Alpha virt. eigenvalues --    4.52637   4.53895   4.54718   4.57597   4.58491
 Alpha virt. eigenvalues --    4.61918   4.63713   4.65116   4.65856   4.69037
 Alpha virt. eigenvalues --    4.71057   4.76077   4.78273   4.79488   4.82877
 Alpha virt. eigenvalues --    4.86957   4.88901   4.92386   4.94191   4.96810
 Alpha virt. eigenvalues --    4.98997   5.01271   5.08767   5.11045   5.11493
 Alpha virt. eigenvalues --    5.16825   5.23168   5.27798   5.29781   5.30172
 Alpha virt. eigenvalues --    5.33023   5.36225   5.41415   5.42943   5.43767
 Alpha virt. eigenvalues --    5.48853   5.53220   5.60351   5.63640   5.66080
 Alpha virt. eigenvalues --    5.71109   5.79548   5.88617   5.94935   6.25103
 Alpha virt. eigenvalues --    6.49754   6.75194   6.79542   6.90157   6.90536
 Alpha virt. eigenvalues --    6.91078   6.92252   6.97634   6.99750   7.00583
 Alpha virt. eigenvalues --    7.08288   7.09866   7.16910   7.21816   7.24581
 Alpha virt. eigenvalues --    7.36276   7.39313   7.53809   7.55882   8.35932
 Alpha virt. eigenvalues --    8.37582   8.53452   8.55493   8.74369   8.75660
 Alpha virt. eigenvalues --    8.96193   8.97370   8.99911   9.01852  22.21079
 Alpha virt. eigenvalues --   22.43817  22.48758  22.55089  22.61187  22.65121
 Alpha virt. eigenvalues --   22.73518  22.73949  22.74420  22.80092  22.93364
 Alpha virt. eigenvalues --   23.02496  23.47793  32.64231  44.09550  57.49238
 Alpha virt. eigenvalues --   57.56728
          Condensed to atoms (all electrons):
               1          2          3          4          5          6
     1  C    5.137055   0.172502  -0.024262  -0.009728   0.000100   0.000008
     2  C    0.172502   5.413968   0.137789  -0.027786   0.005513   0.002595
     3  C   -0.024262   0.137789   5.595485   0.104097  -0.027886   0.050558
     4  C   -0.009728  -0.027786   0.104097   5.527799   0.196439  -0.077724
     5  C    0.000100   0.005513  -0.027886   0.196439   4.952374   0.224592
     6  O    0.000008   0.002595   0.050558  -0.077724   0.224592   8.123160
     7  N    0.019912  -0.061702   0.043645  -0.014327  -0.008416  -0.051539
     8  C   -0.000892   0.011752  -0.040000   0.006858   0.000941   0.002155
     9  C    0.000012  -0.000010  -0.000014  -0.000005   0.000008   0.000009
    10  C   -0.000017   0.000052   0.000338  -0.000084   0.000020  -0.000138
    11  C   -0.000429   0.000933   0.002711  -0.001762   0.001472   0.000854
    12  C   -0.003249   0.001451   0.001476   0.001970  -0.000188  -0.000969
    13  C    0.002221  -0.002453  -0.000215   0.000400  -0.000108   0.000106
    14  C    0.000019  -0.000032  -0.000042   0.000024  -0.000019  -0.000008
    15  H    0.000000   0.000000   0.000000   0.000000   0.000000   0.000000
    16  H    0.000000   0.000000  -0.000003   0.000001  -0.000001   0.000001
    17  H   -0.000002   0.000001  -0.000002   0.000000   0.000000   0.000000
    18  F   -0.000003   0.000072  -0.001117   0.000318  -0.000911  -0.001418
    19  F   -0.001226  -0.000452   0.000671   0.000001  -0.000001   0.000000
    20  H    0.417215  -0.043556  -0.014670   0.001316   0.000047   0.000011
    21  H    0.415083  -0.038319   0.008039   0.000197   0.000052   0.000002
    22  H    0.410553  -0.049510   0.016703  -0.007340   0.000173  -0.000002
    23  H   -0.034910   0.417177  -0.049335   0.001931   0.000422  -0.000051
    24  H   -0.046652   0.428795  -0.039505   0.005033  -0.000517   0.000001
    25  H   -0.000709  -0.002823  -0.035200   0.412759  -0.045321   0.005877
    26  H   -0.000059  -0.000458   0.016915  -0.062528   0.430127  -0.033101
    27  H   -0.000100   0.003242  -0.013935  -0.069662   0.450939  -0.048310
    28  H   -0.000217   0.001328   0.003218  -0.011012  -0.045394   0.316888
    29  H    0.001384  -0.010350   0.009835   0.000042   0.000238   0.000294
    30  H   -0.007176   0.021929  -0.010291  -0.001152   0.000179  -0.000223
    31  H    0.009099  -0.065508   0.467737  -0.036553  -0.006185  -0.001669
    32  C    0.000155  -0.009073  -0.046730   0.264598  -0.039020  -0.007254
    33  H   -0.000069   0.003353  -0.020058  -0.028949  -0.014186   0.014130
    34  H   -0.000005   0.000211   0.012184  -0.047714  -0.009727   0.000370
    35  H    0.000291  -0.007657   0.014663  -0.053693   0.010657   0.000027
    36  H    0.008683  -0.023622  -0.025262   0.000269  -0.000972   0.001002
               7          8          9         10         11         12
     1  C    0.019912  -0.000892   0.000012  -0.000017  -0.000429  -0.003249
     2  C   -0.061702   0.011752  -0.000010   0.000052   0.000933   0.001451
     3  C    0.043645  -0.040000  -0.000014   0.000338   0.002711   0.001476
     4  C   -0.014327   0.006858  -0.000005  -0.000084  -0.001762   0.001970
     5  C   -0.008416   0.000941   0.000008   0.000020   0.001472  -0.000188
     6  O   -0.051539   0.002155   0.000009  -0.000138   0.000854  -0.000969
     7  N    7.158639   0.152615   0.000322  -0.000726   0.017133  -0.045799
     8  C    0.152615   5.204563  -0.003129   0.007690  -0.080797   0.221482
     9  C    0.000322  -0.003129   5.024239   0.430896  -0.026214  -0.083785
    10  C   -0.000726   0.007690   0.430896   5.046868   0.520625   0.010742
    11  C    0.017133  -0.080797  -0.026214   0.520625   4.841101   0.268027
    12  C   -0.045799   0.221482  -0.083785   0.010742   0.268027   5.649524
    13  C    0.000667  -0.055515  -0.020914  -0.079887   0.024831   0.251801
    14  C   -0.000599   0.004785   0.433347  -0.028271  -0.073707   0.009146
    15  H   -0.000002   0.000094   0.404216  -0.025692   0.002836  -0.000597
    16  H    0.000029  -0.000298  -0.031431   0.411359  -0.039839   0.013255
    17  H    0.000010  -0.000454  -0.032895   0.004485  -0.000887   0.014287
    18  F   -0.002959   0.023445   0.008915  -0.050823   0.256184  -0.089723
    19  F   -0.000898   0.007056   0.009332  -0.000728   0.005858  -0.079452
    20  H    0.005799   0.006302  -0.000004   0.000011  -0.000124  -0.004383
    21  H    0.000404  -0.000314   0.000000   0.000000   0.000001   0.000022
    22  H   -0.004317  -0.000165   0.000000   0.000000   0.000012   0.000283
    23  H    0.008455   0.000644   0.000000   0.000000  -0.000004  -0.000091
    24  H   -0.005791  -0.001271   0.000000  -0.000001  -0.000123   0.001410
    25  H   -0.005409  -0.000578   0.000000   0.000001   0.000032  -0.000182
    26  H   -0.000269  -0.000060   0.000000   0.000000   0.000044  -0.000033
    27  H    0.004716   0.000942  -0.000020   0.000066  -0.000580   0.000181
    28  H    0.030253  -0.003136   0.000002  -0.000436  -0.001243  -0.002264
    29  H   -0.044814   0.422164  -0.000182  -0.000207  -0.019143  -0.018766
    30  H   -0.053119   0.424637  -0.000426   0.000157   0.015677  -0.023681
    31  H   -0.039756  -0.010338   0.000003  -0.000007   0.000439  -0.001025
    32  C    0.006647  -0.000486   0.000000   0.000001   0.000034   0.000006
    33  H    0.000092  -0.000042   0.000000   0.000001  -0.000009  -0.000020
    34  H   -0.000536   0.000038   0.000000   0.000000  -0.000001  -0.000002
    35  H    0.000287  -0.000006   0.000000   0.000000  -0.000001   0.000014
    36  H    0.362695  -0.031878   0.000020  -0.000273  -0.000759  -0.006205
              13         14         15         16         17         18
     1  C    0.002221   0.000019   0.000000   0.000000  -0.000002  -0.000003
     2  C   -0.002453  -0.000032   0.000000   0.000000   0.000001   0.000072
     3  C   -0.000215  -0.000042   0.000000  -0.000003  -0.000002  -0.001117
     4  C    0.000400   0.000024   0.000000   0.000001   0.000000   0.000318
     5  C   -0.000108  -0.000019   0.000000  -0.000001   0.000000  -0.000911
     6  O    0.000106  -0.000008   0.000000   0.000001   0.000000  -0.001418
     7  N    0.000667  -0.000599  -0.000002   0.000029   0.000010  -0.002959
     8  C   -0.055515   0.004785   0.000094  -0.000298  -0.000454   0.023445
     9  C   -0.020914   0.433347   0.404216  -0.031431  -0.032895   0.008915
    10  C   -0.079887  -0.028271  -0.025692   0.411359   0.004485  -0.050823
    11  C    0.024831  -0.073707   0.002836  -0.039839  -0.000887   0.256184
    12  C    0.251801   0.009146  -0.000597   0.013255   0.014287  -0.089723
    13  C    4.851062   0.520416   0.002393  -0.000877  -0.041270   0.006203
    14  C    0.520416   5.040673  -0.024912   0.004133   0.412315  -0.000943
    15  H    0.002393  -0.024912   0.475447  -0.003298  -0.003292  -0.000103
    16  H   -0.000877   0.004133  -0.003298   0.470689  -0.000135   0.001988
    17  H   -0.041270   0.412315  -0.003292  -0.000135   0.473565   0.000010
    18  F    0.006203  -0.000943  -0.000103   0.001988   0.000010   9.054833
    19  F    0.248040  -0.045376  -0.000114   0.000011   0.001528  -0.000033
    20  H    0.000943  -0.000024   0.000000   0.000000  -0.000002   0.000000
    21  H   -0.000005   0.000001   0.000000   0.000000   0.000000   0.000000
    22  H   -0.000082   0.000000   0.000000   0.000000   0.000000   0.000000
    23  H    0.000024   0.000000   0.000000   0.000000   0.000000   0.000000
    24  H    0.000202   0.000004   0.000000   0.000000   0.000000  -0.000003
    25  H   -0.000003   0.000000   0.000000   0.000000   0.000000   0.000002
    26  H   -0.000002   0.000000   0.000000   0.000000   0.000000  -0.000007
    27  H   -0.000041   0.000025   0.000000   0.000001   0.000000   0.000033
    28  H   -0.000041   0.000021   0.000001   0.000006   0.000000   0.008027
    29  H    0.008419   0.000225   0.000002  -0.000002   0.000007   0.000987
    30  H   -0.039253  -0.001345   0.000002   0.000008   0.000006   0.000445
    31  H   -0.000011  -0.000001   0.000000   0.000000   0.000000   0.000091
    32  C   -0.000005   0.000000   0.000000   0.000000   0.000000   0.000001
    33  H    0.000000   0.000000   0.000000   0.000000   0.000000  -0.000001
    34  H    0.000000   0.000000   0.000000   0.000000   0.000000   0.000000
    35  H    0.000000   0.000000   0.000000   0.000000   0.000000   0.000000
    36  H    0.006092   0.000065   0.000000   0.000001   0.000002   0.000040
              19         20         21         22         23         24
     1  C   -0.001226   0.417215   0.415083   0.410553  -0.034910  -0.046652
     2  C   -0.000452  -0.043556  -0.038319  -0.049510   0.417177   0.428795
     3  C    0.000671  -0.014670   0.008039   0.016703  -0.049335  -0.039505
     4  C    0.000001   0.001316   0.000197  -0.007340   0.001931   0.005033
     5  C   -0.000001   0.000047   0.000052   0.000173   0.000422  -0.000517
     6  O    0.000000   0.000011   0.000002  -0.000002  -0.000051   0.000001
     7  N   -0.000898   0.005799   0.000404  -0.004317   0.008455  -0.005791
     8  C    0.007056   0.006302  -0.000314  -0.000165   0.000644  -0.001271
     9  C    0.009332  -0.000004   0.000000   0.000000   0.000000   0.000000
    10  C   -0.000728   0.000011   0.000000   0.000000   0.000000  -0.000001
    11  C    0.005858  -0.000124   0.000001   0.000012  -0.000004  -0.000123
    12  C   -0.079452  -0.004383   0.000022   0.000283  -0.000091   0.001410
    13  C    0.248040   0.000943  -0.000005  -0.000082   0.000024   0.000202
    14  C   -0.045376  -0.000024   0.000001   0.000000   0.000000   0.000004
    15  H   -0.000114   0.000000   0.000000   0.000000   0.000000   0.000000
    16  H    0.000011   0.000000   0.000000   0.000000   0.000000   0.000000
    17  H    0.001528  -0.000002   0.000000   0.000000   0.000000   0.000000
    18  F   -0.000033   0.000000   0.000000   0.000000   0.000000  -0.000003
    19  F    9.060857   0.002690   0.000006   0.000028  -0.000003   0.000024
    20  H    0.002690   0.533767  -0.020874  -0.030553   0.006380  -0.002964
    21  H    0.000006  -0.020874   0.511021  -0.022106  -0.004364  -0.004293
    22  H    0.000028  -0.030553  -0.022106   0.536697  -0.003453   0.006073
    23  H   -0.000003   0.006380  -0.004364  -0.003453   0.534681  -0.019828
    24  H    0.000024  -0.002964  -0.004293   0.006073  -0.019828   0.523859
    25  H    0.000000   0.000220  -0.000129   0.000122  -0.002180   0.000458
    26  H    0.000000   0.000001  -0.000001   0.000048  -0.000047   0.000018
    27  H   -0.000001  -0.000034   0.000001   0.000012  -0.000070  -0.000051
    28  H    0.000000  -0.000004  -0.000001  -0.000006  -0.000028  -0.000050
    29  H    0.000615   0.000193  -0.000005  -0.000021   0.000077   0.000801
    30  H    0.007009  -0.003055  -0.000047   0.000149  -0.000204  -0.007567
    31  H   -0.000003  -0.000262  -0.000251  -0.000125  -0.002508  -0.003264
    32  C    0.000000  -0.000102   0.000006   0.000236  -0.003088   0.000067
    33  H    0.000000   0.000003   0.000004  -0.000045   0.000036  -0.000078
    34  H    0.000000   0.000006  -0.000004   0.000055  -0.000172   0.000036
    35  H    0.000000  -0.000035  -0.000003   0.000258   0.001441  -0.000011
    36  H    0.000372  -0.001700   0.000172  -0.000679  -0.000101   0.000497
              25         26         27         28         29         30
     1  C   -0.000709  -0.000059  -0.000100  -0.000217   0.001384  -0.007176
     2  C   -0.002823  -0.000458   0.003242   0.001328  -0.010350   0.021929
     3  C   -0.035200   0.016915  -0.013935   0.003218   0.009835  -0.010291
     4  C    0.412759  -0.062528  -0.069662  -0.011012   0.000042  -0.001152
     5  C   -0.045321   0.430127   0.450939  -0.045394   0.000238   0.000179
     6  O    0.005877  -0.033101  -0.048310   0.316888   0.000294  -0.000223
     7  N   -0.005409  -0.000269   0.004716   0.030253  -0.044814  -0.053119
     8  C   -0.000578  -0.000060   0.000942  -0.003136   0.422164   0.424637
     9  C    0.000000   0.000000  -0.000020   0.000002  -0.000182  -0.000426
    10  C    0.000001   0.000000   0.000066  -0.000436  -0.000207   0.000157
    11  C    0.000032   0.000044  -0.000580  -0.001243  -0.019143   0.015677
    12  C   -0.000182  -0.000033   0.000181  -0.002264  -0.018766  -0.023681
    13  C   -0.000003  -0.000002  -0.000041  -0.000041   0.008419  -0.039253
    14  C    0.000000   0.000000   0.000025   0.000021   0.000225  -0.001345
    15  H    0.000000   0.000000   0.000000   0.000001   0.000002   0.000002
    16  H    0.000000   0.000000   0.000001   0.000006  -0.000002   0.000008
    17  H    0.000000   0.000000   0.000000   0.000000   0.000007   0.000006
    18  F    0.000002  -0.000007   0.000033   0.008027   0.000987   0.000445
    19  F    0.000000   0.000000  -0.000001   0.000000   0.000615   0.007009
    20  H    0.000220   0.000001  -0.000034  -0.000004   0.000193  -0.003055
    21  H   -0.000129  -0.000001   0.000001  -0.000001  -0.000005  -0.000047
    22  H    0.000122   0.000048   0.000012  -0.000006  -0.000021   0.000149
    23  H   -0.002180  -0.000047  -0.000070  -0.000028   0.000077  -0.000204
    24  H    0.000458   0.000018  -0.000051  -0.000050   0.000801  -0.007567
    25  H    0.585949   0.002182  -0.003537  -0.000597  -0.000019  -0.000022
    26  H    0.002182   0.550920  -0.038324   0.007335   0.000009   0.000000
    27  H   -0.003537  -0.038324   0.579175  -0.007540  -0.000163   0.000118
    28  H   -0.000597   0.007335  -0.007540   0.368560  -0.001540   0.000418
    29  H   -0.000019   0.000009  -0.000163  -0.001540   0.480764  -0.026782
    30  H   -0.000022   0.000000   0.000118   0.000418  -0.026782   0.534488
    31  H    0.007017   0.000235  -0.000390  -0.002366   0.000962  -0.000515
    32  C   -0.047196  -0.009838   0.009277   0.000198  -0.000014   0.000071
    33  H    0.008399  -0.001873   0.001182  -0.000498  -0.000042   0.000007
    34  H   -0.005372   0.001967   0.000199  -0.000110   0.000003  -0.000002
    35  H   -0.004941  -0.000038  -0.000343   0.000007   0.000021   0.000000
    36  H    0.001117   0.000011  -0.001925  -0.001638   0.005752  -0.005612
              31         32         33         34         35         36
     1  C    0.009099   0.000155  -0.000069  -0.000005   0.000291   0.008683
     2  C   -0.065508  -0.009073   0.003353   0.000211  -0.007657  -0.023622
     3  C    0.467737  -0.046730  -0.020058   0.012184   0.014663  -0.025262
     4  C   -0.036553   0.264598  -0.028949  -0.047714  -0.053693   0.000269
     5  C   -0.006185  -0.039020  -0.014186  -0.009727   0.010657  -0.000972
     6  O   -0.001669  -0.007254   0.014130   0.000370   0.000027   0.001002
     7  N   -0.039756   0.006647   0.000092  -0.000536   0.000287   0.362695
     8  C   -0.010338  -0.000486  -0.000042   0.000038  -0.000006  -0.031878
     9  C    0.000003   0.000000   0.000000   0.000000   0.000000   0.000020
    10  C   -0.000007   0.000001   0.000001   0.000000   0.000000  -0.000273
    11  C    0.000439   0.000034  -0.000009  -0.000001  -0.000001  -0.000759
    12  C   -0.001025   0.000006  -0.000020  -0.000002   0.000014  -0.006205
    13  C   -0.000011  -0.000005   0.000000   0.000000   0.000000   0.006092
    14  C   -0.000001   0.000000   0.000000   0.000000   0.000000   0.000065
    15  H    0.000000   0.000000   0.000000   0.000000   0.000000   0.000000
    16  H    0.000000   0.000000   0.000000   0.000000   0.000000   0.000001
    17  H    0.000000   0.000000   0.000000   0.000000   0.000000   0.000002
    18  F    0.000091   0.000001  -0.000001   0.000000   0.000000   0.000040
    19  F   -0.000003   0.000000   0.000000   0.000000   0.000000   0.000372
    20  H   -0.000262  -0.000102   0.000003   0.000006  -0.000035  -0.001700
    21  H   -0.000251   0.000006   0.000004  -0.000004  -0.000003   0.000172
    22  H   -0.000125   0.000236  -0.000045   0.000055   0.000258  -0.000679
    23  H   -0.002508  -0.003088   0.000036  -0.000172   0.001441  -0.000101
    24  H   -0.003264   0.000067  -0.000078   0.000036  -0.000011   0.000497
    25  H    0.007017  -0.047196   0.008399  -0.005372  -0.004941   0.001117
    26  H    0.000235  -0.009838  -0.001873   0.001967  -0.000038   0.000011
    27  H   -0.000390   0.009277   0.001182   0.000199  -0.000343  -0.001925
    28  H   -0.002366   0.000198  -0.000498  -0.000110   0.000007  -0.001638
    29  H    0.000962  -0.000014  -0.000042   0.000003   0.000021   0.005752
    30  H   -0.000515   0.000071   0.000007  -0.000002   0.000000  -0.005612
    31  H    0.499311  -0.007708   0.003342   0.000608  -0.002782   0.005443
    32  C   -0.007708   5.115571   0.412081   0.422709   0.414507  -0.000124
    33  H    0.003342   0.412081   0.512893  -0.023596  -0.027259  -0.000009
    34  H    0.000608   0.422709  -0.023596   0.519687  -0.022243   0.000014
    35  H   -0.002782   0.414507  -0.027259  -0.022243   0.535372   0.000018
    36  H    0.005443  -0.000124  -0.000009   0.000014   0.000018   0.456333
 Mulliken charges:
               1
     1  C   -0.464583
     2  C   -0.279352
     3  C   -0.137537
     4  C   -0.074034
     5  C   -0.075440
     6  O   -0.520233
     7  N   -0.471340
     8  C   -0.268807
     9  C   -0.112291
    10  C   -0.246021
    11  C    0.286818
    12  C   -0.084663
    13  C    0.316862
    14  C   -0.249920
    15  H    0.173018
    16  H    0.174404
    17  H    0.172721
    18  F   -0.213550
    19  F   -0.215810
    20  H    0.147442
    21  H    0.155709
    22  H    0.147002
    23  H    0.149168
    24  H    0.164694
    25  H    0.130086
    26  H    0.136824
    27  H    0.134917
    28  H    0.341855
    29  H    0.189257
    30  H    0.175172
    31  H    0.186941
    32  C   -0.475528
    33  H    0.161211
    34  H    0.151397
    35  H    0.141450
    36  H    0.252160
 Sum of Mulliken charges =   0.00000
 Mulliken charges with hydrogens summed into heavy atoms:
               1
     1  C   -0.014429
     2  C    0.034510
     3  C    0.049404
     4  C    0.056052
     5  C    0.196301
     6  O   -0.178378
     7  N   -0.219180
     8  C    0.095622
     9  C    0.060728
    10  C   -0.071617
    11  C    0.286818
    12  C   -0.084663
    13  C    0.316862
    14  C   -0.077198
    18  F   -0.213550
    19  F   -0.215810
    32  C   -0.021470
 Electronic spatial extent (au):  <R**2>=           4937.3381
 Charge=              0.0000 electrons
 Dipole moment (field-independent basis, Debye):
    X=              1.8130    Y=              3.1719    Z=              0.6399  Tot=              3.7091
 Quadrupole moment (field-independent basis, Debye-Ang):
   XX=            -87.5487   YY=           -113.7070   ZZ=           -101.0804
   XY=            -10.3130   XZ=              2.4431   YZ=             -0.7707
 Traceless Quadrupole moment (field-independent basis, Debye-Ang):
   XX=             13.2300   YY=            -12.9283   ZZ=             -0.3017
   XY=            -10.3130   XZ=              2.4431   YZ=             -0.7707
 Octapole moment (field-independent basis, Debye-Ang**2):
  XXX=             73.4919  YYY=             17.2880  ZZZ=             -5.1126  XYY=             23.5973
  XXY=             -5.8335  XXZ=             27.5093  XZZ=             -3.6468  YZZ=              0.5582
  YYZ=             -2.0550  XYZ=              2.7544
 Hexadecapole moment (field-independent basis, Debye-Ang**3):
 XXXX=          -4227.4972 YYYY=          -1636.7312 ZZZZ=           -401.7345 XXXY=            -30.6957
 XXXZ=             85.8355 YYYX=            -74.4959 YYYZ=             11.5215 ZZZX=            -16.7901
 ZZZY=             14.3202 XXYY=          -1001.8424 XXZZ=           -838.0659 YYZZ=           -328.2095
 XXYZ=             -5.2185 YYXZ=              7.1674 ZZXY=             24.3529
 N-N= 1.283067173320D+03 E-N=-4.522177428555D+03  KE= 8.321521873818D+02
 1\1\GINC-CPU-E-827\SP\RM062X\def2TZVP\C13H19F2N1O1\KE291\26-Jun-2019\0
 \\# m062x/def2tzvp int=ultrafine scrf=(solvent=chloroform)\\AT3_1ginp0
 18\\0,1\C,0,2.132721,2.800805,-0.487157\C,0,2.427006,1.858701,0.686926
 \C,0,2.072973,0.369951,0.440405\C,0,3.091828,-0.335965,-0.503609\C,0,2
 .476722,-1.547745,-1.234034\O,0,1.800803,-2.441258,-0.359491\N,0,0.686
 663,0.141555,-0.018799\C,0,-0.353521,0.568781,0.928662\C,0,-4.254096,-
 0.597707,-0.559036\C,0,-3.394665,-1.563845,-0.03116\C,0,-2.155042,-1.1
 54428,0.440612\C,0,-1.719344,0.172834,0.424027\C,0,-2.616233,1.091005,
 -0.123928\C,0,-3.871277,0.742629,-0.610524\H,0,-5.228247,-0.89307,-0.9
 34267\H,0,-3.668274,-2.611358,0.017788\H,0,-4.519048,1.509639,-1.01877
 6\F,0,-1.317152,-2.085382,0.956094\F,0,-2.240347,2.391428,-0.182921\H,
 0,1.061597,2.848296,-0.712761\H,0,2.457299,3.818882,-0.251309\H,0,2.65
 267,2.495823,-1.401555\H,0,3.489806,1.92219,0.948376\H,0,1.884891,2.21
 3896,1.571643\H,0,3.40339,0.372866,-1.28415\H,0,3.276842,-2.118777,-1.
 719373\H,0,1.802861,-1.200905,-2.031493\H,0,1.032251,-1.918594,-0.0616
 25\H,0,-0.158328,0.05938,1.878654\H,0,-0.350556,1.647098,1.131907\H,0,
 2.135181,-0.143549,1.409338\C,0,4.336734,-0.766201,0.287745\H,0,4.0804
 4,-1.589971,0.962298\H,0,5.126479,-1.114809,-0.386052\H,0,4.750685,0.0
 49658,0.888808\H,0,0.531653,0.605178,-0.91207\\Version=ES64L-G09RevD.0
 1\State=1-A\HF=-836.4605309\RMSD=7.556e-09\Dipole=-0.7132754,1.2479223
 ,-0.2517584\Quadrupole=9.8362006,-9.611869,-0.2243316,7.6674598,1.8163
 541,0.5729726\PG=C01 [X(C13H19F2N1O1)]\\@


 TO ERR IS HUMAN - AND TO BLAME IT ON A COMPUTER IS EVEN MORE SO.
 Job cpu time:       0 days  1 hours 15 minutes 58.1 seconds.
 File lengths (MBytes):  RWF=    316 Int=      0 D2E=      0 Chk=     17 Scr=      1
 Normal termination of Gaussian 09 at Wed Jun 26 12:22:03 2019.
