 Entering Gaussian System, Link 0=/usr/local/Cluster-Apps/gaussian/g09/g09
 Initial command:
 /usr/local/Cluster-Apps/gaussian/g09/l1.exe "/home/ke291/rds/hpc-work/26Jun1158AT3NMR/Gau-37503.inp" -scrdir="/home/ke291/rds/hpc-work/26Jun1158AT3NMR/"
 Entering Link 1 = /usr/local/Cluster-Apps/gaussian/g09/l1.exe PID=     37508.
  
 Copyright (c) 1988,1990,1992,1993,1995,1998,2003,2009,2013,
            Gaussian, Inc.  All Rights Reserved.
  
 This is part of the Gaussian(R) 09 program.  It is based on
 the Gaussian(R) 03 system (copyright 2003, Gaussian, Inc.),
 the Gaussian(R) 98 system (copyright 1998, Gaussian, Inc.),
 the Gaussian(R) 94 system (copyright 1995, Gaussian, Inc.),
 the Gaussian 92(TM) system (copyright 1992, Gaussian, Inc.),
 the Gaussian 90(TM) system (copyright 1990, Gaussian, Inc.),
 the Gaussian 88(TM) system (copyright 1988, Gaussian, Inc.),
 the Gaussian 86(TM) system (copyright 1986, Carnegie Mellon
 University), and the Gaussian 82(TM) system (copyright 1983,
 Carnegie Mellon University). Gaussian is a federally registered
 trademark of Gaussian, Inc.
  
 This software contains proprietary and confidential information,
 including trade secrets, belonging to Gaussian, Inc.
  
 This software is provided under written license and may be
 used, copied, transmitted, or stored only in accord with that
 written license.
  
 The following legend is applicable only to US Government
 contracts under FAR:
  
                    RESTRICTED RIGHTS LEGEND
  
 Use, reproduction and disclosure by the US Government is
 subject to restrictions as set forth in subparagraphs (a)
 and (c) of the Commercial Computer Software - Restricted
 Rights clause in FAR 52.227-19.
  
 Gaussian, Inc.
 340 Quinnipiac St., Bldg. 40, Wallingford CT 06492
  
  
 ---------------------------------------------------------------
 Warning -- This program may not be used in any manner that
 competes with the business of Gaussian, Inc. or will provide
 assistance to any competitor of Gaussian, Inc.  The licensee
 of this program is prohibited from giving any competitor of
 Gaussian, Inc. access to this program.  By using this program,
 the user acknowledges that Gaussian, Inc. is engaged in the
 business of creating and licensing software in the field of
 computational chemistry and represents and warrants to the
 licensee that it is not a competitor of Gaussian, Inc. and that
 it will not use this program in any manner prohibited above.
 ---------------------------------------------------------------
  

 Cite this work as:
 Gaussian 09, Revision D.01,
 M. J. Frisch, G. W. Trucks, H. B. Schlegel, G. E. Scuseria, 
 M. A. Robb, J. R. Cheeseman, G. Scalmani, V. Barone, B. Mennucci, 
 G. A. Petersson, H. Nakatsuji, M. Caricato, X. Li, H. P. Hratchian, 
 A. F. Izmaylov, J. Bloino, G. Zheng, J. L. Sonnenberg, M. Hada, 
 M. Ehara, K. Toyota, R. Fukuda, J. Hasegawa, M. Ishida, T. Nakajima, 
 Y. Honda, O. Kitao, H. Nakai, T. Vreven, J. A. Montgomery, Jr., 
 J. E. Peralta, F. Ogliaro, M. Bearpark, J. J. Heyd, E. Brothers, 
 K. N. Kudin, V. N. Staroverov, T. Keith, R. Kobayashi, J. Normand, 
 K. Raghavachari, A. Rendell, J. C. Burant, S. S. Iyengar, J. Tomasi, 
 M. Cossi, N. Rega, J. M. Millam, M. Klene, J. E. Knox, J. B. Cross, 
 V. Bakken, C. Adamo, J. Jaramillo, R. Gomperts, R. E. Stratmann, 
 O. Yazyev, A. J. Austin, R. Cammi, C. Pomelli, J. W. Ochterski, 
 R. L. Martin, K. Morokuma, V. G. Zakrzewski, G. A. Voth, 
 P. Salvador, J. J. Dannenberg, S. Dapprich, A. D. Daniels, 
 O. Farkas, J. B. Foresman, J. V. Ortiz, J. Cioslowski, 
 and D. J. Fox, Gaussian, Inc., Wallingford CT, 2013.
 
 ******************************************
 Gaussian 09:  ES64L-G09RevD.01 24-Apr-2013
                26-Jun-2019 
 ******************************************
 %nprocshared=4
 Will use up to    4 processors via shared memory.
 %mem=6000MB
 %chk=AT3_1ginp002.chk
 --------------------------------------------------------
 # m062x/def2tzvp int=ultrafine scrf=(solvent=chloroform)
 --------------------------------------------------------
 1/38=1/1;
 2/12=2,17=6,18=5,40=1/2;
 3/5=44,7=101,11=2,16=1,25=1,30=1,70=2201,72=7,74=-55,75=-5/1,2,3;
 4//1;
 5/5=2,38=5,53=7/2;
 6/7=2,8=2,9=2,10=2,28=1/1;
 99/5=1,9=1/99;
 ------------
 AT3_1ginp002
 ------------
 Symbolic Z-matrix:
 Charge =  0 Multiplicity = 1
 C                    -3.88707   1.86747  -1.07829 
 C                    -2.45931   1.59404  -0.59166 
 C                    -2.0318    0.1151   -0.66459 
 C                    -2.9726   -0.84718   0.11245 
 C                    -3.0522   -0.5205    1.61709 
 O                    -1.81765  -0.69673   2.30102 
 N                    -0.64943  -0.05082  -0.14618 
 C                     0.39007   0.69424  -0.881 
 C                     4.35191  -0.43956   0.4741 
 C                     3.85226   0.82379   0.78996 
 C                     2.57871   1.16465   0.34798 
 C                     1.77055   0.30986  -0.40406 
 C                     2.32548  -0.94017  -0.68524 
 C                     3.58766  -1.3403   -0.27057 
 H                     5.34224  -0.72583   0.81196 
 H                     4.42583   1.53946   1.36736 
 H                     3.95008  -2.32894  -0.52681 
 F                     2.1005    2.39245   0.65366 
 F                     1.56643  -1.81029  -1.40008 
 H                    -4.6433    1.44606  -0.40962 
 H                    -4.06931   2.94475  -1.13919 
 H                    -4.05353   1.44705  -2.07685 
 H                    -1.77494   2.1833   -1.21123 
 H                    -2.33111   1.96078   0.43401 
 H                    -3.97807  -0.69314  -0.29849 
 H                    -3.77775  -1.19335   2.09051 
 H                    -3.43624   0.50315   1.75423 
 H                    -1.1473   -0.27429   1.7244 
 H                     0.32139   0.51892  -1.96768 
 H                     0.25437   1.76251  -0.71439 
 H                    -2.07376  -0.17904  -1.73131 
 C                    -2.60937  -2.3249   -0.10965 
 H                    -1.70545  -2.60318   0.44031 
 H                    -3.41325  -2.97239   0.25534 
 H                    -2.45646  -2.54787  -1.17126 
 H                    -0.41444  -1.03711  -0.23752 
 
                          Input orientation:                          
 ---------------------------------------------------------------------
 Center     Atomic      Atomic             Coordinates (Angstroms)
 Number     Number       Type             X           Y           Z
 ---------------------------------------------------------------------
      1          6           0       -3.887070    1.867474   -1.078286
      2          6           0       -2.459313    1.594041   -0.591664
      3          6           0       -2.031796    0.115103   -0.664590
      4          6           0       -2.972596   -0.847184    0.112450
      5          6           0       -3.052201   -0.520497    1.617087
      6          8           0       -1.817648   -0.696726    2.301017
      7          7           0       -0.649429   -0.050817   -0.146182
      8          6           0        0.390071    0.694236   -0.881001
      9          6           0        4.351908   -0.439561    0.474102
     10          6           0        3.852261    0.823790    0.789958
     11          6           0        2.578707    1.164649    0.347983
     12          6           0        1.770546    0.309860   -0.404062
     13          6           0        2.325476   -0.940171   -0.685239
     14          6           0        3.587662   -1.340298   -0.270569
     15          1           0        5.342243   -0.725833    0.811960
     16          1           0        4.425833    1.539460    1.367357
     17          1           0        3.950082   -2.328941   -0.526806
     18          9           0        2.100504    2.392448    0.653657
     19          9           0        1.566434   -1.810291   -1.400079
     20          1           0       -4.643295    1.446062   -0.409624
     21          1           0       -4.069306    2.944752   -1.139195
     22          1           0       -4.053529    1.447050   -2.076849
     23          1           0       -1.774936    2.183296   -1.211230
     24          1           0       -2.331111    1.960784    0.434011
     25          1           0       -3.978072   -0.693142   -0.298489
     26          1           0       -3.777747   -1.193352    2.090512
     27          1           0       -3.436236    0.503149    1.754230
     28          1           0       -1.147301   -0.274287    1.724401
     29          1           0        0.321393    0.518923   -1.967678
     30          1           0        0.254368    1.762509   -0.714390
     31          1           0       -2.073757   -0.179040   -1.731308
     32          6           0       -2.609372   -2.324899   -0.109645
     33          1           0       -1.705448   -2.603178    0.440308
     34          1           0       -3.413251   -2.972386    0.255341
     35          1           0       -2.456457   -2.547870   -1.171258
     36          1           0       -0.414437   -1.037109   -0.237516
 ---------------------------------------------------------------------
                    Distance matrix (angstroms):
                    1          2          3          4          5
     1  C    0.000000
     2  C    1.532989   0.000000
     3  C    2.585341   1.541216   0.000000
     4  C    3.102174   2.592068   1.553992   0.000000
     5  C    3.696545   3.114702   2.579004   1.541750   0.000000
     6  O    4.719885   3.745257   3.082167   2.479187   1.422300
     7  N    3.876980   2.485899   1.485670   2.469453   3.017123
     8  C    4.439521   3.002058   2.499534   3.830202   4.423263
     9  C    8.695578   7.187776   6.508145   7.344747   7.492249
    10  C    8.029748   6.506776   6.102465   7.059026   7.082573
    11  C    6.658414   5.142855   4.835658   5.909307   6.013108
    12  C    5.906721   4.424480   3.816230   4.909474   5.294660
    13  C    6.828842   5.415274   4.483286   5.358593   5.864831
    14  C    8.173972   6.728994   5.818226   6.589905   6.951482
    15  H    9.771310   8.259313   7.567286   8.345094   8.435466
    16  H    8.671397   7.158630   6.917989   7.874491   7.760591
    17  H    8.907019   7.514941   6.463374   7.108285   7.543124
    18  F    6.255099   4.793768   4.898977   6.043547   5.996984
    19  F    6.585606   5.333821   4.146727   4.880380   5.665567
    20  H    1.093880   2.196546   2.942174   2.884922   3.241372
    21  H    1.094280   2.171702   3.519035   4.141034   4.543076
    22  H    1.096172   2.183782   2.802849   3.350367   4.303378
    23  H    2.139749   1.095196   2.154580   3.517148   4.115979
    24  H    2.171810   1.096789   2.168652   2.898204   2.841900
    25  H    2.678268   2.761121   2.138990   1.097079   2.134590
    26  H    4.407027   4.086795   3.514397   2.163523   1.096942
    27  H    3.176127   2.765437   2.823778   2.175730   1.101881
    28  H    4.466378   3.252104   2.577059   2.501659   1.923741
    29  H    4.507856   3.283538   2.720038   4.128383   5.031110
    30  H    4.158719   2.721674   2.818328   4.231721   4.645568
    31  H    2.811185   2.142722   1.107325   2.157260   3.505096
    32  C    4.488515   3.951323   2.568106   1.537823   2.536448
    33  H    5.201186   4.387474   2.952347   2.190130   2.745198
    34  H    5.042550   4.741273   3.505322   2.175104   2.827803
    35  H    4.642258   4.182268   2.743807   2.192405   3.498574
    36  H    4.604636   3.351103   2.031215   2.588962   3.265615
                    6          7          8          9         10
     6  O    0.000000
     7  N    2.787601   0.000000
     8  C    4.115099   1.474999   0.000000
     9  C    6.439501   5.054626   4.337966   0.000000
    10  C    6.061612   4.680439   3.846511   1.394800   0.000000
    11  C    5.158197   3.484597   2.553785   2.394502   1.390491
    12  C    4.604976   2.460258   1.510274   2.827761   2.454250
    13  C    5.112970   3.151443   2.540748   2.387699   2.760224
    14  C    6.020350   4.430708   3.838821   1.396400   2.424460
    15  H    7.313151   6.105229   5.422796   1.084833   2.149852
    16  H    6.697261   5.529744   4.696477   2.172532   1.083770
    17  H    6.627776   5.146866   4.683880   2.175555   3.418062
    18  F    5.254399   3.764494   2.857390   3.622338   2.355402
    19  F    5.137134   3.094843   2.815302   3.626337   4.118210
    20  H    4.463563   4.273291   5.110989   9.233105   8.602365
    21  H    5.492302   4.653501   5.001753   9.218088   8.424449
    22  H    5.362896   4.190343   4.662871   8.984321   8.432589
    23  H    4.542271   2.718888   2.648321   6.874441   6.125223
    24  H    3.288117   2.685371   3.276924   7.101127   6.297106
    25  H    3.380070   3.393471   4.620045   8.369574   8.049839
    26  H    2.032963   4.011803   5.455601   8.322997   7.998583
    27  H    2.087703   3.418295   4.649901   7.948749   7.358996
    28  H    0.979952   1.948563   3.176424   5.641973   5.203324
    29  H    4.926972   2.141249   1.102868   4.808953   4.490493
    30  H    4.408375   2.104248   1.089670   4.801194   4.011121
    31  H    4.073480   2.134895   2.748833   6.798594   6.517679
    32  C    3.014808   3.002359   4.325139   7.235653   7.244048
    33  H    2.666343   2.823773   4.124318   6.432258   6.538692
    34  H    3.450995   4.041720   5.403762   8.170725   8.214891
    35  H    3.986415   3.248293   4.324144   7.314780   7.417168
    36  H    2.920447   1.018005   2.014662   4.856080   4.766903
                   11         12         13         14         15
    11  C    0.000000
    12  C    1.396195   0.000000
    13  C    2.358377   1.396276   0.000000
    14  C    2.770443   2.458201   1.387504   0.000000
    15  H    3.380285   3.912594   3.374675   2.151277   0.000000
    16  H    2.142774   3.420583   3.843595   3.417358   2.505958
    17  H    3.853712   3.424721   2.143158   1.083707   2.510052
    18  F    1.352629   2.358986   3.598556   4.123012   4.500845
    19  F    3.595926   2.351330   1.358032   2.362636   4.508425
    20  H    7.267082   6.513704   7.371149   8.690903  10.291762
    21  H    7.041061   6.448794   7.496128   8.817331  10.288705
    22  H    7.067257   6.165328   6.951770   8.331852  10.067133
    23  H    4.735292   4.090443   5.181321   6.485215   7.950507
    24  H    4.974690   4.500167   5.599291   6.813622   8.138865
    25  H    6.845485   5.836417   6.320231   7.593413   9.386290
    26  H    7.000077   6.266267   6.709562   7.735990   9.221035
    27  H    6.212459   5.639695   6.421176   7.538783   8.914032
    28  H    4.224713   3.658608   4.279012   5.247491   6.568913
    29  H    3.297683   2.142113   2.791049   4.123760   5.872371
    30  H    2.624619   2.122566   3.405116   4.575504   5.865839
    31  H    5.270140   4.096251   4.585502   5.961035   7.859024
    32  C    6.269173   5.119797   5.157665   6.276828   8.162999
    33  H    5.706052   4.613164   4.503421   5.487916   7.302910
    34  H    7.281978   6.170875   6.160160   7.207848   9.056241
    35  H    6.437683   5.159725   5.068313   6.229032   8.250618
    36  H    3.761577   2.572200   2.777945   4.013703   5.859834
                   16         17         18         19         20
    16  H    0.000000
    17  H    4.333442   0.000000
    18  F    2.577617   5.206337   0.000000
    19  F    5.201509   2.591019   4.708086   0.000000
    20  H    9.242049   9.386720   6.892390   7.081354   0.000000
    21  H    8.968001   9.617559   6.448714   7.378351   1.762898
    22  H    9.152632   8.984349   6.798644   6.530871   1.768464
    23  H    6.746345   7.321513   4.305878   5.210485   3.068154
    24  H    6.834101   7.666700   4.458003   5.725011   2.514529
    25  H    8.853540   8.098370   6.883061   5.762210   2.243004
    26  H    8.676978   8.237673   7.033943   6.412886   3.737159
    27  H    7.939505   8.232955   5.952831   6.350463   2.651102
    28  H    5.871710   5.939095   4.336612   4.414300   4.442481
    29  H    5.386129   4.832580   3.680588   2.701395   5.285380
    30  H    4.667391   5.516652   2.382560   3.867375   4.917329
    31  H    7.402678   6.508420   5.452070   4.002709   3.315167
    32  C    8.161428   6.572707   6.709614   4.400840   4.294994
    33  H    7.457444   5.744174   6.283874   3.836783   5.074414
    34  H    9.112879   7.432661   7.703350   5.374769   4.634422
    35  H    8.397425   6.442592   6.964406   4.096344   4.616691
    36  H    5.713365   4.560871   4.345225   2.423471   4.907036
                   21         22         23         24         25
    21  H    0.000000
    22  H    1.767075   0.000000
    23  H    2.418499   2.546240   0.000000
    24  H    2.542537   3.087890   1.750903   0.000000
    25  H    3.734887   2.783645   3.736415   3.208171   0.000000
    26  H    5.257368   4.941121   5.129766   3.845169   2.449013
    27  H    3.838504   3.993641   3.791670   2.255877   2.436874
    28  H    5.205815   5.085141   3.879635   2.839376   3.504396
    29  H    5.084218   4.473621   2.781537   3.857830   4.768720
    30  H    4.502479   4.529215   2.131194   2.835990   4.910880
    31  H    3.753783   2.585162   2.437295   3.055108   2.437968
    32  C    5.564225   4.492558   4.715251   4.328980   2.138138
    33  H    6.233954   5.315441   5.063866   4.606652   3.059228
    34  H    6.114545   5.037904   5.604995   5.053624   2.412613
    35  H    5.724614   4.396603   4.780167   4.787542   2.552852
    36  H    5.479627   4.774640   3.629061   3.621043   3.580716
                   26         27         28         29         30
    26  H    0.000000
    27  H    1.762904   0.000000
    28  H    2.810332   2.417544   0.000000
    29  H    6.016954   5.288915   4.051875   0.000000
    30  H    5.732586   4.615261   3.472883   1.766842   0.000000
    31  H    4.305661   3.804038   3.579011   2.505946   3.197484
    32  C    2.736090   3.486487   3.115507   4.486535   5.027288
    33  H    3.000867   3.790948   2.717380   4.433283   4.922746
    34  H    2.581796   3.785042   3.817382   5.574820   6.067210
    35  H    3.770898   4.339028   3.907417   4.213782   5.112403
    36  H    4.093407   3.933283   2.228925   2.440521   2.917631
                   31         32         33         34         35
    31  H    0.000000
    32  C    2.742514   0.000000
    33  H    3.275365   1.094059   0.000000
    34  H    3.680190   1.094840   1.757020   0.000000
    35  H    2.464035   1.095500   1.778825   1.769422   0.000000
    36  H    2.391870   2.548037   2.139796   3.602928   2.706311
                   36
    36  H    0.000000
 Stoichiometry    C13H19F2NO
 Framework group  C1[X(C13H19F2NO)]
 Deg. of freedom   102
 Full point group                 C1      NOp   1
 Largest Abelian subgroup         C1      NOp   1
 Largest concise Abelian subgroup C1      NOp   1
                         Standard orientation:                         
 ---------------------------------------------------------------------
 Center     Atomic      Atomic             Coordinates (Angstroms)
 Number     Number       Type             X           Y           Z
 ---------------------------------------------------------------------
      1          6           0       -3.887070    1.867474   -1.078286
      2          6           0       -2.459313    1.594041   -0.591664
      3          6           0       -2.031796    0.115103   -0.664590
      4          6           0       -2.972596   -0.847184    0.112450
      5          6           0       -3.052201   -0.520497    1.617087
      6          8           0       -1.817648   -0.696726    2.301017
      7          7           0       -0.649429   -0.050817   -0.146182
      8          6           0        0.390071    0.694236   -0.881001
      9          6           0        4.351908   -0.439561    0.474102
     10          6           0        3.852261    0.823790    0.789958
     11          6           0        2.578707    1.164649    0.347983
     12          6           0        1.770546    0.309860   -0.404062
     13          6           0        2.325476   -0.940171   -0.685239
     14          6           0        3.587662   -1.340298   -0.270569
     15          1           0        5.342243   -0.725833    0.811960
     16          1           0        4.425833    1.539460    1.367357
     17          1           0        3.950082   -2.328941   -0.526806
     18          9           0        2.100504    2.392448    0.653657
     19          9           0        1.566434   -1.810291   -1.400079
     20          1           0       -4.643295    1.446062   -0.409624
     21          1           0       -4.069306    2.944752   -1.139195
     22          1           0       -4.053529    1.447050   -2.076849
     23          1           0       -1.774936    2.183296   -1.211230
     24          1           0       -2.331111    1.960784    0.434011
     25          1           0       -3.978072   -0.693142   -0.298489
     26          1           0       -3.777747   -1.193352    2.090512
     27          1           0       -3.436236    0.503149    1.754230
     28          1           0       -1.147301   -0.274287    1.724401
     29          1           0        0.321393    0.518923   -1.967678
     30          1           0        0.254368    1.762509   -0.714390
     31          1           0       -2.073757   -0.179040   -1.731308
     32          6           0       -2.609372   -2.324899   -0.109645
     33          1           0       -1.705448   -2.603178    0.440308
     34          1           0       -3.413251   -2.972386    0.255341
     35          1           0       -2.456457   -2.547870   -1.171258
     36          1           0       -0.414437   -1.037109   -0.237516
 ---------------------------------------------------------------------
 Rotational constants (GHZ):      0.7244632      0.2560296      0.2314581
 Standard basis: def2TZVP (5D, 7F)
 There are   726 symmetry adapted cartesian basis functions of A   symmetry.
 There are   641 symmetry adapted basis functions of A   symmetry.
   641 basis functions,  1019 primitive gaussians,   726 cartesian basis functions
    65 alpha electrons       65 beta electrons
       nuclear repulsion energy      1276.1206070204 Hartrees.
 NAtoms=   36 NActive=   36 NUniq=   36 SFac= 1.00D+00 NAtFMM=   60 NAOKFM=F Big=F
 Integral buffers will be    131072 words long.
 Raffenetti 2 integral format.
 Two-electron integral symmetry is turned on.
 ------------------------------------------------------------------------------
 Polarizable Continuum Model (PCM)
 =================================
 Model                : PCM (using non-symmetric T matrix).
 Atomic radii         : UFF (Universal Force Field).
 Polarization charges : Total charges.
 Charge compensation  : None.
 Solution method      : On-the-fly selection.
 Cavity type          : Scaled VdW (van der Waals Surface) (Alpha=1.100).
 Cavity algorithm     : GePol (No added spheres)
                        Default sphere list used, NSphG=   36.
                        Lebedev-Laikov grids with approx.  5.0 points / Ang**2.
                        Smoothing algorithm: Karplus/York (Gamma=1.0000).
                        Polarization charges: spherical gaussians, with
                                              point-specific exponents (IZeta= 3).
                        Self-potential: point-specific (ISelfS= 7).
                        Self-field    : sphere-specific E.n sum rule (ISelfD= 2).
 Solvent              : Chloroform, Eps=   4.711300 Eps(inf)=   2.090627
 ------------------------------------------------------------------------------
 One-electron integrals computed using PRISM.
   1 Symmetry operations used in ECPInt.
 ECPInt:  NShTT=   34716 NPrTT=  103716 LenC2=   31092 LenP2D=   67506.
 LDataN:  DoStor=T MaxTD1= 6 Len=  172
 NBasis=   641 RedAO= T EigKep=  1.17D-05  NBF=   641
 NBsUse=   641 1.00D-06 EigRej= -1.00D+00 NBFU=   641
 ExpMin= 9.52D-02 ExpMax= 3.55D+04 ExpMxC= 1.21D+03 IAcc=3 IRadAn=         5 AccDes= 0.00D+00
 Harris functional with IExCor= 1009 and IRadAn=       5 diagonalized for initial guess.
 HarFok:  IExCor= 1009 AccDes= 0.00D+00 IRadAn=         5 IDoV= 1 UseB2=F ITyADJ=14
 ICtDFT=  3500011 ScaDFX=  1.000000  1.000000  1.000000  1.000000
 FoFCou: FMM=F IPFlag=           0 FMFlag=      100000 FMFlg1=           0
         NFxFlg=           0 DoJE=T BraDBF=F KetDBF=T FulRan=T
         wScrn=  0.000000 ICntrl=     500 IOpCl=  0 I1Cent=   200000004 NGrid=           0
         NMat0=    1 NMatS0=      1 NMatT0=    0 NMatD0=    1 NMtDS0=    0 NMtDT0=    0
 Petite list used in FoFCou.
 Requested convergence on RMS density matrix=1.00D-08 within 128 cycles.
 Requested convergence on MAX density matrix=1.00D-06.
 Requested convergence on             energy=1.00D-06.
 No special actions if energy rises.
 Inv3:  Mode=1 IEnd=    18900300.
 Iteration    1 A*A^-1 deviation from unit magnitude is 5.55D-15 for   2487.
 Iteration    1 A*A^-1 deviation from orthogonality  is 5.25D-15 for   2489    196.
 Iteration    1 A^-1*A deviation from unit magnitude is 5.55D-15 for   2489.
 Iteration    1 A^-1*A deviation from orthogonality  is 6.37D-12 for   2210   2179.
 Error on total polarization charges =  0.01248
 SCF Done:  E(RM062X) =  -836.460696382     A.U. after   12 cycles
            NFock= 12  Conv=0.85D-08     -V/T= 2.0052

 **********************************************************************

            Population analysis using the SCF density.

 **********************************************************************

 Orbital symmetries:
       Occupied  (A) (A) (A) (A) (A) (A) (A) (A) (A) (A) (A) (A)
                 (A) (A) (A) (A) (A) (A) (A) (A) (A) (A) (A) (A)
                 (A) (A) (A) (A) (A) (A) (A) (A) (A) (A) (A) (A)
                 (A) (A) (A) (A) (A) (A) (A) (A) (A) (A) (A) (A)
                 (A) (A) (A) (A) (A) (A) (A) (A) (A) (A) (A) (A)
                 (A) (A) (A) (A) (A)
       Virtual   (A) (A) (A) (A) (A) (A) (A) (A) (A) (A) (A) (A)
                 (A) (A) (A) (A) (A) (A) (A) (A) (A) (A) (A) (A)
                 (A) (A) (A) (A) (A) (A) (A) (A) (A) (A) (A) (A)
                 (A) (A) (A) (A) (A) (A) (A) (A) (A) (A) (A) (A)
                 (A) (A) (A) (A) (A) (A) (A) (A) (A) (A) (A) (A)
                 (A) (A) (A) (A) (A) (A) (A) (A) (A) (A) (A) (A)
                 (A) (A) (A) (A) (A) (A) (A) (A) (A) (A) (A) (A)
                 (A) (A) (A) (A) (A) (A) (A) (A) (A) (A) (A) (A)
                 (A) (A) (A) (A) (A) (A) (A) (A) (A) (A) (A) (A)
                 (A) (A) (A) (A) (A) (A) (A) (A) (A) (A) (A) (A)
                 (A) (A) (A) (A) (A) (A) (A) (A) (A) (A) (A) (A)
                 (A) (A) (A) (A) (A) (A) (A) (A) (A) (A) (A) (A)
                 (A) (A) (A) (A) (A) (A) (A) (A) (A) (A) (A) (A)
                 (A) (A) (A) (A) (A) (A) (A) (A) (A) (A) (A) (A)
                 (A) (A) (A) (A) (A) (A) (A) (A) (A) (A) (A) (A)
                 (A) (A) (A) (A) (A) (A) (A) (A) (A) (A) (A) (A)
                 (A) (A) (A) (A) (A) (A) (A) (A) (A) (A) (A) (A)
                 (A) (A) (A) (A) (A) (A) (A) (A) (A) (A) (A) (A)
                 (A) (A) (A) (A) (A) (A) (A) (A) (A) (A) (A) (A)
                 (A) (A) (A) (A) (A) (A) (A) (A) (A) (A) (A) (A)
                 (A) (A) (A) (A) (A) (A) (A) (A) (A) (A) (A) (A)
                 (A) (A) (A) (A) (A) (A) (A) (A) (A) (A) (A) (A)
                 (A) (A) (A) (A) (A) (A) (A) (A) (A) (A) (A) (A)
                 (A) (A) (A) (A) (A) (A) (A) (A) (A) (A) (A) (A)
                 (A) (A) (A) (A) (A) (A) (A) (A) (A) (A) (A) (A)
                 (A) (A) (A) (A) (A) (A) (A) (A) (A) (A) (A) (A)
                 (A) (A) (A) (A) (A) (A) (A) (A) (A) (A) (A) (A)
                 (A) (A) (A) (A) (A) (A) (A) (A) (A) (A) (A) (A)
                 (A) (A) (A) (A) (A) (A) (A) (A) (A) (A) (A) (A)
                 (A) (A) (A) (A) (A) (A) (A) (A) (A) (A) (A) (A)
                 (A) (A) (A) (A) (A) (A) (A) (A) (A) (A) (A) (A)
                 (A) (A) (A) (A) (A) (A) (A) (A) (A) (A) (A) (A)
                 (A) (A) (A) (A) (A) (A) (A) (A) (A) (A) (A) (A)
                 (A) (A) (A) (A) (A) (A) (A) (A) (A) (A) (A) (A)
                 (A) (A) (A) (A) (A) (A) (A) (A) (A) (A) (A) (A)
                 (A) (A) (A) (A) (A) (A) (A) (A) (A) (A) (A) (A)
                 (A) (A) (A) (A) (A) (A) (A) (A) (A) (A) (A) (A)
                 (A) (A) (A) (A) (A) (A) (A) (A) (A) (A) (A) (A)
                 (A) (A) (A) (A) (A) (A) (A) (A) (A) (A) (A) (A)
                 (A) (A) (A) (A) (A) (A) (A) (A) (A) (A) (A) (A)
                 (A) (A) (A) (A) (A) (A) (A) (A) (A) (A) (A) (A)
                 (A) (A) (A) (A) (A) (A) (A) (A) (A) (A) (A) (A)
                 (A) (A) (A) (A) (A) (A) (A) (A) (A) (A) (A) (A)
                 (A) (A) (A) (A) (A) (A) (A) (A) (A) (A) (A) (A)
                 (A) (A) (A) (A) (A) (A) (A) (A) (A) (A) (A) (A)
                 (A) (A) (A) (A) (A) (A) (A) (A) (A) (A) (A) (A)
                 (A) (A) (A) (A) (A) (A) (A) (A) (A) (A) (A) (A)
                 (A) (A) (A) (A) (A) (A) (A) (A) (A) (A) (A) (A)
 The electronic state is 1-A.
 Alpha  occ. eigenvalues --  -25.27254 -25.26888 -19.60433 -14.75084 -10.64514
 Alpha  occ. eigenvalues --  -10.64507 -10.58131 -10.57345 -10.57286 -10.57268
 Alpha  occ. eigenvalues --  -10.56738 -10.55950 -10.55881 -10.54125 -10.53463
 Alpha  occ. eigenvalues --  -10.52694 -10.52424  -1.38429  -1.38226  -1.12591
 Alpha  occ. eigenvalues --   -1.03002  -0.98502  -0.90860  -0.87487  -0.86259
 Alpha  occ. eigenvalues --   -0.85733  -0.79008  -0.76559  -0.74525  -0.72921
 Alpha  occ. eigenvalues --   -0.71178  -0.68689  -0.65543  -0.63514  -0.62682
 Alpha  occ. eigenvalues --   -0.58986  -0.58272  -0.57649  -0.57452  -0.56955
 Alpha  occ. eigenvalues --   -0.55286  -0.54817  -0.54680  -0.52935  -0.51712
 Alpha  occ. eigenvalues --   -0.50492  -0.49336  -0.48297  -0.47760  -0.47303
 Alpha  occ. eigenvalues --   -0.45912  -0.44488  -0.44416  -0.44014  -0.43685
 Alpha  occ. eigenvalues --   -0.42665  -0.42510  -0.40534  -0.39111  -0.38476
 Alpha  occ. eigenvalues --   -0.36908  -0.33714  -0.32146  -0.31485  -0.30706
 Alpha virt. eigenvalues --    0.00200   0.01649   0.05953   0.07094   0.07872
 Alpha virt. eigenvalues --    0.08975   0.09270   0.11084   0.11444   0.11860
 Alpha virt. eigenvalues --    0.12555   0.12849   0.13316   0.13817   0.14180
 Alpha virt. eigenvalues --    0.15028   0.15337   0.15784   0.16104   0.17010
 Alpha virt. eigenvalues --    0.17223   0.18165   0.18286   0.18786   0.20067
 Alpha virt. eigenvalues --    0.20878   0.21232   0.21775   0.21910   0.22162
 Alpha virt. eigenvalues --    0.23123   0.23704   0.23884   0.24660   0.25162
 Alpha virt. eigenvalues --    0.25534   0.26779   0.27472   0.27817   0.28058
 Alpha virt. eigenvalues --    0.28508   0.28835   0.30156   0.30713   0.32072
 Alpha virt. eigenvalues --    0.32952   0.33528   0.33978   0.34668   0.35236
 Alpha virt. eigenvalues --    0.35999   0.36592   0.36795   0.37282   0.37649
 Alpha virt. eigenvalues --    0.38364   0.39270   0.39431   0.39689   0.40444
 Alpha virt. eigenvalues --    0.41090   0.41388   0.41730   0.42161   0.42794
 Alpha virt. eigenvalues --    0.43688   0.43810   0.44402   0.44994   0.45307
 Alpha virt. eigenvalues --    0.46035   0.46366   0.46448   0.47124   0.47658
 Alpha virt. eigenvalues --    0.48170   0.48501   0.48821   0.49479   0.49872
 Alpha virt. eigenvalues --    0.50389   0.50674   0.51207   0.51704   0.52168
 Alpha virt. eigenvalues --    0.52692   0.53393   0.54205   0.54574   0.54730
 Alpha virt. eigenvalues --    0.55354   0.55701   0.56513   0.57847   0.58221
 Alpha virt. eigenvalues --    0.59116   0.59674   0.60721   0.61191   0.62275
 Alpha virt. eigenvalues --    0.64000   0.64803   0.65015   0.65945   0.67604
 Alpha virt. eigenvalues --    0.67773   0.68974   0.69261   0.69843   0.70208
 Alpha virt. eigenvalues --    0.71742   0.72530   0.74166   0.75313   0.76246
 Alpha virt. eigenvalues --    0.76397   0.77976   0.78239   0.79993   0.80520
 Alpha virt. eigenvalues --    0.80801   0.81226   0.82900   0.83959   0.84444
 Alpha virt. eigenvalues --    0.84797   0.86477   0.87703   0.88267   0.88865
 Alpha virt. eigenvalues --    0.89702   0.90022   0.91329   0.91643   0.92591
 Alpha virt. eigenvalues --    0.92776   0.93877   0.94348   0.95294   0.97005
 Alpha virt. eigenvalues --    0.97275   0.98747   0.99733   1.00392   1.01409
 Alpha virt. eigenvalues --    1.02304   1.03207   1.03656   1.05883   1.08034
 Alpha virt. eigenvalues --    1.08463   1.08836   1.09343   1.10748   1.11950
 Alpha virt. eigenvalues --    1.12400   1.12996   1.14604   1.15152   1.16025
 Alpha virt. eigenvalues --    1.16384   1.17170   1.18371   1.19412   1.21148
 Alpha virt. eigenvalues --    1.22483   1.22872   1.23629   1.24709   1.25204
 Alpha virt. eigenvalues --    1.25790   1.26665   1.28041   1.28534   1.29492
 Alpha virt. eigenvalues --    1.31133   1.31455   1.34076   1.34487   1.36053
 Alpha virt. eigenvalues --    1.37694   1.38288   1.38944   1.39232   1.42217
 Alpha virt. eigenvalues --    1.43034   1.43506   1.44275   1.46949   1.49839
 Alpha virt. eigenvalues --    1.50624   1.51016   1.52297   1.53232   1.53934
 Alpha virt. eigenvalues --    1.55666   1.56386   1.56798   1.57528   1.57864
 Alpha virt. eigenvalues --    1.59091   1.59655   1.60109   1.61417   1.61800
 Alpha virt. eigenvalues --    1.62743   1.63500   1.63864   1.65328   1.65337
 Alpha virt. eigenvalues --    1.66205   1.66480   1.67701   1.69094   1.70043
 Alpha virt. eigenvalues --    1.70340   1.71326   1.71520   1.71829   1.73302
 Alpha virt. eigenvalues --    1.74101   1.75395   1.76298   1.78457   1.79088
 Alpha virt. eigenvalues --    1.79988   1.81686   1.83480   1.85313   1.87506
 Alpha virt. eigenvalues --    1.87899   1.88587   1.89220   1.90021   1.90827
 Alpha virt. eigenvalues --    1.91451   1.92406   1.93094   1.95829   1.97241
 Alpha virt. eigenvalues --    1.97512   1.98175   1.99736   2.00156   2.01605
 Alpha virt. eigenvalues --    2.02496   2.03542   2.04827   2.05813   2.07464
 Alpha virt. eigenvalues --    2.08408   2.09418   2.10509   2.11606   2.12876
 Alpha virt. eigenvalues --    2.13378   2.13664   2.15087   2.15607   2.16804
 Alpha virt. eigenvalues --    2.17559   2.18500   2.19129   2.20688   2.21630
 Alpha virt. eigenvalues --    2.23325   2.24100   2.24575   2.26626   2.27368
 Alpha virt. eigenvalues --    2.28647   2.29655   2.29798   2.31674   2.31867
 Alpha virt. eigenvalues --    2.32673   2.33948   2.35536   2.36102   2.37365
 Alpha virt. eigenvalues --    2.38478   2.39400   2.40270   2.41695   2.42190
 Alpha virt. eigenvalues --    2.43201   2.43569   2.43975   2.44979   2.45933
 Alpha virt. eigenvalues --    2.47002   2.47996   2.49564   2.51030   2.51891
 Alpha virt. eigenvalues --    2.52542   2.54568   2.55505   2.55902   2.57099
 Alpha virt. eigenvalues --    2.57492   2.58102   2.58292   2.59219   2.60096
 Alpha virt. eigenvalues --    2.60384   2.60984   2.62052   2.62714   2.63002
 Alpha virt. eigenvalues --    2.63642   2.64409   2.65337   2.66249   2.66805
 Alpha virt. eigenvalues --    2.67742   2.68084   2.68743   2.69430   2.69976
 Alpha virt. eigenvalues --    2.70437   2.72656   2.73418   2.73871   2.74871
 Alpha virt. eigenvalues --    2.75819   2.77352   2.78305   2.78698   2.80078
 Alpha virt. eigenvalues --    2.80835   2.81377   2.81830   2.82342   2.85507
 Alpha virt. eigenvalues --    2.85831   2.86692   2.87300   2.88995   2.90123
 Alpha virt. eigenvalues --    2.90827   2.92147   2.92213   2.93276   2.94327
 Alpha virt. eigenvalues --    2.94427   2.95138   2.96101   2.97339   2.98937
 Alpha virt. eigenvalues --    3.00620   3.01592   3.02507   3.02682   3.03783
 Alpha virt. eigenvalues --    3.04056   3.04859   3.06337   3.08572   3.09417
 Alpha virt. eigenvalues --    3.10090   3.10441   3.11064   3.11743   3.12737
 Alpha virt. eigenvalues --    3.13815   3.14432   3.15113   3.15787   3.16005
 Alpha virt. eigenvalues --    3.17051   3.18153   3.19740   3.20461   3.20697
 Alpha virt. eigenvalues --    3.21886   3.23131   3.23406   3.24314   3.25348
 Alpha virt. eigenvalues --    3.25496   3.26865   3.27294   3.28054   3.28524
 Alpha virt. eigenvalues --    3.29648   3.30031   3.30895   3.31734   3.31800
 Alpha virt. eigenvalues --    3.33217   3.33581   3.35521   3.37363   3.38202
 Alpha virt. eigenvalues --    3.39239   3.39496   3.40937   3.41843   3.42019
 Alpha virt. eigenvalues --    3.43112   3.43819   3.45071   3.45489   3.45759
 Alpha virt. eigenvalues --    3.46076   3.47523   3.48950   3.49491   3.50667
 Alpha virt. eigenvalues --    3.51408   3.52460   3.53122   3.54807   3.55064
 Alpha virt. eigenvalues --    3.55476   3.56548   3.57804   3.58233   3.59095
 Alpha virt. eigenvalues --    3.60385   3.61126   3.61776   3.62861   3.63089
 Alpha virt. eigenvalues --    3.66199   3.67038   3.68725   3.70478   3.70851
 Alpha virt. eigenvalues --    3.71912   3.72679   3.75795   3.76662   3.79349
 Alpha virt. eigenvalues --    3.80596   3.81379   3.83800   3.84638   3.86470
 Alpha virt. eigenvalues --    3.87004   3.90223   3.91526   3.92896   3.93251
 Alpha virt. eigenvalues --    3.96479   3.98124   3.99432   4.00790   4.02060
 Alpha virt. eigenvalues --    4.03086   4.03730   4.05096   4.05836   4.08380
 Alpha virt. eigenvalues --    4.09193   4.09239   4.11032   4.11558   4.12872
 Alpha virt. eigenvalues --    4.13191   4.14916   4.15536   4.16164   4.17643
 Alpha virt. eigenvalues --    4.19823   4.20473   4.21829   4.22284   4.23982
 Alpha virt. eigenvalues --    4.24889   4.27572   4.29255   4.33141   4.33784
 Alpha virt. eigenvalues --    4.34237   4.35751   4.36003   4.38956   4.40933
 Alpha virt. eigenvalues --    4.42522   4.44989   4.45571   4.48604   4.51895
 Alpha virt. eigenvalues --    4.52853   4.54465   4.56510   4.58227   4.61484
 Alpha virt. eigenvalues --    4.62343   4.64111   4.65564   4.66275   4.68552
 Alpha virt. eigenvalues --    4.72169   4.74446   4.78372   4.79508   4.81659
 Alpha virt. eigenvalues --    4.84954   4.87273   4.91191   4.92169   4.95268
 Alpha virt. eigenvalues --    5.00711   5.04231   5.08470   5.09502   5.12948
 Alpha virt. eigenvalues --    5.16911   5.22328   5.27739   5.29464   5.31532
 Alpha virt. eigenvalues --    5.31938   5.37545   5.40326   5.42073   5.43954
 Alpha virt. eigenvalues --    5.49166   5.53127   5.61954   5.64320   5.66870
 Alpha virt. eigenvalues --    5.73506   5.78746   5.85419   5.94149   6.25949
 Alpha virt. eigenvalues --    6.51019   6.73248   6.78356   6.90153   6.90381
 Alpha virt. eigenvalues --    6.90865   6.92079   6.98899   6.99498   7.00411
 Alpha virt. eigenvalues --    7.08099   7.09755   7.17353   7.21422   7.24112
 Alpha virt. eigenvalues --    7.35847   7.39119   7.53418   7.55545   8.35751
 Alpha virt. eigenvalues --    8.37585   8.52568   8.55319   8.74096   8.75030
 Alpha virt. eigenvalues --    8.95964   8.96382   8.99771   9.01426  22.20907
 Alpha virt. eigenvalues --   22.43688  22.50246  22.53599  22.61015  22.64596
 Alpha virt. eigenvalues --   22.72873  22.73947  22.77324  22.78246  22.93693
 Alpha virt. eigenvalues --   23.02551  23.47396  32.64757  44.05620  57.46963
 Alpha virt. eigenvalues --   57.55854
          Condensed to atoms (all electrons):
               1          2          3          4          5          6
     1  C    5.089208   0.192192  -0.023646   0.024495  -0.016177   0.000969
     2  C    0.192192   5.432415   0.057835  -0.007247   0.035112  -0.013231
     3  C   -0.023646   0.057835   5.756062   0.029236  -0.010299   0.013719
     4  C    0.024495  -0.007247   0.029236   5.541052   0.222940  -0.028395
     5  C   -0.016177   0.035112  -0.010299   0.222940   4.926246   0.209283
     6  O    0.000969  -0.013231   0.013719  -0.028395   0.209283   8.156338
     7  N    0.007877  -0.041681   0.036834  -0.000902   0.008562  -0.048492
     8  C    0.000147   0.005546  -0.047828   0.008034  -0.001834   0.003457
     9  C    0.000000   0.000000  -0.000083   0.000014  -0.000001   0.000003
    10  C    0.000000   0.000014   0.000045  -0.000023   0.000008  -0.000009
    11  C    0.000021  -0.000524  -0.002686   0.000364   0.000107  -0.000400
    12  C   -0.000001   0.002939   0.003424   0.001329   0.000104  -0.000193
    13  C    0.000006   0.000348   0.001650  -0.000314  -0.000072   0.000044
    14  C    0.000000   0.000028   0.000388  -0.000105   0.000002  -0.000014
    15  H    0.000000   0.000000   0.000000   0.000000   0.000000   0.000000
    16  H    0.000000   0.000001  -0.000002   0.000000   0.000000   0.000000
    17  H    0.000000   0.000000   0.000002  -0.000001   0.000000   0.000000
    18  F   -0.000002  -0.000470   0.000623   0.000005  -0.000010  -0.000002
    19  F    0.000000   0.000050  -0.000197  -0.000217   0.000012  -0.000002
    20  H    0.423055  -0.036676  -0.029698   0.024776  -0.004996  -0.000153
    21  H    0.420407  -0.046435   0.012630  -0.000917   0.000195   0.000004
    22  H    0.412800  -0.047652   0.012221  -0.013334   0.001523  -0.000023
    23  H   -0.032072   0.444577  -0.070433   0.013333  -0.001389  -0.000037
    24  H   -0.028382   0.386983  -0.003147  -0.031194   0.005796   0.003414
    25  H   -0.004315  -0.011078  -0.061100   0.443330  -0.047285   0.006082
    26  H    0.001223  -0.004141   0.021308  -0.056554   0.429341  -0.035020
    27  H   -0.007649   0.030945  -0.053104  -0.035578   0.439836  -0.045998
    28  H    0.000611  -0.008677   0.013664  -0.016039  -0.032318   0.305516
    29  H    0.000674  -0.009930   0.004283   0.000889   0.000198  -0.000242
    30  H    0.000068   0.004919  -0.005810  -0.001073  -0.000151   0.000279
    31  H    0.000737  -0.065327   0.468458  -0.058180   0.008797  -0.001121
    32  C    0.000015   0.010432  -0.060769   0.228437  -0.053286  -0.017267
    33  H   -0.000080   0.000423  -0.036161  -0.016310  -0.017429   0.016366
    34  H    0.000060  -0.000538   0.012945  -0.042445  -0.002964  -0.000442
    35  H   -0.000158   0.000932   0.011046  -0.063085   0.008980   0.000453
    36  H   -0.000712   0.009193  -0.041918  -0.002648  -0.002794   0.003912
               7          8          9         10         11         12
     1  C    0.007877   0.000147   0.000000   0.000000   0.000021  -0.000001
     2  C   -0.041681   0.005546   0.000000   0.000014  -0.000524   0.002939
     3  C    0.036834  -0.047828  -0.000083   0.000045  -0.002686   0.003424
     4  C   -0.000902   0.008034   0.000014  -0.000023   0.000364   0.001329
     5  C    0.008562  -0.001834  -0.000001   0.000008   0.000107   0.000104
     6  O   -0.048492   0.003457   0.000003  -0.000009  -0.000400  -0.000193
     7  N    7.091776   0.190687   0.000400   0.000341   0.030212  -0.050903
     8  C    0.190687   5.132101  -0.004984   0.005558  -0.096372   0.299231
     9  C    0.000400  -0.004984   5.050228   0.415656  -0.008752  -0.092350
    10  C    0.000341   0.005558   0.415656   5.049551   0.514909   0.016628
    11  C    0.030212  -0.096372  -0.008752   0.514909   4.882322   0.232731
    12  C   -0.050903   0.299231  -0.092350   0.016628   0.232731   5.552919
    13  C   -0.000799  -0.088055  -0.012997  -0.079585   0.034688   0.299392
    14  C   -0.000062   0.008627   0.408198  -0.017900  -0.094866   0.022387
    15  H   -0.000001   0.000091   0.401567  -0.022568   0.001420  -0.000074
    16  H   -0.000001  -0.000269  -0.032675   0.412747  -0.040381   0.013323
    17  H    0.000024  -0.000223  -0.031207   0.004105  -0.000890   0.012573
    18  F   -0.000792   0.005563   0.009851  -0.046680   0.250933  -0.077430
    19  F   -0.004970   0.020042   0.009834  -0.001183   0.007511  -0.081823
    20  H    0.000095  -0.000076   0.000000   0.000000   0.000002   0.000003
    21  H   -0.000404  -0.000021   0.000000   0.000000   0.000000  -0.000010
    22  H    0.000238   0.000003   0.000000   0.000000  -0.000001   0.000007
    23  H   -0.002565   0.000621   0.000000   0.000006   0.000421   0.002277
    24  H    0.004803  -0.003802  -0.000001   0.000012   0.000251  -0.000642
    25  H    0.006527  -0.000222   0.000000   0.000000  -0.000005   0.000010
    26  H   -0.001246   0.000112   0.000000   0.000000  -0.000002  -0.000010
    27  H    0.001539   0.000117   0.000000  -0.000001   0.000003   0.000017
    28  H    0.037740  -0.001070   0.000031  -0.000028   0.001598  -0.001186
    29  H   -0.053887   0.409249   0.000443  -0.000250   0.022112  -0.026594
    30  H   -0.038267   0.432140  -0.000681   0.000021  -0.042346  -0.013275
    31  H   -0.036005  -0.016830   0.000001   0.000005   0.000416   0.000646
    32  C   -0.002507   0.000481  -0.000006   0.000001  -0.000187  -0.000315
    33  H    0.008936   0.000612   0.000012  -0.000009   0.000056   0.000337
    34  H   -0.000318   0.000041   0.000000   0.000000  -0.000001   0.000002
    35  H   -0.002163  -0.000574   0.000000   0.000000   0.000014   0.000135
    36  H    0.358371  -0.029045  -0.000089   0.000075  -0.001344  -0.017403
              13         14         15         16         17         18
     1  C    0.000006   0.000000   0.000000   0.000000   0.000000  -0.000002
     2  C    0.000348   0.000028   0.000000   0.000001   0.000000  -0.000470
     3  C    0.001650   0.000388   0.000000  -0.000002   0.000002   0.000623
     4  C   -0.000314  -0.000105   0.000000   0.000000  -0.000001   0.000005
     5  C   -0.000072   0.000002   0.000000   0.000000   0.000000  -0.000010
     6  O    0.000044  -0.000014   0.000000   0.000000   0.000000  -0.000002
     7  N   -0.000799  -0.000062  -0.000001  -0.000001   0.000024  -0.000792
     8  C   -0.088055   0.008627   0.000091  -0.000269  -0.000223   0.005563
     9  C   -0.012997   0.408198   0.401567  -0.032675  -0.031207   0.009851
    10  C   -0.079585  -0.017900  -0.022568   0.412747   0.004105  -0.046680
    11  C    0.034688  -0.094866   0.001420  -0.040381  -0.000890   0.250933
    12  C    0.299392   0.022387  -0.000074   0.013323   0.012573  -0.077430
    13  C    4.846732   0.497040   0.001997  -0.000819  -0.042120   0.006596
    14  C    0.497040   5.085499  -0.023538   0.004267   0.414396  -0.000746
    15  H    0.001997  -0.023538   0.473983  -0.003188  -0.003111  -0.000109
    16  H   -0.000819   0.004267  -0.003188   0.472802  -0.000143   0.001400
    17  H   -0.042120   0.414396  -0.003111  -0.000143   0.471101   0.000010
    18  F    0.006596  -0.000746  -0.000109   0.001400   0.000010   9.053947
    19  F    0.245212  -0.051513  -0.000098   0.000010   0.001421  -0.000033
    20  H   -0.000001   0.000000   0.000000   0.000000   0.000000   0.000000
    21  H    0.000000   0.000000   0.000000   0.000000   0.000000   0.000000
    22  H    0.000000   0.000000   0.000000   0.000000   0.000000   0.000000
    23  H   -0.000237  -0.000002   0.000000   0.000000   0.000000  -0.000043
    24  H   -0.000060   0.000000   0.000000   0.000000   0.000000   0.000116
    25  H   -0.000001  -0.000001   0.000000   0.000000   0.000000   0.000000
    26  H    0.000001   0.000000   0.000000   0.000000   0.000000   0.000000
    27  H   -0.000003  -0.000001   0.000000   0.000000   0.000000   0.000000
    28  H   -0.000190  -0.000117   0.000000  -0.000001  -0.000001   0.000113
    29  H   -0.020306  -0.002777   0.000002   0.000003  -0.000034   0.000352
    30  H    0.014531   0.000926   0.000004  -0.000014   0.000007   0.010818
    31  H   -0.000267  -0.000031   0.000000   0.000000   0.000000  -0.000002
    32  C    0.000402   0.000051   0.000000   0.000000   0.000001   0.000000
    33  H   -0.000133  -0.000141   0.000000   0.000000  -0.000003   0.000000
    34  H    0.000002   0.000001   0.000000   0.000000   0.000000   0.000000
    35  H   -0.000011   0.000000   0.000000   0.000000   0.000000   0.000000
    36  H   -0.001207   0.000452   0.000000   0.000000   0.000027  -0.000064
              19         20         21         22         23         24
     1  C    0.000000   0.423055   0.420407   0.412800  -0.032072  -0.028382
     2  C    0.000050  -0.036676  -0.046435  -0.047652   0.444577   0.386983
     3  C   -0.000197  -0.029698   0.012630   0.012221  -0.070433  -0.003147
     4  C   -0.000217   0.024776  -0.000917  -0.013334   0.013333  -0.031194
     5  C    0.000012  -0.004996   0.000195   0.001523  -0.001389   0.005796
     6  O   -0.000002  -0.000153   0.000004  -0.000023  -0.000037   0.003414
     7  N   -0.004970   0.000095  -0.000404   0.000238  -0.002565   0.004803
     8  C    0.020042  -0.000076  -0.000021   0.000003   0.000621  -0.003802
     9  C    0.009834   0.000000   0.000000   0.000000   0.000000  -0.000001
    10  C   -0.001183   0.000000   0.000000   0.000000   0.000006   0.000012
    11  C    0.007511   0.000002   0.000000  -0.000001   0.000421   0.000251
    12  C   -0.081823   0.000003  -0.000010   0.000007   0.002277  -0.000642
    13  C    0.245212  -0.000001   0.000000   0.000000  -0.000237  -0.000060
    14  C   -0.051513   0.000000   0.000000   0.000000  -0.000002   0.000000
    15  H   -0.000098   0.000000   0.000000   0.000000   0.000000   0.000000
    16  H    0.000010   0.000000   0.000000   0.000000   0.000000   0.000000
    17  H    0.001421   0.000000   0.000000   0.000000   0.000000   0.000000
    18  F   -0.000033   0.000000   0.000000   0.000000  -0.000043   0.000116
    19  F    9.065438   0.000000   0.000000   0.000000  -0.000004   0.000001
    20  H    0.000000   0.530923  -0.023975  -0.029958   0.006287  -0.005425
    21  H    0.000000  -0.023975   0.515698  -0.022230  -0.007026  -0.003143
    22  H    0.000000  -0.029958  -0.022230   0.528899  -0.003014   0.005950
    23  H   -0.000004   0.006287  -0.007026  -0.003014   0.530534  -0.024679
    24  H    0.000001  -0.005425  -0.003143   0.005950  -0.024679   0.525153
    25  H   -0.000001  -0.010745   0.000632   0.001937  -0.000385   0.001310
    26  H    0.000000  -0.000237  -0.000001  -0.000032   0.000015   0.000796
    27  H    0.000000   0.003970   0.000037  -0.000079   0.000894  -0.017801
    28  H   -0.000013   0.000037  -0.000009  -0.000012   0.000122   0.003065
    29  H    0.000272   0.000014  -0.000018   0.000044   0.000454   0.000910
    30  H    0.000462  -0.000076   0.000039   0.000023  -0.008276  -0.001810
    31  H    0.000226   0.001073  -0.000316   0.001002  -0.003174   0.007086
    32  C   -0.000033   0.001013  -0.000006  -0.000352  -0.000268  -0.001098
    33  H    0.000096  -0.000001   0.000000   0.000003   0.000027  -0.000083
    34  H    0.000004   0.000020  -0.000001   0.000009   0.000015   0.000002
    35  H    0.000097   0.000004   0.000000   0.000064  -0.000051   0.000005
    36  H    0.007609  -0.000032   0.000027  -0.000010  -0.000522  -0.000617
              25         26         27         28         29         30
     1  C   -0.004315   0.001223  -0.007649   0.000611   0.000674   0.000068
     2  C   -0.011078  -0.004141   0.030945  -0.008677  -0.009930   0.004919
     3  C   -0.061100   0.021308  -0.053104   0.013664   0.004283  -0.005810
     4  C    0.443330  -0.056554  -0.035578  -0.016039   0.000889  -0.001073
     5  C   -0.047285   0.429341   0.439836  -0.032318   0.000198  -0.000151
     6  O    0.006082  -0.035020  -0.045998   0.305516  -0.000242   0.000279
     7  N    0.006527  -0.001246   0.001539   0.037740  -0.053887  -0.038267
     8  C   -0.000222   0.000112   0.000117  -0.001070   0.409249   0.432140
     9  C    0.000000   0.000000   0.000000   0.000031   0.000443  -0.000681
    10  C    0.000000   0.000000  -0.000001  -0.000028  -0.000250   0.000021
    11  C   -0.000005  -0.000002   0.000003   0.001598   0.022112  -0.042346
    12  C    0.000010  -0.000010   0.000017  -0.001186  -0.026594  -0.013275
    13  C   -0.000001   0.000001  -0.000003  -0.000190  -0.020306   0.014531
    14  C   -0.000001   0.000000  -0.000001  -0.000117  -0.002777   0.000926
    15  H    0.000000   0.000000   0.000000   0.000000   0.000002   0.000004
    16  H    0.000000   0.000000   0.000000  -0.000001   0.000003  -0.000014
    17  H    0.000000   0.000000   0.000000  -0.000001  -0.000034   0.000007
    18  F    0.000000   0.000000   0.000000   0.000113   0.000352   0.010818
    19  F   -0.000001   0.000000   0.000000  -0.000013   0.000272   0.000462
    20  H   -0.010745  -0.000237   0.003970   0.000037   0.000014  -0.000076
    21  H    0.000632  -0.000001   0.000037  -0.000009  -0.000018   0.000039
    22  H    0.001937  -0.000032  -0.000079  -0.000012   0.000044   0.000023
    23  H   -0.000385   0.000015   0.000894   0.000122   0.000454  -0.008276
    24  H    0.001310   0.000796  -0.017801   0.003065   0.000910  -0.001810
    25  H    0.544556  -0.003298   0.002086  -0.000908  -0.000032   0.000015
    26  H   -0.003298   0.552779  -0.038803   0.006881  -0.000004   0.000003
    27  H    0.002086  -0.038803   0.578309  -0.005891  -0.000012  -0.000030
    28  H   -0.000908   0.006881  -0.005891   0.348792   0.000794  -0.000986
    29  H   -0.000032  -0.000004  -0.000012   0.000794   0.538991  -0.038563
    30  H    0.000015   0.000003  -0.000030  -0.000986  -0.038563   0.518555
    31  H   -0.003056  -0.000245  -0.000922   0.001408   0.009403  -0.001178
    32  C   -0.027922  -0.010652   0.007522  -0.001356  -0.000485   0.000121
    33  H    0.007755  -0.001575   0.001095  -0.000344   0.000194  -0.000062
    34  H   -0.008466   0.002708   0.000014  -0.000094  -0.000009   0.000003
    35  H   -0.003618  -0.000348  -0.000195  -0.000056   0.000173  -0.000009
    36  H    0.000752  -0.000128   0.000291  -0.006001  -0.009348   0.005751
              31         32         33         34         35         36
     1  C    0.000737   0.000015  -0.000080   0.000060  -0.000158  -0.000712
     2  C   -0.065327   0.010432   0.000423  -0.000538   0.000932   0.009193
     3  C    0.468458  -0.060769  -0.036161   0.012945   0.011046  -0.041918
     4  C   -0.058180   0.228437  -0.016310  -0.042445  -0.063085  -0.002648
     5  C    0.008797  -0.053286  -0.017429  -0.002964   0.008980  -0.002794
     6  O   -0.001121  -0.017267   0.016366  -0.000442   0.000453   0.003912
     7  N   -0.036005  -0.002507   0.008936  -0.000318  -0.002163   0.358371
     8  C   -0.016830   0.000481   0.000612   0.000041  -0.000574  -0.029045
     9  C    0.000001  -0.000006   0.000012   0.000000   0.000000  -0.000089
    10  C    0.000005   0.000001  -0.000009   0.000000   0.000000   0.000075
    11  C    0.000416  -0.000187   0.000056  -0.000001   0.000014  -0.001344
    12  C    0.000646  -0.000315   0.000337   0.000002   0.000135  -0.017403
    13  C   -0.000267   0.000402  -0.000133   0.000002  -0.000011  -0.001207
    14  C   -0.000031   0.000051  -0.000141   0.000001   0.000000   0.000452
    15  H    0.000000   0.000000   0.000000   0.000000   0.000000   0.000000
    16  H    0.000000   0.000000   0.000000   0.000000   0.000000   0.000000
    17  H    0.000000   0.000001  -0.000003   0.000000   0.000000   0.000027
    18  F   -0.000002   0.000000   0.000000   0.000000   0.000000  -0.000064
    19  F    0.000226  -0.000033   0.000096   0.000004   0.000097   0.007609
    20  H    0.001073   0.001013  -0.000001   0.000020   0.000004  -0.000032
    21  H   -0.000316  -0.000006   0.000000  -0.000001   0.000000   0.000027
    22  H    0.001002  -0.000352   0.000003   0.000009   0.000064  -0.000010
    23  H   -0.003174  -0.000268   0.000027   0.000015  -0.000051  -0.000522
    24  H    0.007086  -0.001098  -0.000083   0.000002   0.000005  -0.000617
    25  H   -0.003056  -0.027922   0.007755  -0.008466  -0.003618   0.000752
    26  H   -0.000245  -0.010652  -0.001575   0.002708  -0.000348  -0.000128
    27  H   -0.000922   0.007522   0.001095   0.000014  -0.000195   0.000291
    28  H    0.001408  -0.001356  -0.000344  -0.000094  -0.000056  -0.006001
    29  H    0.009403  -0.000485   0.000194  -0.000009   0.000173  -0.009348
    30  H   -0.001178   0.000121  -0.000062   0.000003  -0.000009   0.005751
    31  H    0.528697  -0.011134   0.000800  -0.000251   0.001794  -0.005242
    32  C   -0.011134   5.179368   0.413532   0.414540   0.419392   0.002886
    33  H    0.000800   0.413532   0.516923  -0.023278  -0.027179  -0.001914
    34  H   -0.000251   0.414540  -0.023278   0.508474  -0.018542   0.000467
    35  H    0.001794   0.419392  -0.027179  -0.018542   0.515992  -0.001779
    36  H   -0.005242   0.002886  -0.001914   0.000467  -0.001779   0.475999
 Mulliken charges:
               1
     1  C   -0.461372
     2  C   -0.321278
     3  C   -0.009492
     4  C   -0.163675
     5  C   -0.106034
     6  O   -0.528798
     7  N   -0.498994
     8  C   -0.231254
     9  C   -0.112412
    10  C   -0.251446
    11  C    0.308666
    12  C   -0.098206
    13  C    0.298538
    14  C   -0.250449
    15  H    0.173624
    16  H    0.172940
    17  H    0.174067
    18  F   -0.213944
    19  F   -0.218209
    20  H    0.150776
    21  H    0.154842
    22  H    0.151974
    23  H    0.154592
    24  H    0.176230
    25  H    0.167447
    26  H    0.137131
    27  H    0.139393
    28  H    0.354924
    29  H    0.173040
    30  H    0.163926
    31  H    0.172732
    32  C   -0.490552
    33  H    0.157533
    34  H    0.158044
    35  H    0.158689
    36  H    0.257005
 Sum of Mulliken charges =   0.00000
 Mulliken charges with hydrogens summed into heavy atoms:
               1
     1  C   -0.003780
     2  C    0.009545
     3  C    0.163240
     4  C    0.003773
     5  C    0.170489
     6  O   -0.173873
     7  N   -0.241989
     8  C    0.105712
     9  C    0.061212
    10  C   -0.078506
    11  C    0.308666
    12  C   -0.098206
    13  C    0.298538
    14  C   -0.076382
    18  F   -0.213944
    19  F   -0.218209
    32  C   -0.016285
 Electronic spatial extent (au):  <R**2>=           5032.6702
 Charge=              0.0000 electrons
 Dipole moment (field-independent basis, Debye):
    X=              1.3285    Y=              0.2750    Z=             -3.0781  Tot=              3.3638
 Quadrupole moment (field-independent basis, Debye-Ang):
   XX=            -82.9468   YY=           -103.4867   ZZ=           -112.3551
   XY=             -4.3148   XZ=              8.2717   YZ=              1.0671
 Traceless Quadrupole moment (field-independent basis, Debye-Ang):
   XX=             16.6494   YY=             -3.8905   ZZ=            -12.7589
   XY=             -4.3148   XZ=              8.2717   YZ=              1.0671
 Octapole moment (field-independent basis, Debye-Ang**2):
  XXX=             66.9950  YYY=             -3.4868  ZZZ=            -25.7770  XYY=              3.4283
  XXY=            -16.2006  XXZ=             19.7273  XZZ=             14.2614  YZZ=             12.7844
  YYZ=             -2.4550  XYZ=              0.0504
 Hexadecapole moment (field-independent basis, Debye-Ang**3):
 XXXX=          -4288.0660 YYYY=          -1220.2190 ZZZZ=           -789.0434 XXXY=            -20.7472
 XXXZ=             77.7607 YYYX=            -21.1347 YYYZ=             17.0396 ZZZX=             32.7048
 ZZZY=             46.4694 XXYY=           -941.7716 XXZZ=           -930.8581 YYZZ=           -331.5584
 XXYZ=             29.1340 YYXZ=             -3.7603 ZZXY=              8.5420
 N-N= 1.276120607020D+03 E-N=-4.508167164606D+03  KE= 8.321532423756D+02
 1\1\GINC-CPU-E-94\SP\RM062X\def2TZVP\C13H19F2N1O1\KE291\26-Jun-2019\0\
 \# m062x/def2tzvp int=ultrafine scrf=(solvent=chloroform)\\AT3_1ginp00
 2\\0,1\C,0,-3.88707,1.867474,-1.078286\C,0,-2.459313,1.594041,-0.59166
 4\C,0,-2.031796,0.115103,-0.66459\C,0,-2.972596,-0.847184,0.11245\C,0,
 -3.052201,-0.520497,1.617087\O,0,-1.817648,-0.696726,2.301017\N,0,-0.6
 49429,-0.050817,-0.146182\C,0,0.390071,0.694236,-0.881001\C,0,4.351908
 ,-0.439561,0.474102\C,0,3.852261,0.82379,0.789958\C,0,2.578707,1.16464
 9,0.347983\C,0,1.770546,0.30986,-0.404062\C,0,2.325476,-0.940171,-0.68
 5239\C,0,3.587662,-1.340298,-0.270569\H,0,5.342243,-0.725833,0.81196\H
 ,0,4.425833,1.53946,1.367357\H,0,3.950082,-2.328941,-0.526806\F,0,2.10
 0504,2.392448,0.653657\F,0,1.566434,-1.810291,-1.400079\H,0,-4.643295,
 1.446062,-0.409624\H,0,-4.069306,2.944752,-1.139195\H,0,-4.053529,1.44
 705,-2.076849\H,0,-1.774936,2.183296,-1.21123\H,0,-2.331111,1.960784,0
 .434011\H,0,-3.978072,-0.693142,-0.298489\H,0,-3.777747,-1.193352,2.09
 0512\H,0,-3.436236,0.503149,1.75423\H,0,-1.147301,-0.274287,1.724401\H
 ,0,0.321393,0.518923,-1.967678\H,0,0.254368,1.762509,-0.71439\H,0,-2.0
 73757,-0.17904,-1.731308\C,0,-2.609372,-2.324899,-0.109645\H,0,-1.7054
 48,-2.603178,0.440308\H,0,-3.413251,-2.972386,0.255341\H,0,-2.456457,-
 2.54787,-1.171258\H,0,-0.414437,-1.037109,-0.237516\\Version=ES64L-G09
 RevD.01\State=1-A\HF=-836.4606964\RMSD=8.502e-09\Dipole=0.5226713,0.10
 82112,-1.2110162\Quadrupole=12.3784223,-2.8924785,-9.4859438,-3.207911
 1,6.149822,0.7933844\PG=C01 [X(C13H19F2N1O1)]\\@


 THERE IS NO CURE FOR BIRTH AND DEATH SAVE TO ENJOY THE INTERVAL.

                               -- GEORGE SANTAYANA
 Job cpu time:       0 days  1 hours 17 minutes  8.6 seconds.
 File lengths (MBytes):  RWF=    320 Int=      0 D2E=      0 Chk=     17 Scr=      1
 Normal termination of Gaussian 09 at Wed Jun 26 12:22:23 2019.
