 Entering Gaussian System, Link 0=/usr/local/Cluster-Apps/gaussian/g09/g09
 Initial command:
 /usr/local/Cluster-Apps/gaussian/g09/l1.exe "/home/ke291/rds/hpc-work/26Jun1158AT3NMR/Gau-109973.inp" -scrdir="/home/ke291/rds/hpc-work/26Jun1158AT3NMR/"
 Entering Link 1 = /usr/local/Cluster-Apps/gaussian/g09/l1.exe PID=    109988.
  
 Copyright (c) 1988,1990,1992,1993,1995,1998,2003,2009,2013,
            Gaussian, Inc.  All Rights Reserved.
  
 This is part of the Gaussian(R) 09 program.  It is based on
 the Gaussian(R) 03 system (copyright 2003, Gaussian, Inc.),
 the Gaussian(R) 98 system (copyright 1998, Gaussian, Inc.),
 the Gaussian(R) 94 system (copyright 1995, Gaussian, Inc.),
 the Gaussian 92(TM) system (copyright 1992, Gaussian, Inc.),
 the Gaussian 90(TM) system (copyright 1990, Gaussian, Inc.),
 the Gaussian 88(TM) system (copyright 1988, Gaussian, Inc.),
 the Gaussian 86(TM) system (copyright 1986, Carnegie Mellon
 University), and the Gaussian 82(TM) system (copyright 1983,
 Carnegie Mellon University). Gaussian is a federally registered
 trademark of Gaussian, Inc.
  
 This software contains proprietary and confidential information,
 including trade secrets, belonging to Gaussian, Inc.
  
 This software is provided under written license and may be
 used, copied, transmitted, or stored only in accord with that
 written license.
  
 The following legend is applicable only to US Government
 contracts under FAR:
  
                    RESTRICTED RIGHTS LEGEND
  
 Use, reproduction and disclosure by the US Government is
 subject to restrictions as set forth in subparagraphs (a)
 and (c) of the Commercial Computer Software - Restricted
 Rights clause in FAR 52.227-19.
  
 Gaussian, Inc.
 340 Quinnipiac St., Bldg. 40, Wallingford CT 06492
  
  
 ---------------------------------------------------------------
 Warning -- This program may not be used in any manner that
 competes with the business of Gaussian, Inc. or will provide
 assistance to any competitor of Gaussian, Inc.  The licensee
 of this program is prohibited from giving any competitor of
 Gaussian, Inc. access to this program.  By using this program,
 the user acknowledges that Gaussian, Inc. is engaged in the
 business of creating and licensing software in the field of
 computational chemistry and represents and warrants to the
 licensee that it is not a competitor of Gaussian, Inc. and that
 it will not use this program in any manner prohibited above.
 ---------------------------------------------------------------
  

 Cite this work as:
 Gaussian 09, Revision D.01,
 M. J. Frisch, G. W. Trucks, H. B. Schlegel, G. E. Scuseria, 
 M. A. Robb, J. R. Cheeseman, G. Scalmani, V. Barone, B. Mennucci, 
 G. A. Petersson, H. Nakatsuji, M. Caricato, X. Li, H. P. Hratchian, 
 A. F. Izmaylov, J. Bloino, G. Zheng, J. L. Sonnenberg, M. Hada, 
 M. Ehara, K. Toyota, R. Fukuda, J. Hasegawa, M. Ishida, T. Nakajima, 
 Y. Honda, O. Kitao, H. Nakai, T. Vreven, J. A. Montgomery, Jr., 
 J. E. Peralta, F. Ogliaro, M. Bearpark, J. J. Heyd, E. Brothers, 
 K. N. Kudin, V. N. Staroverov, T. Keith, R. Kobayashi, J. Normand, 
 K. Raghavachari, A. Rendell, J. C. Burant, S. S. Iyengar, J. Tomasi, 
 M. Cossi, N. Rega, J. M. Millam, M. Klene, J. E. Knox, J. B. Cross, 
 V. Bakken, C. Adamo, J. Jaramillo, R. Gomperts, R. E. Stratmann, 
 O. Yazyev, A. J. Austin, R. Cammi, C. Pomelli, J. W. Ochterski, 
 R. L. Martin, K. Morokuma, V. G. Zakrzewski, G. A. Voth, 
 P. Salvador, J. J. Dannenberg, S. Dapprich, A. D. Daniels, 
 O. Farkas, J. B. Foresman, J. V. Ortiz, J. Cioslowski, 
 and D. J. Fox, Gaussian, Inc., Wallingford CT, 2013.
 
 ******************************************
 Gaussian 09:  ES64L-G09RevD.01 24-Apr-2013
                26-Jun-2019 
 ******************************************
 %nprocshared=4
 Will use up to    4 processors via shared memory.
 %mem=6000MB
 %chk=AT3_1ginp016.chk
 --------------------------------------------------------
 # m062x/def2tzvp int=ultrafine scrf=(solvent=chloroform)
 --------------------------------------------------------
 1/38=1/1;
 2/12=2,17=6,18=5,40=1/2;
 3/5=44,7=101,11=2,16=1,25=1,30=1,70=2201,72=7,74=-55,75=-5/1,2,3;
 4//1;
 5/5=2,38=5,53=7/2;
 6/7=2,8=2,9=2,10=2,28=1/1;
 99/5=1,9=1/99;
 ------------
 AT3_1ginp016
 ------------
 Symbolic Z-matrix:
 Charge =  0 Multiplicity = 1
 C                    -2.1855    2.95822   0.00577 
 C                    -2.55466   1.62786   0.67574 
 C                    -1.91437   0.40035   0.00333 
 C                    -2.58432  -0.94569   0.38859 
 C                    -3.9494   -1.13928  -0.28863 
 O                    -3.90272  -1.06842  -1.71373 
 N                    -0.47684   0.35143   0.34502 
 C                     0.36356  -0.20357  -0.72379 
 C                     4.56503  -0.06464   0.35664 
 C                     3.91994  -1.2981    0.26858 
 C                     2.57262  -1.32118  -0.07568 
 C                     1.82658  -0.17321  -0.34659 
 C                     2.52795   1.02944  -0.23972 
 C                     3.8697    1.11943   0.10259 
 H                     5.61519  -0.02465   0.62594 
 H                     4.43736  -2.23075   0.46134 
 H                     4.34481   2.09143   0.16606 
 F                     1.95471  -2.52221  -0.16263 
 F                     1.83982   2.17636  -0.48151 
 H                    -2.53922   2.98509  -1.03058 
 H                    -2.63692   3.8025    0.53625 
 H                    -1.10307   3.12906  -0.01409 
 H                    -2.25887   1.64787   1.73221 
 H                    -3.64492   1.52166   0.66322 
 H                    -1.92959  -1.74     -0.0024 
 H                    -4.64929  -0.35506   0.02063 
 H                    -4.38027  -2.09757   0.04018 
 H                    -3.33183  -1.78689  -2.01893 
 H                     0.07246  -1.24097  -0.90334 
 H                     0.23295   0.33391  -1.67994 
 H                    -2.04625   0.51428  -1.08645 
 C                    -2.69829  -1.1573    1.90426 
 H                    -3.43378  -0.48181   2.35519 
 H                    -3.00921  -2.18197   2.13415 
 H                    -1.73239  -0.97749   2.38274 
 H                    -0.15127   1.29723   0.52329 
 
                          Input orientation:                          
 ---------------------------------------------------------------------
 Center     Atomic      Atomic             Coordinates (Angstroms)
 Number     Number       Type             X           Y           Z
 ---------------------------------------------------------------------
      1          6           0       -2.185501    2.958215    0.005769
      2          6           0       -2.554659    1.627862    0.675738
      3          6           0       -1.914369    0.400350    0.003331
      4          6           0       -2.584324   -0.945687    0.388585
      5          6           0       -3.949397   -1.139275   -0.288632
      6          8           0       -3.902720   -1.068420   -1.713731
      7          7           0       -0.476836    0.351433    0.345019
      8          6           0        0.363560   -0.203568   -0.723785
      9          6           0        4.565026   -0.064637    0.356644
     10          6           0        3.919937   -1.298103    0.268579
     11          6           0        2.572624   -1.321176   -0.075683
     12          6           0        1.826580   -0.173214   -0.346585
     13          6           0        2.527946    1.029445   -0.239722
     14          6           0        3.869695    1.119435    0.102585
     15          1           0        5.615192   -0.024645    0.625938
     16          1           0        4.437364   -2.230748    0.461344
     17          1           0        4.344810    2.091432    0.166058
     18          9           0        1.954707   -2.522210   -0.162633
     19          9           0        1.839818    2.176360   -0.481506
     20          1           0       -2.539216    2.985090   -1.030578
     21          1           0       -2.636916    3.802502    0.536249
     22          1           0       -1.103069    3.129063   -0.014086
     23          1           0       -2.258870    1.647874    1.732213
     24          1           0       -3.644924    1.521661    0.663218
     25          1           0       -1.929588   -1.739997   -0.002401
     26          1           0       -4.649292   -0.355057    0.020630
     27          1           0       -4.380266   -2.097574    0.040180
     28          1           0       -3.331826   -1.786891   -2.018933
     29          1           0        0.072459   -1.240968   -0.903341
     30          1           0        0.232953    0.333911   -1.679936
     31          1           0       -2.046252    0.514276   -1.086451
     32          6           0       -2.698286   -1.157299    1.904260
     33          1           0       -3.433783   -0.481808    2.355185
     34          1           0       -3.009209   -2.181973    2.134150
     35          1           0       -1.732392   -0.977490    2.382740
     36          1           0       -0.151270    1.297228    0.523287
 ---------------------------------------------------------------------
                    Distance matrix (angstroms):
                    1          2          3          4          5
     1  C    0.000000
     2  C    1.534593   0.000000
     3  C    2.572196   1.539119   0.000000
     4  C    3.942849   2.589689   1.552120   0.000000
     5  C    4.470730   3.245358   2.568468   1.536074   0.000000
     6  O    4.703117   3.846657   3.009838   2.484545   1.427623
     7  N    3.135273   2.460893   1.478393   2.475060   3.831762
     8  C    4.126358   3.718710   2.466247   3.236994   4.434693
     9  C    7.404753   7.325045   6.505659   7.203504   8.606197
    10  C    7.447260   7.116702   6.082288   6.514907   7.890635
    11  C    6.399967   5.962423   4.806558   5.191401   6.528031
    12  C    5.101646   4.846058   3.800805   4.537980   5.856496
    13  C    5.098726   5.198946   4.493217   5.516450   6.830938
    14  C    6.328972   6.469878   5.829437   6.782395   8.148191
    15  H    8.374537   8.335450   7.567202   8.254497   9.672652
    16  H    8.425867   7.988944   6.890353   7.138682   8.490674
    17  H    6.589535   6.933783   6.485643   7.568785   8.912804
    18  F    6.870571   6.185495   4.851665   4.836535   6.065215
    19  F    4.129398   4.577280   4.181291   5.484275   6.674252
    20  H    1.095377   2.180326   2.853118   4.179362   4.421480
    21  H    1.094534   2.180661   3.518624   4.750776   5.179208
    22  H    1.096012   2.199221   2.846820   4.354291   5.137671
    23  H    2.168637   1.097283   2.159637   2.939016   3.835348
    24  H    2.150777   1.095497   2.165089   2.699648   2.842411
    25  H    4.705184   3.491856   2.140409   1.101126   2.126599
    26  H    4.128954   2.957807   2.837383   2.179066   1.095671
    27  H    5.511731   4.197100   3.510218   2.161860   1.100955
    28  H    5.284838   4.418798   3.298903   2.657541   1.948010
    29  H    4.853659   4.198265   2.731934   2.968966   4.069832
    30  H    3.946833   3.872246   2.729248   3.721989   4.647371
    31  H    2.680517   2.145661   1.103629   2.144002   2.644373
    32  C    4.561214   3.047461   2.579598   1.534613   2.524753
    33  H    4.348761   2.836214   2.935650   2.191867   2.772704
    34  H    5.624058   4.104683   3.522422   2.180809   2.800187
    35  H    4.620073   3.221465   2.755566   2.168745   3.475272
    36  H    2.676714   2.430810   2.045303   3.311882   4.584924
                    6          7          8          9         10
     6  O    0.000000
     7  N    4.241593   0.000000
     8  C    4.464203   1.468548   0.000000
     9  C    8.774779   5.059014   4.340385   0.000000
    10  C    8.073182   4.696640   3.851053   1.394752   0.000000
    11  C    6.684098   3.503401   2.559111   2.394883   1.390792
    12  C    5.957798   2.461564   1.511168   2.829383   2.454780
    13  C    6.922948   3.135337   2.537559   2.387962   2.759255
    14  C    8.276240   4.420513   3.837474   1.396445   2.423751
    15  H    9.856681   6.110086   5.425256   1.084881   2.150184
    16  H    8.697066   5.552527   4.702113   2.172394   1.083843
    17  H    9.029951   5.129122   4.680726   2.175650   3.417598
    18  F    6.231281   3.798412   2.867532   3.622579   2.355103
    19  F    6.709972   3.062742   2.811066   3.626475   4.118424
    20  H    4.330910   3.616881   4.322935   7.854647   7.858385
    21  H    5.512763   4.075830   5.161312   8.176490   8.311446
    22  H    5.324068   2.869905   3.709596   6.516476   6.701514
    23  H    4.685619   2.603980   4.041893   7.168713   6.999904
    24  H    3.524892   3.392266   4.579098   8.367413   8.082941
    25  H    2.696834   2.570072   2.852987   6.716826   5.872448
    26  H    2.018481   4.244260   5.070088   9.225015   8.624529
    27  H    2.088878   4.618152   5.164764   9.178847   8.341744
    28  H    0.967093   4.279213   4.223766   8.424357   7.619691
    29  H    4.060610   2.096633   1.092327   4.811910   4.022406
    30  H    4.367089   2.145822   1.104612   4.803473   4.478173
    31  H    2.518905   2.130420   2.540476   6.791661   6.380927
    32  C    3.814239   3.105213   4.146218   7.506312   6.818809
    33  H    4.137643   3.671320   4.896661   8.255249   7.687487
    34  H    4.104211   4.004004   4.843289   8.062982   7.230121
    35  H    4.636773   2.737657   3.826548   6.678012   6.043285
    36  H    4.967285   1.016022   2.018075   4.911812   4.834806
                   11         12         13         14         15
    11  C    0.000000
    12  C    1.395631   0.000000
    13  C    2.356761   1.396325   0.000000
    14  C    2.769613   2.459068   1.387646   0.000000
    15  H    3.380900   3.914263   3.375139   2.151645   0.000000
    16  H    2.143123   3.420875   3.842685   3.416823   2.506244
    17  H    3.852918   3.425333   2.143238   1.083763   2.510606
    18  F    1.353464   2.359669   3.598444   4.122996   4.500981
    19  F    3.596450   2.353482   1.359189   2.361917   4.508248
    20  H    6.751789   5.431658   5.488728   6.770441   8.848555
    21  H    7.332520   6.042227   5.913356   7.051447   9.096834
    22  H    5.772273   4.427012   4.200426   5.364755   7.449197
    23  H    5.952065   4.932410   5.213884   6.363509   8.125393
    24  H    6.876453   5.816327   6.257947   7.546230   9.388408
    25  H    4.522244   4.084369   5.253165   6.466766   7.762793
    26  H    7.286888   6.488824   7.314190   8.646039  10.287624
    27  H    6.997063   6.509815   7.588148   8.855219  10.224937
    28  H    6.233429   5.657725   6.740495   8.050433   9.494735
    29  H    2.634820   2.127679   3.409484   4.582837   5.877076
    30  H    3.284357   2.138843   2.797316   4.125569   5.866354
    31  H    5.071938   4.002358   4.680346   6.064524   7.868954
    32  C    5.632896   5.148703   6.057393   7.181081   8.487104
    33  H    6.533803   5.921673   6.675301   7.808904   9.224058
    34  H    6.064750   5.794309   6.827046   7.895940   9.017154
    35  H    4.969419   4.556573   5.390322   6.401530   7.614543
    36  H    3.825494   2.613574   2.798587   4.046821   5.916922
                   16         17         18         19         20
    16  H    0.000000
    17  H    4.333244   0.000000
    18  F    2.576409   5.206373   0.000000
    19  F    5.201809   2.588733   4.710779   0.000000
    20  H    8.837617   7.044173   7.160937   4.486810   0.000000
    21  H    9.297911   7.197868   7.846873   4.870453   1.769931
    22  H    7.723342   5.548740   6.427204   3.128372   1.765362
    23  H    7.842089   6.801336   6.223686   4.688186   3.082167
    24  H    8.913176   8.025438   6.956349   5.641048   2.496630
    25  H    6.402654   7.353659   3.965511   5.456722   4.873935
    26  H    9.288690   9.322035   6.952909   6.983463   4.088281
    27  H    8.828687   9.679389   6.352427   7.564927   5.510849
    28  H    8.167564   8.873912   5.651015   6.694546   4.937295
    29  H    4.679148   5.522815   2.394387   3.870353   4.969568
    30  H    5.370254   4.837762   3.663888   2.722658   3.890416
    31  H    7.208891   6.700886   5.106991   4.269663   2.520130
    32  C    7.358791   7.948635   5.271183   6.115517   5.079170
    33  H    8.282535   8.480587   6.287962   6.551606   4.927781
    34  H    7.632307   8.730233   5.480094   7.024940   6.077412
    35  H    6.582424   7.159912   4.739175   5.559798   5.291856
    36  H    5.788438   4.579641   4.415171   2.397272   3.311444
                   21         22         23         24         25
    21  H    0.000000
    22  H    1.763257   0.000000
    23  H    2.493125   2.565026   0.000000
    24  H    2.496885   3.082776   1.754943   0.000000
    25  H    5.613355   4.938726   3.820338   3.744842   0.000000
    26  H    4.647668   4.971518   3.557438   2.223453   3.052111
    27  H    6.172216   6.169335   4.625114   3.745366   2.476994
    28  H    6.184915   5.757897   5.198071   4.270653   2.456598
    29  H    5.903365   4.611921   4.552653   4.889291   2.251425
    30  H    5.017843   3.517511   4.424753   4.683914   3.433919
    31  H    3.714091   2.979374   3.045508   2.575251   2.504101
    32  C    5.145371   4.959604   2.844588   3.100506   2.136771
    33  H    4.722164   4.907552   2.510789   2.630821   3.066570
    34  H    6.205307   6.037830   3.923301   4.035428   2.434291
    35  H    5.203462   4.796311   2.755522   3.586125   2.511812
    36  H    3.529164   2.133146   2.454879   3.503651   3.558581
                   26         27         28         29         30
    26  H    0.000000
    27  H    1.763270   0.000000
    28  H    2.818809   2.331458   0.000000
    29  H    4.892187   4.631497   3.623773   0.000000
    30  H    5.215642   5.491148   4.161775   1.763265   0.000000
    31  H    2.959254   3.679494   2.795996   2.757417   2.362103
    32  C    2.828087   2.681039   4.023581   3.945460   4.864394
    33  H    2.635085   2.977546   4.565802   4.846447   5.512944
    34  H    3.239516   2.504322   4.184288   4.428151   5.602548
    35  H    3.804641   3.708559   4.752688   3.758356   4.699754
    36  H    4.818186   5.444491   5.107897   2.920233   2.435118
                   31         32         33         34         35
    31  H    0.000000
    32  C    3.487644   0.000000
    33  H    3.842172   1.095709   0.000000
    34  H    4.309213   1.095207   1.766262   0.000000
    35  H    3.789348   1.092806   1.772341   1.772805   0.000000
    36  H    2.606766   3.797246   4.158811   4.782001   3.336443
                   36
    36  H    0.000000
 Stoichiometry    C13H19F2NO
 Framework group  C1[X(C13H19F2NO)]
 Deg. of freedom   102
 Full point group                 C1      NOp   1
 Largest Abelian subgroup         C1      NOp   1
 Largest concise Abelian subgroup C1      NOp   1
                         Standard orientation:                         
 ---------------------------------------------------------------------
 Center     Atomic      Atomic             Coordinates (Angstroms)
 Number     Number       Type             X           Y           Z
 ---------------------------------------------------------------------
      1          6           0       -2.185501    2.958215    0.005769
      2          6           0       -2.554659    1.627862    0.675738
      3          6           0       -1.914369    0.400350    0.003331
      4          6           0       -2.584324   -0.945687    0.388585
      5          6           0       -3.949397   -1.139275   -0.288632
      6          8           0       -3.902720   -1.068420   -1.713731
      7          7           0       -0.476836    0.351433    0.345019
      8          6           0        0.363560   -0.203568   -0.723785
      9          6           0        4.565026   -0.064637    0.356644
     10          6           0        3.919937   -1.298103    0.268579
     11          6           0        2.572624   -1.321176   -0.075683
     12          6           0        1.826580   -0.173214   -0.346585
     13          6           0        2.527946    1.029445   -0.239722
     14          6           0        3.869695    1.119435    0.102585
     15          1           0        5.615192   -0.024645    0.625938
     16          1           0        4.437364   -2.230748    0.461344
     17          1           0        4.344810    2.091432    0.166058
     18          9           0        1.954707   -2.522210   -0.162633
     19          9           0        1.839818    2.176360   -0.481506
     20          1           0       -2.539216    2.985090   -1.030578
     21          1           0       -2.636916    3.802502    0.536249
     22          1           0       -1.103069    3.129063   -0.014086
     23          1           0       -2.258870    1.647874    1.732213
     24          1           0       -3.644924    1.521661    0.663218
     25          1           0       -1.929588   -1.739997   -0.002401
     26          1           0       -4.649292   -0.355057    0.020630
     27          1           0       -4.380266   -2.097574    0.040180
     28          1           0       -3.331826   -1.786891   -2.018933
     29          1           0        0.072459   -1.240968   -0.903341
     30          1           0        0.232953    0.333911   -1.679936
     31          1           0       -2.046252    0.514276   -1.086451
     32          6           0       -2.698286   -1.157299    1.904260
     33          1           0       -3.433783   -0.481808    2.355185
     34          1           0       -3.009209   -2.181973    2.134150
     35          1           0       -1.732392   -0.977490    2.382740
     36          1           0       -0.151270    1.297228    0.523287
 ---------------------------------------------------------------------
 Rotational constants (GHZ):      0.7252218      0.2450546      0.2049743
 Standard basis: def2TZVP (5D, 7F)
 There are   726 symmetry adapted cartesian basis functions of A   symmetry.
 There are   641 symmetry adapted basis functions of A   symmetry.
   641 basis functions,  1019 primitive gaussians,   726 cartesian basis functions
    65 alpha electrons       65 beta electrons
       nuclear repulsion energy      1256.5127155641 Hartrees.
 NAtoms=   36 NActive=   36 NUniq=   36 SFac= 1.00D+00 NAtFMM=   60 NAOKFM=F Big=F
 Integral buffers will be    131072 words long.
 Raffenetti 2 integral format.
 Two-electron integral symmetry is turned on.
 ------------------------------------------------------------------------------
 Polarizable Continuum Model (PCM)
 =================================
 Model                : PCM (using non-symmetric T matrix).
 Atomic radii         : UFF (Universal Force Field).
 Polarization charges : Total charges.
 Charge compensation  : None.
 Solution method      : On-the-fly selection.
 Cavity type          : Scaled VdW (van der Waals Surface) (Alpha=1.100).
 Cavity algorithm     : GePol (No added spheres)
                        Default sphere list used, NSphG=   36.
                        Lebedev-Laikov grids with approx.  5.0 points / Ang**2.
                        Smoothing algorithm: Karplus/York (Gamma=1.0000).
                        Polarization charges: spherical gaussians, with
                                              point-specific exponents (IZeta= 3).
                        Self-potential: point-specific (ISelfS= 7).
                        Self-field    : sphere-specific E.n sum rule (ISelfD= 2).
 Solvent              : Chloroform, Eps=   4.711300 Eps(inf)=   2.090627
 ------------------------------------------------------------------------------
 One-electron integrals computed using PRISM.
   1 Symmetry operations used in ECPInt.
 ECPInt:  NShTT=   34716 NPrTT=  103716 LenC2=   30807 LenP2D=   66674.
 LDataN:  DoStor=T MaxTD1= 6 Len=  172
 NBasis=   641 RedAO= T EigKep=  1.16D-05  NBF=   641
 NBsUse=   641 1.00D-06 EigRej= -1.00D+00 NBFU=   641
 ExpMin= 9.52D-02 ExpMax= 3.55D+04 ExpMxC= 1.21D+03 IAcc=3 IRadAn=         5 AccDes= 0.00D+00
 Harris functional with IExCor= 1009 and IRadAn=       5 diagonalized for initial guess.
 HarFok:  IExCor= 1009 AccDes= 0.00D+00 IRadAn=         5 IDoV= 1 UseB2=F ITyADJ=14
 ICtDFT=  3500011 ScaDFX=  1.000000  1.000000  1.000000  1.000000
 FoFCou: FMM=F IPFlag=           0 FMFlag=      100000 FMFlg1=           0
         NFxFlg=           0 DoJE=T BraDBF=F KetDBF=T FulRan=T
         wScrn=  0.000000 ICntrl=     500 IOpCl=  0 I1Cent=   200000004 NGrid=           0
         NMat0=    1 NMatS0=      1 NMatT0=    0 NMatD0=    1 NMtDS0=    0 NMtDT0=    0
 Petite list used in FoFCou.
 Requested convergence on RMS density matrix=1.00D-08 within 128 cycles.
 Requested convergence on MAX density matrix=1.00D-06.
 Requested convergence on             energy=1.00D-06.
 No special actions if energy rises.
 Inv3:  Mode=1 IEnd=    19584075.
 Iteration    1 A*A^-1 deviation from unit magnitude is 5.66D-15 for    630.
 Iteration    1 A*A^-1 deviation from orthogonality  is 4.58D-15 for   2126    633.
 Iteration    1 A^-1*A deviation from unit magnitude is 6.11D-15 for    614.
 Iteration    1 A^-1*A deviation from orthogonality  is 1.41D-11 for   2548   2448.
 Error on total polarization charges =  0.01259
 SCF Done:  E(RM062X) =  -836.456202926     A.U. after   12 cycles
            NFock= 12  Conv=0.68D-08     -V/T= 2.0052

 **********************************************************************

            Population analysis using the SCF density.

 **********************************************************************

 Orbital symmetries:
       Occupied  (A) (A) (A) (A) (A) (A) (A) (A) (A) (A) (A) (A)
                 (A) (A) (A) (A) (A) (A) (A) (A) (A) (A) (A) (A)
                 (A) (A) (A) (A) (A) (A) (A) (A) (A) (A) (A) (A)
                 (A) (A) (A) (A) (A) (A) (A) (A) (A) (A) (A) (A)
                 (A) (A) (A) (A) (A) (A) (A) (A) (A) (A) (A) (A)
                 (A) (A) (A) (A) (A)
       Virtual   (A) (A) (A) (A) (A) (A) (A) (A) (A) (A) (A) (A)
                 (A) (A) (A) (A) (A) (A) (A) (A) (A) (A) (A) (A)
                 (A) (A) (A) (A) (A) (A) (A) (A) (A) (A) (A) (A)
                 (A) (A) (A) (A) (A) (A) (A) (A) (A) (A) (A) (A)
                 (A) (A) (A) (A) (A) (A) (A) (A) (A) (A) (A) (A)
                 (A) (A) (A) (A) (A) (A) (A) (A) (A) (A) (A) (A)
                 (A) (A) (A) (A) (A) (A) (A) (A) (A) (A) (A) (A)
                 (A) (A) (A) (A) (A) (A) (A) (A) (A) (A) (A) (A)
                 (A) (A) (A) (A) (A) (A) (A) (A) (A) (A) (A) (A)
                 (A) (A) (A) (A) (A) (A) (A) (A) (A) (A) (A) (A)
                 (A) (A) (A) (A) (A) (A) (A) (A) (A) (A) (A) (A)
                 (A) (A) (A) (A) (A) (A) (A) (A) (A) (A) (A) (A)
                 (A) (A) (A) (A) (A) (A) (A) (A) (A) (A) (A) (A)
                 (A) (A) (A) (A) (A) (A) (A) (A) (A) (A) (A) (A)
                 (A) (A) (A) (A) (A) (A) (A) (A) (A) (A) (A) (A)
                 (A) (A) (A) (A) (A) (A) (A) (A) (A) (A) (A) (A)
                 (A) (A) (A) (A) (A) (A) (A) (A) (A) (A) (A) (A)
                 (A) (A) (A) (A) (A) (A) (A) (A) (A) (A) (A) (A)
                 (A) (A) (A) (A) (A) (A) (A) (A) (A) (A) (A) (A)
                 (A) (A) (A) (A) (A) (A) (A) (A) (A) (A) (A) (A)
                 (A) (A) (A) (A) (A) (A) (A) (A) (A) (A) (A) (A)
                 (A) (A) (A) (A) (A) (A) (A) (A) (A) (A) (A) (A)
                 (A) (A) (A) (A) (A) (A) (A) (A) (A) (A) (A) (A)
                 (A) (A) (A) (A) (A) (A) (A) (A) (A) (A) (A) (A)
                 (A) (A) (A) (A) (A) (A) (A) (A) (A) (A) (A) (A)
                 (A) (A) (A) (A) (A) (A) (A) (A) (A) (A) (A) (A)
                 (A) (A) (A) (A) (A) (A) (A) (A) (A) (A) (A) (A)
                 (A) (A) (A) (A) (A) (A) (A) (A) (A) (A) (A) (A)
                 (A) (A) (A) (A) (A) (A) (A) (A) (A) (A) (A) (A)
                 (A) (A) (A) (A) (A) (A) (A) (A) (A) (A) (A) (A)
                 (A) (A) (A) (A) (A) (A) (A) (A) (A) (A) (A) (A)
                 (A) (A) (A) (A) (A) (A) (A) (A) (A) (A) (A) (A)
                 (A) (A) (A) (A) (A) (A) (A) (A) (A) (A) (A) (A)
                 (A) (A) (A) (A) (A) (A) (A) (A) (A) (A) (A) (A)
                 (A) (A) (A) (A) (A) (A) (A) (A) (A) (A) (A) (A)
                 (A) (A) (A) (A) (A) (A) (A) (A) (A) (A) (A) (A)
                 (A) (A) (A) (A) (A) (A) (A) (A) (A) (A) (A) (A)
                 (A) (A) (A) (A) (A) (A) (A) (A) (A) (A) (A) (A)
                 (A) (A) (A) (A) (A) (A) (A) (A) (A) (A) (A) (A)
                 (A) (A) (A) (A) (A) (A) (A) (A) (A) (A) (A) (A)
                 (A) (A) (A) (A) (A) (A) (A) (A) (A) (A) (A) (A)
                 (A) (A) (A) (A) (A) (A) (A) (A) (A) (A) (A) (A)
                 (A) (A) (A) (A) (A) (A) (A) (A) (A) (A) (A) (A)
                 (A) (A) (A) (A) (A) (A) (A) (A) (A) (A) (A) (A)
                 (A) (A) (A) (A) (A) (A) (A) (A) (A) (A) (A) (A)
                 (A) (A) (A) (A) (A) (A) (A) (A) (A) (A) (A) (A)
                 (A) (A) (A) (A) (A) (A) (A) (A) (A) (A) (A) (A)
                 (A) (A) (A) (A) (A) (A) (A) (A) (A) (A) (A) (A)
 The electronic state is 1-A.
 Alpha  occ. eigenvalues --  -25.27054 -25.26734 -19.62647 -14.73569 -10.64309
 Alpha  occ. eigenvalues --  -10.64289 -10.57975 -10.57562 -10.57015 -10.56581
 Alpha  occ. eigenvalues --  -10.56192 -10.55808 -10.55750 -10.53710 -10.53194
 Alpha  occ. eigenvalues --  -10.52450 -10.52026  -1.38192  -1.38047  -1.14303
 Alpha  occ. eigenvalues --   -1.02159  -0.98271  -0.90522  -0.87378  -0.86087
 Alpha  occ. eigenvalues --   -0.85435  -0.78358  -0.76336  -0.74379  -0.72739
 Alpha  occ. eigenvalues --   -0.70603  -0.69389  -0.65351  -0.63428  -0.62285
 Alpha  occ. eigenvalues --   -0.58737  -0.57934  -0.57581  -0.57427  -0.57237
 Alpha  occ. eigenvalues --   -0.55499  -0.54730  -0.54078  -0.53443  -0.50880
 Alpha  occ. eigenvalues --   -0.49838  -0.49002  -0.48090  -0.47673  -0.47191
 Alpha  occ. eigenvalues --   -0.45836  -0.45086  -0.44354  -0.43856  -0.43037
 Alpha  occ. eigenvalues --   -0.42475  -0.41744  -0.40711  -0.39005  -0.38098
 Alpha  occ. eigenvalues --   -0.36773  -0.34869  -0.31856  -0.31336  -0.29618
 Alpha virt. eigenvalues --    0.00444   0.01797   0.05786   0.06937   0.07692
 Alpha virt. eigenvalues --    0.08430   0.09199   0.10799   0.11662   0.11926
 Alpha virt. eigenvalues --    0.12576   0.12831   0.13335   0.13844   0.13980
 Alpha virt. eigenvalues --    0.14975   0.15635   0.16164   0.16525   0.17185
 Alpha virt. eigenvalues --    0.17657   0.18258   0.18541   0.19385   0.19579
 Alpha virt. eigenvalues --    0.20495   0.20977   0.21689   0.21945   0.22051
 Alpha virt. eigenvalues --    0.22493   0.23280   0.23807   0.24734   0.25222
 Alpha virt. eigenvalues --    0.26068   0.26704   0.27171   0.27807   0.28027
 Alpha virt. eigenvalues --    0.28744   0.29776   0.30363   0.30943   0.32163
 Alpha virt. eigenvalues --    0.32702   0.33235   0.34278   0.34405   0.34992
 Alpha virt. eigenvalues --    0.35457   0.37099   0.37208   0.37512   0.37751
 Alpha virt. eigenvalues --    0.38334   0.38730   0.38955   0.39345   0.39747
 Alpha virt. eigenvalues --    0.40388   0.41295   0.41858   0.42659   0.42964
 Alpha virt. eigenvalues --    0.43571   0.44016   0.44635   0.44884   0.44939
 Alpha virt. eigenvalues --    0.45783   0.46463   0.46644   0.47445   0.47859
 Alpha virt. eigenvalues --    0.48407   0.48776   0.49018   0.49961   0.50749
 Alpha virt. eigenvalues --    0.50987   0.51132   0.51745   0.51960   0.52347
 Alpha virt. eigenvalues --    0.53096   0.53574   0.54013   0.54399   0.54816
 Alpha virt. eigenvalues --    0.55337   0.55728   0.56479   0.57553   0.57780
 Alpha virt. eigenvalues --    0.58354   0.60334   0.60729   0.61335   0.62794
 Alpha virt. eigenvalues --    0.63556   0.64370   0.64880   0.66132   0.66654
 Alpha virt. eigenvalues --    0.68067   0.68506   0.69001   0.69575   0.70754
 Alpha virt. eigenvalues --    0.70918   0.72239   0.73117   0.73397   0.75160
 Alpha virt. eigenvalues --    0.76289   0.77342   0.78216   0.78588   0.79588
 Alpha virt. eigenvalues --    0.79931   0.80559   0.82050   0.82680   0.84662
 Alpha virt. eigenvalues --    0.85748   0.86276   0.87070   0.88891   0.89177
 Alpha virt. eigenvalues --    0.89707   0.90505   0.91179   0.91785   0.92238
 Alpha virt. eigenvalues --    0.93000   0.93570   0.94622   0.95141   0.95913
 Alpha virt. eigenvalues --    0.97127   0.98524   1.00204   1.00678   1.00770
 Alpha virt. eigenvalues --    1.02159   1.03365   1.05396   1.06877   1.07715
 Alpha virt. eigenvalues --    1.08226   1.08888   1.09454   1.10138   1.11992
 Alpha virt. eigenvalues --    1.12621   1.13062   1.13624   1.14901   1.16165
 Alpha virt. eigenvalues --    1.17118   1.17743   1.18637   1.19336   1.20913
 Alpha virt. eigenvalues --    1.21778   1.22760   1.23062   1.23712   1.24961
 Alpha virt. eigenvalues --    1.25534   1.26463   1.28129   1.28768   1.29641
 Alpha virt. eigenvalues --    1.31027   1.32995   1.33733   1.35218   1.36674
 Alpha virt. eigenvalues --    1.37288   1.38210   1.39312   1.40346   1.42470
 Alpha virt. eigenvalues --    1.43271   1.44951   1.45809   1.47081   1.47877
 Alpha virt. eigenvalues --    1.50050   1.51201   1.52032   1.53339   1.54790
 Alpha virt. eigenvalues --    1.54892   1.55638   1.56900   1.58009   1.58540
 Alpha virt. eigenvalues --    1.58739   1.59203   1.60376   1.60945   1.62069
 Alpha virt. eigenvalues --    1.63019   1.63485   1.64158   1.64811   1.65263
 Alpha virt. eigenvalues --    1.65612   1.66189   1.66684   1.68590   1.69308
 Alpha virt. eigenvalues --    1.69955   1.70332   1.70824   1.71231   1.72109
 Alpha virt. eigenvalues --    1.72748   1.73429   1.74679   1.75597   1.77079
 Alpha virt. eigenvalues --    1.79164   1.80809   1.84100   1.85008   1.86210
 Alpha virt. eigenvalues --    1.87401   1.87721   1.89896   1.90019   1.91414
 Alpha virt. eigenvalues --    1.92473   1.93626   1.94712   1.94767   1.95891
 Alpha virt. eigenvalues --    1.97057   1.98222   1.98856   1.99754   2.00989
 Alpha virt. eigenvalues --    2.02039   2.04372   2.04639   2.06701   2.06759
 Alpha virt. eigenvalues --    2.08000   2.09138   2.10462   2.11130   2.12663
 Alpha virt. eigenvalues --    2.13305   2.13947   2.14919   2.15755   2.15882
 Alpha virt. eigenvalues --    2.16837   2.17094   2.18350   2.19593   2.20770
 Alpha virt. eigenvalues --    2.22204   2.22458   2.23484   2.24654   2.26486
 Alpha virt. eigenvalues --    2.28261   2.29159   2.29595   2.30439   2.30735
 Alpha virt. eigenvalues --    2.31670   2.32533   2.34088   2.34572   2.35771
 Alpha virt. eigenvalues --    2.36811   2.37155   2.39213   2.39843   2.40468
 Alpha virt. eigenvalues --    2.42114   2.42835   2.43931   2.45028   2.45397
 Alpha virt. eigenvalues --    2.46285   2.47940   2.48707   2.50307   2.51702
 Alpha virt. eigenvalues --    2.51946   2.53344   2.54645   2.55413   2.55959
 Alpha virt. eigenvalues --    2.57102   2.57459   2.57618   2.59248   2.60045
 Alpha virt. eigenvalues --    2.60692   2.60937   2.61914   2.62826   2.63180
 Alpha virt. eigenvalues --    2.63350   2.64880   2.66400   2.66991   2.67158
 Alpha virt. eigenvalues --    2.68152   2.68726   2.70094   2.70534   2.70739
 Alpha virt. eigenvalues --    2.72082   2.73256   2.73966   2.74250   2.75048
 Alpha virt. eigenvalues --    2.76091   2.76656   2.76910   2.78516   2.79231
 Alpha virt. eigenvalues --    2.80347   2.80864   2.81558   2.82115   2.84029
 Alpha virt. eigenvalues --    2.84641   2.85786   2.87038   2.88186   2.88327
 Alpha virt. eigenvalues --    2.89228   2.89612   2.90866   2.91983   2.92920
 Alpha virt. eigenvalues --    2.93611   2.95010   2.96015   2.97367   2.98033
 Alpha virt. eigenvalues --    2.99411   3.00772   3.02005   3.02915   3.03541
 Alpha virt. eigenvalues --    3.03951   3.05114   3.05942   3.06099   3.08380
 Alpha virt. eigenvalues --    3.08980   3.10165   3.11246   3.11654   3.12510
 Alpha virt. eigenvalues --    3.13131   3.13848   3.14628   3.15608   3.16339
 Alpha virt. eigenvalues --    3.17071   3.17807   3.18603   3.19911   3.20863
 Alpha virt. eigenvalues --    3.22132   3.22473   3.23594   3.24625   3.24888
 Alpha virt. eigenvalues --    3.25384   3.26699   3.27754   3.28306   3.29662
 Alpha virt. eigenvalues --    3.30502   3.30974   3.32134   3.32336   3.33806
 Alpha virt. eigenvalues --    3.34500   3.34844   3.36647   3.37148   3.38455
 Alpha virt. eigenvalues --    3.38748   3.39537   3.39902   3.41115   3.41909
 Alpha virt. eigenvalues --    3.42409   3.42724   3.43061   3.45409   3.46409
 Alpha virt. eigenvalues --    3.47175   3.47886   3.48588   3.49734   3.51290
 Alpha virt. eigenvalues --    3.52320   3.53376   3.54301   3.55036   3.55732
 Alpha virt. eigenvalues --    3.56364   3.56544   3.58658   3.59031   3.60501
 Alpha virt. eigenvalues --    3.61525   3.62407   3.63133   3.63684   3.65112
 Alpha virt. eigenvalues --    3.65581   3.66316   3.67432   3.70223   3.70516
 Alpha virt. eigenvalues --    3.72714   3.74759   3.75855   3.77877   3.78878
 Alpha virt. eigenvalues --    3.81260   3.83256   3.83534   3.85670   3.87178
 Alpha virt. eigenvalues --    3.87769   3.89896   3.90372   3.93203   3.93611
 Alpha virt. eigenvalues --    3.95549   3.97184   3.98643   3.99103   4.01252
 Alpha virt. eigenvalues --    4.02535   4.03774   4.04963   4.05448   4.07202
 Alpha virt. eigenvalues --    4.08070   4.09391   4.09617   4.10716   4.12627
 Alpha virt. eigenvalues --    4.13657   4.15378   4.15543   4.16751   4.18292
 Alpha virt. eigenvalues --    4.19562   4.19760   4.21113   4.21777   4.22172
 Alpha virt. eigenvalues --    4.24117   4.27557   4.30269   4.33103   4.34993
 Alpha virt. eigenvalues --    4.36181   4.37582   4.38829   4.39728   4.41488
 Alpha virt. eigenvalues --    4.44237   4.45319   4.47785   4.50319   4.50452
 Alpha virt. eigenvalues --    4.53354   4.55078   4.56494   4.58549   4.61845
 Alpha virt. eigenvalues --    4.63903   4.64342   4.65284   4.67940   4.71794
 Alpha virt. eigenvalues --    4.73568   4.74862   4.78524   4.81092   4.83625
 Alpha virt. eigenvalues --    4.87143   4.88359   4.91921   4.92463   4.95596
 Alpha virt. eigenvalues --    5.00832   5.04298   5.08779   5.09263   5.13097
 Alpha virt. eigenvalues --    5.16506   5.21710   5.27531   5.28825   5.29612
 Alpha virt. eigenvalues --    5.31229   5.36826   5.37771   5.41820   5.43662
 Alpha virt. eigenvalues --    5.47789   5.52215   5.59212   5.63876   5.68515
 Alpha virt. eigenvalues --    5.72829   5.77084   5.88977   5.89844   6.25832
 Alpha virt. eigenvalues --    6.46158   6.68035   6.77423   6.90337   6.90539
 Alpha virt. eigenvalues --    6.91037   6.92216   6.96318   6.99548   7.00492
 Alpha virt. eigenvalues --    7.08249   7.09821   7.12146   7.21467   7.24143
 Alpha virt. eigenvalues --    7.35817   7.39161   7.53347   7.55462   8.35756
 Alpha virt. eigenvalues --    8.37530   8.52551   8.55348   8.74123   8.75093
 Alpha virt. eigenvalues --    8.96279   8.96412   9.00200   9.03200  22.20525
 Alpha virt. eigenvalues --   22.43252  22.48295  22.55633  22.62748  22.66395
 Alpha virt. eigenvalues --   22.73944  22.75446  22.76519  22.79381  22.93567
 Alpha virt. eigenvalues --   23.02653  23.47800  32.61656  43.96554  57.46655
 Alpha virt. eigenvalues --   57.55572
          Condensed to atoms (all electrons):
               1          2          3          4          5          6
     1  C    5.056598   0.242144  -0.049315   0.009169  -0.001286  -0.000396
     2  C    0.242144   5.321616   0.102216  -0.000033  -0.015588   0.008684
     3  C   -0.049315   0.102216   5.766535   0.006581   0.005821  -0.053465
     4  C    0.009169  -0.000033   0.006581   5.509751   0.258843  -0.019310
     5  C   -0.001286  -0.015588   0.005821   0.258843   4.926300   0.219887
     6  O   -0.000396   0.008684  -0.053465  -0.019310   0.219887   8.090655
     7  N    0.008573  -0.024177   0.122020  -0.003282   0.003342   0.000500
     8  C   -0.002061   0.005978  -0.050484   0.003641  -0.000146  -0.000249
     9  C   -0.000004   0.000001   0.000022  -0.000010   0.000000   0.000000
    10  C    0.000003  -0.000006  -0.000132   0.000053  -0.000001   0.000000
    11  C   -0.000187  -0.000036  -0.000670   0.000012   0.000080  -0.000007
    12  C   -0.000798  -0.000020   0.003245   0.002332  -0.000002   0.000077
    13  C    0.000392   0.000369   0.002120  -0.000261  -0.000022   0.000004
    14  C    0.000034   0.000032  -0.000307   0.000063  -0.000002   0.000000
    15  H    0.000000   0.000000   0.000000   0.000000   0.000000   0.000000
    16  H    0.000000   0.000000  -0.000003   0.000001   0.000000   0.000000
    17  H   -0.000001   0.000000  -0.000001   0.000000   0.000000   0.000000
    18  F    0.000000   0.000002   0.000612  -0.000452   0.000013   0.000000
    19  F   -0.000759  -0.000644  -0.000346  -0.000037   0.000000   0.000000
    20  H    0.416911  -0.046201   0.001229  -0.000598  -0.000170   0.000021
    21  H    0.424695  -0.050772   0.011488  -0.000395  -0.000011   0.000009
    22  H    0.415084  -0.040249  -0.010117   0.000196   0.000075   0.000000
    23  H   -0.043828   0.428073  -0.030844  -0.018284   0.001676  -0.000074
    24  H   -0.027258   0.428791  -0.073677   0.020997  -0.003297  -0.000256
    25  H   -0.000612   0.006785  -0.108088   0.476737  -0.044726  -0.008795
    26  H   -0.000026  -0.002644  -0.025146  -0.008343   0.395059  -0.035707
    27  H    0.000049   0.002000   0.013291  -0.083506   0.450383  -0.043763
    28  H   -0.000016   0.000053  -0.008152   0.005217  -0.039221   0.299607
    29  H    0.000466   0.000345   0.006357  -0.002534  -0.001206   0.000559
    30  H   -0.002391   0.002093   0.008538  -0.004497   0.000932  -0.000233
    31  H   -0.019627  -0.018448   0.462666  -0.076321  -0.006503   0.032907
    32  C   -0.000297   0.010963  -0.035725   0.223530  -0.064232   0.011465
    33  H   -0.000064   0.008838  -0.035804  -0.018618  -0.009269  -0.000073
    34  H    0.000044  -0.000303   0.013371  -0.039374  -0.007627   0.000017
    35  H   -0.000332  -0.008636   0.016609  -0.056139   0.011091  -0.000351
    36  H    0.004927  -0.006086  -0.052075   0.003716  -0.000631  -0.000002
               7          8          9         10         11         12
     1  C    0.008573  -0.002061  -0.000004   0.000003  -0.000187  -0.000798
     2  C   -0.024177   0.005978   0.000001  -0.000006  -0.000036  -0.000020
     3  C    0.122020  -0.050484   0.000022  -0.000132  -0.000670   0.003245
     4  C   -0.003282   0.003641  -0.000010   0.000053   0.000012   0.002332
     5  C    0.003342  -0.000146   0.000000  -0.000001   0.000080  -0.000002
     6  O    0.000500  -0.000249   0.000000   0.000000  -0.000007   0.000077
     7  N    6.865989   0.235377   0.000670  -0.000642   0.032753  -0.047900
     8  C    0.235377   5.136824  -0.006540   0.007470  -0.112231   0.273679
     9  C    0.000670  -0.006540   5.041700   0.412987   0.002626  -0.092022
    10  C   -0.000642   0.007470   0.412987   5.061068   0.503532   0.019865
    11  C    0.032753  -0.112231   0.002626   0.503532   4.941377   0.221913
    12  C   -0.047900   0.273679  -0.092022   0.019865   0.221913   5.587150
    13  C   -0.002748  -0.064734  -0.021346  -0.077748   0.018656   0.289248
    14  C   -0.000460   0.013081   0.417402  -0.015582  -0.109818   0.010519
    15  H    0.000001   0.000098   0.403654  -0.024100   0.001739  -0.000363
    16  H   -0.000007  -0.000264  -0.033764   0.413688  -0.041872   0.014163
    17  H    0.000022  -0.000198  -0.029515   0.003614  -0.000664   0.012033
    18  F   -0.000612   0.009769   0.010013  -0.048568   0.252290  -0.081279
    19  F   -0.004393   0.018913   0.008667  -0.000729   0.006205  -0.077586
    20  H   -0.001361   0.000158   0.000000   0.000000   0.000010   0.000052
    21  H    0.000209   0.000146   0.000000   0.000000  -0.000002  -0.000036
    22  H    0.000779  -0.001653  -0.000016   0.000009  -0.000077   0.000762
    23  H   -0.002806  -0.000558   0.000003  -0.000003   0.000111   0.000237
    24  H    0.006640  -0.000837   0.000000   0.000000  -0.000006   0.000048
    25  H    0.002502   0.004768  -0.000003   0.000032   0.001120  -0.000178
    26  H   -0.000172   0.000195   0.000000   0.000000   0.000001   0.000015
    27  H   -0.000294  -0.000230   0.000000   0.000000  -0.000006  -0.000004
    28  H   -0.000285   0.000366   0.000000   0.000000   0.000004   0.000040
    29  H   -0.040246   0.425776  -0.000837  -0.000073  -0.052063  -0.022838
    30  H   -0.072996   0.405208   0.000836  -0.000948   0.029499  -0.014217
    31  H   -0.058000  -0.022699   0.000006  -0.000006   0.000573   0.003514
    32  C   -0.038392   0.000191  -0.000004   0.000011  -0.000796   0.000075
    33  H    0.002216   0.000061   0.000000   0.000000   0.000014   0.000013
    34  H   -0.000008  -0.000075   0.000000   0.000000   0.000001  -0.000012
    35  H    0.016968  -0.001064   0.000010  -0.000018   0.000719  -0.000064
    36  H    0.388771  -0.051101  -0.000042   0.000093  -0.000784  -0.012454
              13         14         15         16         17         18
     1  C    0.000392   0.000034   0.000000   0.000000  -0.000001   0.000000
     2  C    0.000369   0.000032   0.000000   0.000000   0.000000   0.000002
     3  C    0.002120  -0.000307   0.000000  -0.000003  -0.000001   0.000612
     4  C   -0.000261   0.000063   0.000000   0.000001   0.000000  -0.000452
     5  C   -0.000022  -0.000002   0.000000   0.000000   0.000000   0.000013
     6  O    0.000004   0.000000   0.000000   0.000000   0.000000   0.000000
     7  N   -0.002748  -0.000460   0.000001  -0.000007   0.000022  -0.000612
     8  C   -0.064734   0.013081   0.000098  -0.000264  -0.000198   0.009769
     9  C   -0.021346   0.417402   0.403654  -0.033764  -0.029515   0.010013
    10  C   -0.077748  -0.015582  -0.024100   0.413688   0.003614  -0.048568
    11  C    0.018656  -0.109818   0.001739  -0.041872  -0.000664   0.252290
    12  C    0.289248   0.010519  -0.000363   0.014163   0.012033  -0.081279
    13  C    4.860900   0.504206   0.002720  -0.001070  -0.040330   0.007119
    14  C    0.504206   5.094065  -0.025258   0.004695   0.411758  -0.000786
    15  H    0.002720  -0.025258   0.475768  -0.003352  -0.003205  -0.000108
    16  H   -0.001070   0.004695  -0.003352   0.474614  -0.000146   0.001546
    17  H   -0.040330   0.411758  -0.003205  -0.000146   0.471146   0.000010
    18  F    0.007119  -0.000786  -0.000108   0.001546   0.000010   9.057086
    19  F    0.238755  -0.048347  -0.000108   0.000012   0.001741  -0.000033
    20  H   -0.000004  -0.000002   0.000000   0.000000   0.000000   0.000000
    21  H    0.000020   0.000002   0.000000   0.000000   0.000000   0.000000
    22  H   -0.000936   0.000078   0.000000   0.000000   0.000009   0.000000
    23  H   -0.000080  -0.000025   0.000000   0.000000   0.000000   0.000000
    24  H    0.000002   0.000001   0.000000   0.000000   0.000000   0.000000
    25  H   -0.000365   0.000002   0.000000   0.000000   0.000000   0.000525
    26  H    0.000000   0.000000   0.000000   0.000000   0.000000   0.000000
    27  H    0.000001   0.000000   0.000000   0.000000   0.000000   0.000000
    28  H    0.000001   0.000000   0.000000   0.000000   0.000000  -0.000001
    29  H    0.018039   0.001464   0.000001  -0.000003   0.000007   0.008891
    30  H   -0.029379  -0.004862   0.000004  -0.000002  -0.000033   0.000245
    31  H   -0.000487  -0.000048   0.000000   0.000000   0.000000  -0.000005
    32  C    0.000181   0.000014   0.000000   0.000000   0.000000  -0.000004
    33  H   -0.000008   0.000000   0.000000   0.000000   0.000000   0.000000
    34  H    0.000000   0.000000   0.000000   0.000000   0.000000   0.000000
    35  H   -0.000129  -0.000033   0.000000   0.000000   0.000000   0.000007
    36  H    0.001753   0.000246   0.000000   0.000002   0.000026  -0.000062
              19         20         21         22         23         24
     1  C   -0.000759   0.416911   0.424695   0.415084  -0.043828  -0.027258
     2  C   -0.000644  -0.046201  -0.050772  -0.040249   0.428073   0.428791
     3  C   -0.000346   0.001229   0.011488  -0.010117  -0.030844  -0.073677
     4  C   -0.000037  -0.000598  -0.000395   0.000196  -0.018284   0.020997
     5  C    0.000000  -0.000170  -0.000011   0.000075   0.001676  -0.003297
     6  O    0.000000   0.000021   0.000009   0.000000  -0.000074  -0.000256
     7  N   -0.004393  -0.001361   0.000209   0.000779  -0.002806   0.006640
     8  C    0.018913   0.000158   0.000146  -0.001653  -0.000558  -0.000837
     9  C    0.008667   0.000000   0.000000  -0.000016   0.000003   0.000000
    10  C   -0.000729   0.000000   0.000000   0.000009  -0.000003   0.000000
    11  C    0.006205   0.000010  -0.000002  -0.000077   0.000111  -0.000006
    12  C   -0.077586   0.000052  -0.000036   0.000762   0.000237   0.000048
    13  C    0.238755  -0.000004   0.000020  -0.000936  -0.000080   0.000002
    14  C   -0.048347  -0.000002   0.000002   0.000078  -0.000025   0.000001
    15  H   -0.000108   0.000000   0.000000   0.000000   0.000000   0.000000
    16  H    0.000012   0.000000   0.000000   0.000000   0.000000   0.000000
    17  H    0.001741   0.000000   0.000000   0.000009   0.000000   0.000000
    18  F   -0.000033   0.000000   0.000000   0.000000   0.000000   0.000000
    19  F    9.068125  -0.000008   0.000026   0.002307   0.000020  -0.000004
    20  H   -0.000008   0.531393  -0.023879  -0.030108   0.007178  -0.006043
    21  H    0.000026  -0.023879   0.520215  -0.024051  -0.004533  -0.004297
    22  H    0.002307  -0.030108  -0.024051   0.545518  -0.004055   0.006646
    23  H    0.000020   0.007178  -0.004533  -0.004055   0.523462  -0.024655
    24  H   -0.000004  -0.006043  -0.004297   0.006646  -0.024655   0.540391
    25  H   -0.000004  -0.000009   0.000010  -0.000001  -0.000155   0.000179
    26  H    0.000000   0.000202   0.000037  -0.000046   0.000454  -0.001126
    27  H    0.000000  -0.000011   0.000001   0.000002  -0.000190   0.000080
    28  H    0.000000   0.000012   0.000000  -0.000003   0.000011  -0.000092
    29  H    0.000493  -0.000028   0.000008  -0.000001  -0.000183   0.000017
    30  H    0.000719   0.000231  -0.000058   0.000074   0.000327   0.000009
    31  H    0.000055   0.003358  -0.000012   0.000468   0.006183  -0.000620
    32  C    0.000002  -0.000012   0.000046   0.000013  -0.001382  -0.008868
    33  H    0.000000  -0.000030   0.000018   0.000004  -0.005188  -0.000911
    34  H    0.000000   0.000001  -0.000002  -0.000001   0.000249  -0.000101
    35  H    0.000000   0.000011  -0.000015   0.000008   0.001628   0.000545
    36  H    0.005789  -0.000419  -0.000178   0.005005  -0.003150   0.000989
              25         26         27         28         29         30
     1  C   -0.000612  -0.000026   0.000049  -0.000016   0.000466  -0.002391
     2  C    0.006785  -0.002644   0.002000   0.000053   0.000345   0.002093
     3  C   -0.108088  -0.025146   0.013291  -0.008152   0.006357   0.008538
     4  C    0.476737  -0.008343  -0.083506   0.005217  -0.002534  -0.004497
     5  C   -0.044726   0.395059   0.450383  -0.039221  -0.001206   0.000932
     6  O   -0.008795  -0.035707  -0.043763   0.299607   0.000559  -0.000233
     7  N    0.002502  -0.000172  -0.000294  -0.000285  -0.040246  -0.072996
     8  C    0.004768   0.000195  -0.000230   0.000366   0.425776   0.405208
     9  C   -0.000003   0.000000   0.000000   0.000000  -0.000837   0.000836
    10  C    0.000032   0.000000   0.000000   0.000000  -0.000073  -0.000948
    11  C    0.001120   0.000001  -0.000006   0.000004  -0.052063   0.029499
    12  C   -0.000178   0.000015  -0.000004   0.000040  -0.022838  -0.014217
    13  C   -0.000365   0.000000   0.000001   0.000001   0.018039  -0.029379
    14  C    0.000002   0.000000   0.000000   0.000000   0.001464  -0.004862
    15  H    0.000000   0.000000   0.000000   0.000000   0.000001   0.000004
    16  H    0.000000   0.000000   0.000000   0.000000  -0.000003  -0.000002
    17  H    0.000000   0.000000   0.000000   0.000000   0.000007  -0.000033
    18  F    0.000525   0.000000   0.000000  -0.000001   0.008891   0.000245
    19  F   -0.000004   0.000000   0.000000   0.000000   0.000493   0.000719
    20  H   -0.000009   0.000202  -0.000011   0.000012  -0.000028   0.000231
    21  H    0.000010   0.000037   0.000001   0.000000   0.000008  -0.000058
    22  H   -0.000001  -0.000046   0.000002  -0.000003  -0.000001   0.000074
    23  H   -0.000155   0.000454  -0.000190   0.000011  -0.000183   0.000327
    24  H    0.000179  -0.001126   0.000080  -0.000092   0.000017   0.000009
    25  H    0.577962   0.009810  -0.013160   0.005526  -0.007323   0.001345
    26  H    0.009810   0.563878  -0.042161   0.009665  -0.000075  -0.000011
    27  H   -0.013160  -0.042161   0.573663  -0.007660   0.000244  -0.000021
    28  H    0.005526   0.009665  -0.007660   0.402998  -0.000126  -0.000034
    29  H   -0.007323  -0.000075   0.000244  -0.000126   0.547026  -0.044663
    30  H    0.001345  -0.000011  -0.000021  -0.000034  -0.044663   0.553755
    31  H   -0.001788  -0.001204   0.001612  -0.000375  -0.002574   0.007664
    32  C   -0.042218  -0.006644   0.009186   0.000119   0.001938  -0.000719
    33  H    0.009013   0.005429  -0.001619   0.000040  -0.000118   0.000019
    34  H   -0.008679  -0.000154   0.002981   0.000026   0.000075   0.000006
    35  H   -0.003551  -0.000662  -0.000414  -0.000040  -0.000755   0.000334
    36  H   -0.000313  -0.000020   0.000024   0.000002   0.006461  -0.004564
              31         32         33         34         35         36
     1  C   -0.019627  -0.000297  -0.000064   0.000044  -0.000332   0.004927
     2  C   -0.018448   0.010963   0.008838  -0.000303  -0.008636  -0.006086
     3  C    0.462666  -0.035725  -0.035804   0.013371   0.016609  -0.052075
     4  C   -0.076321   0.223530  -0.018618  -0.039374  -0.056139   0.003716
     5  C   -0.006503  -0.064232  -0.009269  -0.007627   0.011091  -0.000631
     6  O    0.032907   0.011465  -0.000073   0.000017  -0.000351  -0.000002
     7  N   -0.058000  -0.038392   0.002216  -0.000008   0.016968   0.388771
     8  C   -0.022699   0.000191   0.000061  -0.000075  -0.001064  -0.051101
     9  C    0.000006  -0.000004   0.000000   0.000000   0.000010  -0.000042
    10  C   -0.000006   0.000011   0.000000   0.000000  -0.000018   0.000093
    11  C    0.000573  -0.000796   0.000014   0.000001   0.000719  -0.000784
    12  C    0.003514   0.000075   0.000013  -0.000012  -0.000064  -0.012454
    13  C   -0.000487   0.000181  -0.000008   0.000000  -0.000129   0.001753
    14  C   -0.000048   0.000014   0.000000   0.000000  -0.000033   0.000246
    15  H    0.000000   0.000000   0.000000   0.000000   0.000000   0.000000
    16  H    0.000000   0.000000   0.000000   0.000000   0.000000   0.000002
    17  H    0.000000   0.000000   0.000000   0.000000   0.000000   0.000026
    18  F   -0.000005  -0.000004   0.000000   0.000000   0.000007  -0.000062
    19  F    0.000055   0.000002   0.000000   0.000000   0.000000   0.005789
    20  H    0.003358  -0.000012  -0.000030   0.000001   0.000011  -0.000419
    21  H   -0.000012   0.000046   0.000018  -0.000002  -0.000015  -0.000178
    22  H    0.000468   0.000013   0.000004  -0.000001   0.000008   0.005005
    23  H    0.006183  -0.001382  -0.005188   0.000249   0.001628  -0.003150
    24  H   -0.000620  -0.008868  -0.000911  -0.000101   0.000545   0.000989
    25  H   -0.001788  -0.042218   0.009013  -0.008679  -0.003551  -0.000313
    26  H   -0.001204  -0.006644   0.005429  -0.000154  -0.000662  -0.000020
    27  H    0.001612   0.009186  -0.001619   0.002981  -0.000414   0.000024
    28  H   -0.000375   0.000119   0.000040   0.000026  -0.000040   0.000002
    29  H   -0.002574   0.001938  -0.000118   0.000075  -0.000755   0.006461
    30  H    0.007664  -0.000719   0.000019   0.000006   0.000334  -0.004564
    31  H    0.510565   0.008477  -0.000034  -0.000224   0.000623   0.002619
    32  C    0.008477   5.187478   0.411804   0.415563   0.404269   0.000035
    33  H   -0.000034   0.411804   0.527033  -0.025721  -0.024189  -0.000034
    34  H   -0.000224   0.415563  -0.025721   0.515877  -0.020734   0.000047
    35  H    0.000623   0.404269  -0.024189  -0.020734   0.504138  -0.000618
    36  H    0.002619   0.000035  -0.000034   0.000047  -0.000618   0.493129
 Mulliken charges:
               1
     1  C   -0.429830
     2  C   -0.355139
     3  C   -0.008367
     4  C   -0.188846
     5  C   -0.079560
     6  O   -0.501710
     7  N   -0.388550
     8  C   -0.226575
     9  C   -0.114496
    10  C   -0.253870
    11  C    0.305983
    12  C   -0.089206
    13  C    0.295162
    14  C   -0.252134
    15  H    0.172506
    16  H    0.171761
    17  H    0.173728
    18  F   -0.216220
    19  F   -0.218830
    20  H    0.148118
    21  H    0.151312
    22  H    0.134278
    23  H    0.170379
    24  H    0.146714
    25  H    0.143651
    26  H    0.139398
    27  H    0.139521
    28  H    0.332318
    29  H    0.157475
    30  H    0.167790
    31  H    0.167684
    32  C   -0.486066
    33  H    0.157178
    34  H    0.154758
    35  H    0.160784
    36  H    0.218900
 Sum of Mulliken charges =   0.00000
 Mulliken charges with hydrogens summed into heavy atoms:
               1
     1  C    0.003878
     2  C   -0.038046
     3  C    0.159317
     4  C   -0.045195
     5  C    0.199359
     6  O   -0.169391
     7  N   -0.169649
     8  C    0.098690
     9  C    0.058010
    10  C   -0.082109
    11  C    0.305983
    12  C   -0.089206
    13  C    0.295162
    14  C   -0.078406
    18  F   -0.216220
    19  F   -0.218830
    32  C   -0.013346
 Electronic spatial extent (au):  <R**2>=           5364.7224
 Charge=              0.0000 electrons
 Dipole moment (field-independent basis, Debye):
    X=              2.2311    Y=             -0.2785    Z=              0.5951  Tot=              2.3259
 Quadrupole moment (field-independent basis, Debye-Ang):
   XX=            -92.7947   YY=            -99.9498   ZZ=           -107.0880
   XY=              2.1651   XZ=             -3.2474   YZ=              2.8500
 Traceless Quadrupole moment (field-independent basis, Debye-Ang):
   XX=              7.1495   YY=             -0.0057   ZZ=             -7.1438
   XY=              2.1651   XZ=             -3.2474   YZ=              2.8500
 Octapole moment (field-independent basis, Debye-Ang**2):
  XXX=            130.4560  YYY=            -12.0083  ZZZ=            -14.4336  XYY=             -9.8600
  XXY=             -1.6242  XXZ=             46.9468  XZZ=              6.2553  YZZ=             -5.4126
  YYZ=             -4.0809  XYZ=             -4.2724
 Hexadecapole moment (field-independent basis, Debye-Ang**3):
 XXXX=          -4810.4121 YYYY=          -1433.8575 ZZZZ=           -528.5871 XXXY=            -14.4909
 XXXZ=            -48.7251 YYYX=             47.4696 YYYZ=             27.7341 ZZZX=              2.0287
 ZZZY=             18.2055 XXYY=           -993.9605 XXZZ=          -1042.3668 YYZZ=           -311.9941
 XXYZ=            -10.2757 YYXZ=             31.3930 ZZXY=              6.2141
 N-N= 1.256512715564D+03 E-N=-4.469278940003D+03  KE= 8.321528362617D+02
 1\1\GINC-CPU-E-160\SP\RM062X\def2TZVP\C13H19F2N1O1\KE291\26-Jun-2019\0
 \\# m062x/def2tzvp int=ultrafine scrf=(solvent=chloroform)\\AT3_1ginp0
 16\\0,1\C,0,-2.185501,2.958215,0.005769\C,0,-2.554659,1.627862,0.67573
 8\C,0,-1.914369,0.40035,0.003331\C,0,-2.584324,-0.945687,0.388585\C,0,
 -3.949397,-1.139275,-0.288632\O,0,-3.90272,-1.06842,-1.713731\N,0,-0.4
 76836,0.351433,0.345019\C,0,0.36356,-0.203568,-0.723785\C,0,4.565026,-
 0.064637,0.356644\C,0,3.919937,-1.298103,0.268579\C,0,2.572624,-1.3211
 76,-0.075683\C,0,1.82658,-0.173214,-0.346585\C,0,2.527946,1.029445,-0.
 239722\C,0,3.869695,1.119435,0.102585\H,0,5.615192,-0.024645,0.625938\
 H,0,4.437364,-2.230748,0.461344\H,0,4.34481,2.091432,0.166058\F,0,1.95
 4707,-2.52221,-0.162633\F,0,1.839818,2.17636,-0.481506\H,0,-2.539216,2
 .98509,-1.030578\H,0,-2.636916,3.802502,0.536249\H,0,-1.103069,3.12906
 3,-0.014086\H,0,-2.25887,1.647874,1.732213\H,0,-3.644924,1.521661,0.66
 3218\H,0,-1.929588,-1.739997,-0.002401\H,0,-4.649292,-0.355057,0.02063
 \H,0,-4.380266,-2.097574,0.04018\H,0,-3.331826,-1.786891,-2.018933\H,0
 ,0.072459,-1.240968,-0.903341\H,0,0.232953,0.333911,-1.679936\H,0,-2.0
 46252,0.514276,-1.086451\C,0,-2.698286,-1.157299,1.90426\H,0,-3.433783
 ,-0.481808,2.355185\H,0,-3.009209,-2.181973,2.13415\H,0,-1.732392,-0.9
 7749,2.38274\H,0,-0.15127,1.297228,0.523287\\Version=ES64L-G09RevD.01\
 State=1-A\HF=-836.4562029\RMSD=6.849e-09\Dipole=0.8777862,-0.1095676,0
 .2341404\Quadrupole=5.3154895,-0.0042122,-5.3112772,1.6096912,-2.41436
 55,2.1189093\PG=C01 [X(C13H19F2N1O1)]\\@


 THE MORE PROGRESS PHYSICAL SCIENCES MAKE, THE MORE THEY TEND TO ENTER
 THE DOMAIN OF MATHEMATICS, WHICH IS A KIND OF CENTRE TO WHICH THEY ALL
 CONVERGE.  WE MAY EVEN JUDGE THE DEGREE OF PERFECTION TO WHICH A 
 SCIENCE HAS ARRIVED BY THE FACILITY WITH WHICH IT MAY BE SUBMITTED
 TO CALCULATION.

                               -- ADOLPHE QUETELET, 1796-1874
 Job cpu time:       0 days  1 hours 15 minutes  8.8 seconds.
 File lengths (MBytes):  RWF=    323 Int=      0 D2E=      0 Chk=     17 Scr=      1
 Normal termination of Gaussian 09 at Wed Jun 26 12:21:51 2019.
