 Entering Gaussian System, Link 0=/usr/local/Cluster-Apps/gaussian/g09/g09
 Initial command:
 /usr/local/Cluster-Apps/gaussian/g09/l1.exe "/home/ke291/rds/hpc-work/26Jun1158AT3NMR/Gau-37417.inp" -scrdir="/home/ke291/rds/hpc-work/26Jun1158AT3NMR/"
 Entering Link 1 = /usr/local/Cluster-Apps/gaussian/g09/l1.exe PID=     37427.
  
 Copyright (c) 1988,1990,1992,1993,1995,1998,2003,2009,2013,
            Gaussian, Inc.  All Rights Reserved.
  
 This is part of the Gaussian(R) 09 program.  It is based on
 the Gaussian(R) 03 system (copyright 2003, Gaussian, Inc.),
 the Gaussian(R) 98 system (copyright 1998, Gaussian, Inc.),
 the Gaussian(R) 94 system (copyright 1995, Gaussian, Inc.),
 the Gaussian 92(TM) system (copyright 1992, Gaussian, Inc.),
 the Gaussian 90(TM) system (copyright 1990, Gaussian, Inc.),
 the Gaussian 88(TM) system (copyright 1988, Gaussian, Inc.),
 the Gaussian 86(TM) system (copyright 1986, Carnegie Mellon
 University), and the Gaussian 82(TM) system (copyright 1983,
 Carnegie Mellon University). Gaussian is a federally registered
 trademark of Gaussian, Inc.
  
 This software contains proprietary and confidential information,
 including trade secrets, belonging to Gaussian, Inc.
  
 This software is provided under written license and may be
 used, copied, transmitted, or stored only in accord with that
 written license.
  
 The following legend is applicable only to US Government
 contracts under FAR:
  
                    RESTRICTED RIGHTS LEGEND
  
 Use, reproduction and disclosure by the US Government is
 subject to restrictions as set forth in subparagraphs (a)
 and (c) of the Commercial Computer Software - Restricted
 Rights clause in FAR 52.227-19.
  
 Gaussian, Inc.
 340 Quinnipiac St., Bldg. 40, Wallingford CT 06492
  
  
 ---------------------------------------------------------------
 Warning -- This program may not be used in any manner that
 competes with the business of Gaussian, Inc. or will provide
 assistance to any competitor of Gaussian, Inc.  The licensee
 of this program is prohibited from giving any competitor of
 Gaussian, Inc. access to this program.  By using this program,
 the user acknowledges that Gaussian, Inc. is engaged in the
 business of creating and licensing software in the field of
 computational chemistry and represents and warrants to the
 licensee that it is not a competitor of Gaussian, Inc. and that
 it will not use this program in any manner prohibited above.
 ---------------------------------------------------------------
  

 Cite this work as:
 Gaussian 09, Revision D.01,
 M. J. Frisch, G. W. Trucks, H. B. Schlegel, G. E. Scuseria, 
 M. A. Robb, J. R. Cheeseman, G. Scalmani, V. Barone, B. Mennucci, 
 G. A. Petersson, H. Nakatsuji, M. Caricato, X. Li, H. P. Hratchian, 
 A. F. Izmaylov, J. Bloino, G. Zheng, J. L. Sonnenberg, M. Hada, 
 M. Ehara, K. Toyota, R. Fukuda, J. Hasegawa, M. Ishida, T. Nakajima, 
 Y. Honda, O. Kitao, H. Nakai, T. Vreven, J. A. Montgomery, Jr., 
 J. E. Peralta, F. Ogliaro, M. Bearpark, J. J. Heyd, E. Brothers, 
 K. N. Kudin, V. N. Staroverov, T. Keith, R. Kobayashi, J. Normand, 
 K. Raghavachari, A. Rendell, J. C. Burant, S. S. Iyengar, J. Tomasi, 
 M. Cossi, N. Rega, J. M. Millam, M. Klene, J. E. Knox, J. B. Cross, 
 V. Bakken, C. Adamo, J. Jaramillo, R. Gomperts, R. E. Stratmann, 
 O. Yazyev, A. J. Austin, R. Cammi, C. Pomelli, J. W. Ochterski, 
 R. L. Martin, K. Morokuma, V. G. Zakrzewski, G. A. Voth, 
 P. Salvador, J. J. Dannenberg, S. Dapprich, A. D. Daniels, 
 O. Farkas, J. B. Foresman, J. V. Ortiz, J. Cioslowski, 
 and D. J. Fox, Gaussian, Inc., Wallingford CT, 2013.
 
 ******************************************
 Gaussian 09:  ES64L-G09RevD.01 24-Apr-2013
                26-Jun-2019 
 ******************************************
 %nprocshared=4
 Will use up to    4 processors via shared memory.
 %mem=6000MB
 %chk=AT3_1ginp001.chk
 --------------------------------------------------------
 # m062x/def2tzvp int=ultrafine scrf=(solvent=chloroform)
 --------------------------------------------------------
 1/38=1/1;
 2/12=2,17=6,18=5,40=1/2;
 3/5=44,7=101,11=2,16=1,25=1,30=1,70=2201,72=7,74=-55,75=-5/1,2,3;
 4//1;
 5/5=2,38=5,53=7/2;
 6/7=2,8=2,9=2,10=2,28=1/1;
 99/5=1,9=1/99;
 ------------
 AT3_1ginp001
 ------------
 Symbolic Z-matrix:
 Charge =  0 Multiplicity = 1
 C                     2.38874   2.60234  -0.03632 
 C                     2.45772   1.51537   1.04335 
 C                     2.0697    0.09131   0.5771 
 C                     3.02026  -0.52698  -0.48418 
 C                     2.6659   -2.00388  -0.76328 
 O                     1.40883  -2.19327  -1.38808 
 N                     0.67478  -0.0064    0.07551 
 C                    -0.37471   0.24562   1.07819 
 C                    -4.29676  -0.03975  -0.74613 
 C                    -3.84551  -1.07473   0.07318 
 C                    -2.58419  -0.96535   0.64796 
 C                    -1.74523   0.13349   0.45554 
 C                    -2.25036   1.13376  -0.37721 
 C                    -3.49823   1.08141  -0.98178 
 H                    -5.27669  -0.10725  -1.20662 
 H                    -4.44689  -1.95495   0.26836 
 H                    -3.82353   1.89689  -1.61707 
 F                    -2.14886  -1.96905   1.44273 
 F                    -1.4579    2.21325  -0.60667 
 H                     1.37363   2.7189   -0.43177 
 H                     2.68365   3.57125   0.37822 
 H                     3.05426   2.38943  -0.87952 
 H                     3.46546   1.48139   1.47021 
 H                     1.80315   1.7989    1.87605 
 H                     2.88545   0.01591  -1.43109 
 H                     2.73297  -2.5638    0.1886 
 H                     3.42462  -2.42979  -1.43148 
 H                     0.80902  -1.59216  -0.89246 
 H                    -0.27463  -0.50187   1.86859 
 H                    -0.2854    1.23512   1.54808 
 H                     2.11472  -0.56125   1.4619 
 C                     4.49736  -0.42942  -0.07252 
 H                     5.13064  -0.94547  -0.80138 
 H                     4.84414   0.60517  -0.01412 
 H                     4.67044  -0.89574   0.90492 
 H                     0.55371   0.65334  -0.69132 
 
                          Input orientation:                          
 ---------------------------------------------------------------------
 Center     Atomic      Atomic             Coordinates (Angstroms)
 Number     Number       Type             X           Y           Z
 ---------------------------------------------------------------------
      1          6           0        2.388743    2.602337   -0.036321
      2          6           0        2.457719    1.515366    1.043350
      3          6           0        2.069699    0.091307    0.577101
      4          6           0        3.020255   -0.526975   -0.484182
      5          6           0        2.665898   -2.003879   -0.763278
      6          8           0        1.408831   -2.193270   -1.388075
      7          7           0        0.674775   -0.006396    0.075506
      8          6           0       -0.374714    0.245616    1.078191
      9          6           0       -4.296758   -0.039746   -0.746128
     10          6           0       -3.845512   -1.074727    0.073177
     11          6           0       -2.584190   -0.965349    0.647962
     12          6           0       -1.745229    0.133491    0.455535
     13          6           0       -2.250364    1.133758   -0.377211
     14          6           0       -3.498228    1.081411   -0.981776
     15          1           0       -5.276693   -0.107247   -1.206623
     16          1           0       -4.446888   -1.954950    0.268360
     17          1           0       -3.823525    1.896885   -1.617070
     18          9           0       -2.148860   -1.969050    1.442733
     19          9           0       -1.457904    2.213246   -0.606671
     20          1           0        1.373633    2.718903   -0.431767
     21          1           0        2.683645    3.571250    0.378217
     22          1           0        3.054258    2.389434   -0.879524
     23          1           0        3.465464    1.481393    1.470208
     24          1           0        1.803152    1.798900    1.876054
     25          1           0        2.885446    0.015911   -1.431089
     26          1           0        2.732967   -2.563799    0.188603
     27          1           0        3.424618   -2.429786   -1.431480
     28          1           0        0.809016   -1.592161   -0.892455
     29          1           0       -0.274628   -0.501866    1.868591
     30          1           0       -0.285401    1.235121    1.548080
     31          1           0        2.114722   -0.561248    1.461897
     32          6           0        4.497363   -0.429422   -0.072522
     33          1           0        5.130641   -0.945470   -0.801381
     34          1           0        4.844140    0.605165   -0.014118
     35          1           0        4.670445   -0.895739    0.904924
     36          1           0        0.553708    0.653337   -0.691317
 ---------------------------------------------------------------------
                    Distance matrix (angstroms):
                    1          2          3          4          5
     1  C    0.000000
     2  C    1.533608   0.000000
     3  C    2.604486   1.547867   0.000000
     4  C    3.223659   2.611696   1.553110   0.000000
     5  C    4.671457   3.961354   2.557709   1.544250   0.000000
     6  O    5.077924   4.556970   3.085118   2.488021   1.416495
     7  N    3.123408   2.536015   1.485583   2.466887   2.942459
     8  C    3.799074   3.104216   2.500011   3.816244   4.206728
     9  C    7.223597   7.158461   6.503836   7.337894   7.234410
    10  C    7.238696   6.883352   6.050066   6.910097   6.630342
    11  C    6.158465   5.633039   4.772864   5.734433   5.534760
    12  C    4.840129   4.463169   3.817098   4.901951   5.050930
    13  C    4.877934   4.932511   4.545367   5.527106   5.844950
    14  C    6.153335   6.305772   5.866193   6.732394   6.896608
    15  H    8.214034   8.216835   7.562445   8.338911   8.177929
    16  H    8.221165   7.766421   6.837280   7.639611   7.187378
    17  H    6.448930   6.832087   6.542521   7.348187   7.619549
    18  F    6.608708   5.789752   4.773953   5.701959   5.296187
    19  F    3.908118   4.306009   4.283448   5.251450   5.900374
    20  H    1.095634   2.190825   2.899411   3.640032   4.907598
    21  H    1.094350   2.172580   3.539278   4.201486   5.690816
    22  H    1.095093   2.194834   2.893527   2.943279   4.411976
    23  H    2.164595   1.094948   2.162901   2.837498   4.216027
    24  H    2.155367   1.096470   2.161990   3.530120   4.708666
    25  H    2.980217   2.924750   2.168860   1.099787   2.138627
    26  H    5.182475   4.176834   2.764135   2.164215   1.106384
    27  H    5.323699   4.756459   3.496586   2.163694   1.097063
    28  H    4.563148   4.015257   2.565732   2.488149   1.906360
    29  H    4.512019   3.495135   2.741472   4.048756   4.222496
    30  H    3.395681   2.803212   2.792420   4.261741   4.954156
    31  H    3.511127   2.145962   1.100327   2.146716   2.708576
    32  C    3.693122   3.031092   2.566461   1.536499   2.512036
    33  H    4.548654   4.074710   3.513472   2.174737   2.682655
    34  H    3.165148   2.764364   2.882900   2.197557   3.480386
    35  H    4.281196   3.275476   2.801001   2.188317   2.833563
    36  H    2.755898   2.716141   2.054992   2.742243   3.395191
                    6          7          8          9         10
     6  O    0.000000
     7  N    2.731909   0.000000
     8  C    3.900214   1.473199   0.000000
     9  C    6.132170   5.039081   4.334974   0.000000
    10  C    5.567272   4.644818   3.847050   1.395016   0.000000
    11  C    4.647306   3.445018   2.556035   2.394393   1.390422
    12  C    4.331375   2.453652   1.509498   2.825651   2.452993
    13  C    5.047838   3.171962   2.534769   2.387664   2.761295
    14  C    5.913361   4.440172   3.833844   1.396486   2.425379
    15  H    7.005758   6.088842   5.419805   1.084843   2.149927
    16  H    6.090157   5.483200   4.699034   2.172494   1.083763
    17  H    6.645251   5.169332   4.678185   2.175553   3.418757
    18  F    4.552023   3.700572   2.860984   3.623092   2.356719
    19  F    5.314710   3.152855   2.807780   3.626915   4.119907
    20  H    5.004519   2.858843   3.384352   6.313660   6.471945
    21  H    6.162356   4.114212   4.572020   7.939110   8.019230
    22  H    4.895634   3.509134   4.492934   7.743135   7.779131
    23  H    5.089466   3.456393   4.053121   8.214505   7.869931
    24  H    5.171794   2.788243   2.791483   6.889511   6.589044
    25  H    2.657578   2.675330   4.120424   7.215007   6.982700
    26  H    2.092018   3.284700   4.282740   7.527390   6.745891
    27  H    2.030079   3.963012   5.281207   8.111821   7.546852
    28  H    0.983234   1.862692   2.943142   5.338570   4.781717
    29  H    4.037419   2.088543   1.092465   4.819527   4.037684
    30  H    4.821337   2.152156   1.099042   4.793711   4.492786
    31  H    3.359184   2.074461   2.644910   6.801060   6.141384
    32  C    3.792212   3.848772   5.051431   8.828486   8.369063
    33  H    3.969016   4.637406   5.938048   9.470968   9.019583
    34  H    4.639003   4.214931   5.344048   9.192811   8.850972
    35  H    4.192798   4.176631   5.175552   9.158025   8.558351
    36  H    3.052848   1.018785   2.039451   4.900040   4.787880
                   11         12         13         14         15
    11  C    0.000000
    12  C    1.395827   0.000000
    13  C    2.359803   1.396124   0.000000
    14  C    2.771414   2.457116   1.387589   0.000000
    15  H    3.380147   3.910494   3.374416   2.150907   0.000000
    16  H    2.143141   3.419880   3.844684   3.417936   2.505625
    17  H    3.854699   3.424115   2.143467   1.083704   2.509324
    18  F    1.352253   2.357574   3.598599   4.123633   4.502081
    19  F    3.598068   2.352917   1.358653   2.363192   4.508634
    20  H    5.513972   4.147163   3.955884   5.169035   7.267349
    21  H    6.957268   5.607057   5.554861   6.801796   8.911231
    22  H    6.736459   5.468705   5.474309   6.682548   8.703169
    23  H    6.577306   5.477018   6.017017   7.393593   9.279790
    24  H    5.328982   4.169229   4.685148   6.065197   7.953647
    25  H    5.933148   5.001632   5.360670   6.487562   8.166154
    26  H    5.571195   5.234584   6.231024   7.313353   8.493289
    27  H    6.524908   6.071123   6.783491   7.775380   9.008749
    28  H    3.778839   3.364390   4.129881   5.070337   6.272123
    29  H    2.653079   2.136135   3.409168   4.585080   5.885008
    30  H    3.307070   2.130338   2.752835   4.092194   5.856905
    31  H    4.785976   4.049031   5.030839   6.338381   7.871476
    32  C    7.138257   6.290125   6.933122   8.187725   9.844905
    33  H    7.849816   7.072594   7.679996   8.865561  10.448897
    34  H    7.621348   6.622902   7.123429   8.411794  10.215716
    35  H    7.259518   6.513228   7.325321   8.613709  10.199309
    36  H    3.776270   2.621187   2.862217   4.084825   5.902339
                   16         17         18         19         20
    16  H    0.000000
    17  H    4.333597   0.000000
    18  F    2.580752   5.206952   0.000000
    19  F    5.203226   2.591747   4.708405   0.000000
    20  H    7.497569   5.393617   6.156185   2.881646   0.000000
    21  H    9.021943   7.009132   7.428406   4.468401   1.760313
    22  H    8.744055   6.934730   7.173681   4.523837   1.770180
    23  H    8.709662   7.926745   6.589912   5.393384   3.086211
    24  H    7.465860   6.623519   5.477555   4.119477   2.521295
    25  H    7.780459   6.970147   6.127247   4.936865   3.254288
    26  H    7.206065   8.133003   5.075313   6.404375   5.489953
    27  H    8.066941   8.443347   6.287848   6.788010   5.631604
    28  H    5.394778   5.844565   3.787371   4.438662   4.372219
    29  H    4.698930   5.522546   2.418001   3.859909   4.287396
    30  H    5.397426   4.793165   3.708138   2.640917   2.978892
    31  H    6.813344   7.126376   4.490034   4.973977   3.859348
    32  C    9.079816   8.776931   6.988471   6.537141   4.449573
    33  H    9.689812   9.429815   7.686020   7.309194   5.261117
    34  H    9.641431   8.908783   7.592829   6.530911   4.084940
    35  H    9.200701   9.290141   6.924172   7.036147   5.071622
    36  H    5.721023   4.643662   4.328390   2.546972   2.237455
                   21         22         23         24         25
    21  H    0.000000
    22  H    1.765207   0.000000
    23  H    2.484188   2.552424   0.000000
    24  H    2.481936   3.083376   1.740346   0.000000
    25  H    3.994339   2.442608   3.301754   3.909937   0.000000
    26  H    6.138177   5.077267   4.306117   4.769192   3.049845
    27  H    6.311614   4.864844   4.870193   5.608094   2.504424
    28  H    5.638231   4.571037   4.699535   4.489125   2.680967
    29  H    5.250035   5.195501   4.252095   3.100121   4.598048
    30  H    3.954910   4.287076   3.759748   2.188028   4.518428
    31  H    4.309939   3.882204   2.448868   2.416382   3.049016
    32  C    4.415667   3.267989   2.663840   4.002642   2.154600
    33  H    5.270674   3.929257   3.717875   5.076653   2.522238
    34  H    3.690437   2.671371   2.207203   3.774303   2.488274
    35  H    4.917193   4.072920   2.724386   4.052844   3.078032
    36  H    3.767592   3.049952   3.719703   3.076495   2.527959
                   26         27         28         29         30
    26  H    0.000000
    27  H    1.766638   0.000000
    28  H    2.411297   2.798846   0.000000
    29  H    4.014917   5.319000   3.160127   0.000000
    30  H    5.038900   6.006127   3.891977   1.766343   0.000000
    31  H    2.452288   3.684955   2.882815   2.424442   2.999160
    32  C    2.781518   2.645563   3.953246   5.152190   5.317131
    33  H    3.057433   2.347495   4.370692   6.045037   6.293525
    34  H    3.813198   3.637978   4.677814   5.565240   5.399028
    35  H    2.655063   3.060093   4.315809   5.053468   5.432736
    36  H    3.984143   4.277337   2.268898   2.928099   2.461194
                   31         32         33         34         35
    31  H    0.000000
    32  C    2.837040   0.000000
    33  H    3.790227   1.094798   0.000000
    34  H    3.314945   1.092719   1.762480   0.000000
    35  H    2.637010   1.096727   1.767973   1.768480   0.000000
    36  H    2.923750   4.136144   4.849393   4.343815   4.679225
                   36
    36  H    0.000000
 Stoichiometry    C13H19F2NO
 Framework group  C1[X(C13H19F2NO)]
 Deg. of freedom   102
 Full point group                 C1      NOp   1
 Largest Abelian subgroup         C1      NOp   1
 Largest concise Abelian subgroup C1      NOp   1
                         Standard orientation:                         
 ---------------------------------------------------------------------
 Center     Atomic      Atomic             Coordinates (Angstroms)
 Number     Number       Type             X           Y           Z
 ---------------------------------------------------------------------
      1          6           0        2.388743    2.602337   -0.036321
      2          6           0        2.457719    1.515366    1.043350
      3          6           0        2.069699    0.091307    0.577101
      4          6           0        3.020255   -0.526975   -0.484182
      5          6           0        2.665898   -2.003879   -0.763278
      6          8           0        1.408831   -2.193270   -1.388075
      7          7           0        0.674775   -0.006396    0.075506
      8          6           0       -0.374714    0.245616    1.078191
      9          6           0       -4.296758   -0.039746   -0.746128
     10          6           0       -3.845512   -1.074727    0.073177
     11          6           0       -2.584190   -0.965349    0.647962
     12          6           0       -1.745229    0.133491    0.455535
     13          6           0       -2.250364    1.133758   -0.377211
     14          6           0       -3.498228    1.081411   -0.981776
     15          1           0       -5.276693   -0.107247   -1.206623
     16          1           0       -4.446888   -1.954950    0.268360
     17          1           0       -3.823525    1.896885   -1.617070
     18          9           0       -2.148860   -1.969050    1.442733
     19          9           0       -1.457904    2.213246   -0.606671
     20          1           0        1.373633    2.718903   -0.431767
     21          1           0        2.683645    3.571250    0.378217
     22          1           0        3.054258    2.389434   -0.879524
     23          1           0        3.465464    1.481393    1.470208
     24          1           0        1.803152    1.798900    1.876054
     25          1           0        2.885446    0.015911   -1.431089
     26          1           0        2.732967   -2.563799    0.188603
     27          1           0        3.424618   -2.429786   -1.431480
     28          1           0        0.809016   -1.592161   -0.892455
     29          1           0       -0.274628   -0.501866    1.868591
     30          1           0       -0.285401    1.235121    1.548080
     31          1           0        2.114722   -0.561248    1.461897
     32          6           0        4.497363   -0.429422   -0.072522
     33          1           0        5.130641   -0.945470   -0.801381
     34          1           0        4.844140    0.605165   -0.014118
     35          1           0        4.670445   -0.895739    0.904924
     36          1           0        0.553708    0.653337   -0.691317
 ---------------------------------------------------------------------
 Rotational constants (GHZ):      0.7300788      0.2671759      0.2255565
 Standard basis: def2TZVP (5D, 7F)
 There are   726 symmetry adapted cartesian basis functions of A   symmetry.
 There are   641 symmetry adapted basis functions of A   symmetry.
   641 basis functions,  1019 primitive gaussians,   726 cartesian basis functions
    65 alpha electrons       65 beta electrons
       nuclear repulsion energy      1277.3906042356 Hartrees.
 NAtoms=   36 NActive=   36 NUniq=   36 SFac= 1.00D+00 NAtFMM=   60 NAOKFM=F Big=F
 Integral buffers will be    131072 words long.
 Raffenetti 2 integral format.
 Two-electron integral symmetry is turned on.
 ------------------------------------------------------------------------------
 Polarizable Continuum Model (PCM)
 =================================
 Model                : PCM (using non-symmetric T matrix).
 Atomic radii         : UFF (Universal Force Field).
 Polarization charges : Total charges.
 Charge compensation  : None.
 Solution method      : On-the-fly selection.
 Cavity type          : Scaled VdW (van der Waals Surface) (Alpha=1.100).
 Cavity algorithm     : GePol (No added spheres)
                        Default sphere list used, NSphG=   36.
                        Lebedev-Laikov grids with approx.  5.0 points / Ang**2.
                        Smoothing algorithm: Karplus/York (Gamma=1.0000).
                        Polarization charges: spherical gaussians, with
                                              point-specific exponents (IZeta= 3).
                        Self-potential: point-specific (ISelfS= 7).
                        Self-field    : sphere-specific E.n sum rule (ISelfD= 2).
 Solvent              : Chloroform, Eps=   4.711300 Eps(inf)=   2.090627
 ------------------------------------------------------------------------------
 One-electron integrals computed using PRISM.
   1 Symmetry operations used in ECPInt.
 ECPInt:  NShTT=   34716 NPrTT=  103716 LenC2=   31069 LenP2D=   67512.
 LDataN:  DoStor=T MaxTD1= 6 Len=  172
 NBasis=   641 RedAO= T EigKep=  1.16D-05  NBF=   641
 NBsUse=   641 1.00D-06 EigRej= -1.00D+00 NBFU=   641
 ExpMin= 9.52D-02 ExpMax= 3.55D+04 ExpMxC= 1.21D+03 IAcc=3 IRadAn=         5 AccDes= 0.00D+00
 Harris functional with IExCor= 1009 and IRadAn=       5 diagonalized for initial guess.
 HarFok:  IExCor= 1009 AccDes= 0.00D+00 IRadAn=         5 IDoV= 1 UseB2=F ITyADJ=14
 ICtDFT=  3500011 ScaDFX=  1.000000  1.000000  1.000000  1.000000
 FoFCou: FMM=F IPFlag=           0 FMFlag=      100000 FMFlg1=           0
         NFxFlg=           0 DoJE=T BraDBF=F KetDBF=T FulRan=T
         wScrn=  0.000000 ICntrl=     500 IOpCl=  0 I1Cent=   200000004 NGrid=           0
         NMat0=    1 NMatS0=      1 NMatT0=    0 NMatD0=    1 NMtDS0=    0 NMtDT0=    0
 Petite list used in FoFCou.
 Requested convergence on RMS density matrix=1.00D-08 within 128 cycles.
 Requested convergence on MAX density matrix=1.00D-06.
 Requested convergence on             energy=1.00D-06.
 No special actions if energy rises.
 Inv3:  Mode=1 IEnd=    18570432.
 Iteration    1 A*A^-1 deviation from unit magnitude is 3.77D-15 for   2486.
 Iteration    1 A*A^-1 deviation from orthogonality  is 2.84D-15 for   2381    624.
 Iteration    1 A^-1*A deviation from unit magnitude is 4.00D-15 for   2486.
 Iteration    1 A^-1*A deviation from orthogonality  is 1.53D-12 for   1677   1658.
 Error on total polarization charges =  0.01260
 SCF Done:  E(RM062X) =  -836.462219977     A.U. after   12 cycles
            NFock= 12  Conv=0.77D-08     -V/T= 2.0052

 **********************************************************************

            Population analysis using the SCF density.

 **********************************************************************

 Orbital symmetries:
       Occupied  (A) (A) (A) (A) (A) (A) (A) (A) (A) (A) (A) (A)
                 (A) (A) (A) (A) (A) (A) (A) (A) (A) (A) (A) (A)
                 (A) (A) (A) (A) (A) (A) (A) (A) (A) (A) (A) (A)
                 (A) (A) (A) (A) (A) (A) (A) (A) (A) (A) (A) (A)
                 (A) (A) (A) (A) (A) (A) (A) (A) (A) (A) (A) (A)
                 (A) (A) (A) (A) (A)
       Virtual   (A) (A) (A) (A) (A) (A) (A) (A) (A) (A) (A) (A)
                 (A) (A) (A) (A) (A) (A) (A) (A) (A) (A) (A) (A)
                 (A) (A) (A) (A) (A) (A) (A) (A) (A) (A) (A) (A)
                 (A) (A) (A) (A) (A) (A) (A) (A) (A) (A) (A) (A)
                 (A) (A) (A) (A) (A) (A) (A) (A) (A) (A) (A) (A)
                 (A) (A) (A) (A) (A) (A) (A) (A) (A) (A) (A) (A)
                 (A) (A) (A) (A) (A) (A) (A) (A) (A) (A) (A) (A)
                 (A) (A) (A) (A) (A) (A) (A) (A) (A) (A) (A) (A)
                 (A) (A) (A) (A) (A) (A) (A) (A) (A) (A) (A) (A)
                 (A) (A) (A) (A) (A) (A) (A) (A) (A) (A) (A) (A)
                 (A) (A) (A) (A) (A) (A) (A) (A) (A) (A) (A) (A)
                 (A) (A) (A) (A) (A) (A) (A) (A) (A) (A) (A) (A)
                 (A) (A) (A) (A) (A) (A) (A) (A) (A) (A) (A) (A)
                 (A) (A) (A) (A) (A) (A) (A) (A) (A) (A) (A) (A)
                 (A) (A) (A) (A) (A) (A) (A) (A) (A) (A) (A) (A)
                 (A) (A) (A) (A) (A) (A) (A) (A) (A) (A) (A) (A)
                 (A) (A) (A) (A) (A) (A) (A) (A) (A) (A) (A) (A)
                 (A) (A) (A) (A) (A) (A) (A) (A) (A) (A) (A) (A)
                 (A) (A) (A) (A) (A) (A) (A) (A) (A) (A) (A) (A)
                 (A) (A) (A) (A) (A) (A) (A) (A) (A) (A) (A) (A)
                 (A) (A) (A) (A) (A) (A) (A) (A) (A) (A) (A) (A)
                 (A) (A) (A) (A) (A) (A) (A) (A) (A) (A) (A) (A)
                 (A) (A) (A) (A) (A) (A) (A) (A) (A) (A) (A) (A)
                 (A) (A) (A) (A) (A) (A) (A) (A) (A) (A) (A) (A)
                 (A) (A) (A) (A) (A) (A) (A) (A) (A) (A) (A) (A)
                 (A) (A) (A) (A) (A) (A) (A) (A) (A) (A) (A) (A)
                 (A) (A) (A) (A) (A) (A) (A) (A) (A) (A) (A) (A)
                 (A) (A) (A) (A) (A) (A) (A) (A) (A) (A) (A) (A)
                 (A) (A) (A) (A) (A) (A) (A) (A) (A) (A) (A) (A)
                 (A) (A) (A) (A) (A) (A) (A) (A) (A) (A) (A) (A)
                 (A) (A) (A) (A) (A) (A) (A) (A) (A) (A) (A) (A)
                 (A) (A) (A) (A) (A) (A) (A) (A) (A) (A) (A) (A)
                 (A) (A) (A) (A) (A) (A) (A) (A) (A) (A) (A) (A)
                 (A) (A) (A) (A) (A) (A) (A) (A) (A) (A) (A) (A)
                 (A) (A) (A) (A) (A) (A) (A) (A) (A) (A) (A) (A)
                 (A) (A) (A) (A) (A) (A) (A) (A) (A) (A) (A) (A)
                 (A) (A) (A) (A) (A) (A) (A) (A) (A) (A) (A) (A)
                 (A) (A) (A) (A) (A) (A) (A) (A) (A) (A) (A) (A)
                 (A) (A) (A) (A) (A) (A) (A) (A) (A) (A) (A) (A)
                 (A) (A) (A) (A) (A) (A) (A) (A) (A) (A) (A) (A)
                 (A) (A) (A) (A) (A) (A) (A) (A) (A) (A) (A) (A)
                 (A) (A) (A) (A) (A) (A) (A) (A) (A) (A) (A) (A)
                 (A) (A) (A) (A) (A) (A) (A) (A) (A) (A) (A) (A)
                 (A) (A) (A) (A) (A) (A) (A) (A) (A) (A) (A) (A)
                 (A) (A) (A) (A) (A) (A) (A) (A) (A) (A) (A) (A)
                 (A) (A) (A) (A) (A) (A) (A) (A) (A) (A) (A) (A)
                 (A) (A) (A) (A) (A) (A) (A) (A) (A) (A) (A) (A)
                 (A) (A) (A) (A) (A) (A) (A) (A) (A) (A) (A) (A)
 The electronic state is 1-A.
 Alpha  occ. eigenvalues --  -25.27251 -25.26877 -19.59855 -14.75197 -10.64507
 Alpha  occ. eigenvalues --  -10.64505 -10.58257 -10.57333 -10.57262 -10.57147
 Alpha  occ. eigenvalues --  -10.56727 -10.55947 -10.55874 -10.54077 -10.53409
 Alpha  occ. eigenvalues --  -10.52708 -10.52707  -1.38390  -1.38216  -1.12261
 Alpha  occ. eigenvalues --   -1.03059  -0.98498  -0.90929  -0.87653  -0.86258
 Alpha  occ. eigenvalues --   -0.85397  -0.79251  -0.75548  -0.75075  -0.72958
 Alpha  occ. eigenvalues --   -0.71250  -0.68654  -0.65632  -0.64384  -0.62429
 Alpha  occ. eigenvalues --   -0.59023  -0.58164  -0.57940  -0.57585  -0.57416
 Alpha  occ. eigenvalues --   -0.55082  -0.54942  -0.54401  -0.52204  -0.50632
 Alpha  occ. eigenvalues --   -0.50060  -0.49117  -0.48377  -0.47847  -0.47498
 Alpha  occ. eigenvalues --   -0.46706  -0.45081  -0.44602  -0.44207  -0.43334
 Alpha  occ. eigenvalues --   -0.41946  -0.41742  -0.40812  -0.39924  -0.38744
 Alpha  occ. eigenvalues --   -0.37606  -0.33180  -0.32080  -0.31481  -0.30304
 Alpha virt. eigenvalues --    0.00229   0.01648   0.05810   0.07273   0.07663
 Alpha virt. eigenvalues --    0.08948   0.09228   0.11005   0.11472   0.11965
 Alpha virt. eigenvalues --    0.12309   0.12517   0.13157   0.13773   0.14092
 Alpha virt. eigenvalues --    0.14632   0.15655   0.16233   0.16926   0.17339
 Alpha virt. eigenvalues --    0.17482   0.18240   0.18692   0.19205   0.19781
 Alpha virt. eigenvalues --    0.20243   0.20923   0.21389   0.21738   0.21847
 Alpha virt. eigenvalues --    0.22592   0.23641   0.24398   0.24688   0.25040
 Alpha virt. eigenvalues --    0.26319   0.26559   0.27044   0.27602   0.28443
 Alpha virt. eigenvalues --    0.29154   0.29805   0.30524   0.31195   0.32064
 Alpha virt. eigenvalues --    0.32891   0.33401   0.33755   0.34434   0.34817
 Alpha virt. eigenvalues --    0.35984   0.36236   0.36528   0.37307   0.37853
 Alpha virt. eigenvalues --    0.38410   0.38783   0.39566   0.40118   0.40839
 Alpha virt. eigenvalues --    0.41399   0.41547   0.42125   0.42640   0.43298
 Alpha virt. eigenvalues --    0.43738   0.44001   0.44415   0.44897   0.44998
 Alpha virt. eigenvalues --    0.45997   0.46504   0.46925   0.47138   0.47509
 Alpha virt. eigenvalues --    0.48061   0.48331   0.48835   0.48931   0.49589
 Alpha virt. eigenvalues --    0.50160   0.50524   0.50997   0.51652   0.52159
 Alpha virt. eigenvalues --    0.52768   0.53056   0.53760   0.54014   0.55031
 Alpha virt. eigenvalues --    0.55469   0.55767   0.56119   0.57322   0.57538
 Alpha virt. eigenvalues --    0.58296   0.59316   0.61214   0.61999   0.62866
 Alpha virt. eigenvalues --    0.64373   0.64836   0.65113   0.66133   0.67779
 Alpha virt. eigenvalues --    0.68291   0.68733   0.69929   0.70770   0.71170
 Alpha virt. eigenvalues --    0.71648   0.72507   0.73388   0.74178   0.75697
 Alpha virt. eigenvalues --    0.76544   0.78071   0.78858   0.79448   0.80030
 Alpha virt. eigenvalues --    0.80656   0.80991   0.82339   0.82675   0.84068
 Alpha virt. eigenvalues --    0.84399   0.86188   0.87412   0.88133   0.88218
 Alpha virt. eigenvalues --    0.89720   0.90167   0.90364   0.91048   0.91905
 Alpha virt. eigenvalues --    0.93263   0.94520   0.95144   0.95807   0.96791
 Alpha virt. eigenvalues --    0.97824   0.98947   0.99820   1.01064   1.01530
 Alpha virt. eigenvalues --    1.02650   1.03240   1.04299   1.05684   1.06767
 Alpha virt. eigenvalues --    1.08128   1.08640   1.09091   1.09977   1.10866
 Alpha virt. eigenvalues --    1.12529   1.12763   1.14456   1.15050   1.15790
 Alpha virt. eigenvalues --    1.16689   1.17450   1.18308   1.19321   1.20709
 Alpha virt. eigenvalues --    1.22075   1.22629   1.23938   1.24621   1.25667
 Alpha virt. eigenvalues --    1.26474   1.27143   1.27268   1.28778   1.29371
 Alpha virt. eigenvalues --    1.32745   1.33210   1.33887   1.34306   1.35842
 Alpha virt. eigenvalues --    1.36454   1.38378   1.38883   1.39849   1.41176
 Alpha virt. eigenvalues --    1.42137   1.44443   1.45954   1.46453   1.49581
 Alpha virt. eigenvalues --    1.50416   1.50523   1.52692   1.53849   1.54433
 Alpha virt. eigenvalues --    1.55951   1.56819   1.57124   1.58468   1.58638
 Alpha virt. eigenvalues --    1.59251   1.59703   1.61520   1.61750   1.62362
 Alpha virt. eigenvalues --    1.62832   1.63391   1.63907   1.64960   1.65505
 Alpha virt. eigenvalues --    1.66442   1.67236   1.67730   1.68100   1.68669
 Alpha virt. eigenvalues --    1.69642   1.70026   1.71167   1.71680   1.72049
 Alpha virt. eigenvalues --    1.73134   1.74181   1.75483   1.78498   1.79028
 Alpha virt. eigenvalues --    1.81460   1.82012   1.82998   1.83785   1.84196
 Alpha virt. eigenvalues --    1.86255   1.88482   1.89741   1.90717   1.91821
 Alpha virt. eigenvalues --    1.92193   1.92833   1.94005   1.95490   1.95728
 Alpha virt. eigenvalues --    1.97156   1.97729   1.98987   1.99808   2.00452
 Alpha virt. eigenvalues --    2.01199   2.04664   2.05953   2.06412   2.07412
 Alpha virt. eigenvalues --    2.08361   2.09041   2.10426   2.11175   2.11326
 Alpha virt. eigenvalues --    2.13014   2.13918   2.14981   2.15904   2.16216
 Alpha virt. eigenvalues --    2.17753   2.18339   2.19457   2.19929   2.20428
 Alpha virt. eigenvalues --    2.21940   2.22426   2.24525   2.27908   2.28930
 Alpha virt. eigenvalues --    2.29017   2.29929   2.30441   2.31640   2.32566
 Alpha virt. eigenvalues --    2.32979   2.33718   2.35237   2.35880   2.38400
 Alpha virt. eigenvalues --    2.39449   2.40352   2.40952   2.41965   2.42447
 Alpha virt. eigenvalues --    2.43448   2.44043   2.44469   2.45328   2.45998
 Alpha virt. eigenvalues --    2.47603   2.49211   2.49821   2.50111   2.51384
 Alpha virt. eigenvalues --    2.52626   2.53268   2.53562   2.54803   2.56472
 Alpha virt. eigenvalues --    2.56862   2.57052   2.57457   2.58972   2.59171
 Alpha virt. eigenvalues --    2.60513   2.61008   2.62016   2.62076   2.62853
 Alpha virt. eigenvalues --    2.63268   2.65449   2.66575   2.66852   2.67206
 Alpha virt. eigenvalues --    2.68054   2.68772   2.69807   2.70122   2.70872
 Alpha virt. eigenvalues --    2.70926   2.72886   2.73367   2.74412   2.75243
 Alpha virt. eigenvalues --    2.76002   2.76895   2.77697   2.78488   2.78853
 Alpha virt. eigenvalues --    2.79415   2.80443   2.81564   2.83612   2.84088
 Alpha virt. eigenvalues --    2.84242   2.86509   2.87602   2.87875   2.89223
 Alpha virt. eigenvalues --    2.90489   2.91011   2.91939   2.92809   2.93025
 Alpha virt. eigenvalues --    2.93817   2.94794   2.96082   2.97231   2.98143
 Alpha virt. eigenvalues --    3.00164   3.00421   3.02213   3.02960   3.03850
 Alpha virt. eigenvalues --    3.04708   3.06057   3.06440   3.07086   3.07655
 Alpha virt. eigenvalues --    3.08757   3.10193   3.10963   3.11354   3.12745
 Alpha virt. eigenvalues --    3.13507   3.13882   3.14297   3.15991   3.16546
 Alpha virt. eigenvalues --    3.17744   3.18942   3.20183   3.20634   3.21314
 Alpha virt. eigenvalues --    3.21511   3.21982   3.23524   3.24657   3.25166
 Alpha virt. eigenvalues --    3.26222   3.26536   3.26904   3.27929   3.28825
 Alpha virt. eigenvalues --    3.30749   3.30785   3.32454   3.33211   3.34163
 Alpha virt. eigenvalues --    3.35004   3.35379   3.35753   3.37020   3.37951
 Alpha virt. eigenvalues --    3.38959   3.39139   3.41122   3.41643   3.41959
 Alpha virt. eigenvalues --    3.42691   3.44135   3.44926   3.45498   3.46277
 Alpha virt. eigenvalues --    3.47442   3.48050   3.48609   3.49878   3.50726
 Alpha virt. eigenvalues --    3.51732   3.53283   3.53372   3.54082   3.54753
 Alpha virt. eigenvalues --    3.56719   3.57326   3.57760   3.58968   3.60592
 Alpha virt. eigenvalues --    3.61371   3.61893   3.62781   3.63567   3.64355
 Alpha virt. eigenvalues --    3.64806   3.65620   3.67030   3.68318   3.68902
 Alpha virt. eigenvalues --    3.71219   3.72957   3.73968   3.76584   3.78218
 Alpha virt. eigenvalues --    3.79025   3.81661   3.83592   3.85840   3.86947
 Alpha virt. eigenvalues --    3.88451   3.89976   3.90063   3.92442   3.93631
 Alpha virt. eigenvalues --    3.94307   3.96754   3.98368   3.99213   4.01931
 Alpha virt. eigenvalues --    4.02540   4.04104   4.04563   4.05224   4.07144
 Alpha virt. eigenvalues --    4.07511   4.08032   4.08780   4.12545   4.12994
 Alpha virt. eigenvalues --    4.13916   4.15475   4.16112   4.16869   4.18095
 Alpha virt. eigenvalues --    4.19432   4.19636   4.21112   4.23680   4.24300
 Alpha virt. eigenvalues --    4.25305   4.28340   4.29331   4.33126   4.33730
 Alpha virt. eigenvalues --    4.34615   4.35016   4.36945   4.39266   4.40624
 Alpha virt. eigenvalues --    4.44255   4.46685   4.47238   4.48739   4.50242
 Alpha virt. eigenvalues --    4.52767   4.54889   4.55400   4.57805   4.60590
 Alpha virt. eigenvalues --    4.61893   4.64009   4.64882   4.66004   4.67648
 Alpha virt. eigenvalues --    4.71887   4.73880   4.76882   4.78459   4.82778
 Alpha virt. eigenvalues --    4.83846   4.88558   4.90118   4.94043   4.95278
 Alpha virt. eigenvalues --    5.00849   5.02957   5.08567   5.11705   5.14130
 Alpha virt. eigenvalues --    5.16451   5.21248   5.27322   5.29719   5.31368
 Alpha virt. eigenvalues --    5.33033   5.36649   5.38962   5.42372   5.43468
 Alpha virt. eigenvalues --    5.49788   5.53679   5.59043   5.64105   5.65700
 Alpha virt. eigenvalues --    5.73594   5.79406   5.87142   5.95389   6.27772
 Alpha virt. eigenvalues --    6.49643   6.74215   6.78448   6.90056   6.90404
 Alpha virt. eigenvalues --    6.90897   6.92106   6.98635   6.99427   7.00437
 Alpha virt. eigenvalues --    7.08184   7.09756   7.19355   7.21375   7.24180
 Alpha virt. eigenvalues --    7.35952   7.39122   7.53379   7.55725   8.35752
 Alpha virt. eigenvalues --    8.37056   8.53115   8.55361   8.73937   8.75052
 Alpha virt. eigenvalues --    8.96258   8.96765   9.00155   9.03926  22.21387
 Alpha virt. eigenvalues --   22.43474  22.48019  22.56066  22.62527  22.63941
 Alpha virt. eigenvalues --   22.72259  22.74033  22.74640  22.77907  22.93798
 Alpha virt. eigenvalues --   23.02395  23.47595  32.63499  44.05774  57.48507
 Alpha virt. eigenvalues --   57.56398
          Condensed to atoms (all electrons):
               1          2          3          4          5          6
     1  C    5.141587   0.163455  -0.027834   0.017542  -0.000999   0.000007
     2  C    0.163455   5.412939   0.122742  -0.048045   0.014350  -0.000548
     3  C   -0.027834   0.122742   5.619571   0.152230  -0.071484   0.000184
     4  C    0.017542  -0.048045   0.152230   5.409845   0.311483  -0.048645
     5  C   -0.000999   0.014350  -0.071484   0.311483   4.855849   0.241489
     6  O    0.000007  -0.000548   0.000184  -0.048645   0.241489   8.157142
     7  N    0.010636  -0.043520   0.106177  -0.064101   0.025682  -0.063980
     8  C   -0.001353   0.001768  -0.032785   0.002504  -0.003068   0.005557
     9  C    0.000003   0.000012  -0.000050   0.000005   0.000000  -0.000006
    10  C   -0.000003   0.000000   0.000034  -0.000039   0.000028   0.000050
    11  C   -0.000281   0.000654  -0.001547  -0.000621   0.000493  -0.000024
    12  C   -0.003416   0.005563   0.004958   0.001112   0.000416  -0.000974
    13  C    0.001509  -0.000799   0.000944   0.000604  -0.000206   0.000114
    14  C    0.000053  -0.000151   0.000231  -0.000001  -0.000013   0.000021
    15  H    0.000000   0.000000   0.000000   0.000000   0.000000   0.000000
    16  H    0.000000   0.000000  -0.000001   0.000000   0.000000   0.000000
    17  H   -0.000005   0.000000  -0.000001   0.000000   0.000000   0.000000
    18  F   -0.000002   0.000018  -0.000036   0.000021  -0.000031  -0.000075
    19  F   -0.002131  -0.000530  -0.000324   0.000071   0.000007  -0.000001
    20  H    0.415015  -0.050316   0.004041  -0.007021  -0.000299  -0.000002
    21  H    0.415586  -0.039994   0.010345  -0.001047   0.000028   0.000000
    22  H    0.411855  -0.040014  -0.007568   0.011997   0.000915  -0.000025
    23  H   -0.034238   0.421766  -0.032051  -0.020591  -0.001104   0.000026
    24  H   -0.047923   0.441466  -0.052188   0.009732  -0.000106   0.000024
    25  H    0.001083  -0.012016  -0.053890   0.422677  -0.042289   0.006201
    26  H   -0.000148   0.001895  -0.038740  -0.035110   0.421352  -0.051634
    27  H    0.000085  -0.001233   0.022580  -0.058774   0.429354  -0.035508
    28  H   -0.000161   0.001068   0.002727  -0.016850  -0.037586   0.311256
    29  H    0.000716  -0.005036   0.008117   0.001230  -0.000544   0.000328
    30  H   -0.003849   0.012782  -0.006311  -0.001060   0.000196  -0.000316
    31  H    0.009933  -0.063496   0.446009  -0.017550  -0.011708   0.000376
    32  C   -0.012777   0.036172  -0.082954   0.255924  -0.053790   0.007522
    33  H    0.000104  -0.001035   0.015953  -0.053933  -0.006397   0.000137
    34  H   -0.003221   0.012516  -0.021581  -0.028478   0.008549  -0.000342
    35  H    0.001256  -0.010685   0.001160  -0.033275  -0.009347   0.000013
    36  H    0.007611  -0.016383  -0.034646   0.003601  -0.002082   0.003042
               7          8          9         10         11         12
     1  C    0.010636  -0.001353   0.000003  -0.000003  -0.000281  -0.003416
     2  C   -0.043520   0.001768   0.000012   0.000000   0.000654   0.005563
     3  C    0.106177  -0.032785  -0.000050   0.000034  -0.001547   0.004958
     4  C   -0.064101   0.002504   0.000005  -0.000039  -0.000621   0.001112
     5  C    0.025682  -0.003068   0.000000   0.000028   0.000493   0.000416
     6  O   -0.063980   0.005557  -0.000006   0.000050  -0.000024  -0.000974
     7  N    7.097581   0.162932   0.000486   0.000032   0.023631  -0.055276
     8  C    0.162932   5.170152  -0.005968   0.007951  -0.088553   0.254296
     9  C    0.000486  -0.005968   5.019115   0.427104  -0.021248  -0.076101
    10  C    0.000032   0.007951   0.427104   5.048711   0.528476  -0.000084
    11  C    0.023631  -0.088553  -0.021248   0.528476   4.801437   0.288258
    12  C   -0.055276   0.254296  -0.076101  -0.000084   0.288258   5.582137
    13  C    0.002821  -0.075821  -0.025121  -0.076634   0.030322   0.284472
    14  C   -0.000327   0.008462   0.434284  -0.027835  -0.074696   0.008159
    15  H   -0.000001   0.000100   0.403219  -0.023627   0.001607  -0.000297
    16  H    0.000006  -0.000322  -0.033162   0.412729  -0.040623   0.013859
    17  H    0.000022  -0.000261  -0.028932   0.003393  -0.000346   0.012282
    18  F   -0.000485   0.012225   0.010041  -0.048246   0.254477  -0.084293
    19  F   -0.002922   0.021975   0.008145  -0.000433   0.004074  -0.085295
    20  H    0.001120   0.005120  -0.000016   0.000007  -0.000139  -0.001951
    21  H   -0.000058  -0.000202   0.000000   0.000000   0.000003   0.000046
    22  H   -0.000893  -0.000078   0.000000   0.000000   0.000004   0.000103
    23  H    0.005081   0.000736   0.000000   0.000000  -0.000013  -0.000101
    24  H   -0.003102  -0.001508  -0.000001   0.000004  -0.000117   0.000851
    25  H   -0.001042  -0.000810   0.000001  -0.000003  -0.000053   0.000243
    26  H    0.001893  -0.001211   0.000000  -0.000010  -0.000210   0.000473
    27  H   -0.001194   0.000264   0.000000   0.000001   0.000011  -0.000059
    28  H    0.041324   0.000961   0.000052  -0.000051   0.002104  -0.005357
    29  H   -0.036098   0.429037  -0.000435  -0.000072  -0.030268  -0.024438
    30  H   -0.061606   0.423274   0.000376  -0.000248   0.013796  -0.030896
    31  H   -0.033296  -0.010217  -0.000001   0.000000  -0.000021   0.000182
    32  C    0.010862  -0.000759   0.000000   0.000000  -0.000015   0.000118
    33  H   -0.000519   0.000043   0.000000   0.000000   0.000000  -0.000003
    34  H   -0.000172  -0.000041   0.000000   0.000000   0.000000   0.000001
    35  H   -0.000012  -0.000023   0.000000   0.000000   0.000000   0.000005
    36  H    0.369866  -0.036072  -0.000116   0.000070  -0.000896  -0.011086
              13         14         15         16         17         18
     1  C    0.001509   0.000053   0.000000   0.000000  -0.000005  -0.000002
     2  C   -0.000799  -0.000151   0.000000   0.000000   0.000000   0.000018
     3  C    0.000944   0.000231   0.000000  -0.000001  -0.000001  -0.000036
     4  C    0.000604  -0.000001   0.000000   0.000000   0.000000   0.000021
     5  C   -0.000206  -0.000013   0.000000   0.000000   0.000000  -0.000031
     6  O    0.000114   0.000021   0.000000   0.000000   0.000000  -0.000075
     7  N    0.002821  -0.000327  -0.000001   0.000006   0.000022  -0.000485
     8  C   -0.075821   0.008462   0.000100  -0.000322  -0.000261   0.012225
     9  C   -0.025121   0.434284   0.403219  -0.033162  -0.028932   0.010041
    10  C   -0.076634  -0.027835  -0.023627   0.412729   0.003393  -0.048246
    11  C    0.030322  -0.074696   0.001607  -0.040623  -0.000346   0.254477
    12  C    0.284472   0.008159  -0.000297   0.013859   0.012282  -0.084293
    13  C    4.841030   0.512451   0.002510  -0.000628  -0.040225   0.007231
    14  C    0.512451   5.047150  -0.024958   0.004046   0.410885  -0.000867
    15  H    0.002510  -0.024958   0.474774  -0.003282  -0.003159  -0.000103
    16  H   -0.000628   0.004046  -0.003282   0.473349  -0.000152   0.001382
    17  H   -0.040225   0.410885  -0.003159  -0.000152   0.470106   0.000010
    18  F    0.007231  -0.000867  -0.000103   0.001382   0.000010   9.053556
    19  F    0.244933  -0.046503  -0.000108   0.000012   0.001815  -0.000033
    20  H   -0.000205   0.000133   0.000000   0.000000   0.000009   0.000001
    21  H   -0.000025  -0.000001   0.000000   0.000000   0.000000   0.000000
    22  H   -0.000013   0.000001   0.000000   0.000000   0.000000   0.000000
    23  H    0.000007   0.000001   0.000000   0.000000   0.000000   0.000000
    24  H    0.000357   0.000012   0.000000   0.000000   0.000000   0.000002
    25  H    0.000022  -0.000001   0.000000   0.000000   0.000000   0.000000
    26  H    0.000023  -0.000001   0.000000   0.000000   0.000000   0.000012
    27  H   -0.000003   0.000000   0.000000   0.000000   0.000000   0.000000
    28  H   -0.000089  -0.000116   0.000000  -0.000001  -0.000002   0.000861
    29  H    0.011632   0.000535   0.000003  -0.000014   0.000003   0.007419
    30  H   -0.014475  -0.002915   0.000002   0.000011  -0.000041   0.000247
    31  H   -0.000169   0.000013   0.000000   0.000000   0.000000  -0.000066
    32  C    0.000009   0.000000   0.000000   0.000000   0.000000   0.000000
    33  H    0.000000   0.000000   0.000000   0.000000   0.000000   0.000000
    34  H    0.000000   0.000000   0.000000   0.000000   0.000000   0.000000
    35  H    0.000000   0.000000   0.000000   0.000000   0.000000   0.000000
    36  H   -0.000337   0.000627  -0.000001   0.000001   0.000029  -0.000083
              19         20         21         22         23         24
     1  C   -0.002131   0.415015   0.415586   0.411855  -0.034238  -0.047923
     2  C   -0.000530  -0.050316  -0.039994  -0.040014   0.421766   0.441466
     3  C   -0.000324   0.004041   0.010345  -0.007568  -0.032051  -0.052188
     4  C    0.000071  -0.007021  -0.001047   0.011997  -0.020591   0.009732
     5  C    0.000007  -0.000299   0.000028   0.000915  -0.001104  -0.000106
     6  O   -0.000001  -0.000002   0.000000  -0.000025   0.000026   0.000024
     7  N   -0.002922   0.001120  -0.000058  -0.000893   0.005081  -0.003102
     8  C    0.021975   0.005120  -0.000202  -0.000078   0.000736  -0.001508
     9  C    0.008145  -0.000016   0.000000   0.000000   0.000000  -0.000001
    10  C   -0.000433   0.000007   0.000000   0.000000   0.000000   0.000004
    11  C    0.004074  -0.000139   0.000003   0.000004  -0.000013  -0.000117
    12  C   -0.085295  -0.001951   0.000046   0.000103  -0.000101   0.000851
    13  C    0.244933  -0.000205  -0.000025  -0.000013   0.000007   0.000357
    14  C   -0.046503   0.000133  -0.000001   0.000001   0.000001   0.000012
    15  H   -0.000108   0.000000   0.000000   0.000000   0.000000   0.000000
    16  H    0.000012   0.000000   0.000000   0.000000   0.000000   0.000000
    17  H    0.001815   0.000009   0.000000   0.000000   0.000000   0.000000
    18  F   -0.000033   0.000001   0.000000   0.000000   0.000000   0.000002
    19  F    9.062622   0.003652   0.000018   0.000066  -0.000006   0.000091
    20  H    0.003652   0.536270  -0.020762  -0.029551   0.005711  -0.002320
    21  H    0.000018  -0.020762   0.511152  -0.022246  -0.004721  -0.004867
    22  H    0.000066  -0.029551  -0.022246   0.527424  -0.002545   0.005877
    23  H   -0.000006   0.005711  -0.004721  -0.002545   0.515293  -0.016940
    24  H    0.000091  -0.002320  -0.004867   0.005877  -0.016940   0.519353
    25  H   -0.000042   0.000627   0.000053  -0.007097   0.001608  -0.000670
    26  H    0.000000  -0.000008   0.000000  -0.000046   0.000029  -0.000042
    27  H    0.000000   0.000010  -0.000001   0.000015   0.000019   0.000011
    28  H   -0.000016   0.000026   0.000001  -0.000032  -0.000059  -0.000089
    29  H    0.000696   0.000039  -0.000004  -0.000006   0.000081   0.000867
    30  H    0.000308  -0.001062   0.000065  -0.000049  -0.000382  -0.006848
    31  H   -0.000020  -0.000198  -0.000262  -0.000320  -0.000081  -0.004969
    32  C   -0.000002   0.000557   0.000474  -0.003236   0.000520  -0.000570
    33  H    0.000000   0.000012  -0.000006   0.000118   0.000661   0.000022
    34  H    0.000000  -0.000074   0.000050   0.001861  -0.009814   0.000724
    35  H    0.000000  -0.000019  -0.000016  -0.000089   0.000450  -0.000256
    36  H    0.005220  -0.001584   0.000058  -0.000252   0.000035   0.000594
              25         26         27         28         29         30
     1  C    0.001083  -0.000148   0.000085  -0.000161   0.000716  -0.003849
     2  C   -0.012016   0.001895  -0.001233   0.001068  -0.005036   0.012782
     3  C   -0.053890  -0.038740   0.022580   0.002727   0.008117  -0.006311
     4  C    0.422677  -0.035110  -0.058774  -0.016850   0.001230  -0.001060
     5  C   -0.042289   0.421352   0.429354  -0.037586  -0.000544   0.000196
     6  O    0.006201  -0.051634  -0.035508   0.311256   0.000328  -0.000316
     7  N   -0.001042   0.001893  -0.001194   0.041324  -0.036098  -0.061606
     8  C   -0.000810  -0.001211   0.000264   0.000961   0.429037   0.423274
     9  C    0.000001   0.000000   0.000000   0.000052  -0.000435   0.000376
    10  C   -0.000003  -0.000010   0.000001  -0.000051  -0.000072  -0.000248
    11  C   -0.000053  -0.000210   0.000011   0.002104  -0.030268   0.013796
    12  C    0.000243   0.000473  -0.000059  -0.005357  -0.024438  -0.030896
    13  C    0.000022   0.000023  -0.000003  -0.000089   0.011632  -0.014475
    14  C   -0.000001  -0.000001   0.000000  -0.000116   0.000535  -0.002915
    15  H    0.000000   0.000000   0.000000   0.000000   0.000003   0.000002
    16  H    0.000000   0.000000   0.000000  -0.000001  -0.000014   0.000011
    17  H    0.000000   0.000000   0.000000  -0.000002   0.000003  -0.000041
    18  F    0.000000   0.000012   0.000000   0.000861   0.007419   0.000247
    19  F   -0.000042   0.000000   0.000000  -0.000016   0.000696   0.000308
    20  H    0.000627  -0.000008   0.000010   0.000026   0.000039  -0.001062
    21  H    0.000053   0.000000  -0.000001   0.000001  -0.000004   0.000065
    22  H   -0.007097  -0.000046   0.000015  -0.000032  -0.000006  -0.000049
    23  H    0.001608   0.000029   0.000019  -0.000059   0.000081  -0.000382
    24  H   -0.000670  -0.000042   0.000011  -0.000089   0.000867  -0.006848
    25  H    0.559465   0.012730  -0.011102  -0.000297  -0.000003   0.000140
    26  H    0.012730   0.618575  -0.054736  -0.004674   0.000210   0.000033
    27  H   -0.011102  -0.054736   0.580246   0.007709  -0.000011  -0.000005
    28  H   -0.000297  -0.004674   0.007709   0.345928  -0.001392   0.000725
    29  H   -0.000003   0.000210  -0.000011  -0.001392   0.493140  -0.027754
    30  H    0.000140   0.000033  -0.000005   0.000725  -0.027754   0.525987
    31  H    0.005548   0.004399  -0.000024  -0.000119  -0.000207  -0.000452
    32  C   -0.033153   0.002284  -0.009440  -0.001094   0.000065   0.000041
    33  H   -0.004567  -0.000589   0.003892  -0.000032   0.000001  -0.000003
    34  H   -0.008037  -0.000739   0.000142   0.000038  -0.000003  -0.000003
    35  H    0.008173   0.005465  -0.000623   0.000017  -0.000001   0.000005
    36  H    0.001573   0.000382  -0.000156  -0.004211   0.004802  -0.005799
              31         32         33         34         35         36
     1  C    0.009933  -0.012777   0.000104  -0.003221   0.001256   0.007611
     2  C   -0.063496   0.036172  -0.001035   0.012516  -0.010685  -0.016383
     3  C    0.446009  -0.082954   0.015953  -0.021581   0.001160  -0.034646
     4  C   -0.017550   0.255924  -0.053933  -0.028478  -0.033275   0.003601
     5  C   -0.011708  -0.053790  -0.006397   0.008549  -0.009347  -0.002082
     6  O    0.000376   0.007522   0.000137  -0.000342   0.000013   0.003042
     7  N   -0.033296   0.010862  -0.000519  -0.000172  -0.000012   0.369866
     8  C   -0.010217  -0.000759   0.000043  -0.000041  -0.000023  -0.036072
     9  C   -0.000001   0.000000   0.000000   0.000000   0.000000  -0.000116
    10  C    0.000000   0.000000   0.000000   0.000000   0.000000   0.000070
    11  C   -0.000021  -0.000015   0.000000   0.000000   0.000000  -0.000896
    12  C    0.000182   0.000118  -0.000003   0.000001   0.000005  -0.011086
    13  C   -0.000169   0.000009   0.000000   0.000000   0.000000  -0.000337
    14  C    0.000013   0.000000   0.000000   0.000000   0.000000   0.000627
    15  H    0.000000   0.000000   0.000000   0.000000   0.000000  -0.000001
    16  H    0.000000   0.000000   0.000000   0.000000   0.000000   0.000001
    17  H    0.000000   0.000000   0.000000   0.000000   0.000000   0.000029
    18  F   -0.000066   0.000000   0.000000   0.000000   0.000000  -0.000083
    19  F   -0.000020  -0.000002   0.000000   0.000000   0.000000   0.005220
    20  H   -0.000198   0.000557   0.000012  -0.000074  -0.000019  -0.001584
    21  H   -0.000262   0.000474  -0.000006   0.000050  -0.000016   0.000058
    22  H   -0.000320  -0.003236   0.000118   0.001861  -0.000089  -0.000252
    23  H   -0.000081   0.000520   0.000661  -0.009814   0.000450   0.000035
    24  H   -0.004969  -0.000570   0.000022   0.000724  -0.000256   0.000594
    25  H    0.005548  -0.033153  -0.004567  -0.008037   0.008173   0.001573
    26  H    0.004399   0.002284  -0.000589  -0.000739   0.005465   0.000382
    27  H   -0.000024  -0.009440   0.003892   0.000142  -0.000623  -0.000156
    28  H   -0.000119  -0.001094  -0.000032   0.000038   0.000017  -0.004211
    29  H   -0.000207   0.000065   0.000001  -0.000003  -0.000001   0.004802
    30  H   -0.000452   0.000041  -0.000003  -0.000003   0.000005  -0.005799
    31  H    0.494401  -0.005717  -0.000143   0.000254   0.003269   0.005517
    32  C   -0.005717   5.126940   0.424509   0.415291   0.408709   0.000313
    33  H   -0.000143   0.424509   0.510081  -0.020343  -0.023804  -0.000006
    34  H    0.000254   0.415291  -0.020343   0.521087  -0.027553   0.000017
    35  H    0.003269   0.408709  -0.023804  -0.027553   0.516503   0.000001
    36  H    0.005517   0.000313  -0.000006   0.000017   0.000001   0.449790
 Mulliken charges:
               1
     1  C   -0.459694
     2  C   -0.315363
     3  C   -0.054015
     4  C   -0.165436
     5  C   -0.069140
     6  O   -0.531411
     7  N   -0.491550
     8  C   -0.248305
     9  C   -0.111686
    10  C   -0.251302
    11  C    0.310322
    12  C   -0.077903
    13  C    0.293759
    14  C   -0.248680
    15  H    0.173321
    16  H    0.172790
    17  H    0.174568
    18  F   -0.213184
    19  F   -0.215341
    20  H    0.143174
    21  H    0.156333
    22  H    0.153821
    23  H    0.170621
    24  H    0.162529
    25  H    0.154927
    26  H    0.118144
    27  H    0.128532
    28  H    0.357431
    29  H    0.167365
    30  H    0.186085
    31  H    0.179135
    32  C   -0.486803
    33  H    0.155849
    34  H    0.159870
    35  H    0.160675
    36  H    0.260561
 Sum of Mulliken charges =   0.00000
 Mulliken charges with hydrogens summed into heavy atoms:
               1
     1  C   -0.006366
     2  C    0.017787
     3  C    0.125120
     4  C   -0.010509
     5  C    0.177535
     6  O   -0.173980
     7  N   -0.230989
     8  C    0.105145
     9  C    0.061635
    10  C   -0.078512
    11  C    0.310322
    12  C   -0.077903
    13  C    0.293759
    14  C   -0.074112
    18  F   -0.213184
    19  F   -0.215341
    32  C   -0.010409
 Electronic spatial extent (au):  <R**2>=           5008.7336
 Charge=              0.0000 electrons
 Dipole moment (field-independent basis, Debye):
    X=             -0.9887    Y=              3.2002    Z=              1.6441  Tot=              3.7313
 Quadrupole moment (field-independent basis, Debye-Ang):
   XX=            -82.6852   YY=           -111.6992   ZZ=           -105.4458
   XY=              3.2364   XZ=              7.5649   YZ=             -4.8288
 Traceless Quadrupole moment (field-independent basis, Debye-Ang):
   XX=             17.2582   YY=            -11.7558   ZZ=             -5.5024
   XY=              3.2364   XZ=              7.5649   YZ=             -4.8288
 Octapole moment (field-independent basis, Debye-Ang**2):
  XXX=            -67.0215  YYY=             14.3267  ZZZ=              9.6830  XYY=             -9.6212
  XXY=             -9.9654  XXZ=            -26.2558  XZZ=             -5.8430  YZZ=             13.4171
  YYZ=             12.1729  XYZ=             -0.7881
 Hexadecapole moment (field-independent basis, Debye-Ang**3):
 XXXX=          -4329.7446 YYYY=          -1428.9793 ZZZZ=           -552.0176 XXXY=             34.3159
 XXXZ=             88.5866 YYYX=             29.4027 YYYZ=            -44.1591 ZZZX=             -4.6877
 ZZZY=            -41.9920 XXYY=           -976.6441 XXZZ=           -871.9122 YYZZ=           -338.9126
 XXYZ=            -27.0496 YYXZ=             24.0309 ZZXY=            -12.7759
 N-N= 1.277390604236D+03 E-N=-4.510672589346D+03  KE= 8.321525449251D+02
 1\1\GINC-CPU-E-94\SP\RM062X\def2TZVP\C13H19F2N1O1\KE291\26-Jun-2019\0\
 \# m062x/def2tzvp int=ultrafine scrf=(solvent=chloroform)\\AT3_1ginp00
 1\\0,1\C,0,2.388743,2.602337,-0.036321\C,0,2.457719,1.515366,1.04335\C
 ,0,2.069699,0.091307,0.577101\C,0,3.020255,-0.526975,-0.484182\C,0,2.6
 65898,-2.003879,-0.763278\O,0,1.408831,-2.19327,-1.388075\N,0,0.674775
 ,-0.006396,0.075506\C,0,-0.374714,0.245616,1.078191\C,0,-4.296758,-0.0
 39746,-0.746128\C,0,-3.845512,-1.074727,0.073177\C,0,-2.58419,-0.96534
 9,0.647962\C,0,-1.745229,0.133491,0.455535\C,0,-2.250364,1.133758,-0.3
 77211\C,0,-3.498228,1.081411,-0.981776\H,0,-5.276693,-0.107247,-1.2066
 23\H,0,-4.446888,-1.95495,0.26836\H,0,-3.823525,1.896885,-1.61707\F,0,
 -2.14886,-1.96905,1.442733\F,0,-1.457904,2.213246,-0.606671\H,0,1.3736
 33,2.718903,-0.431767\H,0,2.683645,3.57125,0.378217\H,0,3.054258,2.389
 434,-0.879524\H,0,3.465464,1.481393,1.470208\H,0,1.803152,1.7989,1.876
 054\H,0,2.885446,0.015911,-1.431089\H,0,2.732967,-2.563799,0.188603\H,
 0,3.424618,-2.429786,-1.43148\H,0,0.809016,-1.592161,-0.892455\H,0,-0.
 274628,-0.501866,1.868591\H,0,-0.285401,1.235121,1.54808\H,0,2.114722,
 -0.561248,1.461897\C,0,4.497363,-0.429422,-0.072522\H,0,5.130641,-0.94
 547,-0.801381\H,0,4.84414,0.605165,-0.014118\H,0,4.670445,-0.895739,0.
 904924\H,0,0.553708,0.653337,-0.691317\\Version=ES64L-G09RevD.01\State
 =1-A\HF=-836.46222\RMSD=7.726e-09\Dipole=-0.3889918,1.2590677,0.646855
 7\Quadrupole=12.8310478,-8.7401744,-4.0908734,2.4061872,5.6243069,-3.5
 900753\PG=C01 [X(C13H19F2N1O1)]\\@


 EXPERIMENTALISTS THINK SILICON IS REALLY FUN TO USE
     ITS PLACE IN NOVEL COMPOUNDS IS CERTAIN TO AMUSE
 THEY SIT ALL DAY IN LABORATORIES MAKING ALL THIS SLUDGE
     "LOADED WITH THE SILICON THEY SAY", TO ME IT LOOKS LIKE FUDGE.
 FOR HAPPY THOUGH THEY BE WITH CRUD, I'D LIKE TO KNOW A LITTLE
      ABOUT THE PI BONDS ON THE EDGE AND SIGMAS IN THE MIDDLE.

 SO LETS DERIVE A WAVEFUNCTION.....6-31G*
     USE AN OPTIMAL GEOMETRY AND SEE WHERE ELECTRONS ARE.
 BUT WHAT OF CORRELATION?  ASKS THE WIRY LITTLE SKEPTIC.
     WE'LL THROW IN PERTURBATION AS AN ELECTRON ANTISEPTIC.
 AND WHEN THE PROGRAM GIVES US ANSWERS IN THEM WE CAN TRUST
     SINCE NOBODY CAN MAKE THE STUFF, WE HAVE NO CHOICE, WE MUST.

 SO THEORY GUYS HAVE GOT IT MADE, IN ROOMS FREE OF POLLUTION.
     INSTEAD OF PROBLEMS WITH THE REFLUX, THEY HAVE ONLY SOLUTIONS.
 AND WHEN THE FEDS ANNOUNCE THE LIST OF CARCINOGENIC TERRORS,
     THE THEORISTS SIT SAFELY AT THEIR TERMINALS FIXING ERRORS.
 IN OTHER WORDS, EXPERIMENTALISTS WILL LIKELY DIE OF CANCER
     FROM WORKING HARD YET FRUITLESSLY...TILL THEORY GIVES THE ANSWER.
          -- THOMAS A. HOLME, 1983
 Job cpu time:       0 days  1 hours 18 minutes 40.1 seconds.
 File lengths (MBytes):  RWF=    318 Int=      0 D2E=      0 Chk=     17 Scr=      1
 Normal termination of Gaussian 09 at Wed Jun 26 12:22:44 2019.
