 Entering Gaussian System, Link 0=/usr/local/Cluster-Apps/gaussian/g09/g09
 Initial command:
 /usr/local/Cluster-Apps/gaussian/g09/l1.exe "/home/ke291/rds/hpc-work/26Jun1158AT3NMR/Gau-273037.inp" -scrdir="/home/ke291/rds/hpc-work/26Jun1158AT3NMR/"
 Entering Link 1 = /usr/local/Cluster-Apps/gaussian/g09/l1.exe PID=    273054.
  
 Copyright (c) 1988,1990,1992,1993,1995,1998,2003,2009,2013,
            Gaussian, Inc.  All Rights Reserved.
  
 This is part of the Gaussian(R) 09 program.  It is based on
 the Gaussian(R) 03 system (copyright 2003, Gaussian, Inc.),
 the Gaussian(R) 98 system (copyright 1998, Gaussian, Inc.),
 the Gaussian(R) 94 system (copyright 1995, Gaussian, Inc.),
 the Gaussian 92(TM) system (copyright 1992, Gaussian, Inc.),
 the Gaussian 90(TM) system (copyright 1990, Gaussian, Inc.),
 the Gaussian 88(TM) system (copyright 1988, Gaussian, Inc.),
 the Gaussian 86(TM) system (copyright 1986, Carnegie Mellon
 University), and the Gaussian 82(TM) system (copyright 1983,
 Carnegie Mellon University). Gaussian is a federally registered
 trademark of Gaussian, Inc.
  
 This software contains proprietary and confidential information,
 including trade secrets, belonging to Gaussian, Inc.
  
 This software is provided under written license and may be
 used, copied, transmitted, or stored only in accord with that
 written license.
  
 The following legend is applicable only to US Government
 contracts under FAR:
  
                    RESTRICTED RIGHTS LEGEND
  
 Use, reproduction and disclosure by the US Government is
 subject to restrictions as set forth in subparagraphs (a)
 and (c) of the Commercial Computer Software - Restricted
 Rights clause in FAR 52.227-19.
  
 Gaussian, Inc.
 340 Quinnipiac St., Bldg. 40, Wallingford CT 06492
  
  
 ---------------------------------------------------------------
 Warning -- This program may not be used in any manner that
 competes with the business of Gaussian, Inc. or will provide
 assistance to any competitor of Gaussian, Inc.  The licensee
 of this program is prohibited from giving any competitor of
 Gaussian, Inc. access to this program.  By using this program,
 the user acknowledges that Gaussian, Inc. is engaged in the
 business of creating and licensing software in the field of
 computational chemistry and represents and warrants to the
 licensee that it is not a competitor of Gaussian, Inc. and that
 it will not use this program in any manner prohibited above.
 ---------------------------------------------------------------
  

 Cite this work as:
 Gaussian 09, Revision D.01,
 M. J. Frisch, G. W. Trucks, H. B. Schlegel, G. E. Scuseria, 
 M. A. Robb, J. R. Cheeseman, G. Scalmani, V. Barone, B. Mennucci, 
 G. A. Petersson, H. Nakatsuji, M. Caricato, X. Li, H. P. Hratchian, 
 A. F. Izmaylov, J. Bloino, G. Zheng, J. L. Sonnenberg, M. Hada, 
 M. Ehara, K. Toyota, R. Fukuda, J. Hasegawa, M. Ishida, T. Nakajima, 
 Y. Honda, O. Kitao, H. Nakai, T. Vreven, J. A. Montgomery, Jr., 
 J. E. Peralta, F. Ogliaro, M. Bearpark, J. J. Heyd, E. Brothers, 
 K. N. Kudin, V. N. Staroverov, T. Keith, R. Kobayashi, J. Normand, 
 K. Raghavachari, A. Rendell, J. C. Burant, S. S. Iyengar, J. Tomasi, 
 M. Cossi, N. Rega, J. M. Millam, M. Klene, J. E. Knox, J. B. Cross, 
 V. Bakken, C. Adamo, J. Jaramillo, R. Gomperts, R. E. Stratmann, 
 O. Yazyev, A. J. Austin, R. Cammi, C. Pomelli, J. W. Ochterski, 
 R. L. Martin, K. Morokuma, V. G. Zakrzewski, G. A. Voth, 
 P. Salvador, J. J. Dannenberg, S. Dapprich, A. D. Daniels, 
 O. Farkas, J. B. Foresman, J. V. Ortiz, J. Cioslowski, 
 and D. J. Fox, Gaussian, Inc., Wallingford CT, 2013.
 
 ******************************************
 Gaussian 09:  ES64L-G09RevD.01 24-Apr-2013
                26-Jun-2019 
 ******************************************
 %nprocshared=4
 Will use up to    4 processors via shared memory.
 %mem=6000MB
 %chk=AT3_1ginp017.chk
 --------------------------------------------------------
 # m062x/def2tzvp int=ultrafine scrf=(solvent=chloroform)
 --------------------------------------------------------
 1/38=1/1;
 2/12=2,17=6,18=5,40=1/2;
 3/5=44,7=101,11=2,16=1,25=1,30=1,70=2201,72=7,74=-55,75=-5/1,2,3;
 4//1;
 5/5=2,38=5,53=7/2;
 6/7=2,8=2,9=2,10=2,28=1/1;
 99/5=1,9=1/99;
 ------------
 AT3_1ginp017
 ------------
 Symbolic Z-matrix:
 Charge =  0 Multiplicity = 1
 C                     2.09173   2.74466   0.00556 
 C                     2.19945   1.70224   1.12521 
 C                     1.89446   0.2436    0.69791 
 C                     2.92334  -0.35095  -0.29941 
 C                     2.67212  -1.85838  -0.49076 
 O                     3.50535  -2.44259  -1.49499 
 N                     0.54339   0.05119   0.13763 
 C                    -0.56261   0.35494   1.0526 
 C                    -4.3791   -0.35914  -0.88512 
 C                    -3.60104   0.73872  -1.25857 
 C                    -2.38783   0.93035  -0.61252 
 C                    -1.89554   0.09298   0.39005 
 C                    -2.71341  -0.98983   0.71586 
 C                    -3.94034  -1.23435   0.10842 
 H                    -5.33242  -0.53326  -1.3728 
 H                    -3.91646   1.43283  -2.02882 
 H                    -4.52601  -2.09321   0.41514 
 F                    -1.61789   1.99074  -0.97496 
 F                    -2.29494  -1.84015   1.68148 
 H                     2.79211   2.5445   -0.81253 
 H                     1.08256   2.77776  -0.41962 
 H                     2.31351   3.74549   0.38905 
 H                     3.1983    1.74026   1.57275 
 H                     1.51024   1.97698   1.93269 
 H                     2.75632   0.12902  -1.27773 
 H                     1.61188  -2.03008  -0.70445 
 H                     2.91636  -2.38921   0.43771 
 H                     3.23049  -2.07185  -2.34466 
 H                    -0.46799  -0.29129   1.9293 
 H                    -0.56118   1.39451   1.41794 
 H                     1.93707  -0.36954   1.61148 
 C                     4.38295  -0.11105   0.10932 
 H                     4.56185  -0.44776   1.13802 
 H                     5.04258  -0.68317  -0.54806 
 H                     4.66983   0.94186   0.04467 
 H                     0.44469   0.63058  -0.69347 
 
                          Input orientation:                          
 ---------------------------------------------------------------------
 Center     Atomic      Atomic             Coordinates (Angstroms)
 Number     Number       Type             X           Y           Z
 ---------------------------------------------------------------------
      1          6           0        2.091735    2.744660    0.005563
      2          6           0        2.199455    1.702242    1.125209
      3          6           0        1.894464    0.243602    0.697910
      4          6           0        2.923343   -0.350953   -0.299405
      5          6           0        2.672116   -1.858384   -0.490764
      6          8           0        3.505352   -2.442592   -1.494986
      7          7           0        0.543390    0.051186    0.137628
      8          6           0       -0.562608    0.354942    1.052596
      9          6           0       -4.379099   -0.359140   -0.885122
     10          6           0       -3.601041    0.738718   -1.258570
     11          6           0       -2.387825    0.930350   -0.612519
     12          6           0       -1.895538    0.092977    0.390045
     13          6           0       -2.713406   -0.989831    0.715858
     14          6           0       -3.940343   -1.234347    0.108418
     15          1           0       -5.332423   -0.533259   -1.372800
     16          1           0       -3.916461    1.432831   -2.028820
     17          1           0       -4.526007   -2.093206    0.415144
     18          9           0       -1.617891    1.990736   -0.974964
     19          9           0       -2.294942   -1.840147    1.681480
     20          1           0        2.792105    2.544503   -0.812529
     21          1           0        1.082558    2.777755   -0.419623
     22          1           0        2.313507    3.745490    0.389051
     23          1           0        3.198296    1.740257    1.572752
     24          1           0        1.510241    1.976975    1.932691
     25          1           0        2.756321    0.129024   -1.277727
     26          1           0        1.611878   -2.030077   -0.704449
     27          1           0        2.916357   -2.389212    0.437709
     28          1           0        3.230489   -2.071850   -2.344663
     29          1           0       -0.467989   -0.291290    1.929300
     30          1           0       -0.561184    1.394511    1.417940
     31          1           0        1.937070   -0.369544    1.611482
     32          6           0        4.382955   -0.111052    0.109319
     33          1           0        4.561849   -0.447763    1.138019
     34          1           0        5.042581   -0.683165   -0.548058
     35          1           0        4.669825    0.941857    0.044668
     36          1           0        0.444688    0.630579   -0.693474
 ---------------------------------------------------------------------
                    Distance matrix (angstroms):
                    1          2          3          4          5
     1  C    0.000000
     2  C    1.533573   0.000000
     3  C    2.602605   1.550237   0.000000
     4  C    3.219844   2.601759   1.551362   0.000000
     5  C    4.665961   3.938634   2.536934   1.540156   0.000000
     6  O    5.581894   5.074489   3.823531   2.478528   1.429700
     7  N    3.109601   2.538475   1.475243   2.452935   2.927936
     8  C    3.721904   3.074001   2.485036   3.805003   4.212388
     9  C    7.231776   7.181093   6.498221   7.325899   7.219618
    10  C    6.166809   6.344804   5.854360   6.683933   6.832786
    11  C    4.872392   4.965748   4.530656   5.472502   5.778829
    12  C    4.803915   4.460848   3.805468   4.888152   5.044512
    13  C    6.127016   5.617030   4.770131   5.762973   5.586964
    14  C    7.226966   6.881463   6.047876   6.932308   6.668812
    15  H    8.231814   8.244192   7.557728   8.327250   8.161286
    16  H    6.477502   6.886575   6.528106   7.277065   7.523766
    17  H    8.207753   7.755092   6.838353   7.683674   7.258704
    18  F    3.910391   4.366473   4.264695   5.153901   5.783972
    19  F    6.562933   5.749571   4.781270   5.776859   5.421314
    20  H    1.095379   2.194417   2.895053   2.943499   4.416259
    21  H    1.095590   2.188765   2.886174   3.632046   4.901586
    22  H    1.094489   2.174810   3.540369   4.198418   5.683844
    23  H    2.165499   1.095182   2.169171   2.820236   4.181529
    24  H    2.154367   1.096595   2.162613   3.521130   4.683275
    25  H    2.988321   2.925614   2.158487   1.102446   2.139204
    26  H    4.851030   4.197988   2.686277   2.168746   1.095100
    27  H    5.217604   4.210297   2.836138   2.167461   1.097039
    28  H    5.478968   5.229418   4.050127   2.690521   1.947894
    29  H    4.412476   3.425783   2.717281   4.058549   4.262951
    30  H    3.294797   2.793120   2.805930   4.258855   4.967767
    31  H    3.507301   2.144203   1.101080   2.150481   2.678876
    32  C    3.662724   3.014588   2.581629   1.534625   2.517983
    33  H    4.192313   3.194306   2.790452   2.181802   2.865986
    34  H    4.556750   4.071038   3.510267   2.159482   2.646418
    35  H    3.146137   2.801514   2.935458   2.199987   3.481218
    36  H    2.769613   2.745046   2.046351   2.694889   3.346261
                    6          7          8          9         10
     6  O    0.000000
     7  N    4.202092   0.000000
     8  C    5.555598   1.467197   0.000000
     9  C    8.177853   5.044332   4.339386   0.000000
    10  C    7.789573   4.427005   3.836776   1.396470   0.000000
    11  C    6.847264   3.150821   2.536754   2.387942   1.387803
    12  C    6.257161   2.452311   1.511391   2.828168   2.458384
    13  C    6.758054   3.467677   2.558855   2.394878   2.770224
    14  C    7.711623   4.664473   3.850507   1.394853   2.424205
    15  H    9.042497   6.094928   5.424259   1.084884   2.151432
    16  H    8.389707   5.147107   4.680310   2.175601   1.083775
    17  H    8.262772   5.511281   4.701947   2.172385   3.417115
    18  F    6.795030   3.109799   2.810773   3.626880   2.362386
    19  F    6.640503   3.743895   2.866163   3.622780   4.123146
    20  H    5.083855   3.489434   4.418933   7.737091   6.658238
    21  H    5.854772   2.834680   3.277808   6.315576   5.176640
    22  H    6.577420   4.104194   4.495347   7.953771   6.836462
    23  H    5.196299   3.458478   4.041542   8.238054   7.433065
    24  H    5.938182   2.804588   2.775295   6.934106   6.151636
    25  H    2.687277   2.627994   4.061617   7.162867   6.386560
    26  H    2.092931   2.486446   3.674767   6.222257   5.928558
    27  H    2.021157   3.417099   4.473440   7.687311   7.425482
    28  H    0.966928   4.229604   5.640769   7.935330   7.466505
    29  H    5.669327   2.085729   1.093242   4.818958   4.586878
    30  H    6.304380   2.159584   1.101899   4.791228   4.102987
    31  H    4.050578   2.071619   2.661883   6.791696   6.335307
    32  C    2.963117   3.843095   5.056235   8.821794   8.144779
    33  H    3.468176   4.171060   5.187648   9.167415   8.589770
    34  H    2.520978   4.610006   5.920971   9.433274   8.788560
    35  H    3.896284   4.222488   5.360853   9.189131   8.375376
    36  H    4.410722   1.017924   2.034547   4.928001   4.086435
                   11         12         13         14         15
    11  C    0.000000
    12  C    1.395949   0.000000
    13  C    2.357474   1.395541   0.000000
    14  C    2.759706   2.454044   1.390736   0.000000
    15  H    3.375031   3.913052   3.380858   2.150213   0.000000
    16  H    2.143624   3.424945   3.853555   3.417923   2.510144
    17  H    3.843150   3.420438   2.143219   1.083846   2.506090
    18  F    1.359626   2.354108   3.597612   4.119303   4.508500
    19  F    3.598154   2.358876   1.352988   2.355602   4.501430
    20  H    5.429288   5.424957   6.718492   7.775198   8.706002
    21  H    3.936200   4.090556   5.467482   6.450219   7.281713
    22  H    5.570519   5.572873   6.913749   7.999261   8.937117
    23  H    6.052777   5.482652   6.567790   7.871004   9.306896
    24  H    4.771628   4.186709   5.303001   6.584028   8.003099
    25  H    5.248511   4.941918   5.928249   6.973198   8.116368
    26  H    4.976967   4.243494   4.669846   5.667548   7.135158
    27  H    6.344826   5.414598   5.807742   6.961069   8.646668
    28  H    6.601438   6.200101   6.772551   7.624949   8.754156
    29  H    3.411601   2.134213   2.646186   4.032643   5.884312
    30  H    2.770348   2.128629   3.287866   4.477104   5.853994
    31  H    5.033947   4.049039   4.776382   6.127893   7.859915
    32  C    6.888326   6.288077   7.176244   8.398755   9.836844
    33  H    7.298051   6.523014   7.307626   8.600352  10.208239
    34  H    7.603849   7.044141   7.864278   9.023729  10.408813
    35  H    7.088191   6.629018   7.661202   8.881155  10.209317
    36  H    2.849482   2.634329   3.819097   4.832130   5.932201
                   16         17         18         19         20
    16  H    0.000000
    17  H    4.333295   0.000000
    18  F    2.589458   5.202703   0.000000
    19  F    5.206538   2.577847   4.710707   0.000000
    20  H    6.907969   8.750445   4.447596   7.164027   0.000000
    21  H    5.421119   7.475232   2.867094   6.094847   1.769557
    22  H    7.071562   8.992775   4.516148   7.355781   1.764999
    23  H    7.980326   8.700595   5.454288   6.557955   2.549778
    24  H    6.740828   7.436774   4.270815   5.395641   3.082450
    25  H    6.840327   7.799770   4.763546   6.176552   2.460128
    26  H    6.656442   6.239480   5.164448   4.581700   4.725611
    27  H    8.208482   7.448282   6.460572   5.385729   5.091176
    28  H    7.966269   8.232874   6.472053   6.840607   4.883680
    29  H    5.525511   4.691170   3.868419   2.407931   5.117378
    30  H    4.810354   5.374904   2.682928   3.679454   4.188320
    31  H    7.124899   6.795116   4.989827   4.480792   3.885690
    32  C    8.708359   9.131926   6.450065   7.075010   3.229950
    33  H    9.243768   9.263863   6.971382   7.017811   3.986262
    34  H    9.323869   9.719766   7.189846   7.755559   3.943657
    35  H    8.846735   9.690830   6.455631   7.676371   2.613253
    36  H    4.631023   5.775452   2.486664   4.387535   3.031113
                   21         22         23         24         25
    21  H    0.000000
    22  H    1.762300   0.000000
    23  H    3.085824   2.490976   0.000000
    24  H    2.521417   2.481070   1.742160   0.000000
    25  H    3.248631   4.006627   3.304035   3.908251   0.000000
    26  H    4.845261   5.919899   4.681643   4.798052   2.510003
    27  H    5.549359   6.164444   4.291891   4.824492   3.051204
    28  H    5.642522   6.492726   5.466199   6.135796   2.491392
    29  H    4.164213   5.138548   4.206656   3.009723   4.567041
    30  H    2.826993   3.853513   3.778518   2.212472   4.458017
    31  H    3.842014   4.309240   2.458343   2.406556   3.044219
    32  C    4.417873   4.385634   2.640530   3.992121   2.151156
    33  H    4.993564   4.816572   2.614517   3.977835   3.070577
    34  H    5.260822   5.285736   3.711091   5.070294   2.533585
    35  H    4.056424   3.678477   2.266689   3.823489   2.463924
    36  H    2.256599   3.790385   3.734906   3.137663   2.436505
                   26         27         28         29         30
    26  H    0.000000
    27  H    1.770641   0.000000
    28  H    2.304766   2.817976   0.000000
    29  H    3.779664   4.252049   5.925866   0.000000
    30  H    4.577613   5.231702   6.367859   1.764114   0.000000
    31  H    2.868215   2.532944   4.496872   2.427229   3.064412
    32  C    3.467527   2.729242   3.345883   5.184253   5.331390
    33  H    3.821091   2.639565   4.066848   5.094102   5.451403
    34  H    3.688950   2.898821   2.905153   6.054523   6.291587
    35  H    4.329504   3.784858   4.106461   5.609779   5.427175
    36  H    2.905433   4.062987   4.217847   2.926049   2.460374
                   31         32         33         34         35
    31  H    0.000000
    32  C    2.881955   0.000000
    33  H    2.668286   1.097088   0.000000
    34  H    3.795546   1.092961   1.769003   0.000000
    35  H    3.412130   1.093202   1.771474   1.769454   0.000000
    36  H    2.922374   4.087107   4.633379   4.784108   4.300410
                   36
    36  H    0.000000
 Stoichiometry    C13H19F2NO
 Framework group  C1[X(C13H19F2NO)]
 Deg. of freedom   102
 Full point group                 C1      NOp   1
 Largest Abelian subgroup         C1      NOp   1
 Largest concise Abelian subgroup C1      NOp   1
                         Standard orientation:                         
 ---------------------------------------------------------------------
 Center     Atomic      Atomic             Coordinates (Angstroms)
 Number     Number       Type             X           Y           Z
 ---------------------------------------------------------------------
      1          6           0        2.091735    2.744660    0.005563
      2          6           0        2.199455    1.702242    1.125209
      3          6           0        1.894464    0.243602    0.697910
      4          6           0        2.923343   -0.350953   -0.299405
      5          6           0        2.672116   -1.858384   -0.490764
      6          8           0        3.505352   -2.442592   -1.494986
      7          7           0        0.543390    0.051186    0.137628
      8          6           0       -0.562608    0.354942    1.052596
      9          6           0       -4.379099   -0.359140   -0.885122
     10          6           0       -3.601041    0.738718   -1.258570
     11          6           0       -2.387825    0.930350   -0.612519
     12          6           0       -1.895538    0.092977    0.390045
     13          6           0       -2.713406   -0.989831    0.715858
     14          6           0       -3.940343   -1.234347    0.108418
     15          1           0       -5.332423   -0.533259   -1.372800
     16          1           0       -3.916461    1.432831   -2.028820
     17          1           0       -4.526007   -2.093206    0.415144
     18          9           0       -1.617891    1.990736   -0.974964
     19          9           0       -2.294942   -1.840147    1.681480
     20          1           0        2.792105    2.544503   -0.812529
     21          1           0        1.082558    2.777755   -0.419623
     22          1           0        2.313507    3.745490    0.389051
     23          1           0        3.198296    1.740257    1.572752
     24          1           0        1.510241    1.976975    1.932691
     25          1           0        2.756321    0.129024   -1.277727
     26          1           0        1.611878   -2.030077   -0.704449
     27          1           0        2.916357   -2.389212    0.437709
     28          1           0        3.230489   -2.071850   -2.344663
     29          1           0       -0.467989   -0.291290    1.929300
     30          1           0       -0.561184    1.394511    1.417940
     31          1           0        1.937070   -0.369544    1.611482
     32          6           0        4.382955   -0.111052    0.109319
     33          1           0        4.561849   -0.447763    1.138019
     34          1           0        5.042581   -0.683165   -0.548058
     35          1           0        4.669825    0.941857    0.044668
     36          1           0        0.444688    0.630579   -0.693474
 ---------------------------------------------------------------------
 Rotational constants (GHZ):      0.6890507      0.2396763      0.2101291
 Standard basis: def2TZVP (5D, 7F)
 There are   726 symmetry adapted cartesian basis functions of A   symmetry.
 There are   641 symmetry adapted basis functions of A   symmetry.
   641 basis functions,  1019 primitive gaussians,   726 cartesian basis functions
    65 alpha electrons       65 beta electrons
       nuclear repulsion energy      1255.6721382191 Hartrees.
 NAtoms=   36 NActive=   36 NUniq=   36 SFac= 1.00D+00 NAtFMM=   60 NAOKFM=F Big=F
 Integral buffers will be    131072 words long.
 Raffenetti 2 integral format.
 Two-electron integral symmetry is turned on.
 ------------------------------------------------------------------------------
 Polarizable Continuum Model (PCM)
 =================================
 Model                : PCM (using non-symmetric T matrix).
 Atomic radii         : UFF (Universal Force Field).
 Polarization charges : Total charges.
 Charge compensation  : None.
 Solution method      : On-the-fly selection.
 Cavity type          : Scaled VdW (van der Waals Surface) (Alpha=1.100).
 Cavity algorithm     : GePol (No added spheres)
                        Default sphere list used, NSphG=   36.
                        Lebedev-Laikov grids with approx.  5.0 points / Ang**2.
                        Smoothing algorithm: Karplus/York (Gamma=1.0000).
                        Polarization charges: spherical gaussians, with
                                              point-specific exponents (IZeta= 3).
                        Self-potential: point-specific (ISelfS= 7).
                        Self-field    : sphere-specific E.n sum rule (ISelfD= 2).
 Solvent              : Chloroform, Eps=   4.711300 Eps(inf)=   2.090627
 ------------------------------------------------------------------------------
 One-electron integrals computed using PRISM.
   1 Symmetry operations used in ECPInt.
 ECPInt:  NShTT=   34716 NPrTT=  103716 LenC2=   30703 LenP2D=   66595.
 LDataN:  DoStor=T MaxTD1= 6 Len=  172
 NBasis=   641 RedAO= T EigKep=  1.16D-05  NBF=   641
 NBsUse=   641 1.00D-06 EigRej= -1.00D+00 NBFU=   641
 ExpMin= 9.52D-02 ExpMax= 3.55D+04 ExpMxC= 1.21D+03 IAcc=3 IRadAn=         5 AccDes= 0.00D+00
 Harris functional with IExCor= 1009 and IRadAn=       5 diagonalized for initial guess.
 HarFok:  IExCor= 1009 AccDes= 0.00D+00 IRadAn=         5 IDoV= 1 UseB2=F ITyADJ=14
 ICtDFT=  3500011 ScaDFX=  1.000000  1.000000  1.000000  1.000000
 FoFCou: FMM=F IPFlag=           0 FMFlag=      100000 FMFlg1=           0
         NFxFlg=           0 DoJE=T BraDBF=F KetDBF=T FulRan=T
         wScrn=  0.000000 ICntrl=     500 IOpCl=  0 I1Cent=   200000004 NGrid=           0
         NMat0=    1 NMatS0=      1 NMatT0=    0 NMatD0=    1 NMtDS0=    0 NMtDT0=    0
 Petite list used in FoFCou.
 Requested convergence on RMS density matrix=1.00D-08 within 128 cycles.
 Requested convergence on MAX density matrix=1.00D-06.
 Requested convergence on             energy=1.00D-06.
 No special actions if energy rises.
 Inv3:  Mode=1 IEnd=    18451200.
 Iteration    1 A*A^-1 deviation from unit magnitude is 4.00D-15 for   2468.
 Iteration    1 A*A^-1 deviation from orthogonality  is 3.08D-15 for   1893    604.
 Iteration    1 A^-1*A deviation from unit magnitude is 4.11D-15 for   2468.
 Iteration    1 A^-1*A deviation from orthogonality  is 3.21D-13 for   2351   2349.
 Error on total polarization charges =  0.01245
 SCF Done:  E(RM062X) =  -836.456529917     A.U. after   12 cycles
            NFock= 12  Conv=0.80D-08     -V/T= 2.0052

 **********************************************************************

            Population analysis using the SCF density.

 **********************************************************************

 Orbital symmetries:
       Occupied  (A) (A) (A) (A) (A) (A) (A) (A) (A) (A) (A) (A)
                 (A) (A) (A) (A) (A) (A) (A) (A) (A) (A) (A) (A)
                 (A) (A) (A) (A) (A) (A) (A) (A) (A) (A) (A) (A)
                 (A) (A) (A) (A) (A) (A) (A) (A) (A) (A) (A) (A)
                 (A) (A) (A) (A) (A) (A) (A) (A) (A) (A) (A) (A)
                 (A) (A) (A) (A) (A)
       Virtual   (A) (A) (A) (A) (A) (A) (A) (A) (A) (A) (A) (A)
                 (A) (A) (A) (A) (A) (A) (A) (A) (A) (A) (A) (A)
                 (A) (A) (A) (A) (A) (A) (A) (A) (A) (A) (A) (A)
                 (A) (A) (A) (A) (A) (A) (A) (A) (A) (A) (A) (A)
                 (A) (A) (A) (A) (A) (A) (A) (A) (A) (A) (A) (A)
                 (A) (A) (A) (A) (A) (A) (A) (A) (A) (A) (A) (A)
                 (A) (A) (A) (A) (A) (A) (A) (A) (A) (A) (A) (A)
                 (A) (A) (A) (A) (A) (A) (A) (A) (A) (A) (A) (A)
                 (A) (A) (A) (A) (A) (A) (A) (A) (A) (A) (A) (A)
                 (A) (A) (A) (A) (A) (A) (A) (A) (A) (A) (A) (A)
                 (A) (A) (A) (A) (A) (A) (A) (A) (A) (A) (A) (A)
                 (A) (A) (A) (A) (A) (A) (A) (A) (A) (A) (A) (A)
                 (A) (A) (A) (A) (A) (A) (A) (A) (A) (A) (A) (A)
                 (A) (A) (A) (A) (A) (A) (A) (A) (A) (A) (A) (A)
                 (A) (A) (A) (A) (A) (A) (A) (A) (A) (A) (A) (A)
                 (A) (A) (A) (A) (A) (A) (A) (A) (A) (A) (A) (A)
                 (A) (A) (A) (A) (A) (A) (A) (A) (A) (A) (A) (A)
                 (A) (A) (A) (A) (A) (A) (A) (A) (A) (A) (A) (A)
                 (A) (A) (A) (A) (A) (A) (A) (A) (A) (A) (A) (A)
                 (A) (A) (A) (A) (A) (A) (A) (A) (A) (A) (A) (A)
                 (A) (A) (A) (A) (A) (A) (A) (A) (A) (A) (A) (A)
                 (A) (A) (A) (A) (A) (A) (A) (A) (A) (A) (A) (A)
                 (A) (A) (A) (A) (A) (A) (A) (A) (A) (A) (A) (A)
                 (A) (A) (A) (A) (A) (A) (A) (A) (A) (A) (A) (A)
                 (A) (A) (A) (A) (A) (A) (A) (A) (A) (A) (A) (A)
                 (A) (A) (A) (A) (A) (A) (A) (A) (A) (A) (A) (A)
                 (A) (A) (A) (A) (A) (A) (A) (A) (A) (A) (A) (A)
                 (A) (A) (A) (A) (A) (A) (A) (A) (A) (A) (A) (A)
                 (A) (A) (A) (A) (A) (A) (A) (A) (A) (A) (A) (A)
                 (A) (A) (A) (A) (A) (A) (A) (A) (A) (A) (A) (A)
                 (A) (A) (A) (A) (A) (A) (A) (A) (A) (A) (A) (A)
                 (A) (A) (A) (A) (A) (A) (A) (A) (A) (A) (A) (A)
                 (A) (A) (A) (A) (A) (A) (A) (A) (A) (A) (A) (A)
                 (A) (A) (A) (A) (A) (A) (A) (A) (A) (A) (A) (A)
                 (A) (A) (A) (A) (A) (A) (A) (A) (A) (A) (A) (A)
                 (A) (A) (A) (A) (A) (A) (A) (A) (A) (A) (A) (A)
                 (A) (A) (A) (A) (A) (A) (A) (A) (A) (A) (A) (A)
                 (A) (A) (A) (A) (A) (A) (A) (A) (A) (A) (A) (A)
                 (A) (A) (A) (A) (A) (A) (A) (A) (A) (A) (A) (A)
                 (A) (A) (A) (A) (A) (A) (A) (A) (A) (A) (A) (A)
                 (A) (A) (A) (A) (A) (A) (A) (A) (A) (A) (A) (A)
                 (A) (A) (A) (A) (A) (A) (A) (A) (A) (A) (A) (A)
                 (A) (A) (A) (A) (A) (A) (A) (A) (A) (A) (A) (A)
                 (A) (A) (A) (A) (A) (A) (A) (A) (A) (A) (A) (A)
                 (A) (A) (A) (A) (A) (A) (A) (A) (A) (A) (A) (A)
                 (A) (A) (A) (A) (A) (A) (A) (A) (A) (A) (A) (A)
                 (A) (A) (A) (A) (A) (A) (A) (A) (A) (A) (A) (A)
                 (A) (A) (A) (A) (A) (A) (A) (A) (A) (A) (A) (A)
 The electronic state is 1-A.
 Alpha  occ. eigenvalues --  -25.27081 -25.26705 -19.62212 -14.73682 -10.64306
 Alpha  occ. eigenvalues --  -10.64304 -10.57652 -10.57209 -10.57013 -10.56780
 Alpha  occ. eigenvalues --  -10.56591 -10.55831 -10.55758 -10.53849 -10.53035
 Alpha  occ. eigenvalues --  -10.52487 -10.52000  -1.38196  -1.38030  -1.13808
 Alpha  occ. eigenvalues --   -1.02318  -0.98300  -0.90585  -0.87214  -0.86100
 Alpha  occ. eigenvalues --   -0.85120  -0.78773  -0.76200  -0.74662  -0.72761
 Alpha  occ. eigenvalues --   -0.70874  -0.68298  -0.65403  -0.64197  -0.62116
 Alpha  occ. eigenvalues --   -0.58731  -0.58023  -0.57433  -0.57283  -0.57181
 Alpha  occ. eigenvalues --   -0.55212  -0.54816  -0.54477  -0.53240  -0.50609
 Alpha  occ. eigenvalues --   -0.49701  -0.48844  -0.48341  -0.47945  -0.47182
 Alpha  occ. eigenvalues --   -0.46092  -0.44693  -0.44034  -0.43246  -0.42962
 Alpha  occ. eigenvalues --   -0.42889  -0.41197  -0.40811  -0.39790  -0.37910
 Alpha  occ. eigenvalues --   -0.37315  -0.34666  -0.31833  -0.31351  -0.29265
 Alpha virt. eigenvalues --    0.00474   0.01780   0.05923   0.06848   0.07848
 Alpha virt. eigenvalues --    0.08525   0.09398   0.10335   0.11310   0.11984
 Alpha virt. eigenvalues --    0.12310   0.12904   0.12980   0.13719   0.14257
 Alpha virt. eigenvalues --    0.14792   0.15826   0.16135   0.17104   0.17289
 Alpha virt. eigenvalues --    0.17747   0.18296   0.19061   0.19512   0.19799
 Alpha virt. eigenvalues --    0.20176   0.20981   0.21458   0.21845   0.22138
 Alpha virt. eigenvalues --    0.22535   0.23468   0.23717   0.24695   0.25413
 Alpha virt. eigenvalues --    0.25859   0.26582   0.27056   0.28013   0.28146
 Alpha virt. eigenvalues --    0.29547   0.29772   0.30785   0.31388   0.31921
 Alpha virt. eigenvalues --    0.32248   0.33065   0.33966   0.34292   0.34949
 Alpha virt. eigenvalues --    0.35734   0.36392   0.37175   0.37323   0.38276
 Alpha virt. eigenvalues --    0.38607   0.39467   0.39542   0.39927   0.40835
 Alpha virt. eigenvalues --    0.41099   0.41199   0.42541   0.42575   0.42892
 Alpha virt. eigenvalues --    0.43559   0.44291   0.44854   0.45377   0.45493
 Alpha virt. eigenvalues --    0.46068   0.46296   0.46764   0.47007   0.47318
 Alpha virt. eigenvalues --    0.47769   0.48394   0.48637   0.49159   0.49837
 Alpha virt. eigenvalues --    0.50237   0.51022   0.51474   0.52143   0.52371
 Alpha virt. eigenvalues --    0.53185   0.53404   0.53675   0.54046   0.54876
 Alpha virt. eigenvalues --    0.55475   0.55811   0.56525   0.57121   0.57424
 Alpha virt. eigenvalues --    0.58228   0.60307   0.61913   0.62822   0.63426
 Alpha virt. eigenvalues --    0.63889   0.63939   0.64917   0.65830   0.67352
 Alpha virt. eigenvalues --    0.67988   0.68524   0.69261   0.69883   0.70996
 Alpha virt. eigenvalues --    0.71333   0.72381   0.72905   0.74111   0.74797
 Alpha virt. eigenvalues --    0.75149   0.76760   0.77305   0.78963   0.79524
 Alpha virt. eigenvalues --    0.80596   0.81514   0.81986   0.82550   0.83698
 Alpha virt. eigenvalues --    0.84240   0.85578   0.87306   0.87789   0.88255
 Alpha virt. eigenvalues --    0.89432   0.89951   0.90184   0.90974   0.91756
 Alpha virt. eigenvalues --    0.92698   0.93575   0.95074   0.96165   0.97077
 Alpha virt. eigenvalues --    0.98197   0.98963   0.99274   1.00816   1.01138
 Alpha virt. eigenvalues --    1.02382   1.02947   1.04183   1.06003   1.07309
 Alpha virt. eigenvalues --    1.08289   1.08674   1.09287   1.10108   1.10645
 Alpha virt. eigenvalues --    1.11142   1.12648   1.14098   1.14527   1.15633
 Alpha virt. eigenvalues --    1.16480   1.18026   1.19155   1.19357   1.20315
 Alpha virt. eigenvalues --    1.21710   1.22039   1.24273   1.24777   1.25093
 Alpha virt. eigenvalues --    1.25470   1.25885   1.28468   1.28575   1.29994
 Alpha virt. eigenvalues --    1.32613   1.33916   1.34684   1.35731   1.36228
 Alpha virt. eigenvalues --    1.36553   1.38149   1.39164   1.39473   1.41969
 Alpha virt. eigenvalues --    1.43836   1.44925   1.45435   1.47568   1.49563
 Alpha virt. eigenvalues --    1.50299   1.50865   1.52046   1.53552   1.54271
 Alpha virt. eigenvalues --    1.54875   1.55870   1.57445   1.58020   1.58540
 Alpha virt. eigenvalues --    1.59206   1.59758   1.60566   1.61261   1.61803
 Alpha virt. eigenvalues --    1.62242   1.63189   1.64085   1.64909   1.65192
 Alpha virt. eigenvalues --    1.66117   1.67031   1.67220   1.67725   1.68662
 Alpha virt. eigenvalues --    1.69669   1.70214   1.70880   1.71472   1.72217
 Alpha virt. eigenvalues --    1.73104   1.74268   1.75773   1.78680   1.79776
 Alpha virt. eigenvalues --    1.80901   1.80949   1.83394   1.84403   1.85536
 Alpha virt. eigenvalues --    1.86786   1.89003   1.89729   1.90748   1.91938
 Alpha virt. eigenvalues --    1.92346   1.93021   1.93732   1.95391   1.96312
 Alpha virt. eigenvalues --    1.97739   1.98651   1.99033   2.00004   2.00641
 Alpha virt. eigenvalues --    2.02962   2.03197   2.05754   2.06991   2.07956
 Alpha virt. eigenvalues --    2.08566   2.09118   2.09967   2.10514   2.11727
 Alpha virt. eigenvalues --    2.12486   2.13695   2.14571   2.16152   2.16714
 Alpha virt. eigenvalues --    2.17232   2.18256   2.19177   2.19236   2.20160
 Alpha virt. eigenvalues --    2.20537   2.22281   2.23077   2.23324   2.27096
 Alpha virt. eigenvalues --    2.28314   2.29226   2.29515   2.30466   2.30864
 Alpha virt. eigenvalues --    2.32107   2.32532   2.33889   2.36821   2.36975
 Alpha virt. eigenvalues --    2.38176   2.39103   2.39949   2.41407   2.42057
 Alpha virt. eigenvalues --    2.43366   2.43946   2.44736   2.45574   2.47012
 Alpha virt. eigenvalues --    2.47458   2.48338   2.49193   2.50027   2.51292
 Alpha virt. eigenvalues --    2.52006   2.52596   2.54138   2.55473   2.56488
 Alpha virt. eigenvalues --    2.56886   2.57407   2.58018   2.58601   2.59386
 Alpha virt. eigenvalues --    2.60303   2.60877   2.61795   2.62589   2.63169
 Alpha virt. eigenvalues --    2.64091   2.65792   2.66454   2.66702   2.67484
 Alpha virt. eigenvalues --    2.68139   2.68890   2.69115   2.69827   2.70869
 Alpha virt. eigenvalues --    2.72572   2.72784   2.73877   2.75248   2.75355
 Alpha virt. eigenvalues --    2.76180   2.77136   2.77690   2.79025   2.79835
 Alpha virt. eigenvalues --    2.80298   2.80671   2.81973   2.82412   2.83765
 Alpha virt. eigenvalues --    2.84497   2.86186   2.86847   2.88688   2.88823
 Alpha virt. eigenvalues --    2.89848   2.90502   2.91448   2.92272   2.92686
 Alpha virt. eigenvalues --    2.93411   2.93931   2.96289   2.97071   2.98410
 Alpha virt. eigenvalues --    2.99723   3.00065   3.02422   3.03085   3.03848
 Alpha virt. eigenvalues --    3.04105   3.05372   3.05740   3.07672   3.08324
 Alpha virt. eigenvalues --    3.08605   3.09202   3.10557   3.11834   3.12492
 Alpha virt. eigenvalues --    3.13176   3.14155   3.14922   3.15634   3.16708
 Alpha virt. eigenvalues --    3.17562   3.17669   3.19083   3.20874   3.21171
 Alpha virt. eigenvalues --    3.21878   3.22083   3.23350   3.23619   3.25672
 Alpha virt. eigenvalues --    3.26057   3.26619   3.27151   3.27981   3.29874
 Alpha virt. eigenvalues --    3.30683   3.31123   3.32630   3.33260   3.33696
 Alpha virt. eigenvalues --    3.33892   3.35631   3.36439   3.37325   3.38073
 Alpha virt. eigenvalues --    3.39241   3.39527   3.40892   3.41654   3.42399
 Alpha virt. eigenvalues --    3.43554   3.44326   3.44689   3.46506   3.46602
 Alpha virt. eigenvalues --    3.47817   3.48709   3.49316   3.49935   3.51058
 Alpha virt. eigenvalues --    3.51292   3.52999   3.54072   3.54560   3.55652
 Alpha virt. eigenvalues --    3.57091   3.57353   3.58251   3.59061   3.60385
 Alpha virt. eigenvalues --    3.61177   3.61942   3.62554   3.63474   3.64285
 Alpha virt. eigenvalues --    3.65948   3.66824   3.68659   3.68980   3.70609
 Alpha virt. eigenvalues --    3.73356   3.73834   3.75892   3.77050   3.77858
 Alpha virt. eigenvalues --    3.80164   3.82307   3.84117   3.85688   3.86863
 Alpha virt. eigenvalues --    3.89251   3.89969   3.90455   3.92902   3.93273
 Alpha virt. eigenvalues --    3.94637   3.97128   3.98509   4.00133   4.01294
 Alpha virt. eigenvalues --    4.02859   4.03074   4.04074   4.05547   4.05799
 Alpha virt. eigenvalues --    4.07288   4.08091   4.09098   4.11226   4.12674
 Alpha virt. eigenvalues --    4.14109   4.15040   4.16202   4.17487   4.17923
 Alpha virt. eigenvalues --    4.19623   4.20049   4.22653   4.23754   4.23995
 Alpha virt. eigenvalues --    4.26121   4.28959   4.30724   4.32851   4.34415
 Alpha virt. eigenvalues --    4.36240   4.36810   4.38001   4.39341   4.40845
 Alpha virt. eigenvalues --    4.44281   4.46786   4.47483   4.49144   4.50780
 Alpha virt. eigenvalues --    4.52645   4.54656   4.55609   4.57616   4.59902
 Alpha virt. eigenvalues --    4.62663   4.63582   4.64727   4.65422   4.71162
 Alpha virt. eigenvalues --    4.72136   4.75631   4.76825   4.79448   4.83504
 Alpha virt. eigenvalues --    4.84178   4.88844   4.90789   4.94345   4.96306
 Alpha virt. eigenvalues --    5.01466   5.02385   5.08810   5.09749   5.12775
 Alpha virt. eigenvalues --    5.17100   5.23136   5.27878   5.28392   5.29801
 Alpha virt. eigenvalues --    5.32792   5.36506   5.37716   5.41426   5.43538
 Alpha virt. eigenvalues --    5.47711   5.53275   5.60375   5.63238   5.66176
 Alpha virt. eigenvalues --    5.73354   5.76774   5.87437   5.89448   6.25677
 Alpha virt. eigenvalues --    6.46417   6.68039   6.77544   6.90283   6.90547
 Alpha virt. eigenvalues --    6.91046   6.92246   6.96975   6.99494   7.00538
 Alpha virt. eigenvalues --    7.08300   7.09845   7.11786   7.21411   7.24180
 Alpha virt. eigenvalues --    7.35869   7.39179   7.53316   7.55598   8.35733
 Alpha virt. eigenvalues --    8.37307   8.52814   8.55378   8.74018   8.75101
 Alpha virt. eigenvalues --    8.96273   8.96713   9.00317   9.04454  22.20641
 Alpha virt. eigenvalues --   22.44085  22.49509  22.56156  22.62524  22.64550
 Alpha virt. eigenvalues --   22.73993  22.74014  22.75304  22.79284  22.93691
 Alpha virt. eigenvalues --   23.02498  23.47554  32.62611  43.96505  57.47158
 Alpha virt. eigenvalues --   57.55984
          Condensed to atoms (all electrons):
               1          2          3          4          5          6
     1  C    5.155188   0.136943  -0.025814   0.020442  -0.000253  -0.000016
     2  C    0.136943   5.541653   0.072510  -0.038624   0.008672  -0.000563
     3  C   -0.025814   0.072510   5.569917   0.106775  -0.052033   0.014360
     4  C    0.020442  -0.038624   0.106775   5.538701   0.257639  -0.039630
     5  C   -0.000253   0.008672  -0.052033   0.257639   4.974506   0.220474
     6  O   -0.000016  -0.000563   0.014360  -0.039630   0.220474   8.094269
     7  N    0.017164  -0.065255   0.181034  -0.058394  -0.032183   0.000501
     8  C    0.002838  -0.005319  -0.030959  -0.001202   0.002895   0.000024
     9  C    0.000005   0.000018  -0.000053   0.000000  -0.000006   0.000000
    10  C    0.000055  -0.000265   0.000403  -0.000006   0.000026   0.000000
    11  C    0.002418  -0.003650   0.004772   0.000260   0.000084  -0.000002
    12  C   -0.005590   0.011026   0.000805   0.000345  -0.000528   0.000012
    13  C   -0.000571   0.002291  -0.004802   0.000106  -0.000596   0.000003
    14  C   -0.000002  -0.000008   0.000004  -0.000004   0.000022   0.000000
    15  H    0.000000   0.000000   0.000000   0.000000   0.000000   0.000000
    16  H   -0.000005   0.000000  -0.000002   0.000000   0.000000   0.000000
    17  H    0.000000   0.000000   0.000000   0.000000   0.000000   0.000000
    18  F   -0.002226  -0.000627  -0.000180   0.000056   0.000016   0.000000
    19  F   -0.000002   0.000036  -0.000020  -0.000001  -0.000019   0.000000
    20  H    0.410116  -0.036876  -0.011290   0.014196   0.000574   0.000011
    21  H    0.418201  -0.055283   0.007255  -0.008059  -0.000091   0.000000
    22  H    0.414796  -0.039267   0.009794  -0.001106   0.000029  -0.000001
    23  H   -0.029946   0.406720  -0.024493  -0.019964  -0.001030  -0.000041
    24  H   -0.045971   0.434769  -0.051503   0.010167  -0.000027   0.000009
    25  H    0.002659  -0.023370  -0.000030   0.415660  -0.052378  -0.002029
    26  H   -0.000406   0.001486   0.012326  -0.094362   0.459141  -0.041638
    27  H   -0.000070  -0.000287  -0.009348  -0.023256   0.389916  -0.033362
    28  H   -0.000039   0.000050  -0.000563   0.000233  -0.042493   0.299685
    29  H    0.001578  -0.011855   0.013063   0.000760   0.000355  -0.000006
    30  H   -0.008967   0.031734  -0.019849  -0.000213  -0.000564   0.000002
    31  H    0.011551  -0.080303   0.446669  -0.008886  -0.013470   0.000150
    32  C   -0.012240   0.032444  -0.059141   0.227299  -0.037464  -0.028068
    33  H    0.001452  -0.013727   0.012874  -0.049682  -0.007453   0.000739
    34  H    0.000112  -0.001538   0.018190  -0.051200  -0.014933   0.021828
    35  H   -0.004057   0.015832  -0.029252  -0.023220   0.008092   0.000402
    36  H    0.008596  -0.019541  -0.035796   0.003076  -0.001344  -0.000053
               7          8          9         10         11         12
     1  C    0.017164   0.002838   0.000005   0.000055   0.002418  -0.005590
     2  C   -0.065255  -0.005319   0.000018  -0.000265  -0.003650   0.011026
     3  C    0.181034  -0.030959  -0.000053   0.000403   0.004772   0.000805
     4  C   -0.058394  -0.001202   0.000000  -0.000006   0.000260   0.000345
     5  C   -0.032183   0.002895  -0.000006   0.000026   0.000084  -0.000528
     6  O    0.000501   0.000024   0.000000   0.000000  -0.000002   0.000012
     7  N    6.896988   0.209223   0.000707  -0.000935  -0.003568  -0.048135
     8  C    0.209223   5.184769  -0.006399   0.011607  -0.061360   0.255552
     9  C    0.000707  -0.006399   5.029558   0.429572  -0.025719  -0.082510
    10  C   -0.000935   0.011607   0.429572   5.065828   0.510020   0.007229
    11  C   -0.003568  -0.061360  -0.025719   0.510020   4.860277   0.277602
    12  C   -0.048135   0.255552  -0.082510   0.007229   0.277602   5.581995
    13  C    0.035177  -0.116466  -0.011036  -0.091566   0.022633   0.262786
    14  C   -0.000572   0.008090   0.422350  -0.023475  -0.075348   0.010076
    15  H    0.000001   0.000090   0.403602  -0.025196   0.002818  -0.000428
    16  H    0.000021  -0.000267  -0.029453   0.411419  -0.040729   0.012291
    17  H   -0.000005  -0.000282  -0.033860   0.004321  -0.000778   0.014454
    18  F   -0.003748   0.021043   0.008267  -0.046138   0.243483  -0.084617
    19  F   -0.000435   0.012755   0.010002  -0.000805   0.006308  -0.087177
    20  H   -0.001095  -0.000394   0.000000   0.000001  -0.000034   0.000182
    21  H    0.000546   0.007258  -0.000015   0.000142   0.000236  -0.002752
    22  H    0.000049  -0.000243   0.000000   0.000000  -0.000018   0.000040
    23  H    0.005268   0.000932   0.000000   0.000001   0.000037  -0.000198
    24  H   -0.000984  -0.002737  -0.000003   0.000028   0.000353   0.000785
    25  H   -0.010974  -0.000016  -0.000001   0.000008  -0.000031   0.000113
    26  H    0.023118  -0.001784   0.000019  -0.000071  -0.000095   0.000217
    27  H    0.001614  -0.000097   0.000000   0.000000  -0.000016   0.000076
    28  H    0.000316  -0.000021   0.000000   0.000000  -0.000004   0.000012
    29  H   -0.039741   0.429494  -0.000707   0.001119   0.015698  -0.022414
    30  H   -0.067554   0.396972   0.000821  -0.005069  -0.027210  -0.011863
    31  H   -0.038899  -0.009749  -0.000004   0.000026   0.000027  -0.000150
    32  C    0.010634  -0.000708   0.000000   0.000000   0.000012   0.000104
    33  H   -0.000315   0.000012   0.000000   0.000000   0.000000   0.000003
    34  H   -0.000589   0.000053   0.000000   0.000000   0.000000  -0.000005
    35  H    0.000050  -0.000044   0.000000   0.000000   0.000000   0.000000
    36  H    0.376691  -0.044839  -0.000142   0.000602   0.001087  -0.012269
              13         14         15         16         17         18
     1  C   -0.000571  -0.000002   0.000000  -0.000005   0.000000  -0.002226
     2  C    0.002291  -0.000008   0.000000   0.000000   0.000000  -0.000627
     3  C   -0.004802   0.000004   0.000000  -0.000002   0.000000  -0.000180
     4  C    0.000106  -0.000004   0.000000   0.000000   0.000000   0.000056
     5  C   -0.000596   0.000022   0.000000   0.000000   0.000000   0.000016
     6  O    0.000003   0.000000   0.000000   0.000000   0.000000   0.000000
     7  N    0.035177  -0.000572   0.000001   0.000021  -0.000005  -0.003748
     8  C   -0.116466   0.008090   0.000090  -0.000267  -0.000282   0.021043
     9  C   -0.011036   0.422350   0.403602  -0.029453  -0.033860   0.008267
    10  C   -0.091566  -0.023475  -0.025196   0.411419   0.004321  -0.046138
    11  C    0.022633  -0.075348   0.002818  -0.040729  -0.000778   0.243483
    12  C    0.262786   0.010076  -0.000428   0.012291   0.014454  -0.084617
    13  C    4.871259   0.520095   0.001776  -0.000443  -0.041641   0.004050
    14  C    0.520095   5.049059  -0.024284   0.003544   0.413250  -0.000426
    15  H    0.001776  -0.024284   0.475922  -0.003179  -0.003352  -0.000110
    16  H   -0.000443   0.003544  -0.003179   0.471524  -0.000151   0.001934
    17  H   -0.041641   0.413250  -0.003352  -0.000151   0.474718   0.000012
    18  F    0.004050  -0.000426  -0.000110   0.001934   0.000012   9.065785
    19  F    0.258925  -0.048501  -0.000106   0.000010   0.001587  -0.000032
    20  H    0.000007   0.000000   0.000000   0.000000   0.000000   0.000067
    21  H   -0.000235   0.000006   0.000000   0.000007   0.000000   0.003770
    22  H    0.000002   0.000000   0.000000   0.000000   0.000000   0.000029
    23  H   -0.000027   0.000000   0.000000   0.000000   0.000000  -0.000007
    24  H   -0.000162   0.000007   0.000000   0.000000   0.000000   0.000089
    25  H   -0.000027   0.000000   0.000000   0.000000   0.000000  -0.000068
    26  H    0.001016  -0.000035   0.000000   0.000000  -0.000001  -0.000007
    27  H    0.000037  -0.000001   0.000000   0.000000   0.000000   0.000000
    28  H    0.000003   0.000000   0.000000   0.000000   0.000000   0.000000
    29  H   -0.041649   0.000470   0.000002   0.000005   0.000002   0.000624
    30  H    0.026351  -0.000877   0.000004  -0.000045   0.000004   0.000423
    31  H   -0.000563   0.000002   0.000000   0.000000   0.000000  -0.000027
    32  C    0.000000   0.000000   0.000000   0.000000   0.000000  -0.000003
    33  H    0.000000   0.000000   0.000000   0.000000   0.000000   0.000000
    34  H    0.000000   0.000000   0.000000   0.000000   0.000000   0.000000
    35  H    0.000000   0.000000   0.000000   0.000000   0.000000   0.000000
    36  H   -0.001058   0.000193   0.000000   0.000033   0.000002   0.005741
              19         20         21         22         23         24
     1  C   -0.000002   0.410116   0.418201   0.414796  -0.029946  -0.045971
     2  C    0.000036  -0.036876  -0.055283  -0.039267   0.406720   0.434769
     3  C   -0.000020  -0.011290   0.007255   0.009794  -0.024493  -0.051503
     4  C   -0.000001   0.014196  -0.008059  -0.001106  -0.019964   0.010167
     5  C   -0.000019   0.000574  -0.000091   0.000029  -0.001030  -0.000027
     6  O    0.000000   0.000011   0.000000  -0.000001  -0.000041   0.000009
     7  N   -0.000435  -0.001095   0.000546   0.000049   0.005268  -0.000984
     8  C    0.012755  -0.000394   0.007258  -0.000243   0.000932  -0.002737
     9  C    0.010002   0.000000  -0.000015   0.000000   0.000000  -0.000003
    10  C   -0.000805   0.000001   0.000142   0.000000   0.000001   0.000028
    11  C    0.006308  -0.000034   0.000236  -0.000018   0.000037   0.000353
    12  C   -0.087177   0.000182  -0.002752   0.000040  -0.000198   0.000785
    13  C    0.258925   0.000007  -0.000235   0.000002  -0.000027  -0.000162
    14  C   -0.048501   0.000000   0.000006   0.000000   0.000000   0.000007
    15  H   -0.000106   0.000000   0.000000   0.000000   0.000000   0.000000
    16  H    0.000010   0.000000   0.000007   0.000000   0.000000   0.000000
    17  H    0.001587   0.000000   0.000000   0.000000   0.000000   0.000000
    18  F   -0.000032   0.000067   0.003770   0.000029  -0.000007   0.000089
    19  F    9.054126   0.000000   0.000001   0.000000   0.000000   0.000000
    20  H    0.000000   0.531236  -0.030492  -0.022083  -0.002903   0.005812
    21  H    0.000001  -0.030492   0.534157  -0.020928   0.005775  -0.002131
    22  H    0.000000  -0.022083  -0.020928   0.512699  -0.004552  -0.004974
    23  H    0.000000  -0.002903   0.005775  -0.004552   0.518764  -0.016182
    24  H    0.000000   0.005812  -0.002131  -0.004974  -0.016182   0.521691
    25  H    0.000000  -0.005997   0.000884   0.000006   0.001893  -0.000443
    26  H    0.000074  -0.000014  -0.000030   0.000000  -0.000135  -0.000091
    27  H   -0.000001  -0.000020   0.000003  -0.000001   0.000021  -0.000006
    28  H    0.000000   0.000002  -0.000001   0.000000  -0.000003   0.000000
    29  H    0.007914  -0.000021   0.000157  -0.000006   0.000225   0.001089
    30  H    0.000127   0.000099  -0.001694  -0.000013  -0.000731  -0.008893
    31  H   -0.000053  -0.000312  -0.000189  -0.000268   0.001004  -0.003684
    32  C    0.000000  -0.003287   0.000626   0.000599  -0.000055  -0.001018
    33  H    0.000000  -0.000040  -0.000026  -0.000022  -0.000034  -0.000229
    34  H    0.000000   0.000042   0.000015  -0.000005   0.000637   0.000023
    35  H    0.000000   0.001434  -0.000043   0.000100  -0.009530   0.000604
    36  H   -0.000050  -0.000344  -0.002422   0.000080  -0.000142   0.000525
              25         26         27         28         29         30
     1  C    0.002659  -0.000406  -0.000070  -0.000039   0.001578  -0.008967
     2  C   -0.023370   0.001486  -0.000287   0.000050  -0.011855   0.031734
     3  C   -0.000030   0.012326  -0.009348  -0.000563   0.013063  -0.019849
     4  C    0.415660  -0.094362  -0.023256   0.000233   0.000760  -0.000213
     5  C   -0.052378   0.459141   0.389916  -0.042493   0.000355  -0.000564
     6  O   -0.002029  -0.041638  -0.033362   0.299685  -0.000006   0.000002
     7  N   -0.010974   0.023118   0.001614   0.000316  -0.039741  -0.067554
     8  C   -0.000016  -0.001784  -0.000097  -0.000021   0.429494   0.396972
     9  C   -0.000001   0.000019   0.000000   0.000000  -0.000707   0.000821
    10  C    0.000008  -0.000071   0.000000   0.000000   0.001119  -0.005069
    11  C   -0.000031  -0.000095  -0.000016  -0.000004   0.015698  -0.027210
    12  C    0.000113   0.000217   0.000076   0.000012  -0.022414  -0.011863
    13  C   -0.000027   0.001016   0.000037   0.000003  -0.041649   0.026351
    14  C    0.000000  -0.000035  -0.000001   0.000000   0.000470  -0.000877
    15  H    0.000000   0.000000   0.000000   0.000000   0.000002   0.000004
    16  H    0.000000   0.000000   0.000000   0.000000   0.000005  -0.000045
    17  H    0.000000  -0.000001   0.000000   0.000000   0.000002   0.000004
    18  F   -0.000068  -0.000007   0.000000   0.000000   0.000624   0.000423
    19  F    0.000000   0.000074  -0.000001   0.000000   0.007914   0.000127
    20  H   -0.005997  -0.000014  -0.000020   0.000002  -0.000021   0.000099
    21  H    0.000884  -0.000030   0.000003  -0.000001   0.000157  -0.001694
    22  H    0.000006   0.000000  -0.000001   0.000000  -0.000006  -0.000013
    23  H    0.001893  -0.000135   0.000021  -0.000003   0.000225  -0.000731
    24  H   -0.000443  -0.000091  -0.000006   0.000000   0.001089  -0.008893
    25  H    0.554741  -0.006071   0.008987   0.006642  -0.000002   0.000030
    26  H   -0.006071   0.534003  -0.033535  -0.008794  -0.000454   0.000405
    27  H    0.008987  -0.033535   0.560734   0.010083  -0.000091   0.000063
    28  H    0.006642  -0.008794   0.010083   0.409081  -0.000002   0.000002
    29  H   -0.000002  -0.000454  -0.000091  -0.000002   0.514244  -0.040097
    30  H    0.000030   0.000405   0.000063   0.000002  -0.040097   0.568398
    31  H    0.006620  -0.002137   0.005444   0.000072   0.002360  -0.002103
    32  C   -0.052662   0.007464  -0.014012  -0.002551   0.000016   0.000113
    33  H    0.008008   0.000016   0.004632   0.000134   0.000000   0.000000
    34  H   -0.002767   0.001286  -0.001522  -0.000826   0.000003  -0.000004
    35  H   -0.007378  -0.000181  -0.000344  -0.000105  -0.000002  -0.000005
    36  H    0.002217  -0.000337   0.000075   0.000019   0.005504  -0.005722
              31         32         33         34         35         36
     1  C    0.011551  -0.012240   0.001452   0.000112  -0.004057   0.008596
     2  C   -0.080303   0.032444  -0.013727  -0.001538   0.015832  -0.019541
     3  C    0.446669  -0.059141   0.012874   0.018190  -0.029252  -0.035796
     4  C   -0.008886   0.227299  -0.049682  -0.051200  -0.023220   0.003076
     5  C   -0.013470  -0.037464  -0.007453  -0.014933   0.008092  -0.001344
     6  O    0.000150  -0.028068   0.000739   0.021828   0.000402  -0.000053
     7  N   -0.038899   0.010634  -0.000315  -0.000589   0.000050   0.376691
     8  C   -0.009749  -0.000708   0.000012   0.000053  -0.000044  -0.044839
     9  C   -0.000004   0.000000   0.000000   0.000000   0.000000  -0.000142
    10  C    0.000026   0.000000   0.000000   0.000000   0.000000   0.000602
    11  C    0.000027   0.000012   0.000000   0.000000   0.000000   0.001087
    12  C   -0.000150   0.000104   0.000003  -0.000005   0.000000  -0.012269
    13  C   -0.000563   0.000000   0.000000   0.000000   0.000000  -0.001058
    14  C    0.000002   0.000000   0.000000   0.000000   0.000000   0.000193
    15  H    0.000000   0.000000   0.000000   0.000000   0.000000   0.000000
    16  H    0.000000   0.000000   0.000000   0.000000   0.000000   0.000033
    17  H    0.000000   0.000000   0.000000   0.000000   0.000000   0.000002
    18  F   -0.000027  -0.000003   0.000000   0.000000   0.000000   0.005741
    19  F   -0.000053   0.000000   0.000000   0.000000   0.000000  -0.000050
    20  H   -0.000312  -0.003287  -0.000040   0.000042   0.001434  -0.000344
    21  H   -0.000189   0.000626  -0.000026   0.000015  -0.000043  -0.002422
    22  H   -0.000268   0.000599  -0.000022  -0.000005   0.000100   0.000080
    23  H    0.001004  -0.000055  -0.000034   0.000637  -0.009530  -0.000142
    24  H   -0.003684  -0.001018  -0.000229   0.000023   0.000604   0.000525
    25  H    0.006620  -0.052662   0.008008  -0.002767  -0.007378   0.002217
    26  H   -0.002137   0.007464   0.000016   0.001286  -0.000181  -0.000337
    27  H    0.005444  -0.014012   0.004632  -0.001522  -0.000344   0.000075
    28  H    0.000072  -0.002551   0.000134  -0.000826  -0.000105   0.000019
    29  H    0.002360   0.000016   0.000000   0.000003  -0.000002   0.005504
    30  H   -0.002103   0.000113   0.000000  -0.000004  -0.000005  -0.005722
    31  H    0.515121  -0.009551   0.003569  -0.000073   0.000281   0.006582
    32  C   -0.009551   5.176082   0.409100   0.414454   0.414621   0.000110
    33  H    0.003569   0.409100   0.520397  -0.019481  -0.026599   0.000001
    34  H   -0.000073   0.414454  -0.019481   0.499896  -0.022079  -0.000030
    35  H    0.000281   0.414621  -0.026599  -0.022079   0.526664   0.000048
    36  H    0.006582   0.000110   0.000001  -0.000030   0.000048   0.477255
 Mulliken charges:
               1
     1  C   -0.467935
     2  C   -0.299826
     3  C   -0.115625
     4  C   -0.177908
     5  C   -0.065576
     6  O   -0.507058
     7  N   -0.385723
     8  C   -0.260720
     9  C   -0.115013
    10  C   -0.248884
    11  C    0.290436
    12  C   -0.077072
    13  C    0.304325
    14  C   -0.253635
    15  H    0.172439
    16  H    0.173486
    17  H    0.171718
    18  F   -0.217173
    19  F   -0.214665
    20  H    0.151422
    21  H    0.145351
    22  H    0.155262
    23  H    0.168696
    24  H    0.163090
    25  H    0.155773
    26  H    0.149606
    27  H    0.134282
    28  H    0.329067
    29  H    0.162365
    30  H    0.175925
    31  H    0.170944
    32  C   -0.472917
    33  H    0.156669
    34  H    0.158509
    35  H    0.154711
    36  H    0.235652
 Sum of Mulliken charges =   0.00000
 Mulliken charges with hydrogens summed into heavy atoms:
               1
     1  C   -0.015899
     2  C    0.031959
     3  C    0.055319
     4  C   -0.022134
     5  C    0.218313
     6  O   -0.177991
     7  N   -0.150072
     8  C    0.077570
     9  C    0.057426
    10  C   -0.075397
    11  C    0.290436
    12  C   -0.077072
    13  C    0.304325
    14  C   -0.081917
    18  F   -0.217173
    19  F   -0.214665
    32  C   -0.003027
 Electronic spatial extent (au):  <R**2>=           5388.7541
 Charge=              0.0000 electrons
 Dipole moment (field-independent basis, Debye):
    X=             -2.5689    Y=              2.4068    Z=             -0.6473  Tot=              3.5792
 Quadrupole moment (field-independent basis, Debye-Ang):
   XX=            -97.5990   YY=           -111.7106   ZZ=            -97.8914
   XY=             10.4184   XZ=              6.7622   YZ=             -0.4244
 Traceless Quadrupole moment (field-independent basis, Debye-Ang):
   XX=              4.8013   YY=             -9.3103   ZZ=              4.5089
   XY=             10.4184   XZ=              6.7622   YZ=             -0.4244
 Octapole moment (field-independent basis, Debye-Ang**2):
  XXX=           -124.1013  YYY=             13.8709  ZZZ=            -18.3715  XYY=            -29.5540
  XXY=             19.6119  XXZ=            -19.2766  XZZ=              6.7895  YZZ=             -0.9596
  YYZ=              9.1388  XYZ=             -7.1277
 Hexadecapole moment (field-independent basis, Debye-Ang**3):
 XXXX=          -4955.7739 YYYY=          -1448.1586 ZZZZ=           -587.9139 XXXY=            219.8546
 XXXZ=            149.4900 YYYX=             87.2642 YYYZ=            -42.5020 ZZZX=            -59.1386
 ZZZY=             -1.2791 XXYY=          -1158.7144 XXZZ=           -906.0834 YYZZ=           -338.1758
 XXYZ=            -67.5613 YYXZ=             35.5782 ZZXY=            -41.5897
 N-N= 1.255672138219D+03 E-N=-4.467458724713D+03  KE= 8.321512919301D+02
 1\1\GINC-CPU-E-827\SP\RM062X\def2TZVP\C13H19F2N1O1\KE291\26-Jun-2019\0
 \\# m062x/def2tzvp int=ultrafine scrf=(solvent=chloroform)\\AT3_1ginp0
 17\\0,1\C,0,2.091735,2.74466,0.005563\C,0,2.199455,1.702242,1.125209\C
 ,0,1.894464,0.243602,0.69791\C,0,2.923343,-0.350953,-0.299405\C,0,2.67
 2116,-1.858384,-0.490764\O,0,3.505352,-2.442592,-1.494986\N,0,0.54339,
 0.051186,0.137628\C,0,-0.562608,0.354942,1.052596\C,0,-4.379099,-0.359
 14,-0.885122\C,0,-3.601041,0.738718,-1.25857\C,0,-2.387825,0.93035,-0.
 612519\C,0,-1.895538,0.092977,0.390045\C,0,-2.713406,-0.989831,0.71585
 8\C,0,-3.940343,-1.234347,0.108418\H,0,-5.332423,-0.533259,-1.3728\H,0
 ,-3.916461,1.432831,-2.02882\H,0,-4.526007,-2.093206,0.415144\F,0,-1.6
 17891,1.990736,-0.974964\F,0,-2.294942,-1.840147,1.68148\H,0,2.792105,
 2.544503,-0.812529\H,0,1.082558,2.777755,-0.419623\H,0,2.313507,3.7454
 9,0.389051\H,0,3.198296,1.740257,1.572752\H,0,1.510241,1.976975,1.9326
 91\H,0,2.756321,0.129024,-1.277727\H,0,1.611878,-2.030077,-0.704449\H,
 0,2.916357,-2.389212,0.437709\H,0,3.230489,-2.07185,-2.344663\H,0,-0.4
 67989,-0.29129,1.9293\H,0,-0.561184,1.394511,1.41794\H,0,1.93707,-0.36
 9544,1.611482\C,0,4.382955,-0.111052,0.109319\H,0,4.561849,-0.447763,1
 .138019\H,0,5.042581,-0.683165,-0.548058\H,0,4.669825,0.941857,0.04466
 8\H,0,0.444688,0.630579,-0.693474\\Version=ES64L-G09RevD.01\State=1-A\
 HF=-836.4565299\RMSD=7.991e-09\Dipole=-1.0106684,0.946908,-0.2546752\Q
 uadrupole=3.569676,-6.921969,3.3522929,7.745832,5.0275355,-0.3155322\P
 G=C01 [X(C13H19F2N1O1)]\\@


 THERE IS NO SCIENCE WITHOUT FANCY, NOR ART WITHOUT FACTS.
     -- VLADIMIR NABAKOV
 Job cpu time:       0 days  1 hours 12 minutes 50.1 seconds.
 File lengths (MBytes):  RWF=    317 Int=      0 D2E=      0 Chk=     17 Scr=      1
 Normal termination of Gaussian 09 at Wed Jun 26 12:21:16 2019.
