 Entering Gaussian System, Link 0=/usr/local/shared/gaussian/em64t/09-D01/g09/g09
 Initial command:
 /usr/local/shared/gaussian/em64t/09-D01/g09/l1.exe "/scratch/ke291/AT3_1ginp018/Gau-21975.inp" -scrdir="/scratch/ke291/AT3_1ginp018/"
 Entering Link 1 = /usr/local/shared/gaussian/em64t/09-D01/g09/l1.exe PID=     21979.
  
 Copyright (c) 1988,1990,1992,1993,1995,1998,2003,2009,2013,
            Gaussian, Inc.  All Rights Reserved.
  
 This is part of the Gaussian(R) 09 program.  It is based on
 the Gaussian(R) 03 system (copyright 2003, Gaussian, Inc.),
 the Gaussian(R) 98 system (copyright 1998, Gaussian, Inc.),
 the Gaussian(R) 94 system (copyright 1995, Gaussian, Inc.),
 the Gaussian 92(TM) system (copyright 1992, Gaussian, Inc.),
 the Gaussian 90(TM) system (copyright 1990, Gaussian, Inc.),
 the Gaussian 88(TM) system (copyright 1988, Gaussian, Inc.),
 the Gaussian 86(TM) system (copyright 1986, Carnegie Mellon
 University), and the Gaussian 82(TM) system (copyright 1983,
 Carnegie Mellon University). Gaussian is a federally registered
 trademark of Gaussian, Inc.
  
 This software contains proprietary and confidential information,
 including trade secrets, belonging to Gaussian, Inc.
  
 This software is provided under written license and may be
 used, copied, transmitted, or stored only in accord with that
 written license.
  
 The following legend is applicable only to US Government
 contracts under FAR:
  
                    RESTRICTED RIGHTS LEGEND
  
 Use, reproduction and disclosure by the US Government is
 subject to restrictions as set forth in subparagraphs (a)
 and (c) of the Commercial Computer Software - Restricted
 Rights clause in FAR 52.227-19.
  
 Gaussian, Inc.
 340 Quinnipiac St., Bldg. 40, Wallingford CT 06492
  
  
 ---------------------------------------------------------------
 Warning -- This program may not be used in any manner that
 competes with the business of Gaussian, Inc. or will provide
 assistance to any competitor of Gaussian, Inc.  The licensee
 of this program is prohibited from giving any competitor of
 Gaussian, Inc. access to this program.  By using this program,
 the user acknowledges that Gaussian, Inc. is engaged in the
 business of creating and licensing software in the field of
 computational chemistry and represents and warrants to the
 licensee that it is not a competitor of Gaussian, Inc. and that
 it will not use this program in any manner prohibited above.
 ---------------------------------------------------------------
  

 Cite this work as:
 Gaussian 09, Revision D.01,
 M. J. Frisch, G. W. Trucks, H. B. Schlegel, G. E. Scuseria, 
 M. A. Robb, J. R. Cheeseman, G. Scalmani, V. Barone, B. Mennucci, 
 G. A. Petersson, H. Nakatsuji, M. Caricato, X. Li, H. P. Hratchian, 
 A. F. Izmaylov, J. Bloino, G. Zheng, J. L. Sonnenberg, M. Hada, 
 M. Ehara, K. Toyota, R. Fukuda, J. Hasegawa, M. Ishida, T. Nakajima, 
 Y. Honda, O. Kitao, H. Nakai, T. Vreven, J. A. Montgomery, Jr., 
 J. E. Peralta, F. Ogliaro, M. Bearpark, J. J. Heyd, E. Brothers, 
 K. N. Kudin, V. N. Staroverov, T. Keith, R. Kobayashi, J. Normand, 
 K. Raghavachari, A. Rendell, J. C. Burant, S. S. Iyengar, J. Tomasi, 
 M. Cossi, N. Rega, J. M. Millam, M. Klene, J. E. Knox, J. B. Cross, 
 V. Bakken, C. Adamo, J. Jaramillo, R. Gomperts, R. E. Stratmann, 
 O. Yazyev, A. J. Austin, R. Cammi, C. Pomelli, J. W. Ochterski, 
 R. L. Martin, K. Morokuma, V. G. Zakrzewski, G. A. Voth, 
 P. Salvador, J. J. Dannenberg, S. Dapprich, A. D. Daniels, 
 O. Farkas, J. B. Foresman, J. V. Ortiz, J. Cioslowski, 
 and D. J. Fox, Gaussian, Inc., Wallingford CT, 2013.
 
 ******************************************
 Gaussian 09:  EM64L-G09RevD.01 24-Apr-2013
                 6-Mar-2019 
 ******************************************
 %nprocshared=2
 Will use up to    2 processors via shared memory.
 %mem=6000MB
 %chk=AT3_1ginp018.chk
 ----------------------------------------------------------------------
 # mPW1PW91/6-311g(d) geom=checkpoint nmr=giao scrf=(solvent=chloroform
 )
 ----------------------------------------------------------------------
 1/29=2,38=1/1;
 2/12=2,40=1/2;
 3/5=4,6=6,7=1,11=2,14=-4,16=1,25=1,30=1,70=2201,72=7,74=-7/1,2,8,3;
 4//1;
 5/5=2,38=5,53=7/2;
 8/6=1,10=90,11=11/1;
 10/13=100,45=16/2;
 6/7=2,8=2,9=2,10=2,28=1/1;
 99/9=1/99;
 ------------
 AT3_1ginp018
 ------------
 Structure from the checkpoint file:  "AT3_1ginp018.chk"
 Charge =  0 Multiplicity = 1
 Redundant internal coordinates found in file.
 C,0,-1.8867916371,0.6381976151,0.2533298631
 C,0,-1.3613730456,0.0581884314,1.5724799359
 C,0,-0.5016316105,1.0288633731,2.4216701399
 C,0,-1.3598434318,2.1172641359,3.133288889
 C,0,-0.5506264646,3.3921692013,3.44963275
 O,0,0.680667821,3.122066098,4.1061511638
 N,0,0.6247429122,1.6447600195,1.6889758323
 C,0,1.6215139168,0.6915915602,1.1789709689
 C,0,4.9533868333,2.851184641,-0.5597673609
 C,0,4.8065677661,2.80117677,0.8282687625
 C,0,3.7307739202,2.0967684763,1.351080718
 C,0,2.7879880998,1.4275109639,0.5668722891
 C,0,2.9807272767,1.5213087458,-0.812168676
 C,0,4.0387375202,2.2098391696,-1.3951071483
 H,0,5.7860732707,3.3957121379,-0.9923531457
 H,0,5.5024936606,3.292905113,1.4979186602
 H,0,4.1294889206,2.2375202004,-2.4747272558
 F,0,3.5831999152,2.0419106674,2.6963200254
 F,0,2.0866781539,0.9065706993,-1.6237381731
 H,0,-1.0716594296,0.8921035034,-0.4333656371
 H,0,-2.5232929,-0.0902618062,-0.258207365
 H,0,-2.4851020206,1.5422168129,0.4090820747
 H,0,-2.2056896951,-0.2806096658,2.1842607084
 H,0,-0.7751888454,-0.8429891049,1.3555833493
 H,0,-2.1738698473,2.4239221261,2.4609207394
 H,0,-1.1365837791,4.0327792696,4.1190324849
 H,0,-0.3806928928,3.9657409141,2.5263425186
 H,0,1.2014080847,2.6655545981,3.4184013058
 H,0,1.9746258108,0.1015836363,2.0317763774
 H,0,1.2211595762,-0.0136780048,0.4397858297
 H,0,-0.0282033893,0.4345102832,3.2147615102
 C,0,-1.979382097,1.5465345669,4.4184257211
 H,0,-1.1963708138,1.384054255,5.166623671
 H,0,-2.7113912198,2.242546326,4.8414600609
 H,0,-2.4895292348,0.5932937942,4.2471389217
 H,0,0.2751458951,2.2049064768,0.9137814907
 Recover connectivity data from disk.
                          Input orientation:                          
 ---------------------------------------------------------------------
 Center     Atomic      Atomic             Coordinates (Angstroms)
 Number     Number       Type             X           Y           Z
 ---------------------------------------------------------------------
      1          6           0       -1.886792    0.638198    0.253330
      2          6           0       -1.361373    0.058188    1.572480
      3          6           0       -0.501632    1.028863    2.421670
      4          6           0       -1.359843    2.117264    3.133289
      5          6           0       -0.550626    3.392169    3.449633
      6          8           0        0.680668    3.122066    4.106151
      7          7           0        0.624743    1.644760    1.688976
      8          6           0        1.621514    0.691592    1.178971
      9          6           0        4.953387    2.851185   -0.559767
     10          6           0        4.806568    2.801177    0.828269
     11          6           0        3.730774    2.096768    1.351081
     12          6           0        2.787988    1.427511    0.566872
     13          6           0        2.980727    1.521309   -0.812169
     14          6           0        4.038738    2.209839   -1.395107
     15          1           0        5.786073    3.395712   -0.992353
     16          1           0        5.502494    3.292905    1.497919
     17          1           0        4.129489    2.237520   -2.474727
     18          9           0        3.583200    2.041911    2.696320
     19          9           0        2.086678    0.906571   -1.623738
     20          1           0       -1.071659    0.892104   -0.433366
     21          1           0       -2.523293   -0.090262   -0.258207
     22          1           0       -2.485102    1.542217    0.409082
     23          1           0       -2.205690   -0.280610    2.184261
     24          1           0       -0.775189   -0.842989    1.355583
     25          1           0       -2.173870    2.423922    2.460921
     26          1           0       -1.136584    4.032779    4.119032
     27          1           0       -0.380693    3.965741    2.526343
     28          1           0        1.201408    2.665555    3.418401
     29          1           0        1.974626    0.101584    2.031776
     30          1           0        1.221160   -0.013678    0.439786
     31          1           0       -0.028203    0.434510    3.214762
     32          6           0       -1.979382    1.546535    4.418426
     33          1           0       -1.196371    1.384054    5.166624
     34          1           0       -2.711391    2.242546    4.841460
     35          1           0       -2.489529    0.593294    4.247139
     36          1           0        0.275146    2.204906    0.913781
 ---------------------------------------------------------------------
                    Distance matrix (angstroms):
                    1          2          3          4          5
     1  C    0.000000
     2  C    1.533829   0.000000
     3  C    2.602496   1.549997   0.000000
     4  C    3.280164   2.583780   1.558058   0.000000
     5  C    4.425613   3.911066   2.577658   1.542818   0.000000
     6  O    5.254111   4.469538   2.935440   2.473818   1.421287
     7  N    3.063014   2.544688   1.478137   2.499577   2.744967
     8  C    3.628756   3.074681   2.483103   3.839322   4.143334
     9  C    7.235087   7.226583   6.478198   7.350795   6.830967
    10  C    7.057627   6.791269   5.818677   6.618571   5.993359
    11  C    5.906736   5.489516   4.494423   5.393614   4.940888
    12  C    4.751304   4.483691   3.797472   4.926130   4.828720
    13  C    5.060426   5.165376   4.777765   5.895961   5.842391
    14  C    6.348173   6.526666   6.047929   7.046958   6.777291
    15  H    8.247937   8.294783   7.536097   8.349819   7.738541
    16  H    7.949718   7.588255   6.482956   7.151800   6.360763
    17  H    6.796746   7.160931   6.847104   7.848380   7.637718
    18  F    6.153001   5.444903   4.217528   4.962892   4.413525
    19  F    4.402712   4.777512   4.804126   5.997799   6.234795
    20  H    1.095655   2.191521   2.914595   3.782207   4.647524
    21  H    1.094284   2.173364   3.538545   4.210586   5.455897
    22  H    1.095210   2.195131   2.871968   3.003030   4.050860
    23  H    2.162035   1.096326   2.162151   2.714021   4.222524
    24  H    2.155119   1.096712   2.171453   3.502165   4.729909
    25  H    2.853889   2.654463   2.178098   1.099435   2.133067
    26  H    5.199005   4.725763   3.508235   2.165810   1.096277
    27  H    4.302030   4.140115   2.941230   2.178069   1.100149
    28  H    4.864651   4.095562   2.563703   2.634753   1.896990
    29  H    4.285017   3.367748   2.672773   4.049072   4.383511
    30  H    3.181048   2.820928   2.825379   4.296213   4.878340
    31  H    3.502273   2.148499   1.098355   2.147455   3.012613
    32  C    4.263997   3.270553   2.537472   1.536599   2.527107
    33  H    5.017314   3.834451   2.853698   2.167665   2.719847
    34  H    4.929994   4.156946   3.494488   2.181794   2.815621
    35  H    4.039285   2.951758   2.733824   2.199849   3.497008
    36  H    2.750408   2.778574   2.064022   2.758094   2.919252
                    6          7          8          9         10
     6  O    0.000000
     7  N    2.833425   0.000000
     8  C    3.919283   1.470438   0.000000
     9  C    6.332480   5.024885   4.334562   0.000000
    10  C    5.279255   4.423322   3.836393   1.396675   0.000000
    11  C    4.236130   3.156883   2.540300   2.390662   1.388112
    12  C    4.454078   2.446619   1.508941   2.825795   2.455596
    13  C    5.660615   3.438259   2.549613   2.392418   2.768175
    14  C    6.509426   4.635325   3.843686   1.394883   2.425416
    15  H    7.220443   6.074100   5.419453   1.084900   2.151178
    16  H    5.484712   5.152217   4.683008   2.175019   1.083762
    17  H    7.482296   5.474581   4.693543   2.173123   3.418469
    18  F    3.402801   3.150387   2.823813   3.624147   2.358544
    19  F    6.302136   3.695437   2.849170   3.623752   4.123066
    20  H    5.352625   2.819327   3.145317   6.336810   6.307919
    21  H    6.295398   4.088026   4.456030   8.040136   7.954100
    22  H    5.117259   3.364488   4.263870   7.614669   7.411420
    23  H    4.858284   3.458859   4.074711   8.281920   7.778681
    24  H    5.040516   2.873996   2.851371   7.080400   6.686854
    25  H    3.367874   3.005865   4.364551   7.752735   7.178745
    26  H    2.032724   3.835373   5.235895   7.770140   6.904131
    27  H    2.081843   2.664402   4.067468   6.262485   5.580980
    28  H    0.975998   2.089372   3.014642   5.471529   4.441211
    29  H    3.885958   2.078723   1.095479   4.811385   4.093425
    30  H    4.854612   2.160233   1.097307   4.809996   4.574875
    31  H    2.918909   2.054036   2.632888   6.701017   5.888248
    32  C    3.107359   3.773727   4.918480   8.634107   7.778976
    33  H    2.769217   3.934267   4.931668   8.530155   7.540877
    34  H    3.580544   4.628747   5.881612   9.396410   8.540344
    35  H    4.057674   4.165150   5.130691   9.143381   8.354427
    36  H    3.346170   1.018287   2.042830   4.947217   4.571284
                   11         12         13         14         15
    11  C    0.000000
    12  C    1.397045   0.000000
    13  C    2.360799   1.395600   0.000000
    14  C    2.765714   2.454745   1.390423   0.000000
    15  H    3.376861   3.910692   3.378731   2.149811   0.000000
    16  H    2.142731   3.422730   3.851540   3.418364   2.508474
    17  H    3.849103   3.421559   2.143995   1.083781   2.506614
    18  F    1.354421   2.354654   3.597707   4.120132   4.504635
    19  F    3.601273   2.358387   1.354943   2.358244   4.503332
    20  H    5.262968   4.022936   4.118401   5.364469   7.321818
    21  H    6.818083   5.585168   5.761794   7.045797   9.040827
    22  H    6.311260   5.276697   5.600641   6.801566   8.591380
    23  H    6.448854   5.520004   6.254952   7.616238   9.352780
    24  H    5.380139   4.298077   4.939227   6.329293   8.156565
    25  H    6.016942   5.403729   6.172333   7.315140   8.730989
    26  H    5.924598   5.899791   6.897571   7.778997   8.628748
    27  H    4.666740   4.508068   5.331046   6.163791   7.122862
    28  H    3.315874   3.490158   4.730010   5.606066   6.403674
    29  H    2.743750   2.136723   3.334049   4.522038   5.875693
    30  H    3.403323   2.132634   2.649463   4.031080   5.874811
    31  H    4.512906   3.991028   5.143050   6.398648   7.763655
    32  C    6.505171   6.129963   7.208498   8.393742   9.643562
    33  H    6.272407   6.085616   7.294720   8.434725   9.525455
    34  H    7.328403   7.012814   8.055055   9.190216  10.371599
    35  H    7.024227   6.487871   7.508762   8.778749  10.187808
    36  H    3.484866   2.653124   3.281216   4.415384   5.951612
                   16         17         18         19         20
    16  H    0.000000
    17  H    4.333693   0.000000
    18  F    2.585506   5.203501   0.000000
    19  F    5.206451   2.582380   4.710783   0.000000
    20  H    7.260385   5.747108   5.725793   3.375247   0.000000
    21  H    8.884990   7.388575   7.110882   4.910212   1.761523
    22  H    8.249373   7.249318   6.504263   5.043568   1.769233
    23  H    8.523917   8.257217   6.258398   5.859580   3.084355
    24  H    7.518988   6.943823   5.395903   4.486379   2.509737
    25  H    7.785182   8.007977   5.774530   6.094183   3.455174
    26  H    7.176002   8.627407   5.316392   7.289857   5.531039
    27  H    6.010179   6.952639   4.409361   5.715734   4.322563
    28  H    4.751964   6.594379   2.565787   5.413030   4.811244
    29  H    4.787002   5.432701   2.606530   3.744776   3.997712
    30  H    5.512074   4.692618   3.859615   2.419527   2.615311
    31  H    6.458063   7.273756   3.986822   5.301570   3.821914
    32  C    8.219345   9.236413   5.844088   7.310961   4.979169
    33  H    7.872604   9.353258   5.420283   7.557474   5.622940
    34  H    8.930309  10.016200   6.653101   8.161194   5.686493
    35  H    8.872347   9.575926   6.432851   7.450303   4.899670
    36  H    5.371231   5.132155   3.761281   3.377326   2.313470
                   21         22         23         24         25
    21  H    0.000000
    22  H    1.764007   0.000000
    23  H    2.470375   2.559693   0.000000
    24  H    2.495353   3.083646   1.746227   0.000000
    25  H    3.719795   2.254842   2.718832   3.721665   0.000000
    26  H    6.171115   4.667455   4.846819   5.616082   2.532532
    27  H    5.366154   3.845101   4.634558   4.964896   2.365791
    28  H    5.914843   4.889606   4.670257   4.524603   3.516768
    29  H    5.050951   4.959610   4.200519   2.985119   4.773619
    30  H    3.809722   4.019717   3.854574   2.347733   4.642532
    31  H    4.308407   3.890399   2.512922   2.376244   3.021576
    32  C    4.984560   4.041115   2.895024   4.067052   2.153941
    33  H    5.776082   4.931536   3.561505   4.434089   3.059029
    34  H    5.611059   4.493066   3.699021   5.041899   2.447201
    35  H    4.557031   3.953626   2.258260   3.655539   2.577095
    36  H    3.804289   2.883201   3.734495   3.253930   2.905045
                   26         27         28         29         30
    26  H    0.000000
    27  H    1.764235   0.000000
    28  H    2.797569   2.233673   0.000000
    29  H    5.430521   4.552344   3.015716   0.000000
    30  H    5.955638   4.770265   4.006348   1.765058   0.000000
    31  H    3.872177   3.614936   2.555577   2.349812   3.076080
    32  C    2.642226   3.462419   3.517056   4.839231   5.339223
    33  H    2.848994   3.781735   3.232316   4.639743   5.490091
    34  H    2.491356   3.709626   4.184977   5.868288   6.319038
    35  H    3.698234   4.333789   4.313246   5.007823   5.351034
    36  H    3.950662   2.476089   2.709848   2.926109   2.457993
                   31         32         33         34         35
    31  H    0.000000
    32  C    2.548039   0.000000
    33  H    2.464957   1.095129   0.000000
    34  H    3.621414   1.095093   1.771448   0.000000
    35  H    2.673788   1.094649   1.772854   1.767052   0.000000
    36  H    2.919047   4.218872   4.574476   4.934317   4.620822
                   36
    36  H    0.000000
 Stoichiometry    C13H19F2NO
 Framework group  C1[X(C13H19F2NO)]
 Deg. of freedom   102
 Full point group                 C1      NOp   1
 Largest Abelian subgroup         C1      NOp   1
 Largest concise Abelian subgroup C1      NOp   1
                         Standard orientation:                         
 ---------------------------------------------------------------------
 Center     Atomic      Atomic             Coordinates (Angstroms)
 Number     Number       Type             X           Y           Z
 ---------------------------------------------------------------------
      1          6           0        2.132721    2.800805   -0.487157
      2          6           0        2.427006    1.858701    0.686926
      3          6           0        2.072973    0.369951    0.440405
      4          6           0        3.091828   -0.335965   -0.503609
      5          6           0        2.476722   -1.547745   -1.234034
      6          8           0        1.800803   -2.441258   -0.359491
      7          7           0        0.686663    0.141555   -0.018799
      8          6           0       -0.353521    0.568781    0.928662
      9          6           0       -4.254096   -0.597707   -0.559036
     10          6           0       -3.394665   -1.563845   -0.031160
     11          6           0       -2.155042   -1.154428    0.440612
     12          6           0       -1.719344    0.172834    0.424027
     13          6           0       -2.616233    1.091005   -0.123928
     14          6           0       -3.871277    0.742629   -0.610524
     15          1           0       -5.228247   -0.893070   -0.934267
     16          1           0       -3.668274   -2.611358    0.017788
     17          1           0       -4.519048    1.509639   -1.018776
     18          9           0       -1.317152   -2.085382    0.956094
     19          9           0       -2.240347    2.391428   -0.182921
     20          1           0        1.061597    2.848296   -0.712761
     21          1           0        2.457299    3.818882   -0.251309
     22          1           0        2.652670    2.495823   -1.401555
     23          1           0        3.489806    1.922190    0.948376
     24          1           0        1.884891    2.213896    1.571643
     25          1           0        3.403390    0.372866   -1.284150
     26          1           0        3.276842   -2.118777   -1.719373
     27          1           0        1.802861   -1.200905   -2.031493
     28          1           0        1.032251   -1.918594   -0.061625
     29          1           0       -0.158328    0.059380    1.878654
     30          1           0       -0.350556    1.647098    1.131907
     31          1           0        2.135181   -0.143549    1.409338
     32          6           0        4.336734   -0.766201    0.287745
     33          1           0        4.080440   -1.589971    0.962298
     34          1           0        5.126479   -1.114809   -0.386052
     35          1           0        4.750685    0.049658    0.888808
     36          1           0        0.531653    0.605178   -0.912070
 ---------------------------------------------------------------------
 Rotational constants (GHZ):      0.7190719      0.2843355      0.2221421
 Standard basis: 6-311G(d) (5D, 7F)
 There are   380 symmetry adapted cartesian basis functions of A   symmetry.
 There are   363 symmetry adapted basis functions of A   symmetry.
   363 basis functions,   639 primitive gaussians,   380 cartesian basis functions
    65 alpha electrons       65 beta electrons
       nuclear repulsion energy      1283.0671369730 Hartrees.
 NAtoms=   36 NActive=   36 NUniq=   36 SFac= 1.00D+00 NAtFMM=   60 NAOKFM=F Big=F
 Integral buffers will be    131072 words long.
 Raffenetti 2 integral format.
 Two-electron integral symmetry is turned on.
 ------------------------------------------------------------------------------
 Polarizable Continuum Model (PCM)
 =================================
 Model                : PCM (using non-symmetric T matrix).
 Atomic radii         : UFF (Universal Force Field).
 Polarization charges : Total charges.
 Charge compensation  : None.
 Solution method      : On-the-fly selection.
 Cavity type          : Scaled VdW (van der Waals Surface) (Alpha=1.100).
 Cavity algorithm     : GePol (No added spheres)
                        Default sphere list used, NSphG=   36.
                        Lebedev-Laikov grids with approx.  5.0 points / Ang**2.
                        Smoothing algorithm: Karplus/York (Gamma=1.0000).
                        Polarization charges: spherical gaussians, with
                                              point-specific exponents (IZeta= 3).
                        Self-potential: point-specific (ISelfS= 7).
                        Self-field    : sphere-specific E.n sum rule (ISelfD= 2).
 Solvent              : Chloroform, Eps=   4.711300 Eps(inf)=   2.090627
 ------------------------------------------------------------------------------
 One-electron integrals computed using PRISM.
 NBasis=   363 RedAO= T EigKep=  2.28D-04  NBF=   363
 NBsUse=   363 1.00D-06 EigRej= -1.00D+00 NBFU=   363
 ExpMin= 1.03D-01 ExpMax= 1.14D+04 ExpMxC= 1.72D+03 IAcc=1 IRadAn=         1 AccDes= 0.00D+00
 Harris functional with IExCor=  908 and IRadAn=       1 diagonalized for initial guess.
 HarFok:  IExCor=  908 AccDes= 0.00D+00 IRadAn=         1 IDoV= 1 UseB2=F ITyADJ=14
 ICtDFT=  3500011 ScaDFX=  1.000000  1.000000  1.000000  1.000000
 FoFCou: FMM=F IPFlag=           0 FMFlag=      100000 FMFlg1=           0
         NFxFlg=           0 DoJE=T BraDBF=F KetDBF=T FulRan=T
         wScrn=  0.000000 ICntrl=     500 IOpCl=  0 I1Cent=   200000004 NGrid=           0
         NMat0=    1 NMatS0=      1 NMatT0=    0 NMatD0=    1 NMtDS0=    0 NMtDT0=    0
 Petite list used in FoFCou.
 Requested convergence on RMS density matrix=1.00D-08 within 128 cycles.
 Requested convergence on MAX density matrix=1.00D-06.
 Requested convergence on             energy=1.00D-06.
 No special actions if energy rises.
 Inv3:  Mode=1 IEnd=    18213888.
 Iteration    1 A*A^-1 deviation from unit magnitude is 8.88D-15 for    726.
 Iteration    1 A*A^-1 deviation from orthogonality  is 6.66D-15 for   2313    364.
 Iteration    1 A^-1*A deviation from unit magnitude is 8.22D-15 for   1882.
 Iteration    1 A^-1*A deviation from orthogonality  is 4.31D-10 for   2260   2241.
 Iteration    2 A*A^-1 deviation from unit magnitude is 9.77D-15 for    531.
 Iteration    2 A*A^-1 deviation from orthogonality  is 6.13D-15 for    586    458.
 Iteration    2 A^-1*A deviation from unit magnitude is 1.44D-15 for     32.
 Iteration    2 A^-1*A deviation from orthogonality  is 6.66D-16 for   2108    825.
 Error on total polarization charges =  0.00968
 SCF Done:  E(RmPW1PW91) =  -836.466928503     A.U. after   12 cycles
            NFock= 12  Conv=0.75D-08     -V/T= 2.0039
 DoSCS=F DFT=T ScalE2(SS,OS)=  1.000000  1.000000
 Range of M.O.s used for correlation:     1   363
 NBasis=   363 NAE=    65 NBE=    65 NFC=     0 NFV=     0
 NROrb=    363 NOA=    65 NOB=    65 NVA=   298 NVB=   298

 **** Warning!!: The largest alpha MO coefficient is  0.10812776D+02

 NEqPCM:  Using equilibrium solvation (IEInf=0, Eps=   4.7113, EpsInf=   2.0906)
          Differentiating once with respect to magnetic field using GIAOs.
          Electric field/nuclear overlap derivatives assumed to be zero.
 FoFJK:  IHMeth= 1 ICntrl=    6127 DoSepK=F KAlg= 0 I1Cent=   0 FoldK=F
 IRaf=         1 NMat=   1 IRICut=       1 DoRegI=T DoRafI=F ISym2E= 0.
          There are     3 degrees of freedom in the 1st order CPHF.  IDoFFX=0 NUNeed=     3.
      3 vectors produced by pass  0 Test12= 6.46D-13 3.33D-08 XBig12= 5.08D+01 1.83D+00.
 AX will form     3 AO Fock derivatives at one time.
      3 vectors produced by pass  1 Test12= 6.46D-13 3.33D-08 XBig12= 1.61D-01 1.64D-01.
      3 vectors produced by pass  2 Test12= 6.46D-13 3.33D-08 XBig12= 8.08D-04 6.34D-03.
      3 vectors produced by pass  3 Test12= 6.46D-13 3.33D-08 XBig12= 1.66D-06 2.52D-04.
      3 vectors produced by pass  4 Test12= 6.46D-13 3.33D-08 XBig12= 3.17D-09 1.56D-05.
      3 vectors produced by pass  5 Test12= 6.46D-13 3.33D-08 XBig12= 1.36D-11 7.50D-07.
 InvSVY:  IOpt=1 It=  1 EMax= 8.88D-16
 Solved reduced A of dimension    18 with     3 vectors.
 Calculating GIAO nuclear magnetic shielding tensors.
 SCF GIAO Magnetic shielding tensor (ppm):
      1  C    Isotropic =   182.0956   Anisotropy =    12.2544
   XX=   176.2659   YX=    -2.5260   ZX=     0.7504
   XY=    -1.2838   YY=   183.4458   ZY=    -4.6360
   XZ=     2.1203   YZ=    -4.6155   ZZ=   186.5751
   Eigenvalues:   175.7822   180.2394   190.2652
      2  C    Isotropic =   166.2254   Anisotropy =    20.3170
   XX=   155.2628   YX=     3.8078   ZX=     1.6915
   XY=     2.5406   YY=   177.6366   ZY=    -2.9858
   XZ=     9.4924   YZ=    -7.8230   ZZ=   165.7769
   Eigenvalues:   151.8204   167.0858   179.7701
      3  C    Isotropic =   125.0965   Anisotropy =    43.9841
   XX=   152.0880   YX=    -5.4097   ZX=     6.5972
   XY=   -10.6140   YY=   112.5576   ZY=     0.7474
   XZ=     5.9946   YZ=     3.3578   ZZ=   110.6438
   Eigenvalues:   107.1954   113.6748   154.4192
      4  C    Isotropic =   149.7688   Anisotropy =    16.6749
   XX=   154.4011   YX=     3.3388   ZX=    -4.8596
   XY=     6.1821   YY=   155.0532   ZY=     9.6630
   XZ=    -7.3859   YZ=    11.2683   ZZ=   139.8522
   Eigenvalues:   131.9282   156.4929   160.8854
      5  C    Isotropic =   121.0793   Anisotropy =    48.3969
   XX=   114.7049   YX=    22.8184   ZX=   -12.5728
   XY=    25.5719   YY=   124.1147   ZY=    -7.6489
   XZ=   -17.5849   YZ=    -9.4882   ZZ=   124.4184
   Eigenvalues:    93.2876   116.6065   153.3440
      6  O    Isotropic =   318.5381   Anisotropy =    76.7420
   XX=   337.6756   YX=    -9.2381   ZX=   -27.8274
   XY=   -40.5573   YY=   317.6766   ZY=    24.2321
   XZ=   -22.6955   YZ=    16.9184   ZZ=   300.2623
   Eigenvalues:   284.6650   301.2499   369.6995
      7  N    Isotropic =   207.0454   Anisotropy =    45.0582
   XX=   236.5511   YX=    -0.9211   ZX=     8.8203
   XY=     2.9657   YY=   164.6359   ZY=    10.5706
   XZ=   -14.8521   YZ=     5.5882   ZZ=   219.9493
   Eigenvalues:   163.4516   220.6005   237.0842
      8  C    Isotropic =   147.5586   Anisotropy =    49.7763
   XX=   160.8420   YX=    -2.8311   ZX=   -18.9921
   XY=    -6.8402   YY=   125.9617   ZY=     5.6996
   XZ=   -22.8014   YZ=     9.2022   ZZ=   155.8721
   Eigenvalues:   124.2081   137.7249   180.7428
      9  C    Isotropic =    53.5068   Anisotropy =   189.0944
   XX=   -12.1808   YX=   -29.0496   ZX=   -78.9381
   XY=   -28.3543   YY=    29.3974   ZY=    11.8670
   XZ=   -78.7200   YZ=    11.9872   ZZ=   143.3039
   Eigenvalues:   -51.2499    32.2007   179.5698
     10  C    Isotropic =    71.8809   Anisotropy =   147.0349
   XX=    73.2502   YX=   -17.3421   ZX=   -39.7155
   XY=   -24.7237   YY=    -7.0639   ZY=    17.5353
   XZ=   -39.1030   YZ=    20.2651   ZZ=   149.4565
   Eigenvalues:   -12.8004    58.5390   169.9042
     11  C    Isotropic =    16.7179   Anisotropy =    98.5287
   XX=     5.6044   YX=    44.3340   ZX=   -42.3849
   XY=    36.9971   YY=   -16.2054   ZY=    31.7814
   XZ=   -36.1771   YZ=    31.7326   ZZ=    60.7546
   Eigenvalues:   -66.5489    34.2988    82.4037
     12  C    Isotropic =    66.1826   Anisotropy =   137.6493
   XX=    40.8457   YX=   -10.8586   ZX=   -53.3044
   XY=   -12.1634   YY=    27.3020   ZY=    18.4842
   XZ=   -50.2899   YZ=    20.3497   ZZ=   130.4000
   Eigenvalues:    16.3682    24.2307   157.9488
     13  C    Isotropic =    19.2352   Anisotropy =    96.2878
   XX=    37.0540   YX=   -31.6041   ZX=   -15.5801
   XY=   -25.1847   YY=   -53.2967   ZY=    12.3359
   XZ=   -15.5486   YZ=    13.6708   ZZ=    73.9484
   Eigenvalues:   -61.9840    36.2626    83.4271
     14  C    Isotropic =    72.5564   Anisotropy =   146.0545
   XX=    52.7667   YX=    19.3815   ZX=   -54.6260
   XY=    26.5592   YY=    24.8223   ZY=    35.3156
   XZ=   -55.9389   YZ=    32.3490   ZZ=   140.0804
   Eigenvalues:   -11.2369    58.9801   169.9261
     15  H    Isotropic =    24.6002   Anisotropy =     3.0999
   XX=    25.5099   YX=     0.1644   ZX=     1.7559
   XY=     0.1571   YY=    26.4815   ZY=    -0.8690
   XZ=     1.6838   YZ=    -0.8334   ZZ=    21.8092
   Eigenvalues:    21.0011    26.1327    26.6668
     16  H    Isotropic =    25.0749   Anisotropy =     5.3272
   XX=    27.6946   YX=     1.0699   ZX=     2.2548
   XY=     0.7162   YY=    25.3483   ZY=    -0.5465
   XZ=     2.1940   YZ=    -0.4017   ZZ=    22.1819
   Eigenvalues:    21.2586    25.3398    28.6264
     17  H    Isotropic =    25.1463   Anisotropy =     4.9211
   XX=    27.4080   YX=     0.8776   ZX=     2.2158
   XY=     1.0075   YY=    25.8446   ZY=    -0.2702
   XZ=     2.1030   YZ=    -0.3483   ZZ=    22.1864
   Eigenvalues:    21.3250    25.6868    28.4271
     18  F    Isotropic =   299.1435   Anisotropy =   129.1474
   XX=   258.3777   YX=   -32.6848   ZX=   -41.3797
   XY=   -47.0477   YY=   263.6421   ZY=    -7.2136
   XZ=   -29.0455   YZ=    -9.9084   ZZ=   375.4106
   Eigenvalues:   214.7145   297.4741   385.2417
     19  F    Isotropic =   299.4273   Anisotropy =   117.1123
   XX=   250.1780   YX=    10.4333   ZX=   -61.1107
   XY=    12.6619   YY=   300.8129   ZY=    17.6496
   XZ=   -57.3798   YZ=    21.3787   ZZ=   347.2911
   Eigenvalues:   217.8273   302.9525   377.5022
     20  H    Isotropic =    31.1909   Anisotropy =     8.3955
   XX=    35.5926   YX=    -0.7480   ZX=     2.2052
   XY=    -1.3104   YY=    30.8381   ZY=    -3.0436
   XZ=     2.3291   YZ=    -3.4576   ZZ=    27.1419
   Eigenvalues:    25.0431    31.7417    36.7879
     21  H    Isotropic =    31.1690   Anisotropy =    11.6093
   XX=    27.6800   YX=     2.4215   ZX=     0.6675
   XY=     2.6402   YY=    38.3242   ZY=    -0.2226
   XZ=     0.5341   YZ=    -0.8454   ZZ=    27.5030
   Eigenvalues:    26.5707    28.0278    38.9086
     22  H    Isotropic =    31.4507   Anisotropy =     8.1842
   XX=    29.1988   YX=    -0.1945   ZX=    -3.7640
   XY=    -0.7561   YY=    30.7358   ZY=    -1.7616
   XZ=    -4.4854   YZ=    -1.3797   ZZ=    34.4175
   Eigenvalues:    26.5846    30.8607    36.9068
     23  H    Isotropic =    30.6923   Anisotropy =     8.6509
   XX=    33.9101   YX=     0.6868   ZX=     4.4524
   XY=     0.5757   YY=    30.8743   ZY=     0.6580
   XZ=     4.9059   YZ=     0.5716   ZZ=    27.2925
   Eigenvalues:    24.8595    30.7578    36.4596
     24  H    Isotropic =    30.0453   Anisotropy =     6.9732
   XX=    27.4190   YX=     0.7284   ZX=    -1.6368
   XY=    -0.0355   YY=    30.0578   ZY=     2.7934
   XZ=    -2.2116   YZ=     2.7003   ZZ=    32.6590
   Eigenvalues:    26.2982    29.1435    34.6941
     25  H    Isotropic =    30.7315   Anisotropy =     5.1107
   XX=    30.0226   YX=     0.1929   ZX=    -2.4953
   XY=    -0.5767   YY=    32.0907   ZY=    -2.0624
   XZ=    -2.4364   YZ=    -2.7550   ZZ=    30.0811
   Eigenvalues:    26.8834    31.1724    34.1386
     26  H    Isotropic =    28.8528   Anisotropy =     7.6426
   XX=    28.3624   YX=    -0.6770   ZX=    -3.2085
   XY=     0.8309   YY=    28.5944   ZY=     2.2524
   XZ=    -4.4924   YZ=     3.8723   ZZ=    29.6015
   Eigenvalues:    24.0306    28.5799    33.9478
     27  H    Isotropic =    28.2626   Anisotropy =     5.3299
   XX=    26.1585   YX=     1.3130   ZX=     0.3823
   XY=     0.6868   YY=    26.9159   ZY=    -0.1816
   XZ=     1.0655   YZ=     0.3560   ZZ=    31.7135
   Eigenvalues:    25.4198    27.5522    31.8159
     28  H    Isotropic =    29.0605   Anisotropy =    22.1923
   XX=    36.2213   YX=    -7.2225   ZX=    -6.8427
   XY=    -6.2194   YY=    32.2442   ZY=     1.7801
   XZ=    -9.4300   YZ=     3.2603   ZZ=    18.7159
   Eigenvalues:    15.5175    27.8086    43.8553
     29  H    Isotropic =    28.7651   Anisotropy =     5.4651
   XX=    28.4849   YX=     1.2056   ZX=    -1.8984
   XY=     1.4201   YY=    26.2231   ZY=    -1.3148
   XZ=     0.8853   YZ=    -2.5141   ZZ=    31.5872
   Eigenvalues:    25.2281    28.6586    32.4084
     30  H    Isotropic =    28.0303   Anisotropy =     7.1102
   XX=    30.7428   YX=    -2.1930   ZX=    -1.1324
   XY=    -1.2390   YY=    30.0991   ZY=     2.0125
   XZ=     0.0614   YZ=     3.8441   ZZ=    23.2491
   Eigenvalues:    22.1669    29.1536    32.7705
     31  H    Isotropic =    29.3098   Anisotropy =     3.2011
   XX=    30.1986   YX=    -1.0148   ZX=     1.4666
   XY=    -0.5541   YY=    28.9671   ZY=    -1.2988
   XZ=     0.1240   YZ=    -1.8498   ZZ=    28.7637
   Eigenvalues:    27.2871    29.1985    31.4439
     32  C    Isotropic =   169.3201   Anisotropy =    31.6526
   XX=   181.0642   YX=   -15.4131   ZX=     5.0343
   XY=   -15.0070   YY=   157.9059   ZY=     1.7153
   XZ=    11.6208   YZ=     4.4495   ZZ=   168.9902
   Eigenvalues:   148.2626   169.2758   190.4219
     33  H    Isotropic =    30.6156   Anisotropy =     7.4780
   XX=    30.4517   YX=    -1.4902   ZX=     2.4570
   XY=    -0.5675   YY=    31.5936   ZY=    -3.6206
   XZ=     1.6022   YZ=    -4.2877   ZZ=    29.8015
   Eigenvalues:    26.3920    29.8538    35.6009
     34  H    Isotropic =    31.2690   Anisotropy =    11.5256
   XX=    36.8219   YX=    -3.7898   ZX=    -3.0745
   XY=    -2.9704   YY=    28.0898   ZY=     1.8471
   XZ=    -2.6641   YZ=     0.7249   ZZ=    28.8954
   Eigenvalues:    26.8619    27.9924    38.9528
     35  H    Isotropic =    31.2435   Anisotropy =     8.0307
   XX=    33.7323   YX=     0.4864   ZX=     4.0406
   XY=     0.4364   YY=    31.1354   ZY=     2.5532
   XZ=     3.8073   YZ=     3.3147   ZZ=    28.8627
   Eigenvalues:    25.6241    31.5091    36.5972
     36  H    Isotropic =    31.2556   Anisotropy =     6.8813
   XX=    33.0146   YX=    -1.2253   ZX=     1.6912
   XY=    -0.8249   YY=    26.7261   ZY=    -2.5701
   XZ=    -0.4459   YZ=    -4.6451   ZZ=    34.0259
   Eigenvalues:    25.1788    32.7448    35.8431
 End of Minotr F.D. properties file   721 does not exist.
 End of Minotr F.D. properties file   722 does not exist.
 End of Minotr F.D. properties file   788 does not exist.

 **********************************************************************

            Population analysis using the SCF density.

 **********************************************************************

 Orbital symmetries:
       Occupied  (A) (A) (A) (A) (A) (A) (A) (A) (A) (A) (A) (A)
                 (A) (A) (A) (A) (A) (A) (A) (A) (A) (A) (A) (A)
                 (A) (A) (A) (A) (A) (A) (A) (A) (A) (A) (A) (A)
                 (A) (A) (A) (A) (A) (A) (A) (A) (A) (A) (A) (A)
                 (A) (A) (A) (A) (A) (A) (A) (A) (A) (A) (A) (A)
                 (A) (A) (A) (A) (A)
       Virtual   (A) (A) (A) (A) (A) (A) (A) (A) (A) (A) (A) (A)
                 (A) (A) (A) (A) (A) (A) (A) (A) (A) (A) (A) (A)
                 (A) (A) (A) (A) (A) (A) (A) (A) (A) (A) (A) (A)
                 (A) (A) (A) (A) (A) (A) (A) (A) (A) (A) (A) (A)
                 (A) (A) (A) (A) (A) (A) (A) (A) (A) (A) (A) (A)
                 (A) (A) (A) (A) (A) (A) (A) (A) (A) (A) (A) (A)
                 (A) (A) (A) (A) (A) (A) (A) (A) (A) (A) (A) (A)
                 (A) (A) (A) (A) (A) (A) (A) (A) (A) (A) (A) (A)
                 (A) (A) (A) (A) (A) (A) (A) (A) (A) (A) (A) (A)
                 (A) (A) (A) (A) (A) (A) (A) (A) (A) (A) (A) (A)
                 (A) (A) (A) (A) (A) (A) (A) (A) (A) (A) (A) (A)
                 (A) (A) (A) (A) (A) (A) (A) (A) (A) (A) (A) (A)
                 (A) (A) (A) (A) (A) (A) (A) (A) (A) (A) (A) (A)
                 (A) (A) (A) (A) (A) (A) (A) (A) (A) (A) (A) (A)
                 (A) (A) (A) (A) (A) (A) (A) (A) (A) (A) (A) (A)
                 (A) (A) (A) (A) (A) (A) (A) (A) (A) (A) (A) (A)
                 (A) (A) (A) (A) (A) (A) (A) (A) (A) (A) (A) (A)
                 (A) (A) (A) (A) (A) (A) (A) (A) (A) (A) (A) (A)
                 (A) (A) (A) (A) (A) (A) (A) (A) (A) (A) (A) (A)
                 (A) (A) (A) (A) (A) (A) (A) (A) (A) (A) (A) (A)
                 (A) (A) (A) (A) (A) (A) (A) (A) (A) (A) (A) (A)
                 (A) (A) (A) (A) (A) (A) (A) (A) (A) (A) (A) (A)
                 (A) (A) (A) (A) (A) (A) (A) (A) (A) (A) (A) (A)
                 (A) (A) (A) (A) (A) (A) (A) (A) (A) (A) (A) (A)
                 (A) (A) (A) (A) (A) (A) (A) (A) (A) (A)
 The electronic state is 1-A.
 Alpha  occ. eigenvalues --  -24.80122 -24.80071 -19.18777 -14.39158 -10.33987
 Alpha  occ. eigenvalues --  -10.33892 -10.27511 -10.26763 -10.26575 -10.26424
 Alpha  occ. eigenvalues --  -10.26310 -10.25487 -10.25447 -10.23509 -10.23029
 Alpha  occ. eigenvalues --  -10.22256 -10.21602  -1.27040  -1.26910  -1.03247
 Alpha  occ. eigenvalues --   -0.94777  -0.90798  -0.83214  -0.80191  -0.78932
 Alpha  occ. eigenvalues --   -0.78091  -0.72064  -0.69156  -0.68141  -0.65993
 Alpha  occ. eigenvalues --   -0.64366  -0.61766  -0.58863  -0.57945  -0.55818
 Alpha  occ. eigenvalues --   -0.52394  -0.51661  -0.50968  -0.50770  -0.49442
 Alpha  occ. eigenvalues --   -0.49102  -0.48636  -0.47932  -0.46701  -0.45886
 Alpha  occ. eigenvalues --   -0.44335  -0.43420  -0.43097  -0.42276  -0.41379
 Alpha  occ. eigenvalues --   -0.40384  -0.39716  -0.38818  -0.38121  -0.38016
 Alpha  occ. eigenvalues --   -0.37661  -0.36678  -0.35812  -0.35098  -0.32864
 Alpha  occ. eigenvalues --   -0.32447  -0.27814  -0.27187  -0.27086  -0.25051
 Alpha virt. eigenvalues --   -0.02498  -0.01016   0.04456   0.05762   0.06598
 Alpha virt. eigenvalues --    0.07124   0.08477   0.09924   0.10309   0.10868
 Alpha virt. eigenvalues --    0.10984   0.11440   0.12637   0.13107   0.13230
 Alpha virt. eigenvalues --    0.14011   0.14285   0.14867   0.15434   0.16512
 Alpha virt. eigenvalues --    0.17302   0.17476   0.18047   0.19369   0.19887
 Alpha virt. eigenvalues --    0.21070   0.22919   0.23385   0.23848   0.24931
 Alpha virt. eigenvalues --    0.25587   0.26694   0.26859   0.29525   0.31082
 Alpha virt. eigenvalues --    0.32636   0.32739   0.33099   0.33850   0.34564
 Alpha virt. eigenvalues --    0.35167   0.37089   0.37725   0.38352   0.39274
 Alpha virt. eigenvalues --    0.39746   0.40233   0.41107   0.41365   0.42621
 Alpha virt. eigenvalues --    0.43011   0.43905   0.44362   0.45335   0.46408
 Alpha virt. eigenvalues --    0.48049   0.48787   0.49027   0.50012   0.51527
 Alpha virt. eigenvalues --    0.52358   0.53443   0.54335   0.54636   0.55595
 Alpha virt. eigenvalues --    0.56406   0.57170   0.57972   0.58820   0.59544
 Alpha virt. eigenvalues --    0.59703   0.60577   0.60817   0.60965   0.62013
 Alpha virt. eigenvalues --    0.62638   0.63064   0.63283   0.63455   0.64171
 Alpha virt. eigenvalues --    0.64562   0.65421   0.65858   0.66052   0.66784
 Alpha virt. eigenvalues --    0.67391   0.68691   0.70473   0.70603   0.71570
 Alpha virt. eigenvalues --    0.72053   0.72747   0.73345   0.74194   0.75799
 Alpha virt. eigenvalues --    0.76916   0.78491   0.81720   0.82362   0.85971
 Alpha virt. eigenvalues --    0.87497   0.89801   0.91304   0.94343   0.95115
 Alpha virt. eigenvalues --    0.95858   0.96853   0.97923   0.99253   0.99745
 Alpha virt. eigenvalues --    1.01408   1.02691   1.04499   1.06560   1.07887
 Alpha virt. eigenvalues --    1.09853   1.10412   1.12445   1.14320   1.15196
 Alpha virt. eigenvalues --    1.16036   1.18664   1.18965   1.23235   1.24370
 Alpha virt. eigenvalues --    1.27403   1.27816   1.28401   1.28963   1.31494
 Alpha virt. eigenvalues --    1.32937   1.36610   1.38220   1.41494   1.44605
 Alpha virt. eigenvalues --    1.45221   1.47228   1.48177   1.48771   1.49956
 Alpha virt. eigenvalues --    1.51353   1.52098   1.53005   1.54722   1.55277
 Alpha virt. eigenvalues --    1.55889   1.57321   1.58142   1.58894   1.61416
 Alpha virt. eigenvalues --    1.62097   1.62797   1.63231   1.66378   1.66993
 Alpha virt. eigenvalues --    1.68148   1.69277   1.70079   1.72259   1.73721
 Alpha virt. eigenvalues --    1.75806   1.76962   1.78806   1.79767   1.81797
 Alpha virt. eigenvalues --    1.83706   1.84411   1.85318   1.88132   1.89479
 Alpha virt. eigenvalues --    1.89992   1.90745   1.92203   1.94639   1.94909
 Alpha virt. eigenvalues --    1.97353   1.99148   2.01323   2.03543   2.05154
 Alpha virt. eigenvalues --    2.06325   2.11313   2.13358   2.17254   2.18707
 Alpha virt. eigenvalues --    2.20444   2.23553   2.25717   2.27082   2.28313
 Alpha virt. eigenvalues --    2.29077   2.31023   2.35614   2.37561   2.39387
 Alpha virt. eigenvalues --    2.40637   2.41816   2.43274   2.46369   2.46765
 Alpha virt. eigenvalues --    2.47435   2.49093   2.51072   2.53028   2.54106
 Alpha virt. eigenvalues --    2.56478   2.57136   2.58100   2.59926   2.65258
 Alpha virt. eigenvalues --    2.66410   2.68530   2.69714   2.70450   2.74009
 Alpha virt. eigenvalues --    2.76771   2.82548   2.83922   2.84405   2.87345
 Alpha virt. eigenvalues --    2.89713   2.94289   2.96684   3.00894   3.05494
 Alpha virt. eigenvalues --    3.05851   3.07925   3.08468   3.09782   3.12018
 Alpha virt. eigenvalues --    3.13585   3.15578   3.17195   3.20324   3.22372
 Alpha virt. eigenvalues --    3.22651   3.24521   3.24960   3.28603   3.29336
 Alpha virt. eigenvalues --    3.29614   3.32550   3.33407   3.36776   3.40934
 Alpha virt. eigenvalues --    3.46570   3.48158   3.52325   3.61567   3.64158
 Alpha virt. eigenvalues --    3.75018   3.78257   3.79947   3.80096   3.80959
 Alpha virt. eigenvalues --    3.86181   3.89265   3.97156   3.97981   3.98888
 Alpha virt. eigenvalues --    3.99304   4.05644   4.08336   4.11316   4.11631
 Alpha virt. eigenvalues --    4.18465   4.20831   4.50331   4.75132   4.77035
 Alpha virt. eigenvalues --    4.77837   4.80235   4.96113   5.08235   5.44642
 Alpha virt. eigenvalues --    6.13456   6.16073   6.30142   6.33574   6.55735
 Alpha virt. eigenvalues --    6.57850  23.28952  23.48159  23.56482  23.70029
 Alpha virt. eigenvalues --   23.71949  23.76605  23.80748  23.85828  23.85955
 Alpha virt. eigenvalues --   23.90640  24.09907  24.10469  24.19560  35.58304
 Alpha virt. eigenvalues --   50.00293  66.89219  66.89861
          Condensed to atoms (all electrons):
               1          2          3          4          5          6
     1  C    5.386207   0.277218  -0.070538  -0.005011  -0.000615  -0.000001
     2  C    0.277218   5.409020   0.300719  -0.080000   0.008722   0.000363
     3  C   -0.070538   0.300719   5.322497   0.278504  -0.056078   0.016235
     4  C   -0.005011  -0.080000   0.278504   5.511630   0.265019  -0.077171
     5  C   -0.000615   0.008722  -0.056078   0.265019   5.159489   0.247650
     6  O   -0.000001   0.000363   0.016235  -0.077171   0.247650   8.219347
     7  N    0.001282  -0.071692   0.264806  -0.047789  -0.003980  -0.026652
     8  C   -0.001631  -0.006743  -0.082134   0.008218   0.000296   0.000415
     9  C    0.000000   0.000000  -0.000001   0.000000   0.000000   0.000000
    10  C    0.000000   0.000001   0.000013  -0.000002   0.000006   0.000006
    11  C   -0.000019   0.000118  -0.000207  -0.000224   0.000337   0.000104
    12  C   -0.000176  -0.000513   0.008279   0.000264  -0.000172  -0.000008
    13  C    0.000109  -0.000215  -0.000002   0.000035  -0.000023   0.000002
    14  C    0.000000  -0.000002   0.000016   0.000000   0.000000   0.000000
    15  H    0.000000   0.000000   0.000000   0.000000   0.000000   0.000000
    16  H    0.000000   0.000000   0.000000   0.000000   0.000001   0.000003
    17  H    0.000000   0.000000   0.000000   0.000000   0.000000   0.000000
    18  F    0.000000   0.000002  -0.000424   0.000048  -0.000258  -0.000644
    19  F   -0.000233  -0.000066   0.000053   0.000000   0.000000   0.000000
    20  H    0.381853  -0.041353  -0.006855   0.000717  -0.000076   0.000013
    21  H    0.391553  -0.033745   0.006511  -0.000080   0.000017   0.000000
    22  H    0.384826  -0.039521  -0.004349   0.002555  -0.000173   0.000007
    23  H   -0.038137   0.390335  -0.039606  -0.004602   0.000228   0.000010
    24  H   -0.044096   0.404596  -0.042010   0.007022  -0.000327   0.000008
    25  H    0.001456  -0.004586  -0.048477   0.378714  -0.038996   0.004624
    26  H   -0.000015  -0.000170   0.008218  -0.044587   0.397935  -0.028491
    27  H   -0.000068   0.000945  -0.008402  -0.057320   0.389978  -0.034153
    28  H   -0.000090   0.001159   0.000966  -0.005487  -0.058437   0.258203
    29  H    0.000427  -0.003546  -0.003155   0.000762  -0.000229   0.000540
    30  H   -0.000068   0.007751  -0.002640  -0.000877   0.000127  -0.000118
    31  H    0.007188  -0.054919   0.414215  -0.046228  -0.002736   0.006411
    32  C    0.000880  -0.002041  -0.086453   0.305461  -0.073950  -0.000471
    33  H   -0.000078   0.001383  -0.009263  -0.044339  -0.011622   0.016010
    34  H    0.000016  -0.000530   0.008273  -0.034381  -0.004705  -0.000309
    35  H    0.000264   0.000075  -0.002801  -0.036443   0.007172  -0.000427
    36  H    0.006507  -0.007504  -0.049368  -0.001159  -0.002448   0.000988
               7          8          9         10         11         12
     1  C    0.001282  -0.001631   0.000000   0.000000  -0.000019  -0.000176
     2  C   -0.071692  -0.006743   0.000000   0.000001   0.000118  -0.000513
     3  C    0.264806  -0.082134  -0.000001   0.000013  -0.000207   0.008279
     4  C   -0.047789   0.008218   0.000000  -0.000002  -0.000224   0.000264
     5  C   -0.003980   0.000296   0.000000   0.000006   0.000337  -0.000172
     6  O   -0.026652   0.000415   0.000000   0.000006   0.000104  -0.000008
     7  N    7.032623   0.277758   0.000058  -0.000070   0.016262  -0.080726
     8  C    0.277758   5.262195  -0.001209   0.007614  -0.086742   0.313980
     9  C    0.000058  -0.001209   5.066084   0.442605  -0.009759  -0.054119
    10  C   -0.000070   0.007614   0.442605   5.160669   0.484823  -0.038536
    11  C    0.016262  -0.086742  -0.009759   0.484823   4.777707   0.231396
    12  C   -0.080726   0.313980  -0.054119  -0.038536   0.231396   5.760010
    13  C   -0.004231  -0.083594  -0.005996  -0.060535   0.046505   0.281852
    14  C   -0.000191   0.009104   0.438861  -0.043789  -0.058046  -0.033676
    15  H   -0.000001   0.000028   0.403138  -0.041236   0.006545  -0.001809
    16  H    0.000018  -0.000255  -0.039603   0.392935  -0.049220   0.011971
    17  H    0.000009  -0.000226  -0.040629   0.006899  -0.001714   0.012276
    18  F   -0.001640   0.001019   0.005099  -0.051981   0.302823  -0.079399
    19  F   -0.000346  -0.005538   0.005461  -0.000476   0.005408  -0.076825
    20  H    0.005686   0.002617  -0.000005   0.000004  -0.000078  -0.001005
    21  H    0.000224  -0.000146   0.000000   0.000000   0.000000   0.000006
    22  H   -0.000460   0.000138   0.000000   0.000000   0.000000   0.000039
    23  H    0.005501   0.000310   0.000000   0.000000  -0.000002   0.000024
    24  H   -0.002944   0.003410   0.000000   0.000000  -0.000027   0.000300
    25  H   -0.001155  -0.000422   0.000000   0.000000  -0.000001   0.000002
    26  H    0.000385   0.000030   0.000000   0.000000   0.000008  -0.000010
    27  H    0.005525  -0.000349   0.000001  -0.000013   0.000077   0.000320
    28  H    0.039176  -0.000276  -0.000031   0.000141   0.000492  -0.004622
    29  H   -0.044507   0.387005  -0.000095   0.000273  -0.015964  -0.028536
    30  H   -0.041177   0.391273  -0.000275   0.000097   0.011154  -0.048594
    31  H   -0.043608  -0.008444   0.000000  -0.000006  -0.000015   0.000185
    32  C    0.004752  -0.000437   0.000000   0.000000   0.000001   0.000007
    33  H    0.000079  -0.000066   0.000000   0.000000  -0.000004   0.000004
    34  H   -0.000236   0.000016   0.000000   0.000000   0.000000   0.000000
    35  H    0.000132  -0.000009   0.000000   0.000000   0.000000   0.000000
    36  H    0.325061  -0.046470  -0.000016  -0.000099  -0.000191  -0.007083
              13         14         15         16         17         18
     1  C    0.000109   0.000000   0.000000   0.000000   0.000000   0.000000
     2  C   -0.000215  -0.000002   0.000000   0.000000   0.000000   0.000002
     3  C   -0.000002   0.000016   0.000000   0.000000   0.000000  -0.000424
     4  C    0.000035   0.000000   0.000000   0.000000   0.000000   0.000048
     5  C   -0.000023   0.000000   0.000000   0.000001   0.000000  -0.000258
     6  O    0.000002   0.000000   0.000000   0.000003   0.000000  -0.000644
     7  N   -0.004231  -0.000191  -0.000001   0.000018   0.000009  -0.001640
     8  C   -0.083594   0.009104   0.000028  -0.000255  -0.000226   0.001019
     9  C   -0.005996   0.438861   0.403138  -0.039603  -0.040629   0.005099
    10  C   -0.060535  -0.043789  -0.041236   0.392935   0.006899  -0.051981
    11  C    0.046505  -0.058046   0.006545  -0.049220  -0.001714   0.302823
    12  C    0.281852  -0.033676  -0.001809   0.011971   0.012276  -0.079399
    13  C    4.776950   0.473451   0.006199  -0.001596  -0.049347   0.005223
    14  C    0.473451   5.174325  -0.040421   0.006682   0.393811  -0.000456
    15  H    0.006199  -0.040421   0.445010  -0.006409  -0.006395  -0.000082
    16  H   -0.001596   0.006682  -0.006409   0.443244  -0.000131   0.001671
    17  H   -0.049347   0.393811  -0.006395  -0.000131   0.445188   0.000004
    18  F    0.005223  -0.000456  -0.000082   0.001671   0.000004   9.044198
    19  F    0.308401  -0.053172  -0.000082   0.000004   0.001417  -0.000001
    20  H    0.000529   0.000045   0.000000   0.000000   0.000000   0.000001
    21  H    0.000000   0.000000   0.000000   0.000000   0.000000   0.000000
    22  H   -0.000004   0.000000   0.000000   0.000000   0.000000   0.000000
    23  H    0.000005   0.000000   0.000000   0.000000   0.000000   0.000000
    24  H    0.000002  -0.000003   0.000000   0.000000   0.000000  -0.000002
    25  H    0.000002   0.000000   0.000000   0.000000   0.000000   0.000001
    26  H    0.000000   0.000000   0.000000   0.000000   0.000000  -0.000007
    27  H   -0.000009  -0.000002   0.000000  -0.000001   0.000000  -0.000061
    28  H   -0.000243   0.000018   0.000001   0.000011   0.000000   0.012790
    29  H    0.007353  -0.000040   0.000002  -0.000032   0.000008   0.006613
    30  H   -0.023118   0.000806   0.000004   0.000013  -0.000030   0.000102
    31  H    0.000028   0.000000   0.000000   0.000000   0.000000  -0.000117
    32  C    0.000000   0.000000   0.000000   0.000000   0.000000   0.000000
    33  H    0.000000   0.000000   0.000000   0.000000   0.000000   0.000000
    34  H    0.000000   0.000000   0.000000   0.000000   0.000000   0.000000
    35  H    0.000000   0.000000   0.000000   0.000000   0.000000   0.000000
    36  H    0.003071  -0.000119   0.000000  -0.000001   0.000000   0.000077
              19         20         21         22         23         24
     1  C   -0.000233   0.381853   0.391553   0.384826  -0.038137  -0.044096
     2  C   -0.000066  -0.041353  -0.033745  -0.039521   0.390335   0.404596
     3  C    0.000053  -0.006855   0.006511  -0.004349  -0.039606  -0.042010
     4  C    0.000000   0.000717  -0.000080   0.002555  -0.004602   0.007022
     5  C    0.000000  -0.000076   0.000017  -0.000173   0.000228  -0.000327
     6  O    0.000000   0.000013   0.000000   0.000007   0.000010   0.000008
     7  N   -0.000346   0.005686   0.000224  -0.000460   0.005501  -0.002944
     8  C   -0.005538   0.002617  -0.000146   0.000138   0.000310   0.003410
     9  C    0.005461  -0.000005   0.000000   0.000000   0.000000   0.000000
    10  C   -0.000476   0.000004   0.000000   0.000000   0.000000   0.000000
    11  C    0.005408  -0.000078   0.000000   0.000000  -0.000002  -0.000027
    12  C   -0.076825  -0.001005   0.000006   0.000039   0.000024   0.000300
    13  C    0.308401   0.000529   0.000000  -0.000004   0.000005   0.000002
    14  C   -0.053172   0.000045   0.000000   0.000000   0.000000  -0.000003
    15  H   -0.000082   0.000000   0.000000   0.000000   0.000000   0.000000
    16  H    0.000004   0.000000   0.000000   0.000000   0.000000   0.000000
    17  H    0.001417   0.000000   0.000000   0.000000   0.000000   0.000000
    18  F   -0.000001   0.000001   0.000000   0.000000   0.000000  -0.000002
    19  F    9.049390   0.002898  -0.000012  -0.000014  -0.000001  -0.000096
    20  H    0.002898   0.486473  -0.027089  -0.029295   0.007271  -0.005959
    21  H   -0.000012  -0.027089   0.462716  -0.026328  -0.004763  -0.003807
    22  H   -0.000014  -0.029295  -0.026328   0.476952  -0.004728   0.006799
    23  H   -0.000001   0.007271  -0.004763  -0.004728   0.484572  -0.032265
    24  H   -0.000096  -0.005959  -0.003807   0.006799  -0.032265   0.485615
    25  H    0.000000   0.000170  -0.000016   0.003881  -0.000959   0.000381
    26  H    0.000000   0.000002  -0.000001   0.000044  -0.000028   0.000017
    27  H   -0.000001  -0.000118  -0.000001  -0.000024  -0.000055  -0.000005
    28  H    0.000001  -0.000054   0.000000  -0.000004  -0.000059  -0.000022
    29  H    0.000136   0.000320   0.000004  -0.000015   0.000089   0.000121
    30  H    0.012096  -0.001952  -0.000079  -0.000049  -0.000344  -0.001166
    31  H    0.000003   0.000050  -0.000154  -0.000127  -0.001437  -0.005757
    32  C    0.000000  -0.000092  -0.000035   0.000149   0.000586  -0.000315
    33  H    0.000000   0.000006   0.000004  -0.000034  -0.000013  -0.000024
    34  H    0.000000   0.000006  -0.000003   0.000009  -0.000044   0.000026
    35  H    0.000000  -0.000022  -0.000012   0.000125   0.004271  -0.000133
    36  H    0.000520   0.001929   0.000154  -0.000694  -0.000067  -0.000433
              25         26         27         28         29         30
     1  C    0.001456  -0.000015  -0.000068  -0.000090   0.000427  -0.000068
     2  C   -0.004586  -0.000170   0.000945   0.001159  -0.003546   0.007751
     3  C   -0.048477   0.008218  -0.008402   0.000966  -0.003155  -0.002640
     4  C    0.378714  -0.044587  -0.057320  -0.005487   0.000762  -0.000877
     5  C   -0.038996   0.397935   0.389978  -0.058437  -0.000229   0.000127
     6  O    0.004624  -0.028491  -0.034153   0.258203   0.000540  -0.000118
     7  N   -0.001155   0.000385   0.005525   0.039176  -0.044507  -0.041177
     8  C   -0.000422   0.000030  -0.000349  -0.000276   0.387005   0.391273
     9  C    0.000000   0.000000   0.000001  -0.000031  -0.000095  -0.000275
    10  C    0.000000   0.000000  -0.000013   0.000141   0.000273   0.000097
    11  C   -0.000001   0.000008   0.000077   0.000492  -0.015964   0.011154
    12  C    0.000002  -0.000010   0.000320  -0.004622  -0.028536  -0.048594
    13  C    0.000002   0.000000  -0.000009  -0.000243   0.007353  -0.023118
    14  C    0.000000   0.000000  -0.000002   0.000018  -0.000040   0.000806
    15  H    0.000000   0.000000   0.000000   0.000001   0.000002   0.000004
    16  H    0.000000   0.000000  -0.000001   0.000011  -0.000032   0.000013
    17  H    0.000000   0.000000   0.000000   0.000000   0.000008  -0.000030
    18  F    0.000001  -0.000007  -0.000061   0.012790   0.006613   0.000102
    19  F    0.000000   0.000000  -0.000001   0.000001   0.000136   0.012096
    20  H    0.000170   0.000002  -0.000118  -0.000054   0.000320  -0.001952
    21  H   -0.000016  -0.000001  -0.000001   0.000000   0.000004  -0.000079
    22  H    0.003881   0.000044  -0.000024  -0.000004  -0.000015  -0.000049
    23  H   -0.000959  -0.000028  -0.000055  -0.000059   0.000089  -0.000344
    24  H    0.000381   0.000017  -0.000005  -0.000022   0.000121  -0.001166
    25  H    0.519342  -0.000678   0.000020  -0.001034   0.000009  -0.000045
    26  H   -0.000678   0.488737  -0.040210   0.006289  -0.000001   0.000003
    27  H    0.000020  -0.040210   0.532814  -0.005323  -0.000081   0.000090
    28  H   -0.001034   0.006289  -0.005323   0.349959  -0.002172   0.000799
    29  H    0.000009  -0.000001  -0.000081  -0.002172   0.464525  -0.040137
    30  H   -0.000045   0.000003   0.000090   0.000799  -0.040137   0.503475
    31  H    0.007484  -0.000114  -0.000050  -0.003344   0.007436  -0.001678
    32  C   -0.039568  -0.009843   0.009422   0.000536  -0.000047   0.000024
    33  H    0.008401  -0.002075   0.001317  -0.000536  -0.000029   0.000002
    34  H   -0.005336   0.004021  -0.000326  -0.000085   0.000003  -0.000002
    35  H   -0.004307   0.000280  -0.000441   0.000068   0.000006   0.000003
    36  H    0.001383  -0.000129   0.000365  -0.001848   0.008064  -0.005547
              31         32         33         34         35         36
     1  C    0.007188   0.000880  -0.000078   0.000016   0.000264   0.006507
     2  C   -0.054919  -0.002041   0.001383  -0.000530   0.000075  -0.007504
     3  C    0.414215  -0.086453  -0.009263   0.008273  -0.002801  -0.049368
     4  C   -0.046228   0.305461  -0.044339  -0.034381  -0.036443  -0.001159
     5  C   -0.002736  -0.073950  -0.011622  -0.004705   0.007172  -0.002448
     6  O    0.006411  -0.000471   0.016010  -0.000309  -0.000427   0.000988
     7  N   -0.043608   0.004752   0.000079  -0.000236   0.000132   0.325061
     8  C   -0.008444  -0.000437  -0.000066   0.000016  -0.000009  -0.046470
     9  C    0.000000   0.000000   0.000000   0.000000   0.000000  -0.000016
    10  C   -0.000006   0.000000   0.000000   0.000000   0.000000  -0.000099
    11  C   -0.000015   0.000001  -0.000004   0.000000   0.000000  -0.000191
    12  C    0.000185   0.000007   0.000004   0.000000   0.000000  -0.007083
    13  C    0.000028   0.000000   0.000000   0.000000   0.000000   0.003071
    14  C    0.000000   0.000000   0.000000   0.000000   0.000000  -0.000119
    15  H    0.000000   0.000000   0.000000   0.000000   0.000000   0.000000
    16  H    0.000000   0.000000   0.000000   0.000000   0.000000  -0.000001
    17  H    0.000000   0.000000   0.000000   0.000000   0.000000   0.000000
    18  F   -0.000117   0.000000   0.000000   0.000000   0.000000   0.000077
    19  F    0.000003   0.000000   0.000000   0.000000   0.000000   0.000520
    20  H    0.000050  -0.000092   0.000006   0.000006  -0.000022   0.001929
    21  H   -0.000154  -0.000035   0.000004  -0.000003  -0.000012   0.000154
    22  H   -0.000127   0.000149  -0.000034   0.000009   0.000125  -0.000694
    23  H   -0.001437   0.000586  -0.000013  -0.000044   0.004271  -0.000067
    24  H   -0.005757  -0.000315  -0.000024   0.000026  -0.000133  -0.000433
    25  H    0.007484  -0.039568   0.008401  -0.005336  -0.004307   0.001383
    26  H   -0.000114  -0.009843  -0.002075   0.004021   0.000280  -0.000129
    27  H   -0.000050   0.009422   0.001317  -0.000326  -0.000441   0.000365
    28  H   -0.003344   0.000536  -0.000536  -0.000085   0.000068  -0.001848
    29  H    0.007436  -0.000047  -0.000029   0.000003   0.000006   0.008064
    30  H   -0.001678   0.000024   0.000002  -0.000002   0.000003  -0.005547
    31  H    0.474790  -0.004671   0.004826   0.000435  -0.000870   0.007540
    32  C   -0.004671   5.405539   0.383956   0.386199   0.387487   0.000100
    33  H    0.004826   0.383956   0.474547  -0.026448  -0.029077   0.000005
    34  H    0.000435   0.386199  -0.026448   0.472769  -0.025881   0.000020
    35  H   -0.000870   0.387487  -0.029077  -0.025881   0.473113  -0.000001
    36  H    0.007540   0.000100   0.000005   0.000020  -0.000001   0.419482
 Mulliken charges:
               1
     1  C   -0.679013
     2  C   -0.455264
     3  C   -0.116542
     4  C   -0.273249
     5  C   -0.222152
     6  O   -0.602493
     7  N   -0.607932
     8  C   -0.340735
     9  C   -0.209570
    10  C   -0.259340
    11  C    0.338454
    12  C   -0.165104
    13  C    0.319197
    14  C   -0.267201
    15  H    0.235508
    16  H    0.240694
    17  H    0.238861
    18  F   -0.244601
    19  F   -0.248925
    20  H    0.223364
    21  H    0.235082
    22  H    0.230292
    23  H    0.233908
    24  H    0.231095
    25  H    0.219710
    26  H    0.220391
    27  H    0.206137
    28  H    0.413061
    29  H    0.254888
    30  H    0.240074
    31  H    0.243682
    32  C   -0.667175
    33  H    0.233065
    34  H    0.226492
    35  H    0.227428
    36  H    0.347913
 Sum of Mulliken charges =   0.00000
 Mulliken charges with hydrogens summed into heavy atoms:
               1
     1  C    0.009725
     2  C    0.009740
     3  C    0.127140
     4  C   -0.053539
     5  C    0.204376
     6  O   -0.189432
     7  N   -0.260018
     8  C    0.154227
     9  C    0.025938
    10  C   -0.018646
    11  C    0.338454
    12  C   -0.165104
    13  C    0.319197
    14  C   -0.028340
    18  F   -0.244601
    19  F   -0.248925
    32  C    0.019811
 Electronic spatial extent (au):  <R**2>=           4935.8436
 Charge=              0.0000 electrons
 Dipole moment (field-independent basis, Debye):
    X=             -2.0706    Y=              3.1740    Z=             -0.6328  Tot=              3.8422
 Quadrupole moment (field-independent basis, Debye-Ang):
   XX=            -87.5532   YY=           -112.5296   ZZ=           -100.2431
   XY=             10.2513   XZ=              2.6342   YZ=              0.4162
 Traceless Quadrupole moment (field-independent basis, Debye-Ang):
   XX=             12.5554   YY=            -12.4209   ZZ=             -0.1345
   XY=             10.2513   XZ=              2.6342   YZ=              0.4162
 Octapole moment (field-independent basis, Debye-Ang**2):
  XXX=            -77.4425  YYY=             16.5312  ZZZ=              5.1348  XYY=            -26.1476
  XXY=             -5.3883  XXZ=            -27.9095  XZZ=              3.7263  YZZ=              0.2305
  YYZ=              2.5741  XYZ=              2.8313
 Hexadecapole moment (field-independent basis, Debye-Ang**3):
 XXXX=          -4198.6465 YYYY=          -1613.2221 ZZZZ=           -394.0624 XXXY=             29.7194
 XXXZ=             87.9356 YYYX=             71.8822 YYYZ=            -13.0923 ZZZX=            -16.5561
 ZZZY=            -15.2630 XXYY=           -991.4392 XXZZ=           -830.5266 YYZZ=           -323.2118
 XXYZ=              4.8420 YYXZ=              7.8178 ZZXY=            -24.7506
 N-N= 1.283067136973D+03 E-N=-4.523950343600D+03  KE= 8.332573722248D+02
 1\1\GINC-SWANNODE-0-15\SP\RmPW1PW91\6-311G(d)\C13H19F2N1O1\KE291\06-Ma
 r-2019\0\\# mPW1PW91/6-311g(d) geom=checkpoint nmr=giao scrf=(solvent=
 chloroform)\\AT3_1ginp018\\0,1\C,0,-1.8867916371,0.6381976151,0.253329
 8631\C,0,-1.3613730456,0.0581884314,1.5724799359\C,0,-0.5016316105,1.0
 288633731,2.4216701399\C,0,-1.3598434318,2.1172641359,3.133288889\C,0,
 -0.5506264646,3.3921692013,3.44963275\O,0,0.680667821,3.122066098,4.10
 61511638\N,0,0.6247429122,1.6447600195,1.6889758323\C,0,1.6215139168,0
 .6915915602,1.1789709689\C,0,4.9533868333,2.851184641,-0.5597673609\C,
 0,4.8065677661,2.80117677,0.8282687625\C,0,3.7307739202,2.0967684763,1
 .351080718\C,0,2.7879880998,1.4275109639,0.5668722891\C,0,2.9807272767
 ,1.5213087458,-0.812168676\C,0,4.0387375202,2.2098391696,-1.3951071483
 \H,0,5.7860732707,3.3957121379,-0.9923531457\H,0,5.5024936606,3.292905
 113,1.4979186602\H,0,4.1294889206,2.2375202004,-2.4747272558\F,0,3.583
 1999152,2.0419106674,2.6963200254\F,0,2.0866781539,0.9065706993,-1.623
 7381731\H,0,-1.0716594296,0.8921035034,-0.4333656371\H,0,-2.5232929,-0
 .0902618062,-0.258207365\H,0,-2.4851020206,1.5422168129,0.4090820747\H
 ,0,-2.2056896951,-0.2806096658,2.1842607084\H,0,-0.7751888454,-0.84298
 91049,1.3555833493\H,0,-2.1738698473,2.4239221261,2.4609207394\H,0,-1.
 1365837791,4.0327792696,4.1190324849\H,0,-0.3806928928,3.9657409141,2.
 5263425186\H,0,1.2014080847,2.6655545981,3.4184013058\H,0,1.9746258108
 ,0.1015836363,2.0317763774\H,0,1.2211595762,-0.0136780048,0.4397858297
 \H,0,-0.0282033893,0.4345102832,3.2147615102\C,0,-1.979382097,1.546534
 5669,4.4184257211\H,0,-1.1963708138,1.384054255,5.166623671\H,0,-2.711
 3912198,2.242546326,4.8414600609\H,0,-2.4895292348,0.5932937942,4.2471
 389217\H,0,0.2751458951,2.2049064768,0.9137814907\\Version=EM64L-G09Re
 vD.01\State=1-A\HF=-836.4669285\RMSD=7.526e-09\Dipole=0.0759233,-0.334
 1081,-1.4722842\Quadrupole=9.3819689,-1.1518632,-8.2301057,3.5578366,-
 4.4355568,-6.112214\PG=C01 [X(C13H19F2N1O1)]\\@


 QED = W**5 (WHICH WAS WHAT WE WANTED)
 Job cpu time:       0 days  0 hours 26 minutes 34.2 seconds.
 File lengths (MBytes):  RWF=    179 Int=      0 D2E=      0 Chk=     14 Scr=      1
 Normal termination of Gaussian 09 at Wed Mar  6 12:41:17 2019.
