 Entering Gaussian System, Link 0=/usr/local/shared/gaussian/em64t/09-D01/g09/g09
 Initial command:
 /usr/local/shared/gaussian/em64t/09-D01/g09/l1.exe "/scratch/ke291/AT3_2ginp004/Gau-15705.inp" -scrdir="/scratch/ke291/AT3_2ginp004/"
 Entering Link 1 = /usr/local/shared/gaussian/em64t/09-D01/g09/l1.exe PID=     15709.
  
 Copyright (c) 1988,1990,1992,1993,1995,1998,2003,2009,2013,
            Gaussian, Inc.  All Rights Reserved.
  
 This is part of the Gaussian(R) 09 program.  It is based on
 the Gaussian(R) 03 system (copyright 2003, Gaussian, Inc.),
 the Gaussian(R) 98 system (copyright 1998, Gaussian, Inc.),
 the Gaussian(R) 94 system (copyright 1995, Gaussian, Inc.),
 the Gaussian 92(TM) system (copyright 1992, Gaussian, Inc.),
 the Gaussian 90(TM) system (copyright 1990, Gaussian, Inc.),
 the Gaussian 88(TM) system (copyright 1988, Gaussian, Inc.),
 the Gaussian 86(TM) system (copyright 1986, Carnegie Mellon
 University), and the Gaussian 82(TM) system (copyright 1983,
 Carnegie Mellon University). Gaussian is a federally registered
 trademark of Gaussian, Inc.
  
 This software contains proprietary and confidential information,
 including trade secrets, belonging to Gaussian, Inc.
  
 This software is provided under written license and may be
 used, copied, transmitted, or stored only in accord with that
 written license.
  
 The following legend is applicable only to US Government
 contracts under FAR:
  
                    RESTRICTED RIGHTS LEGEND
  
 Use, reproduction and disclosure by the US Government is
 subject to restrictions as set forth in subparagraphs (a)
 and (c) of the Commercial Computer Software - Restricted
 Rights clause in FAR 52.227-19.
  
 Gaussian, Inc.
 340 Quinnipiac St., Bldg. 40, Wallingford CT 06492
  
  
 ---------------------------------------------------------------
 Warning -- This program may not be used in any manner that
 competes with the business of Gaussian, Inc. or will provide
 assistance to any competitor of Gaussian, Inc.  The licensee
 of this program is prohibited from giving any competitor of
 Gaussian, Inc. access to this program.  By using this program,
 the user acknowledges that Gaussian, Inc. is engaged in the
 business of creating and licensing software in the field of
 computational chemistry and represents and warrants to the
 licensee that it is not a competitor of Gaussian, Inc. and that
 it will not use this program in any manner prohibited above.
 ---------------------------------------------------------------
  

 Cite this work as:
 Gaussian 09, Revision D.01,
 M. J. Frisch, G. W. Trucks, H. B. Schlegel, G. E. Scuseria, 
 M. A. Robb, J. R. Cheeseman, G. Scalmani, V. Barone, B. Mennucci, 
 G. A. Petersson, H. Nakatsuji, M. Caricato, X. Li, H. P. Hratchian, 
 A. F. Izmaylov, J. Bloino, G. Zheng, J. L. Sonnenberg, M. Hada, 
 M. Ehara, K. Toyota, R. Fukuda, J. Hasegawa, M. Ishida, T. Nakajima, 
 Y. Honda, O. Kitao, H. Nakai, T. Vreven, J. A. Montgomery, Jr., 
 J. E. Peralta, F. Ogliaro, M. Bearpark, J. J. Heyd, E. Brothers, 
 K. N. Kudin, V. N. Staroverov, T. Keith, R. Kobayashi, J. Normand, 
 K. Raghavachari, A. Rendell, J. C. Burant, S. S. Iyengar, J. Tomasi, 
 M. Cossi, N. Rega, J. M. Millam, M. Klene, J. E. Knox, J. B. Cross, 
 V. Bakken, C. Adamo, J. Jaramillo, R. Gomperts, R. E. Stratmann, 
 O. Yazyev, A. J. Austin, R. Cammi, C. Pomelli, J. W. Ochterski, 
 R. L. Martin, K. Morokuma, V. G. Zakrzewski, G. A. Voth, 
 P. Salvador, J. J. Dannenberg, S. Dapprich, A. D. Daniels, 
 O. Farkas, J. B. Foresman, J. V. Ortiz, J. Cioslowski, 
 and D. J. Fox, Gaussian, Inc., Wallingford CT, 2013.
 
 ******************************************
 Gaussian 09:  EM64L-G09RevD.01 24-Apr-2013
                 6-Mar-2019 
 ******************************************
 %nprocshared=2
 Will use up to    2 processors via shared memory.
 %mem=6000MB
 %chk=AT3_2ginp004.chk
 ----------------------------------------------------------------------
 # mPW1PW91/6-311g(d) geom=checkpoint nmr=giao scrf=(solvent=chloroform
 )
 ----------------------------------------------------------------------
 1/29=2,38=1/1;
 2/12=2,40=1/2;
 3/5=4,6=6,7=1,11=2,14=-4,16=1,25=1,30=1,70=2201,72=7,74=-7/1,2,8,3;
 4//1;
 5/5=2,38=5,53=7/2;
 8/6=1,10=90,11=11/1;
 10/13=100,45=16/2;
 6/7=2,8=2,9=2,10=2,28=1/1;
 99/9=1/99;
 ------------
 AT3_2ginp004
 ------------
 Structure from the checkpoint file:  "AT3_2ginp004.chk"
 Charge =  0 Multiplicity = 1
 Redundant internal coordinates found in file.
 C,0,-1.7664475925,-3.3049149134,2.4148114667
 C,0,-2.4183843825,-2.3666826656,1.3923646177
 C,0,-3.3674208253,-1.3121752456,1.9991547907
 C,0,-2.6881910206,-0.3250869562,2.9857885632
 C,0,-3.7382509454,0.565446859,3.6804934238
 O,0,-4.3401744633,1.5162959913,2.8143659607
 N,0,-4.110326998,-0.5485198761,0.9621671281
 C,0,-5.1998676962,-1.2747511464,0.2828373759
 C,0,-8.697562735,-1.6993787367,2.8142536558
 C,0,-8.4250623416,-0.4736281947,2.2035394013
 C,0,-7.2946926295,-0.3728390023,1.4036597609
 C,0,-6.4137712929,-1.432152055,1.1700623283
 C,0,-6.7346068533,-2.62847871,1.8129475846
 C,0,-7.8512504848,-2.7919410889,2.6246275304
 H,0,-9.5746208183,-1.8021161765,3.4445583549
 H,0,-9.06579713,0.3900792783,2.3374369717
 H,0,-8.0379470305,-3.7516651174,3.0921884819
 F,0,-7.026287855,0.8096812133,0.8048070098
 F,0,-5.9020325478,-3.6849170998,1.642274081
 H,0,-1.180604064,-4.0800838701,1.9107842973
 H,0,-1.0912708806,-2.7729785182,3.0924014547
 H,0,-2.5242104902,-3.8080756246,3.0261464788
 H,0,-1.6418291926,-1.8627958602,0.8023959309
 H,0,-2.9927563067,-2.9739573904,0.6828266817
 H,0,-2.2371522768,-0.9367038318,3.778578966
 H,0,-3.2571652141,1.1286557534,4.4899991423
 H,0,-4.4988042545,-0.0832699512,4.1500958528
 H,0,-4.548017173,1.0005441899,2.0053672099
 H,0,-5.4811885838,-0.679908747,-0.5902764401
 H,0,-4.898679953,-2.2651166912,-0.0807648437
 H,0,-4.1288955553,-1.8514515119,2.5774116146
 C,0,-1.5793158646,0.527635873,2.3499457832
 H,0,-0.7924793527,-0.0853832509,1.9003268401
 H,0,-1.9821136628,1.1929819089,1.5809722136
 H,0,-1.1096160201,1.1620523291,3.1089532541
 H,0,-3.4553915131,-0.2225561641,0.2542240761
 Recover connectivity data from disk.
                          Input orientation:                          
 ---------------------------------------------------------------------
 Center     Atomic      Atomic             Coordinates (Angstroms)
 Number     Number       Type             X           Y           Z
 ---------------------------------------------------------------------
      1          6           0       -1.766448   -3.304915    2.414811
      2          6           0       -2.418384   -2.366683    1.392365
      3          6           0       -3.367421   -1.312175    1.999155
      4          6           0       -2.688191   -0.325087    2.985789
      5          6           0       -3.738251    0.565447    3.680493
      6          8           0       -4.340174    1.516296    2.814366
      7          7           0       -4.110327   -0.548520    0.962167
      8          6           0       -5.199868   -1.274751    0.282837
      9          6           0       -8.697563   -1.699379    2.814254
     10          6           0       -8.425062   -0.473628    2.203539
     11          6           0       -7.294693   -0.372839    1.403660
     12          6           0       -6.413771   -1.432152    1.170062
     13          6           0       -6.734607   -2.628479    1.812948
     14          6           0       -7.851250   -2.791941    2.624628
     15          1           0       -9.574621   -1.802116    3.444558
     16          1           0       -9.065797    0.390079    2.337437
     17          1           0       -8.037947   -3.751665    3.092188
     18          9           0       -7.026288    0.809681    0.804807
     19          9           0       -5.902033   -3.684917    1.642274
     20          1           0       -1.180604   -4.080084    1.910784
     21          1           0       -1.091271   -2.772979    3.092401
     22          1           0       -2.524210   -3.808076    3.026146
     23          1           0       -1.641829   -1.862796    0.802396
     24          1           0       -2.992756   -2.973957    0.682827
     25          1           0       -2.237152   -0.936704    3.778579
     26          1           0       -3.257165    1.128656    4.489999
     27          1           0       -4.498804   -0.083270    4.150096
     28          1           0       -4.548017    1.000544    2.005367
     29          1           0       -5.481189   -0.679909   -0.590276
     30          1           0       -4.898680   -2.265117   -0.080765
     31          1           0       -4.128896   -1.851452    2.577412
     32          6           0       -1.579316    0.527636    2.349946
     33          1           0       -0.792479   -0.085383    1.900327
     34          1           0       -1.982114    1.192982    1.580972
     35          1           0       -1.109616    1.162052    3.108953
     36          1           0       -3.455392   -0.222556    0.254224
 ---------------------------------------------------------------------
                    Distance matrix (angstroms):
                    1          2          3          4          5
     1  C    0.000000
     2  C    1.533199   0.000000
     3  C    2.589768   1.543000   0.000000
     4  C    3.170962   2.603826   1.552141   0.000000
     5  C    4.524341   3.946513   2.547524   1.542171   0.000000
     6  O    5.479762   4.559922   3.100172   2.479743   1.420071
     7  N    3.898931   2.520606   1.486749   2.483432   2.961192
     8  C    4.522748   3.187478   2.510977   3.810030   4.131189
     9  C    7.125844   6.472646   5.405990   6.166900   5.520379
    10  C    7.238644   6.349948   5.130757   5.791862   5.022676
    11  C    6.338848   5.268199   4.081719   4.870859   4.325810
    12  C    5.162776   4.109244   3.159437   4.289802   4.177448
    13  C    5.049991   4.344560   3.620120   4.801526   4.760991
    14  C    6.109991   5.587070   4.762946   5.733497   5.413287
    15  H    8.017877   7.466053   6.392071   7.057974   6.302716
    16  H    8.181655   7.258167   5.956811   6.450247   5.497027
    17  H    6.323775   6.032169   5.381417   6.353947   6.121352
    18  F    6.869348   5.627369   4.395003   4.986328   4.374975
    19  F    4.224249   3.733095   3.490204   4.839656   5.186702
    20  H    1.094597   2.176374   3.528639   4.186700   5.590562
    21  H    1.094508   2.194637   2.917189   2.924670   4.300865
    22  H    1.095950   2.181297   2.827585   3.487080   4.585822
    23  H    2.166823   1.097726   2.170963   2.868209   4.309848
    24  H    2.147822   1.096417   2.152815   3.523196   4.697781
    25  H    2.773058   2.787778   2.141223   1.098193   2.125882
    26  H    5.117147   4.745133   3.489143   2.167890   1.097245
    27  H    4.566835   4.140918   2.723377   2.166196   1.104446
    28  H    5.142154   4.031045   2.596636   2.485453   1.910780
    29  H    5.451652   4.019557   3.401901   4.551371   4.777888
    30  H    4.137627   2.886571   2.752983   4.248968   4.848273
    31  H    2.778517   2.143746   1.097745   2.138268   2.685291
    32  C    3.837665   3.161974   2.589455   1.536566   2.536294
    33  H    3.402748   2.847090   2.853964   2.197591   3.502876
    34  H    4.579615   3.591256   2.893055   2.185541   2.808168
    35  H    4.568047   4.136608   3.528617   2.172246   2.755416
    36  H    4.125725   2.639702   2.059075   2.839111   3.527078
                    6          7          8          9         10
     6  O    0.000000
     7  N    2.783332   0.000000
     8  C    3.864926   1.475127   0.000000
     9  C    5.415477   5.079117   4.338461   0.000000
    10  C    4.584672   4.490385   3.838330   1.396314   0.000000
    11  C    3.779960   3.219622   2.541256   2.391135   1.388417
    12  C    3.961929   2.475860   1.511789   2.826743   2.456040
    13  C    4.890327   3.454982   2.555238   2.391451   2.766511
    14  C    5.560986   4.668107   3.849114   1.394953   2.425108
    15  H    6.229641   6.131254   5.423381   1.084929   2.150928
    16  H    4.881325   5.227716   4.683850   2.174577   1.083725
    17  H    6.442214   5.497575   4.699176   2.173527   3.418345
    18  F    3.428241   3.220606   2.820128   3.623040   2.357945
    19  F    5.555701   3.675560   2.854821   3.623657   4.122266
    20  H    6.489901   4.685626   5.164744   7.936541   8.097802
    21  H    5.388001   4.312866   5.197971   7.686720   7.737027
    22  H    5.629521   4.171388   4.593759   6.527004   6.827538
    23  H    4.769418   2.801130   3.643539   7.338777   7.064364
    24  H    5.149890   2.685096   2.814007   6.221925   6.170426
    25  H    3.371886   3.404651   4.594798   6.576359   6.401986
    26  H    2.032467   3.998300   5.220217   6.356400   5.873872
    27  H    2.089964   3.245036   4.106922   4.693171   4.399655
    28  H    0.981671   1.918186   2.927283   5.016235   4.152582
    29  H    4.209135   2.075236   1.093301   4.793246   4.063785
    30  H    4.795080   2.157756   1.097153   4.809647   4.567587
    31  H    3.382678   2.075329   2.597044   4.577329   4.527165
    32  C    2.969087   3.080594   4.542018   7.472925   6.920131
    33  H    3.998373   3.478901   4.843133   8.119765   7.648464
    34  H    2.680717   2.818695   4.257793   7.415119   6.684068
    35  H    3.263247   4.066819   5.536705   8.114898   7.550562
    36  H    3.218816   1.018026   2.037432   6.017900   5.344202
                   11         12         13         14         15
    11  C    0.000000
    12  C    1.397403   0.000000
    13  C    2.359899   1.395505   0.000000
    14  C    2.766329   2.455836   1.390121   0.000000
    15  H    3.377303   3.911672   3.377974   2.149894   0.000000
    16  H    2.142614   3.422942   3.849835   3.418019   2.508055
    17  H    3.849678   3.422376   2.143992   1.083762   2.507244
    18  F    1.352413   2.352531   3.594770   4.118737   4.503751
    19  F    3.600875   2.357925   1.355866   2.358363   4.503451
    20  H    7.168188   5.911535   5.741400   6.831282   8.831824
    21  H    6.862577   5.815687   5.788361   6.776171   8.545982
    22  H    6.098427   4.921254   4.537702   5.437932   7.342154
    23  H    5.876764   4.805420   5.248225   6.537641   8.361452
    24  H    5.078590   3.783901   3.924025   5.235331   7.233347
    25  H    5.615772   4.949139   5.191619   6.024252   7.395874
    26  H    5.299208   5.248226   5.777133   6.321100   7.042202
    27  H    3.929854   3.790407   4.115721   4.571963   5.405195
    28  H    3.129291   3.177544   4.241227   5.067325   5.932362
    29  H    2.712724   2.129407   3.338183   4.518128   5.856230
    30  H    3.394865   2.133987   2.662481   4.039104   5.874240
    31  H    3.685954   2.716082   2.824519   3.839619   5.514554
    32  C    5.862751   5.348350   6.068480   7.101564   8.399454
    33  H    6.527487   5.826319   6.464043   7.594493   9.080629
    34  H    5.541365   5.167181   6.102751   7.170467   8.371961
    35  H    6.596900   6.214761   6.905670   7.830598   8.975257
    36  H    4.010489   3.324740   4.355610   5.616416   7.079422
                   16         17         18         19         20
    16  H    0.000000
    17  H    4.333610   0.000000
    18  F    2.585463   5.202062   0.000000
    19  F    5.205598   2.582409   4.708154   0.000000
    20  H    9.074175   6.966113   7.700974   4.745539   0.000000
    21  H    8.612083   7.015279   7.300203   5.106655   1.764291
    22  H    7.803280   5.514421   6.821050   3.652390   1.767286
    23  H    7.908672   7.051333   6.011201   4.709018   2.521432
    24  H    7.136967   5.644803   5.531743   3.144820   2.452609
    25  H    7.104058   6.484162   5.901610   5.054485   3.806020
    26  H    6.238527   6.973326   5.280973   6.186707   6.172149
    27  H    4.936316   5.205941   4.286781   4.607611   5.656809
    28  H    4.570916   5.995355   2.760362   4.890679   6.095999
    29  H    4.750347   5.434450   2.559779   3.767156   6.025904
    30  H    5.501148   4.704515   3.842569   2.447736   4.591782
    31  H    5.427250   4.376813   4.314932   2.716633   3.755478
    32  C    7.487755   7.783139   5.668907   6.077194   4.645742
    33  H    8.298489   8.207250   6.392314   6.255459   4.013525
    34  H    7.169063   7.962815   5.117914   6.258068   5.343820
    35  H    8.030691   8.493920   6.359266   6.972196   5.377791
    36  H    6.015958   6.442706   3.757653   4.461018   4.774869
                   21         22         23         24         25
    21  H    0.000000
    22  H    1.768935   0.000000
    23  H    2.525009   3.083468   0.000000
    24  H    3.076051   2.531094   1.753277   0.000000
    25  H    2.270636   2.982169   3.173282   3.782198   0.000000
    26  H    4.676230   5.201096   5.015627   5.603205   2.410862
    27  H    4.468169   4.363079   4.747222   4.758803   2.445699
    28  H    5.231655   5.316071   4.253444   4.468178   3.498186
    29  H    6.100364   5.622069   4.251992   3.616040   5.447625
    30  H    4.982296   4.203775   3.398369   2.172112   4.872673
    31  H    3.215834   2.569972   3.055537   2.477960   2.420384
    32  C    3.418111   4.488704   2.848330   4.127742   2.148961
    33  H    2.955247   4.257323   2.255226   3.829802   2.517868
    34  H    4.336688   5.233830   3.171711   4.380804   3.070844
    35  H    3.935108   5.168182   3.840985   5.151590   2.474776
    36  H    4.488761   4.626727   2.505970   2.822754   3.796734
                   26         27         28         29         30
    26  H    0.000000
    27  H    1.768040   0.000000
    28  H    2.802875   2.403526   0.000000
    29  H    5.833214   4.877723   3.229876   0.000000
    30  H    5.924875   4.777085   3.890945   1.764030   0.000000
    31  H    3.646772   2.395127   2.938839   3.638057   2.798140
    32  C    2.785001   3.483843   3.025816   5.032661   4.972524
    33  H    3.775575   4.335702   3.910797   5.342337   5.053399
    34  H    3.176843   3.816143   2.607874   4.523888   4.819354
    35  H    2.553502   3.757845   3.614774   6.015627   6.023022
    36  H    4.450490   4.035583   2.399231   2.241920   2.523361
                   31         32         33         34         35
    31  H    0.000000
    32  C    3.494589   0.000000
    33  H    3.835246   1.094103   0.000000
    34  H    3.856182   1.093733   1.775228   0.000000
    35  H    4.298813   1.095077   1.765630   1.759811   0.000000
    36  H    2.916180   2.911099   3.133620   2.436094   3.945793
                   36
    36  H    0.000000
 Stoichiometry    C13H19F2NO
 Framework group  C1[X(C13H19F2NO)]
 Deg. of freedom   102
 Full point group                 C1      NOp   1
 Largest Abelian subgroup         C1      NOp   1
 Largest concise Abelian subgroup C1      NOp   1
                         Standard orientation:                         
 ---------------------------------------------------------------------
 Center     Atomic      Atomic             Coordinates (Angstroms)
 Number     Number       Type             X           Y           Z
 ---------------------------------------------------------------------
      1          6           0        3.032574    2.477222   -0.464592
      2          6           0        2.396969    1.580756    0.604545
      3          6           0        1.597764    0.383370    0.049218
      4          6           0        2.437097   -0.620774   -0.785262
      5          6           0        1.528823   -1.674291   -1.451168
      6          8           0        0.955618   -2.593222   -0.532689
      7          7           0        0.854502   -0.347906    1.109038
      8          6           0       -0.345199    0.327422    1.638801
      9          6           0       -3.670279    0.155667   -1.142672
     10          6           0       -3.330769   -0.972524   -0.393264
     11          6           0       -2.258230   -0.882672    0.483826
     12          6           0       -1.499487    0.276916    0.663827
     13          6           0       -1.881869    1.368050   -0.117610
     14          6           0       -2.945742    1.340510   -1.011954
     15          1           0       -4.504035    0.109322   -1.835328
     16          1           0       -3.876622   -1.904819   -0.478888
     17          1           0       -3.185880    2.227531   -1.586470
     18          9           0       -1.925933   -1.969595    1.216764
     19          9           0       -1.166206    2.513929   -0.002887
     20          1           0        3.504780    3.351793   -0.006017
     21          1           0        3.802632    1.953040   -1.039215
     22          1           0        2.278577    2.841191   -1.171784
     23          1           0        3.171274    1.215901    1.291812
     24          1           0        1.717621    2.192693    1.209648
     25          1           0        2.886650   -0.045873   -1.605883
     26          1           0        2.118842   -2.261492   -2.166025
     27          1           0        0.748013   -1.152872   -2.032769
     28          1           0        0.641360   -2.025740    0.204118
     29          1           0       -0.633744   -0.206198    2.548360
     30          1           0       -0.165275    1.373195    1.917601
     31          1           0        0.834270    0.785904   -0.629080
     32          6           0        3.570451   -1.293472    0.004689
     33          1           0        4.261348   -0.564597    0.438814
     34          1           0        3.175563   -1.919041    0.810281
     35          1           0        4.152058   -1.947497   -0.653475
     36          1           0        1.482753   -0.537417    1.887346
 ---------------------------------------------------------------------
 Rotational constants (GHZ):      0.6380461      0.3450539      0.2717564
 Standard basis: 6-311G(d) (5D, 7F)
 There are   380 symmetry adapted cartesian basis functions of A   symmetry.
 There are   363 symmetry adapted basis functions of A   symmetry.
   363 basis functions,   639 primitive gaussians,   380 cartesian basis functions
    65 alpha electrons       65 beta electrons
       nuclear repulsion energy      1315.0682171685 Hartrees.
 NAtoms=   36 NActive=   36 NUniq=   36 SFac= 1.00D+00 NAtFMM=   60 NAOKFM=F Big=F
 Integral buffers will be    131072 words long.
 Raffenetti 2 integral format.
 Two-electron integral symmetry is turned on.
 ------------------------------------------------------------------------------
 Polarizable Continuum Model (PCM)
 =================================
 Model                : PCM (using non-symmetric T matrix).
 Atomic radii         : UFF (Universal Force Field).
 Polarization charges : Total charges.
 Charge compensation  : None.
 Solution method      : On-the-fly selection.
 Cavity type          : Scaled VdW (van der Waals Surface) (Alpha=1.100).
 Cavity algorithm     : GePol (No added spheres)
                        Default sphere list used, NSphG=   36.
                        Lebedev-Laikov grids with approx.  5.0 points / Ang**2.
                        Smoothing algorithm: Karplus/York (Gamma=1.0000).
                        Polarization charges: spherical gaussians, with
                                              point-specific exponents (IZeta= 3).
                        Self-potential: point-specific (ISelfS= 7).
                        Self-field    : sphere-specific E.n sum rule (ISelfD= 2).
 Solvent              : Chloroform, Eps=   4.711300 Eps(inf)=   2.090627
 ------------------------------------------------------------------------------
 One-electron integrals computed using PRISM.
 NBasis=   363 RedAO= T EigKep=  2.29D-04  NBF=   363
 NBsUse=   363 1.00D-06 EigRej= -1.00D+00 NBFU=   363
 ExpMin= 1.03D-01 ExpMax= 1.14D+04 ExpMxC= 1.72D+03 IAcc=1 IRadAn=         1 AccDes= 0.00D+00
 Harris functional with IExCor=  908 and IRadAn=       1 diagonalized for initial guess.
 HarFok:  IExCor=  908 AccDes= 0.00D+00 IRadAn=         1 IDoV= 1 UseB2=F ITyADJ=14
 ICtDFT=  3500011 ScaDFX=  1.000000  1.000000  1.000000  1.000000
 FoFCou: FMM=F IPFlag=           0 FMFlag=      100000 FMFlg1=           0
         NFxFlg=           0 DoJE=T BraDBF=F KetDBF=T FulRan=T
         wScrn=  0.000000 ICntrl=     500 IOpCl=  0 I1Cent=   200000004 NGrid=           0
         NMat0=    1 NMatS0=      1 NMatT0=    0 NMatD0=    1 NMtDS0=    0 NMtDT0=    0
 Petite list used in FoFCou.
 Requested convergence on RMS density matrix=1.00D-08 within 128 cycles.
 Requested convergence on MAX density matrix=1.00D-06.
 Requested convergence on             energy=1.00D-06.
 No special actions if energy rises.
 Inv3:  Mode=1 IEnd=    18169563.
 Iteration    1 A*A^-1 deviation from unit magnitude is 8.66D-15 for   1123.
 Iteration    1 A*A^-1 deviation from orthogonality  is 5.77D-15 for   1882   1790.
 Iteration    1 A^-1*A deviation from unit magnitude is 7.99D-15 for    217.
 Iteration    1 A^-1*A deviation from orthogonality  is 1.84D-12 for   2156   1795.
 Error on total polarization charges =  0.00934
 SCF Done:  E(RmPW1PW91) =  -836.469678940     A.U. after   12 cycles
            NFock= 12  Conv=0.74D-08     -V/T= 2.0039
 DoSCS=F DFT=T ScalE2(SS,OS)=  1.000000  1.000000
 Range of M.O.s used for correlation:     1   363
 NBasis=   363 NAE=    65 NBE=    65 NFC=     0 NFV=     0
 NROrb=    363 NOA=    65 NOB=    65 NVA=   298 NVB=   298

 **** Warning!!: The largest alpha MO coefficient is  0.11766283D+02

 NEqPCM:  Using equilibrium solvation (IEInf=0, Eps=   4.7113, EpsInf=   2.0906)
          Differentiating once with respect to magnetic field using GIAOs.
          Electric field/nuclear overlap derivatives assumed to be zero.
 FoFJK:  IHMeth= 1 ICntrl=    6127 DoSepK=F KAlg= 0 I1Cent=   0 FoldK=F
 IRaf=         1 NMat=   1 IRICut=       1 DoRegI=T DoRafI=F ISym2E= 0.
          There are     3 degrees of freedom in the 1st order CPHF.  IDoFFX=0 NUNeed=     3.
      3 vectors produced by pass  0 Test12= 6.46D-13 3.33D-08 XBig12= 3.82D+01 1.93D+00.
 AX will form     3 AO Fock derivatives at one time.
      3 vectors produced by pass  1 Test12= 6.46D-13 3.33D-08 XBig12= 1.19D-01 1.77D-01.
      3 vectors produced by pass  2 Test12= 6.46D-13 3.33D-08 XBig12= 5.68D-04 6.94D-03.
      3 vectors produced by pass  3 Test12= 6.46D-13 3.33D-08 XBig12= 1.27D-06 2.14D-04.
      3 vectors produced by pass  4 Test12= 6.46D-13 3.33D-08 XBig12= 3.35D-09 1.32D-05.
      3 vectors produced by pass  5 Test12= 6.46D-13 3.33D-08 XBig12= 1.34D-11 1.06D-06.
      1 vectors produced by pass  6 Test12= 6.46D-13 3.33D-08 XBig12= 3.98D-14 5.78D-08.
 InvSVY:  IOpt=1 It=  1 EMax= 2.16D-17
 Solved reduced A of dimension    19 with     3 vectors.
 Calculating GIAO nuclear magnetic shielding tensors.
 SCF GIAO Magnetic shielding tensor (ppm):
      1  C    Isotropic =   175.9225   Anisotropy =    20.7023
   XX=   172.4400   YX=     7.0565   ZX=    -1.6521
   XY=     6.9186   YY=   177.7568   ZY=    -8.1138
   XZ=    -2.7083   YZ=   -10.9653   ZZ=   177.5708
   Eigenvalues:   165.7318   172.3117   189.7241
      2  C    Isotropic =   163.2829   Anisotropy =    22.2666
   XX=   154.8327   YX=    14.6673   ZX=     4.6091
   XY=    16.6518   YY=   167.1785   ZY=    -6.8105
   XZ=     4.7418   YZ=    -3.4481   ZZ=   167.8376
   Eigenvalues:   142.3779   169.3436   178.1273
      3  C    Isotropic =   124.4100   Anisotropy =    18.8344
   XX=   118.4503   YX=     2.4805   ZX=   -15.3386
   XY=    10.2172   YY=   131.9117   ZY=    -5.9712
   XZ=   -10.1323   YZ=     6.8656   ZZ=   122.8680
   Eigenvalues:   106.6628   129.6009   136.9663
      4  C    Isotropic =   151.2341   Anisotropy =     4.3950
   XX=   150.7927   YX=    -3.8537   ZX=     4.3327
   XY=     4.3678   YY=   152.8304   ZY=     0.0834
   XZ=     2.6851   YZ=     0.8900   ZZ=   150.0790
   Eigenvalues:   146.9028   152.6353   154.1640
      5  C    Isotropic =   115.7859   Anisotropy =    38.3371
   XX=   111.9336   YX=    18.5667   ZX=    -3.1257
   XY=    18.7980   YY=   118.2043   ZY=    -8.4651
   XZ=    -9.3643   YZ=   -15.6621   ZZ=   117.2198
   Eigenvalues:    95.5891   110.4246   141.3440
      6  O    Isotropic =   307.5144   Anisotropy =    93.1999
   XX=   293.9501   YX=    -1.6280   ZX=   -13.7048
   XY=   -18.9011   YY=   310.1521   ZY=    59.7628
   XZ=    -2.9724   YZ=    46.0854   ZZ=   318.4410
   Eigenvalues:   261.0979   291.7977   369.6477
      7  N    Isotropic =   197.8814   Anisotropy =    34.4919
   XX=   210.5039   YX=    -6.5324   ZX=    12.3087
   XY=    -3.2854   YY=   191.9240   ZY=   -14.9462
   XZ=    10.5475   YZ=   -16.8747   ZZ=   191.2162
   Eigenvalues:   174.9430   197.8251   220.8760
      8  C    Isotropic =   149.4188   Anisotropy =    48.3357
   XX=   169.9133   YX=   -15.3080   ZX=   -10.3031
   XY=   -16.0191   YY=   132.1724   ZY=    10.4750
   XZ=   -12.6653   YZ=    11.4550   ZZ=   146.1706
   Eigenvalues:   124.2133   142.4005   181.6425
      9  C    Isotropic =    53.1827   Anisotropy =   189.7404
   XX=    39.5952   YX=   -30.3898   ZX=  -107.7828
   XY=   -29.1816   YY=    44.6127   ZY=    30.3180
   XZ=  -107.3637   YZ=    29.7066   ZZ=    75.3402
   Eigenvalues:   -51.7049    31.5767   179.6763
     10  C    Isotropic =    71.7062   Anisotropy =   147.8662
   XX=    86.0715   YX=   -47.2832   ZX=   -53.2626
   XY=   -53.3605   YY=    12.9236   ZY=    18.6730
   XZ=   -51.6952   YZ=    23.1304   ZZ=   116.1236
   Eigenvalues:   -12.9716    57.8067   170.2837
     11  C    Isotropic =    17.3012   Anisotropy =   100.0130
   XX=    48.0605   YX=    14.5986   ZX=   -38.5197
   XY=     6.4701   YY=   -29.4329   ZY=    51.7739
   XZ=   -31.8161   YZ=    53.5761   ZZ=    33.2759
   Eigenvalues:   -65.8452    33.7722    83.9766
     12  C    Isotropic =    66.9630   Anisotropy =   139.5866
   XX=    72.3467   YX=   -27.3861   ZX=   -66.3460
   XY=   -27.4890   YY=    41.0058   ZY=    30.7711
   XZ=   -62.4570   YZ=    34.3779   ZZ=    87.5365
   Eigenvalues:    14.9866    25.8817   160.0207
     13  C    Isotropic =    17.8282   Anisotropy =    99.0714
   XX=    27.6369   YX=   -57.0951   ZX=   -24.2176
   XY=   -53.7882   YY=   -32.2977   ZY=     4.4257
   XZ=   -27.0040   YZ=     3.9140   ZZ=    58.1454
   Eigenvalues:   -66.1123    35.7212    83.8758
     14  C    Isotropic =    73.0487   Anisotropy =   145.6030
   XX=    99.8297   YX=   -11.8913   ZX=   -55.7342
   XY=    -5.9450   YY=    22.0719   ZY=    56.5501
   XZ=   -58.9212   YZ=    52.7850   ZZ=    97.2444
   Eigenvalues:   -10.6772    59.7059   170.1173
     15  H    Isotropic =    24.5518   Anisotropy =     3.0443
   XX=    24.5441   YX=     0.9805   ZX=     2.2224
   XY=     1.0135   YY=    26.0578   ZY=    -1.2862
   XZ=     2.1542   YZ=    -1.2655   ZZ=    23.0536
   Eigenvalues:    20.9724    26.1017    26.5814
     16  H    Isotropic =    25.0448   Anisotropy =     5.0389
   XX=    26.2638   YX=     0.9404   ZX=     3.1384
   XY=     0.6733   YY=    24.8739   ZY=    -1.2044
   XZ=     3.0032   YZ=    -0.9802   ZZ=    23.9966
   Eigenvalues:    21.3359    25.3944    28.4040
     17  H    Isotropic =    25.1048   Anisotropy =     5.0793
   XX=    26.2706   YX=     0.6747   ZX=     3.3357
   XY=     0.8095   YY=    25.2539   ZY=    -0.7790
   XZ=     3.1058   YZ=    -0.7812   ZZ=    23.7898
   Eigenvalues:    21.2931    25.5301    28.4910
     18  F    Isotropic =   294.4209   Anisotropy =   135.6891
   XX=   270.7480   YX=   -26.3443   ZX=   -79.3456
   XY=   -45.7095   YY=   277.2948   ZY=    -2.5450
   XZ=   -65.4620   YZ=    -5.2843   ZZ=   335.2198
   Eigenvalues:   208.2335   290.1488   384.8803
     19  F    Isotropic =   296.6378   Anisotropy =   117.6528
   XX=   297.1058   YX=    -4.4032   ZX=   -71.0647
   XY=    10.7801   YY=   296.7363   ZY=    40.4890
   XZ=   -64.7692   YZ=    43.8460   ZZ=   296.0713
   Eigenvalues:   215.1450   299.6954   375.0730
     20  H    Isotropic =    31.0072   Anisotropy =    11.4788
   XX=    29.7464   YX=     5.5373   ZX=     0.7556
   XY=     5.1096   YY=    35.3576   ZY=     1.4113
   XZ=    -0.0243   YZ=     0.4456   ZZ=    27.9176
   Eigenvalues:    26.5135    27.8484    38.6597
     21  H    Isotropic =    31.2359   Anisotropy =     7.9654
   XX=    32.9103   YX=     0.1910   ZX=    -4.6563
   XY=     0.3865   YY=    31.1763   ZY=    -0.4486
   XZ=    -5.3267   YZ=    -0.0038   ZZ=    29.6212
   Eigenvalues:    26.0103    31.1513    36.5462
     22  H    Isotropic =    31.4087   Anisotropy =     8.5732
   XX=    31.0484   YX=    -0.2007   ZX=     1.8214
   XY=    -1.1817   YY=    31.6054   ZY=    -4.6785
   XZ=     2.3344   YZ=    -5.1128   ZZ=    31.5722
   Eigenvalues:    26.4629    30.6390    37.1242
     23  H    Isotropic =    30.9000   Anisotropy =     5.8858
   XX=    31.4465   YX=     0.2821   ZX=     3.2856
   XY=     0.2698   YY=    30.2561   ZY=    -0.3355
   XZ=     3.8467   YZ=    -1.3005   ZZ=    30.9973
   Eigenvalues:    27.4292    30.4469    34.8238
     24  H    Isotropic =    30.0307   Anisotropy =     5.3562
   XX=    30.6588   YX=     1.0407   ZX=    -2.9799
   XY=     0.4691   YY=    31.2266   ZY=     2.3930
   XZ=    -3.9816   YZ=     2.7315   ZZ=    28.2066
   Eigenvalues:    24.7433    31.7472    33.6015
     25  H    Isotropic =    30.6773   Anisotropy =     6.7524
   XX=    29.0037   YX=     1.3757   ZX=    -2.7558
   XY=     1.0269   YY=    31.1572   ZY=    -1.5407
   XZ=    -3.9395   YZ=    -1.9134   ZZ=    31.8710
   Eigenvalues:    26.7949    30.0581    35.1789
     26  H    Isotropic =    28.6160   Anisotropy =     8.1405
   XX=    26.4273   YX=     0.0287   ZX=    -2.7210
   XY=     1.1925   YY=    27.8508   ZY=     2.3354
   XZ=    -3.2384   YZ=     3.8099   ZZ=    31.5700
   Eigenvalues:    23.9908    27.8143    34.0430
     27  H    Isotropic =    28.6902   Anisotropy =     4.0580
   XX=    28.5751   YX=     0.7157   ZX=     0.8481
   XY=    -0.3555   YY=    26.8216   ZY=    -1.2379
   XZ=     1.4901   YZ=    -0.9911   ZZ=    30.6739
   Eigenvalues:    26.4036    28.2715    31.3955
     28  H    Isotropic =    28.1199   Anisotropy =    22.9025
   XX=    22.9449   YX=    -1.8660   ZX=    -7.7924
   XY=    -0.8660   YY=    31.9426   ZY=     9.7747
   XZ=    -9.0838   YZ=    10.8656   ZZ=    29.4724
   Eigenvalues:    15.3532    25.6183    43.3883
     29  H    Isotropic =    28.4224   Anisotropy =     8.0995
   XX=    28.3006   YX=     1.4273   ZX=    -2.9618
   XY=     0.8099   YY=    24.6312   ZY=    -0.8454
   XZ=    -1.5739   YZ=    -2.6971   ZZ=    32.3355
   Eigenvalues:    24.1368    27.3084    33.8221
     30  H    Isotropic =    28.0726   Anisotropy =     6.1235
   XX=    27.8557   YX=    -2.2408   ZX=    -0.2379
   XY=    -0.0933   YY=    30.1248   ZY=     2.4105
   XZ=     0.9776   YZ=     4.1415   ZZ=    26.2374
   Eigenvalues:    24.1486    27.9143    32.1550
     31  H    Isotropic =    29.4983   Anisotropy =     6.1610
   XX=    33.4075   YX=     0.5088   ZX=     0.7991
   XY=    -2.6052   YY=    27.9650   ZY=    -1.0141
   XZ=    -1.6709   YZ=    -2.1413   ZZ=    27.1223
   Eigenvalues:    25.7821    29.1071    33.6056
     32  C    Isotropic =   178.8190   Anisotropy =    16.8127
   XX=   182.4728   YX=    -8.5093   ZX=     5.4035
   XY=    -9.6265   YY=   177.2222   ZY=     1.3348
   XZ=     6.2035   YZ=     4.3710   ZZ=   176.7620
   Eigenvalues:   166.8989   179.5307   190.0275
     33  H    Isotropic =    31.2857   Anisotropy =     8.1213
   XX=    35.1065   YX=     0.8548   ZX=     3.4382
   XY=     0.4810   YY=    31.3159   ZY=     1.8536
   XZ=     3.1843   YZ=     2.3467   ZZ=    27.4346
   Eigenvalues:    25.6543    31.5029    36.6999
     34  H    Isotropic =    30.9564   Anisotropy =     6.2465
   XX=    31.0463   YX=    -1.3306   ZX=     0.3319
   XY=    -0.7802   YY=    30.9773   ZY=    -4.0557
   XZ=    -0.1461   YZ=    -4.0292   ZZ=    30.8456
   Eigenvalues:    26.7604    30.9881    35.1207
     35  H    Isotropic =    31.3801   Anisotropy =    11.7456
   XX=    33.9622   YX=    -5.2955   ZX=    -2.4834
   XY=    -4.7499   YY=    31.1296   ZY=     3.1450
   XZ=    -2.7096   YZ=     2.6679   ZZ=    29.0487
   Eigenvalues:    26.7486    28.1813    39.2106
     36  H    Isotropic =    31.3558   Anisotropy =    10.4885
   XX=    34.1881   YX=    -3.0200   ZX=     2.7303
   XY=    -3.7586   YY=    25.6109   ZY=    -3.6037
   XZ=     1.6400   YZ=    -3.6523   ZZ=    34.2685
   Eigenvalues:    23.6753    32.0440    38.3482
 End of Minotr F.D. properties file   721 does not exist.
 End of Minotr F.D. properties file   722 does not exist.
 End of Minotr F.D. properties file   788 does not exist.

 **********************************************************************

            Population analysis using the SCF density.

 **********************************************************************

 Orbital symmetries:
       Occupied  (A) (A) (A) (A) (A) (A) (A) (A) (A) (A) (A) (A)
                 (A) (A) (A) (A) (A) (A) (A) (A) (A) (A) (A) (A)
                 (A) (A) (A) (A) (A) (A) (A) (A) (A) (A) (A) (A)
                 (A) (A) (A) (A) (A) (A) (A) (A) (A) (A) (A) (A)
                 (A) (A) (A) (A) (A) (A) (A) (A) (A) (A) (A) (A)
                 (A) (A) (A) (A) (A)
       Virtual   (A) (A) (A) (A) (A) (A) (A) (A) (A) (A) (A) (A)
                 (A) (A) (A) (A) (A) (A) (A) (A) (A) (A) (A) (A)
                 (A) (A) (A) (A) (A) (A) (A) (A) (A) (A) (A) (A)
                 (A) (A) (A) (A) (A) (A) (A) (A) (A) (A) (A) (A)
                 (A) (A) (A) (A) (A) (A) (A) (A) (A) (A) (A) (A)
                 (A) (A) (A) (A) (A) (A) (A) (A) (A) (A) (A) (A)
                 (A) (A) (A) (A) (A) (A) (A) (A) (A) (A) (A) (A)
                 (A) (A) (A) (A) (A) (A) (A) (A) (A) (A) (A) (A)
                 (A) (A) (A) (A) (A) (A) (A) (A) (A) (A) (A) (A)
                 (A) (A) (A) (A) (A) (A) (A) (A) (A) (A) (A) (A)
                 (A) (A) (A) (A) (A) (A) (A) (A) (A) (A) (A) (A)
                 (A) (A) (A) (A) (A) (A) (A) (A) (A) (A) (A) (A)
                 (A) (A) (A) (A) (A) (A) (A) (A) (A) (A) (A) (A)
                 (A) (A) (A) (A) (A) (A) (A) (A) (A) (A) (A) (A)
                 (A) (A) (A) (A) (A) (A) (A) (A) (A) (A) (A) (A)
                 (A) (A) (A) (A) (A) (A) (A) (A) (A) (A) (A) (A)
                 (A) (A) (A) (A) (A) (A) (A) (A) (A) (A) (A) (A)
                 (A) (A) (A) (A) (A) (A) (A) (A) (A) (A) (A) (A)
                 (A) (A) (A) (A) (A) (A) (A) (A) (A) (A) (A) (A)
                 (A) (A) (A) (A) (A) (A) (A) (A) (A) (A) (A) (A)
                 (A) (A) (A) (A) (A) (A) (A) (A) (A) (A) (A) (A)
                 (A) (A) (A) (A) (A) (A) (A) (A) (A) (A) (A) (A)
                 (A) (A) (A) (A) (A) (A) (A) (A) (A) (A) (A) (A)
                 (A) (A) (A) (A) (A) (A) (A) (A) (A) (A) (A) (A)
                 (A) (A) (A) (A) (A) (A) (A) (A) (A) (A)
 The electronic state is 1-A.
 Alpha  occ. eigenvalues --  -24.80113 -24.79910 -19.17986 -14.39597 -10.33924
 Alpha  occ. eigenvalues --  -10.33813 -10.27739 -10.26663 -10.26627 -10.26275
 Alpha  occ. eigenvalues --  -10.26253 -10.25428 -10.25357 -10.23540 -10.23043
 Alpha  occ. eigenvalues --  -10.22153 -10.21658  -1.26988  -1.26839  -1.02626
 Alpha  occ. eigenvalues --   -0.94807  -0.90727  -0.83166  -0.80327  -0.78849
 Alpha  occ. eigenvalues --   -0.78083  -0.72176  -0.69585  -0.67666  -0.65899
 Alpha  occ. eigenvalues --   -0.63922  -0.62536  -0.58713  -0.57756  -0.55401
 Alpha  occ. eigenvalues --   -0.52242  -0.51998  -0.51565  -0.50193  -0.49291
 Alpha  occ. eigenvalues --   -0.49069  -0.48696  -0.47649  -0.46652  -0.46014
 Alpha  occ. eigenvalues --   -0.44409  -0.43457  -0.42653  -0.41826  -0.41109
 Alpha  occ. eigenvalues --   -0.40722  -0.39694  -0.38865  -0.38196  -0.37917
 Alpha  occ. eigenvalues --   -0.37668  -0.37051  -0.36477  -0.34053  -0.33037
 Alpha  occ. eigenvalues --   -0.32855  -0.27810  -0.27048  -0.26635  -0.25014
 Alpha virt. eigenvalues --   -0.02489  -0.00959   0.05026   0.05664   0.06266
 Alpha virt. eigenvalues --    0.07373   0.07840   0.09881   0.10568   0.10983
 Alpha virt. eigenvalues --    0.11443   0.11642   0.12400   0.12999   0.13092
 Alpha virt. eigenvalues --    0.13780   0.14632   0.14695   0.15590   0.16628
 Alpha virt. eigenvalues --    0.17275   0.18002   0.18595   0.18845   0.19724
 Alpha virt. eigenvalues --    0.21688   0.22764   0.23759   0.24218   0.24531
 Alpha virt. eigenvalues --    0.25496   0.25934   0.26168   0.27250   0.29818
 Alpha virt. eigenvalues --    0.31022   0.32790   0.33777   0.34072   0.35060
 Alpha virt. eigenvalues --    0.35907   0.37154   0.37875   0.39003   0.39081
 Alpha virt. eigenvalues --    0.39236   0.40388   0.40778   0.41227   0.42263
 Alpha virt. eigenvalues --    0.42514   0.43396   0.44789   0.45676   0.45859
 Alpha virt. eigenvalues --    0.47634   0.48241   0.50727   0.50862   0.51607
 Alpha virt. eigenvalues --    0.52359   0.52879   0.54107   0.54926   0.55915
 Alpha virt. eigenvalues --    0.56309   0.56864   0.58289   0.58817   0.59474
 Alpha virt. eigenvalues --    0.59861   0.60558   0.60726   0.61387   0.61947
 Alpha virt. eigenvalues --    0.62759   0.62938   0.63097   0.63682   0.64250
 Alpha virt. eigenvalues --    0.64999   0.65608   0.66117   0.66723   0.68161
 Alpha virt. eigenvalues --    0.68695   0.68744   0.70602   0.71434   0.72352
 Alpha virt. eigenvalues --    0.73089   0.74038   0.75052   0.75525   0.77310
 Alpha virt. eigenvalues --    0.78952   0.79393   0.81637   0.83005   0.85609
 Alpha virt. eigenvalues --    0.87345   0.89767   0.90714   0.93453   0.94845
 Alpha virt. eigenvalues --    0.96120   0.96554   0.98049   0.99365   1.00052
 Alpha virt. eigenvalues --    1.01974   1.03293   1.05120   1.05789   1.08742
 Alpha virt. eigenvalues --    1.09329   1.10275   1.12723   1.13888   1.15473
 Alpha virt. eigenvalues --    1.17878   1.19075   1.20057   1.21580   1.22891
 Alpha virt. eigenvalues --    1.25540   1.27658   1.28474   1.29538   1.30744
 Alpha virt. eigenvalues --    1.32168   1.36536   1.37138   1.40440   1.42841
 Alpha virt. eigenvalues --    1.44337   1.46204   1.47597   1.48718   1.49633
 Alpha virt. eigenvalues --    1.51616   1.52623   1.53749   1.54365   1.54749
 Alpha virt. eigenvalues --    1.56174   1.56757   1.57783   1.59717   1.59975
 Alpha virt. eigenvalues --    1.61649   1.63494   1.65435   1.66473   1.67303
 Alpha virt. eigenvalues --    1.67944   1.68603   1.71627   1.73013   1.73543
 Alpha virt. eigenvalues --    1.74231   1.77804   1.78725   1.79782   1.81998
 Alpha virt. eigenvalues --    1.82846   1.85096   1.85475   1.87529   1.88654
 Alpha virt. eigenvalues --    1.90180   1.90466   1.91087   1.94175   1.96924
 Alpha virt. eigenvalues --    1.97668   1.98235   1.99165   2.01254   2.03357
 Alpha virt. eigenvalues --    2.08603   2.13193   2.15428   2.17198   2.19375
 Alpha virt. eigenvalues --    2.23283   2.23906   2.26986   2.27413   2.27863
 Alpha virt. eigenvalues --    2.31195   2.32049   2.37053   2.37680   2.40740
 Alpha virt. eigenvalues --    2.42029   2.43020   2.44403   2.46087   2.48076
 Alpha virt. eigenvalues --    2.48600   2.50192   2.51771   2.52654   2.53963
 Alpha virt. eigenvalues --    2.56006   2.57244   2.59254   2.62506   2.65429
 Alpha virt. eigenvalues --    2.67358   2.68897   2.69320   2.72784   2.73628
 Alpha virt. eigenvalues --    2.75833   2.81855   2.84794   2.85683   2.86484
 Alpha virt. eigenvalues --    2.92676   2.94815   2.97935   3.00100   3.05715
 Alpha virt. eigenvalues --    3.06691   3.07763   3.08614   3.10788   3.13129
 Alpha virt. eigenvalues --    3.14637   3.15670   3.16128   3.21131   3.22177
 Alpha virt. eigenvalues --    3.24876   3.25812   3.27404   3.28206   3.28838
 Alpha virt. eigenvalues --    3.29397   3.31816   3.35055   3.37769   3.40827
 Alpha virt. eigenvalues --    3.43061   3.47646   3.50229   3.58069   3.63445
 Alpha virt. eigenvalues --    3.75833   3.78581   3.80253   3.80343   3.81526
 Alpha virt. eigenvalues --    3.86287   3.88727   3.96772   3.97482   3.98946
 Alpha virt. eigenvalues --    3.99449   4.06442   4.07984   4.11166   4.11431
 Alpha virt. eigenvalues --    4.18105   4.21761   4.45968   4.74870   4.76520
 Alpha virt. eigenvalues --    4.77411   4.78033   4.96279   5.08331   5.46275
 Alpha virt. eigenvalues --    6.14414   6.16362   6.30749   6.33685   6.55452
 Alpha virt. eigenvalues --    6.57921  23.28589  23.46868  23.58141  23.69684
 Alpha virt. eigenvalues --   23.73598  23.77036  23.82737  23.85849  23.86190
 Alpha virt. eigenvalues --   23.90746  24.09951  24.10492  24.19616  35.56967
 Alpha virt. eigenvalues --   50.00676  66.90290  66.90488
          Condensed to atoms (all electrons):
               1          2          3          4          5          6
     1  C    5.351845   0.299309  -0.068490   0.000727  -0.000156   0.000007
     2  C    0.299309   5.318933   0.328040  -0.072833   0.006763  -0.000091
     3  C   -0.068490   0.328040   5.402217   0.296930  -0.078697  -0.001212
     4  C    0.000727  -0.072833   0.296930   5.478710   0.328250  -0.060345
     5  C   -0.000156   0.006763  -0.078697   0.328250   5.088312   0.255267
     6  O    0.000007  -0.000091  -0.001212  -0.060345   0.255267   8.232502
     7  N    0.005971  -0.062963   0.238088  -0.068488   0.007477  -0.032238
     8  C   -0.000041  -0.002108  -0.085234   0.009669  -0.000872   0.000205
     9  C    0.000000  -0.000002   0.000031   0.000004  -0.000022  -0.000024
    10  C    0.000000   0.000003  -0.000061  -0.000016   0.000152   0.000096
    11  C    0.000000  -0.000092   0.001049  -0.000289   0.001084   0.002368
    12  C    0.000047  -0.000295  -0.009301  -0.001035   0.001187   0.000300
    13  C    0.000076   0.000163  -0.001599   0.000461  -0.000154  -0.000030
    14  C   -0.000002   0.000019  -0.000276  -0.000005  -0.000037   0.000012
    15  H    0.000000   0.000000   0.000000   0.000000  -0.000001  -0.000001
    16  H    0.000000   0.000000   0.000002   0.000000   0.000008   0.000059
    17  H    0.000000   0.000000   0.000004  -0.000001   0.000001   0.000000
    18  F    0.000000   0.000000  -0.000024   0.000010  -0.000268  -0.000538
    19  F   -0.000338   0.000364  -0.000847   0.000069   0.000000   0.000000
    20  H    0.388844  -0.033582   0.007516  -0.000141   0.000013   0.000000
    21  H    0.387429  -0.036215  -0.008249   0.003015   0.000223  -0.000002
    22  H    0.385739  -0.042507  -0.003762  -0.000731  -0.000166   0.000001
    23  H   -0.039303   0.388640  -0.039829  -0.010300  -0.000246  -0.000012
    24  H   -0.039536   0.403959  -0.047179   0.007873  -0.000232   0.000011
    25  H    0.001621  -0.006149  -0.050064   0.389007  -0.032021   0.004675
    26  H    0.000022  -0.000358   0.010140  -0.033727   0.390394  -0.033452
    27  H   -0.000017   0.000348  -0.012940  -0.056011   0.386332  -0.035743
    28  H   -0.000110   0.001355  -0.000247  -0.006224  -0.064801   0.257103
    29  H    0.000018  -0.000182   0.006274  -0.000241   0.000030   0.000076
    30  H   -0.000696   0.004232  -0.003565  -0.000708   0.000053  -0.000155
    31  H   -0.001830  -0.051019   0.400722  -0.046195  -0.006501   0.000189
    32  C   -0.001243  -0.002552  -0.091050   0.267317  -0.087401   0.004046
    33  H   -0.000097   0.001740  -0.006459  -0.036441   0.006687   0.000001
    34  H   -0.000074   0.001087  -0.013066  -0.039018  -0.008923   0.016799
    35  H   -0.000018  -0.000169   0.008359  -0.033056  -0.003741  -0.000636
    36  H    0.000313  -0.003760  -0.050072  -0.006254   0.000485   0.001438
               7          8          9         10         11         12
     1  C    0.005971  -0.000041   0.000000   0.000000   0.000000   0.000047
     2  C   -0.062963  -0.002108  -0.000002   0.000003  -0.000092  -0.000295
     3  C    0.238088  -0.085234   0.000031  -0.000061   0.001049  -0.009301
     4  C   -0.068488   0.009669   0.000004  -0.000016  -0.000289  -0.001035
     5  C    0.007477  -0.000872  -0.000022   0.000152   0.001084   0.001187
     6  O   -0.032238   0.000205  -0.000024   0.000096   0.002368   0.000300
     7  N    7.042533   0.278049   0.000039  -0.000177   0.003245  -0.076247
     8  C    0.278049   5.304072  -0.001404   0.008023  -0.076731   0.265439
     9  C    0.000039  -0.001404   5.078169   0.428506  -0.002575  -0.058153
    10  C   -0.000177   0.008023   0.428506   5.182270   0.477087  -0.032951
    11  C    0.003245  -0.076731  -0.002575   0.477087   4.744209   0.257100
    12  C   -0.076247   0.265439  -0.058153  -0.032951   0.257100   5.772261
    13  C   -0.001765  -0.082685  -0.000141  -0.064156   0.051553   0.287491
    14  C   -0.000202   0.008650   0.429122  -0.038471  -0.058546  -0.029449
    15  H   -0.000001   0.000031   0.403244  -0.040929   0.006279  -0.001724
    16  H    0.000017  -0.000246  -0.040905   0.394430  -0.049899   0.012291
    17  H    0.000007  -0.000207  -0.040647   0.006940  -0.001751   0.012116
    18  F   -0.001185   0.001988   0.005451  -0.054458   0.301414  -0.079703
    19  F   -0.000250  -0.006595   0.005557  -0.000472   0.005538  -0.074137
    20  H   -0.000261  -0.000013   0.000000   0.000000   0.000000   0.000001
    21  H   -0.000087  -0.000017   0.000000   0.000000   0.000000  -0.000002
    22  H   -0.000002   0.000067  -0.000001   0.000001   0.000001   0.000033
    23  H   -0.000545  -0.000070   0.000000   0.000000   0.000011   0.000091
    24  H   -0.003016   0.003243  -0.000003   0.000002  -0.000089  -0.001042
    25  H    0.005389  -0.000204   0.000001  -0.000002  -0.000004   0.000015
    26  H   -0.000422   0.000037  -0.000002   0.000007   0.000039   0.000019
    27  H    0.000242  -0.000357   0.000207  -0.000130  -0.000362   0.000753
    28  H    0.056944  -0.000947  -0.000039  -0.000296  -0.001505  -0.008935
    29  H   -0.030448   0.399243  -0.000127   0.000581  -0.011075  -0.037864
    30  H   -0.041782   0.408356  -0.000218   0.000076   0.007007  -0.067652
    31  H   -0.036799  -0.012666  -0.000031  -0.000037   0.000907   0.000586
    32  C   -0.002252  -0.000595   0.000000   0.000000  -0.000010   0.000050
    33  H   -0.000066  -0.000066   0.000000   0.000000   0.000000  -0.000002
    34  H    0.006531  -0.000027   0.000000  -0.000001  -0.000036   0.000044
    35  H   -0.000290   0.000020   0.000000   0.000000   0.000000   0.000002
    36  H    0.328240  -0.046408  -0.000002   0.000027   0.000152   0.011381
              13         14         15         16         17         18
     1  C    0.000076  -0.000002   0.000000   0.000000   0.000000   0.000000
     2  C    0.000163   0.000019   0.000000   0.000000   0.000000   0.000000
     3  C   -0.001599  -0.000276   0.000000   0.000002   0.000004  -0.000024
     4  C    0.000461  -0.000005   0.000000   0.000000  -0.000001   0.000010
     5  C   -0.000154  -0.000037  -0.000001   0.000008   0.000001  -0.000268
     6  O   -0.000030   0.000012  -0.000001   0.000059   0.000000  -0.000538
     7  N   -0.001765  -0.000202  -0.000001   0.000017   0.000007  -0.001185
     8  C   -0.082685   0.008650   0.000031  -0.000246  -0.000207   0.001988
     9  C   -0.000141   0.429122   0.403244  -0.040905  -0.040647   0.005451
    10  C   -0.064156  -0.038471  -0.040929   0.394430   0.006940  -0.054458
    11  C    0.051553  -0.058546   0.006279  -0.049899  -0.001751   0.301414
    12  C    0.287491  -0.029449  -0.001724   0.012291   0.012116  -0.079703
    13  C    4.772887   0.468560   0.006070  -0.001760  -0.050018   0.005628
    14  C    0.468560   5.185049  -0.040402   0.006940   0.395101  -0.000531
    15  H    0.006070  -0.040402   0.444810  -0.006464  -0.006385  -0.000079
    16  H   -0.001760   0.006940  -0.006464   0.444492  -0.000130   0.001343
    17  H   -0.050018   0.395101  -0.006385  -0.000130   0.445406   0.000004
    18  F    0.005628  -0.000531  -0.000079   0.001343   0.000004   9.048285
    19  F    0.297155  -0.054729  -0.000081   0.000004   0.001118  -0.000002
    20  H   -0.000007   0.000000   0.000000   0.000000   0.000000   0.000000
    21  H    0.000005   0.000000   0.000000   0.000000   0.000000   0.000000
    22  H   -0.000103   0.000004   0.000000   0.000000   0.000006   0.000000
    23  H   -0.000030   0.000000   0.000000   0.000000   0.000000   0.000000
    24  H    0.000516   0.000043   0.000000   0.000000   0.000000   0.000000
    25  H    0.000032  -0.000003   0.000000   0.000000   0.000000   0.000000
    26  H    0.000000   0.000000   0.000000   0.000001   0.000000  -0.000008
    27  H    0.000542   0.000029   0.000004  -0.000021  -0.000001  -0.000008
    28  H   -0.000547   0.000060   0.000002   0.000007   0.000000   0.010177
    29  H    0.005236  -0.000026   0.000002  -0.000027   0.000010   0.006906
    30  H   -0.015417   0.000695   0.000002   0.000013  -0.000029   0.000170
    31  H   -0.004338  -0.000924   0.000004  -0.000005  -0.000028   0.000049
    32  C   -0.000007   0.000000   0.000000   0.000000   0.000000   0.000000
    33  H    0.000000   0.000000   0.000000   0.000000   0.000000   0.000000
    34  H    0.000003   0.000000   0.000000   0.000000   0.000000  -0.000013
    35  H    0.000000   0.000000   0.000000   0.000000   0.000000   0.000000
    36  H   -0.000250   0.000023   0.000000  -0.000001  -0.000001  -0.000235
              19         20         21         22         23         24
     1  C   -0.000338   0.388844   0.387429   0.385739  -0.039303  -0.039536
     2  C    0.000364  -0.033582  -0.036215  -0.042507   0.388640   0.403959
     3  C   -0.000847   0.007516  -0.008249  -0.003762  -0.039829  -0.047179
     4  C    0.000069  -0.000141   0.003015  -0.000731  -0.010300   0.007873
     5  C    0.000000   0.000013   0.000223  -0.000166  -0.000246  -0.000232
     6  O    0.000000   0.000000  -0.000002   0.000001  -0.000012   0.000011
     7  N   -0.000250  -0.000261  -0.000087  -0.000002  -0.000545  -0.003016
     8  C   -0.006595  -0.000013  -0.000017   0.000067  -0.000070   0.003243
     9  C    0.005557   0.000000   0.000000  -0.000001   0.000000  -0.000003
    10  C   -0.000472   0.000000   0.000000   0.000001   0.000000   0.000002
    11  C    0.005538   0.000000   0.000000   0.000001   0.000011  -0.000089
    12  C   -0.074137   0.000001  -0.000002   0.000033   0.000091  -0.001042
    13  C    0.297155  -0.000007   0.000005  -0.000103  -0.000030   0.000516
    14  C   -0.054729   0.000000   0.000000   0.000004   0.000000   0.000043
    15  H   -0.000081   0.000000   0.000000   0.000000   0.000000   0.000000
    16  H    0.000004   0.000000   0.000000   0.000000   0.000000   0.000000
    17  H    0.001118   0.000000   0.000000   0.000006   0.000000   0.000000
    18  F   -0.000002   0.000000   0.000000   0.000000   0.000000   0.000000
    19  F    9.061394  -0.000019  -0.000006   0.000839   0.000030   0.002009
    20  H   -0.000019   0.473246  -0.027859  -0.027314  -0.004480  -0.005786
    21  H   -0.000006  -0.027859   0.477304  -0.028748  -0.005960   0.006718
    22  H    0.000839  -0.027314  -0.028748   0.481922   0.007339  -0.004205
    23  H    0.000030  -0.004480  -0.005960   0.007339   0.500972  -0.033175
    24  H    0.002009  -0.005786   0.006718  -0.004205  -0.033175   0.481775
    25  H   -0.000007   0.000335   0.000034  -0.000027  -0.000740  -0.000024
    26  H    0.000000  -0.000002   0.000012   0.000011   0.000014   0.000017
    27  H   -0.000076   0.000000   0.000016  -0.000041  -0.000046  -0.000012
    28  H   -0.000002   0.000005   0.000002  -0.000006  -0.000118  -0.000040
    29  H    0.000153  -0.000002   0.000001  -0.000003  -0.000061   0.000277
    30  H    0.007993   0.000129  -0.000013   0.000000  -0.000307   0.001420
    31  H    0.007689  -0.000270  -0.000469   0.005516   0.007806  -0.005840
    32  C    0.000000  -0.000080   0.000370   0.000116   0.004204  -0.000314
    33  H    0.000000   0.000015   0.001337  -0.000092   0.000467   0.000243
    34  H    0.000000   0.000018  -0.000071  -0.000002  -0.000572  -0.000074
    35  H    0.000000  -0.000006  -0.000007   0.000012   0.000114   0.000017
    36  H   -0.000040  -0.000029   0.000013   0.000027   0.005041  -0.000464
              25         26         27         28         29         30
     1  C    0.001621   0.000022  -0.000017  -0.000110   0.000018  -0.000696
     2  C   -0.006149  -0.000358   0.000348   0.001355  -0.000182   0.004232
     3  C   -0.050064   0.010140  -0.012940  -0.000247   0.006274  -0.003565
     4  C    0.389007  -0.033727  -0.056011  -0.006224  -0.000241  -0.000708
     5  C   -0.032021   0.390394   0.386332  -0.064801   0.000030   0.000053
     6  O    0.004675  -0.033452  -0.035743   0.257103   0.000076  -0.000155
     7  N    0.005389  -0.000422   0.000242   0.056944  -0.030448  -0.041782
     8  C   -0.000204   0.000037  -0.000357  -0.000947   0.399243   0.408356
     9  C    0.000001  -0.000002   0.000207  -0.000039  -0.000127  -0.000218
    10  C   -0.000002   0.000007  -0.000130  -0.000296   0.000581   0.000076
    11  C   -0.000004   0.000039  -0.000362  -0.001505  -0.011075   0.007007
    12  C    0.000015   0.000019   0.000753  -0.008935  -0.037864  -0.067652
    13  C    0.000032   0.000000   0.000542  -0.000547   0.005236  -0.015417
    14  C   -0.000003   0.000000   0.000029   0.000060  -0.000026   0.000695
    15  H    0.000000   0.000000   0.000004   0.000002   0.000002   0.000002
    16  H    0.000000   0.000001  -0.000021   0.000007  -0.000027   0.000013
    17  H    0.000000   0.000000  -0.000001   0.000000   0.000010  -0.000029
    18  F    0.000000  -0.000008  -0.000008   0.010177   0.006906   0.000170
    19  F   -0.000007   0.000000  -0.000076  -0.000002   0.000153   0.007993
    20  H    0.000335  -0.000002   0.000000   0.000005  -0.000002   0.000129
    21  H    0.000034   0.000012   0.000016   0.000002   0.000001  -0.000013
    22  H   -0.000027   0.000011  -0.000041  -0.000006  -0.000003   0.000000
    23  H   -0.000740   0.000014  -0.000046  -0.000118  -0.000061  -0.000307
    24  H   -0.000024   0.000017  -0.000012  -0.000040   0.000277   0.001420
    25  H    0.502765  -0.003564   0.001839  -0.000552   0.000018   0.000017
    26  H   -0.003564   0.507526  -0.045435   0.004991   0.000000  -0.000004
    27  H    0.001839  -0.045435   0.548113   0.000078   0.000028   0.000033
    28  H   -0.000552   0.004991   0.000078   0.344304  -0.001295   0.001143
    29  H    0.000018   0.000000   0.000028  -0.001295   0.441264  -0.028550
    30  H    0.000017  -0.000004   0.000033   0.001143  -0.028550   0.482869
    31  H   -0.004853  -0.000171   0.004465  -0.000324  -0.000107  -0.001655
    32  C   -0.038970  -0.012452   0.011347   0.000636   0.000022   0.000008
    33  H   -0.004155  -0.000138  -0.000253   0.000056   0.000001   0.000014
    34  H    0.008130  -0.002036   0.001210   0.000084   0.000038   0.000045
    35  H   -0.005725   0.004497  -0.000204  -0.000150  -0.000002  -0.000001
    36  H   -0.000173   0.000085  -0.000149  -0.003713  -0.005769  -0.001742
              31         32         33         34         35         36
     1  C   -0.001830  -0.001243  -0.000097  -0.000074  -0.000018   0.000313
     2  C   -0.051019  -0.002552   0.001740   0.001087  -0.000169  -0.003760
     3  C    0.400722  -0.091050  -0.006459  -0.013066   0.008359  -0.050072
     4  C   -0.046195   0.267317  -0.036441  -0.039018  -0.033056  -0.006254
     5  C   -0.006501  -0.087401   0.006687  -0.008923  -0.003741   0.000485
     6  O    0.000189   0.004046   0.000001   0.016799  -0.000636   0.001438
     7  N   -0.036799  -0.002252  -0.000066   0.006531  -0.000290   0.328240
     8  C   -0.012666  -0.000595  -0.000066  -0.000027   0.000020  -0.046408
     9  C   -0.000031   0.000000   0.000000   0.000000   0.000000  -0.000002
    10  C   -0.000037   0.000000   0.000000  -0.000001   0.000000   0.000027
    11  C    0.000907  -0.000010   0.000000  -0.000036   0.000000   0.000152
    12  C    0.000586   0.000050  -0.000002   0.000044   0.000002   0.011381
    13  C   -0.004338  -0.000007   0.000000   0.000003   0.000000  -0.000250
    14  C   -0.000924   0.000000   0.000000   0.000000   0.000000   0.000023
    15  H    0.000004   0.000000   0.000000   0.000000   0.000000   0.000000
    16  H   -0.000005   0.000000   0.000000   0.000000   0.000000  -0.000001
    17  H   -0.000028   0.000000   0.000000   0.000000   0.000000  -0.000001
    18  F    0.000049   0.000000   0.000000  -0.000013   0.000000  -0.000235
    19  F    0.007689   0.000000   0.000000   0.000000   0.000000  -0.000040
    20  H   -0.000270  -0.000080   0.000015   0.000018  -0.000006  -0.000029
    21  H   -0.000469   0.000370   0.001337  -0.000071  -0.000007   0.000013
    22  H    0.005516   0.000116  -0.000092  -0.000002   0.000012   0.000027
    23  H    0.007806   0.004204   0.000467  -0.000572   0.000114   0.005041
    24  H   -0.005840  -0.000314   0.000243  -0.000074   0.000017  -0.000464
    25  H   -0.004853  -0.038970  -0.004155   0.008130  -0.005725  -0.000173
    26  H   -0.000171  -0.012452  -0.000138  -0.002036   0.004497   0.000085
    27  H    0.004465   0.011347  -0.000253   0.001210  -0.000204  -0.000149
    28  H   -0.000324   0.000636   0.000056   0.000084  -0.000150  -0.003713
    29  H   -0.000107   0.000022   0.000001   0.000038  -0.000002  -0.005769
    30  H   -0.001655   0.000008   0.000014   0.000045  -0.000001  -0.001742
    31  H    0.478097   0.007978  -0.000156  -0.000210  -0.000189   0.007281
    32  C    0.007978   5.443388   0.387569   0.381726   0.387063   0.004262
    33  H   -0.000156   0.387569   0.472362  -0.026312  -0.026851  -0.000540
    34  H   -0.000210   0.381726  -0.026312   0.476134  -0.027341  -0.000860
    35  H   -0.000189   0.387063  -0.026851  -0.027341   0.467700   0.000066
    36  H    0.007281   0.004262  -0.000540  -0.000860   0.000066   0.414580
 Mulliken charges:
               1
     1  C   -0.670018
     2  C   -0.440079
     3  C   -0.127148
     4  C   -0.309982
     5  C   -0.188479
     6  O   -0.610673
     7  N   -0.613286
     8  C   -0.369601
     9  C   -0.206035
    10  C   -0.266043
    11  C    0.343922
    12  C   -0.142715
    13  C    0.326630
    14  C   -0.270702
    15  H    0.235618
    16  H    0.239850
    17  H    0.238485
    18  F   -0.244371
    19  F   -0.252311
    20  H    0.229729
    21  H    0.231226
    22  H    0.226076
    23  H    0.221064
    24  H    0.232909
    25  H    0.233362
    26  H    0.213961
    27  H    0.196220
    28  H    0.412907
    29  H    0.255600
    30  H    0.248218
    31  H    0.253330
    32  C   -0.663175
    33  H    0.231138
    34  H    0.226788
    35  H    0.230535
    36  H    0.347049
 Sum of Mulliken charges =   0.00000
 Mulliken charges with hydrogens summed into heavy atoms:
               1
     1  C    0.017014
     2  C    0.013895
     3  C    0.126181
     4  C   -0.076620
     5  C    0.221702
     6  O   -0.197765
     7  N   -0.266237
     8  C    0.134218
     9  C    0.029582
    10  C   -0.026193
    11  C    0.343922
    12  C   -0.142715
    13  C    0.326630
    14  C   -0.032217
    18  F   -0.244371
    19  F   -0.252311
    32  C    0.025286
 Electronic spatial extent (au):  <R**2>=           4317.5762
 Charge=              0.0000 electrons
 Dipole moment (field-independent basis, Debye):
    X=             -0.7144    Y=              3.5990    Z=              0.3679  Tot=              3.6876
 Quadrupole moment (field-independent basis, Debye-Ang):
   XX=            -89.2617   YY=           -115.6956   ZZ=            -95.3892
   XY=              3.0763   XZ=              6.8557   YZ=             -1.6420
 Traceless Quadrupole moment (field-independent basis, Debye-Ang):
   XX=             10.8538   YY=            -15.5801   ZZ=              4.7263
   XY=              3.0763   XZ=              6.8557   YZ=             -1.6420
 Octapole moment (field-independent basis, Debye-Ang**2):
  XXX=            -44.1657  YYY=             29.6020  ZZZ=             17.1568  XYY=            -16.3774
  XXY=             -4.9509  XXZ=            -25.9909  XZZ=             -3.0445  YZZ=             -0.2403
  YYZ=              3.2051  XYZ=              4.0101
 Hexadecapole moment (field-independent basis, Debye-Ang**3):
 XXXX=          -3364.7240 YYYY=          -1622.4905 ZZZZ=           -613.3938 XXXY=             35.7340
 XXXZ=            101.3125 YYYX=             37.1242 YYYZ=            -30.0040 ZZZX=             -2.2730
 ZZZY=            -19.3080 XXYY=           -810.2229 XXZZ=           -649.1043 YYZZ=           -346.7730
 XXYZ=             -1.5716 YYXZ=             20.3162 ZZXY=            -26.1756
 N-N= 1.315068217169D+03 E-N=-4.588152589175D+03  KE= 8.332535162661D+02
 1\1\GINC-SWANNODE-0-9\SP\RmPW1PW91\6-311G(d)\C13H19F2N1O1\KE291\06-Mar
 -2019\0\\# mPW1PW91/6-311g(d) geom=checkpoint nmr=giao scrf=(solvent=c
 hloroform)\\AT3_2ginp004\\0,1\C,0,-1.7664475925,-3.3049149134,2.414811
 4667\C,0,-2.4183843825,-2.3666826656,1.3923646177\C,0,-3.3674208253,-1
 .3121752456,1.9991547907\C,0,-2.6881910206,-0.3250869562,2.9857885632\
 C,0,-3.7382509454,0.565446859,3.6804934238\O,0,-4.3401744633,1.5162959
 913,2.8143659607\N,0,-4.110326998,-0.5485198761,0.9621671281\C,0,-5.19
 98676962,-1.2747511464,0.2828373759\C,0,-8.697562735,-1.6993787367,2.8
 142536558\C,0,-8.4250623416,-0.4736281947,2.2035394013\C,0,-7.29469262
 95,-0.3728390023,1.4036597609\C,0,-6.4137712929,-1.432152055,1.1700623
 283\C,0,-6.7346068533,-2.62847871,1.8129475846\C,0,-7.8512504848,-2.79
 19410889,2.6246275304\H,0,-9.5746208183,-1.8021161765,3.4445583549\H,0
 ,-9.06579713,0.3900792783,2.3374369717\H,0,-8.0379470305,-3.7516651174
 ,3.0921884819\F,0,-7.026287855,0.8096812133,0.8048070098\F,0,-5.902032
 5478,-3.6849170998,1.642274081\H,0,-1.180604064,-4.0800838701,1.910784
 2973\H,0,-1.0912708806,-2.7729785182,3.0924014547\H,0,-2.5242104902,-3
 .8080756246,3.0261464788\H,0,-1.6418291926,-1.8627958602,0.8023959309\
 H,0,-2.9927563067,-2.9739573904,0.6828266817\H,0,-2.2371522768,-0.9367
 038318,3.778578966\H,0,-3.2571652141,1.1286557534,4.4899991423\H,0,-4.
 4988042545,-0.0832699512,4.1500958528\H,0,-4.548017173,1.0005441899,2.
 0053672099\H,0,-5.4811885838,-0.679908747,-0.5902764401\H,0,-4.8986799
 53,-2.2651166912,-0.0807648437\H,0,-4.1288955553,-1.8514515119,2.57741
 16146\C,0,-1.5793158646,0.527635873,2.3499457832\H,0,-0.7924793527,-0.
 0853832509,1.9003268401\H,0,-1.9821136628,1.1929819089,1.5809722136\H,
 0,-1.1096160201,1.1620523291,3.1089532541\H,0,-3.4553915131,-0.2225561
 641,0.2542240761\\Version=EM64L-G09RevD.01\State=1-A\HF=-836.4696789\R
 MSD=7.374e-09\Dipole=-0.128125,-1.4136312,-0.3001137\Quadrupole=8.9440
 973,-11.3310656,2.3869683,0.3035229,-4.5919145,-3.2093391\PG=C01 [X(C1
 3H19F2N1O1)]\\@


 TO DETECT ERRORS, THE PROGRAMMER MUST HAVE A CONNIVING MIND,
 ONE THAT DELIGHTS IN UNCOVERING FLAWS WHERE BEAUTY AND
 PERFECTION WERE ONCE THOUGHT TO LIE.

             -- THE PSYCHOLOGY OF COMPUTER PROGRAMMING
                GERALD M. WEINBERG
 Job cpu time:       0 days  0 hours 28 minutes 29.3 seconds.
 File lengths (MBytes):  RWF=    179 Int=      0 D2E=      0 Chk=     14 Scr=      1
 Normal termination of Gaussian 09 at Wed Mar  6 12:39:55 2019.
