 Entering Gaussian System, Link 0=/usr/local/shared/gaussian/em64t/09-D01/g09/g09
 Initial command:
 /usr/local/shared/gaussian/em64t/09-D01/g09/l1.exe "/scratch/ke291/AT3_1ginp012/Gau-21634.inp" -scrdir="/scratch/ke291/AT3_1ginp012/"
 Entering Link 1 = /usr/local/shared/gaussian/em64t/09-D01/g09/l1.exe PID=     21638.
  
 Copyright (c) 1988,1990,1992,1993,1995,1998,2003,2009,2013,
            Gaussian, Inc.  All Rights Reserved.
  
 This is part of the Gaussian(R) 09 program.  It is based on
 the Gaussian(R) 03 system (copyright 2003, Gaussian, Inc.),
 the Gaussian(R) 98 system (copyright 1998, Gaussian, Inc.),
 the Gaussian(R) 94 system (copyright 1995, Gaussian, Inc.),
 the Gaussian 92(TM) system (copyright 1992, Gaussian, Inc.),
 the Gaussian 90(TM) system (copyright 1990, Gaussian, Inc.),
 the Gaussian 88(TM) system (copyright 1988, Gaussian, Inc.),
 the Gaussian 86(TM) system (copyright 1986, Carnegie Mellon
 University), and the Gaussian 82(TM) system (copyright 1983,
 Carnegie Mellon University). Gaussian is a federally registered
 trademark of Gaussian, Inc.
  
 This software contains proprietary and confidential information,
 including trade secrets, belonging to Gaussian, Inc.
  
 This software is provided under written license and may be
 used, copied, transmitted, or stored only in accord with that
 written license.
  
 The following legend is applicable only to US Government
 contracts under FAR:
  
                    RESTRICTED RIGHTS LEGEND
  
 Use, reproduction and disclosure by the US Government is
 subject to restrictions as set forth in subparagraphs (a)
 and (c) of the Commercial Computer Software - Restricted
 Rights clause in FAR 52.227-19.
  
 Gaussian, Inc.
 340 Quinnipiac St., Bldg. 40, Wallingford CT 06492
  
  
 ---------------------------------------------------------------
 Warning -- This program may not be used in any manner that
 competes with the business of Gaussian, Inc. or will provide
 assistance to any competitor of Gaussian, Inc.  The licensee
 of this program is prohibited from giving any competitor of
 Gaussian, Inc. access to this program.  By using this program,
 the user acknowledges that Gaussian, Inc. is engaged in the
 business of creating and licensing software in the field of
 computational chemistry and represents and warrants to the
 licensee that it is not a competitor of Gaussian, Inc. and that
 it will not use this program in any manner prohibited above.
 ---------------------------------------------------------------
  

 Cite this work as:
 Gaussian 09, Revision D.01,
 M. J. Frisch, G. W. Trucks, H. B. Schlegel, G. E. Scuseria, 
 M. A. Robb, J. R. Cheeseman, G. Scalmani, V. Barone, B. Mennucci, 
 G. A. Petersson, H. Nakatsuji, M. Caricato, X. Li, H. P. Hratchian, 
 A. F. Izmaylov, J. Bloino, G. Zheng, J. L. Sonnenberg, M. Hada, 
 M. Ehara, K. Toyota, R. Fukuda, J. Hasegawa, M. Ishida, T. Nakajima, 
 Y. Honda, O. Kitao, H. Nakai, T. Vreven, J. A. Montgomery, Jr., 
 J. E. Peralta, F. Ogliaro, M. Bearpark, J. J. Heyd, E. Brothers, 
 K. N. Kudin, V. N. Staroverov, T. Keith, R. Kobayashi, J. Normand, 
 K. Raghavachari, A. Rendell, J. C. Burant, S. S. Iyengar, J. Tomasi, 
 M. Cossi, N. Rega, J. M. Millam, M. Klene, J. E. Knox, J. B. Cross, 
 V. Bakken, C. Adamo, J. Jaramillo, R. Gomperts, R. E. Stratmann, 
 O. Yazyev, A. J. Austin, R. Cammi, C. Pomelli, J. W. Ochterski, 
 R. L. Martin, K. Morokuma, V. G. Zakrzewski, G. A. Voth, 
 P. Salvador, J. J. Dannenberg, S. Dapprich, A. D. Daniels, 
 O. Farkas, J. B. Foresman, J. V. Ortiz, J. Cioslowski, 
 and D. J. Fox, Gaussian, Inc., Wallingford CT, 2013.
 
 ******************************************
 Gaussian 09:  EM64L-G09RevD.01 24-Apr-2013
                 6-Mar-2019 
 ******************************************
 %nprocshared=2
 Will use up to    2 processors via shared memory.
 %mem=6000MB
 %chk=AT3_1ginp012.chk
 ----------------------------------------------------------------------
 # mPW1PW91/6-311g(d) geom=checkpoint nmr=giao scrf=(solvent=chloroform
 )
 ----------------------------------------------------------------------
 1/29=2,38=1/1;
 2/12=2,40=1/2;
 3/5=4,6=6,7=1,11=2,14=-4,16=1,25=1,30=1,70=2201,72=7,74=-7/1,2,8,3;
 4//1;
 5/5=2,38=5,53=7/2;
 8/6=1,10=90,11=11/1;
 10/13=100,45=16/2;
 6/7=2,8=2,9=2,10=2,28=1/1;
 99/9=1/99;
 ------------
 AT3_1ginp012
 ------------
 Structure from the checkpoint file:  "AT3_1ginp012.chk"
 Charge =  0 Multiplicity = 1
 Redundant internal coordinates found in file.
 C,0,-2.5724361354,-0.0314028347,1.5164962594
 C,0,-1.3826083119,0.8533208755,1.1284966556
 C,0,-0.268884053,0.9253113315,2.1948951398
 C,0,-0.6943404391,1.6697943974,3.4870561324
 C,0,-0.8336079316,3.1833514729,3.2849553619
 O,0,-1.4672244578,3.7220374786,4.4479519746
 N,0,0.9369856496,1.5596245852,1.6267458267
 C,0,1.7365589196,0.6614654018,0.7804848977
 C,0,5.4244326752,2.5696150684,-0.4836031734
 C,0,4.4241438766,2.3182558807,-1.4225700303
 C,0,3.2489199995,1.7093851837,-0.9955976452
 C,0,3.0148236683,1.32740379,0.3265032963
 C,0,4.052427289,1.6077967759,1.2179179038
 C,0,5.246149072,2.2154110031,0.8552810834
 H,0,6.3481423488,3.0454394724,-0.7955785273
 H,0,4.5384214634,2.5839219101,-2.4670955412
 H,0,6.0050993956,2.4010768277,1.6063407522
 F,0,2.2846676037,1.4649881241,-1.9130157984
 F,0,3.8649044389,1.2669957268,2.519782871
 H,0,-3.287090883,-0.1019306813,0.6904291073
 H,0,-2.2464343986,-1.0492110304,1.7600774169
 H,0,-3.1153116794,0.358454566,2.3832747234
 H,0,-0.9484328915,0.4595658839,0.2024548914
 H,0,-1.7258769641,1.8658316481,0.8878106348
 H,0,-1.6937874822,1.3041855769,3.7524616675
 H,0,-1.4309453558,3.3960819519,2.3875171588
 H,0,0.1548934476,3.6394231525,3.1316386131
 H,0,-1.4822617342,4.6830831538,4.352874355
 H,0,1.9910739666,-0.2798324713,1.2998637563
 H,0,1.1576325747,0.3888391402,-0.1034408218
 H,0,-0.0481516731,-0.1181150625,2.4969307554
 C,0,0.2316117748,1.3538033159,4.6737373364
 H,0,1.26685102,1.6664101117,4.4881899959
 H,0,-0.1104390061,1.8781685464,5.5688976769
 H,0,0.2432800572,0.2796967468,4.8856712961
 H,0,1.537308156,1.8433839805,2.3966379978
 Recover connectivity data from disk.
                          Input orientation:                          
 ---------------------------------------------------------------------
 Center     Atomic      Atomic             Coordinates (Angstroms)
 Number     Number       Type             X           Y           Z
 ---------------------------------------------------------------------
      1          6           0       -2.572436   -0.031403    1.516496
      2          6           0       -1.382608    0.853321    1.128497
      3          6           0       -0.268884    0.925311    2.194895
      4          6           0       -0.694340    1.669794    3.487056
      5          6           0       -0.833608    3.183351    3.284955
      6          8           0       -1.467224    3.722037    4.447952
      7          7           0        0.936986    1.559625    1.626746
      8          6           0        1.736559    0.661465    0.780485
      9          6           0        5.424433    2.569615   -0.483603
     10          6           0        4.424144    2.318256   -1.422570
     11          6           0        3.248920    1.709385   -0.995598
     12          6           0        3.014824    1.327404    0.326503
     13          6           0        4.052427    1.607797    1.217918
     14          6           0        5.246149    2.215411    0.855281
     15          1           0        6.348142    3.045439   -0.795579
     16          1           0        4.538421    2.583922   -2.467096
     17          1           0        6.005099    2.401077    1.606341
     18          9           0        2.284668    1.464988   -1.913016
     19          9           0        3.864904    1.266996    2.519783
     20          1           0       -3.287091   -0.101931    0.690429
     21          1           0       -2.246434   -1.049211    1.760077
     22          1           0       -3.115312    0.358455    2.383275
     23          1           0       -0.948433    0.459566    0.202455
     24          1           0       -1.725877    1.865832    0.887811
     25          1           0       -1.693787    1.304186    3.752462
     26          1           0       -1.430945    3.396082    2.387517
     27          1           0        0.154893    3.639423    3.131639
     28          1           0       -1.482262    4.683083    4.352874
     29          1           0        1.991074   -0.279832    1.299864
     30          1           0        1.157633    0.388839   -0.103441
     31          1           0       -0.048152   -0.118115    2.496931
     32          6           0        0.231612    1.353803    4.673737
     33          1           0        1.266851    1.666410    4.488190
     34          1           0       -0.110439    1.878169    5.568898
     35          1           0        0.243280    0.279697    4.885671
     36          1           0        1.537308    1.843384    2.396638
 ---------------------------------------------------------------------
                    Distance matrix (angstroms):
                    1          2          3          4          5
     1  C    0.000000
     2  C    1.532635   0.000000
     3  C    2.584933   1.543622   0.000000
     4  C    3.210050   2.589043   1.550790   0.000000
     5  C    4.060248   3.221918   2.570193   1.533328   0.000000
     6  O    4.889094   4.388106   3.786022   2.394237   1.429760
     7  N    3.854811   2.475406   1.476235   2.476715   2.919101
     8  C    4.425971   3.144380   2.468192   3.775119   4.386119
     9  C    8.643819   7.202801   6.503226   7.349503   7.330878
    10  C    7.944252   6.509404   6.086942   7.122065   7.110073
    11  C    6.574888   5.166786   4.813415   5.970348   6.096125
    12  C    5.871960   4.495037   3.799382   4.885102   5.196865
    13  C    6.831174   5.487881   4.482633   5.261619   5.534289
    14  C    8.161841   6.772766   5.820182   6.520226   6.618434
    15  H    9.715419   8.262684   7.564583   8.356430   8.261193
    16  H    8.559978   7.140158   6.898937   7.979308   7.893295
    17  H    8.916229   7.563208   6.472028   6.996739   7.085028
    18  F    6.131247   4.803524   4.866910   6.170673   6.300422
    19  F    6.643175   5.444556   4.160590   4.678096   5.131659
    20  H    1.094574   2.175193   3.525368   4.205055   4.852239
    21  H    1.096149   2.182823   2.828164   3.575534   4.715498
    22  H    1.094535   2.195819   2.908430   2.966319   3.741556
    23  H    2.145959   1.095949   2.156044   3.509675   4.115094
    24  H    2.170578   1.095875   2.171607   2.803315   2.877204
    25  H    2.748702   2.680542   2.144740   1.096816   2.118900
    26  H    3.716091   2.837799   2.737188   2.175234   1.098846
    27  H    4.849946   3.760167   2.902323   2.174157   1.099383
    28  H    5.608912   5.007357   4.500001   3.232703   1.952024
    29  H    4.575398   3.563023   2.713091   3.974457   4.890098
    30  H    4.088302   2.861160   2.757735   4.238198   4.822403
    31  H    2.709388   2.144079   1.108462   2.143485   3.483907
    32  C    4.444058   3.927457   2.564909   1.538002   2.531927
    33  H    5.143312   4.355260   2.857781   2.201943   2.856714
    34  H    5.111736   4.731373   3.509549   2.172194   2.728162
    35  H    4.401861   4.133875   2.814144   2.183490   3.486143
    36  H    4.602116   3.333815   2.036145   2.489860   2.864588
                    6          7          8          9         10
     6  O    0.000000
     7  N    4.291324   0.000000
     8  C    5.751664   1.470430   0.000000
     9  C    8.552383   5.060715   4.340434   0.000000
    10  C    8.434563   4.694052   3.849873   1.394782   0.000000
    11  C    7.478303   3.499165   2.557311   2.394784   1.390748
    12  C    6.542887   2.462106   1.511137   2.829413   2.455042
    13  C    6.735703   3.142521   2.539712   2.388026   2.759547
    14  C    7.761868   4.426523   3.838954   1.396373   2.423814
    15  H    9.435696   6.111949   5.425312   1.084886   2.150275
    16  H    9.229354   5.547888   4.700325   2.172432   1.083823
    17  H    8.102797   5.137532   4.682812   2.175648   3.417686
    18  F    7.722233   3.788814   2.863742   3.622367   2.354987
    19  F    6.178727   3.075037   2.814548   3.626193   4.118257
    20  H    5.661592   4.634682   5.082120   9.187282   8.353754
    21  H    5.531424   4.118005   4.444125   8.773381   8.121927
    22  H    4.277005   4.293747   5.118730   9.275530   8.669986
    23  H    5.379323   2.606441   2.753918   6.748066   5.912700
    24  H    4.023308   2.780400   3.667489   7.314576   6.585234
    25  H    2.526073   3.391885   4.583995   8.379416   8.077028
    26  H    2.086374   3.091674   4.482607   7.478141   7.068277
    27  H    2.090639   2.683642   4.110696   6.479391   6.380658
    28  H    0.965854   4.800055   6.268667   8.692565   8.592659
    29  H    6.155100   2.145124   1.104796   4.805003   4.481243
    30  H    6.222159   2.100707   1.091240   4.806859   4.016572
    31  H    4.535088   2.131321   2.595982   6.786505   6.426493
    32  C    2.923278   3.134338   4.231030   7.419013   7.461398
    33  H    3.420876   2.882374   3.870093   6.543699   6.732792
    34  H    2.548968   4.091348   5.274530   8.230776   8.344863
    35  H    3.868738   3.569319   4.384995   7.804946   7.837682
    36  H    4.094441   1.016681   2.012109   4.892130   4.810995
                   11         12         13         14         15
    11  C    0.000000
    12  C    1.395945   0.000000
    13  C    2.357031   1.396374   0.000000
    14  C    2.769610   2.459060   1.387686   0.000000
    15  H    3.380862   3.914298   3.375099   2.151435   0.000000
    16  H    2.143113   3.421167   3.842959   3.416850   2.506403
    17  H    3.852927   3.425275   2.143150   1.083775   2.510398
    18  F    1.353207   2.359556   3.598349   4.122739   4.500924
    19  F    3.596254   2.353032   1.358736   2.361757   4.507877
    20  H    6.988776   6.472215   7.554465   8.843836  10.244602
    21  H    6.738139   5.948468   6.857790   8.222847   9.857195
    22  H    7.331114   6.538175   7.368541   8.700407  10.338373
    23  H    4.540391   4.059056   5.230507   6.471632   7.805307
    24  H    5.321683   4.804083   5.793475   6.980860   8.331570
    25  H    6.865756   5.823122   6.287692   7.575401   9.401557
    26  H    6.015941   5.319029   5.885007   6.951642   8.412446
    27  H    5.507461   4.625302   4.793809   5.755910   7.357458
    28  H    7.735187   6.906231   7.065276   7.974589   9.513342
    29  H    3.287599   2.139790   2.796254   4.125458   5.867909
    30  H    2.629310   2.124833   3.407592   4.579463   5.871795
    31  H    5.138890   4.022698   4.629189   6.014148   7.858834
    32  C    6.432103   5.161919   5.158084   6.361490   8.377768
    33  H    5.831155   4.526585   4.296225   5.416110   7.459186
    34  H    7.376068   6.128075   6.027734   7.143175   9.142338
    35  H    6.757751   5.437385   5.452143   6.709675   8.786084
    36  H    3.801951   2.595139   2.787599   4.033570   5.897399
                   16         17         18         19         20
    16  H    0.000000
    17  H    4.333297   0.000000
    18  F    2.576514   5.206126   0.000000
    19  F    5.201622   2.588619   4.710207   0.000000
    20  H    8.855643   9.666889   6.346468   7.508098   0.000000
    21  H    8.780827   8.945162   6.351669   6.579546   1.767612
    22  H    9.330511   9.378584   6.988727   7.040419   1.762722
    23  H    6.461034   7.354724   3.992371   5.402793   2.454123
    24  H    7.142302   7.782722   4.908133   5.854808   2.519610
    25  H    8.897249   8.067333   6.924709   5.693851   3.727173
    26  H    7.736938   7.542880   6.002457   5.709337   4.308303
    27  H    7.188548   6.171300   5.891744   4.446005   5.639547
    28  H    9.336332   8.295274   7.987945   6.604700   6.290252
    29  H    5.374016   4.836693   3.667859   2.718845   5.316210
    30  H    4.672792   5.519999   2.388067   3.870631   4.541657
    31  H    7.278682   6.616746   5.234108   4.151031   3.708698
    32  C    8.429312   6.621092   6.900197   4.224674   5.510642
    33  H    7.740865   5.594264   6.484748   3.283906   6.187762
    34  H    9.310595   7.305826   7.866784   5.047176   6.149095
    35  H    8.821614   6.960806   7.196827   4.437156   5.496291
    36  H    5.762897   4.571296   4.390313   2.401061   5.474507
                   21         22         23         24         25
    21  H    0.000000
    22  H    1.767723   0.000000
    23  H    2.527331   3.075965   0.000000
    24  H    3.086957   2.537544   1.746916   0.000000
    25  H    3.132649   2.188564   3.724444   2.919367   0.000000
    26  H    4.562821   3.473368   3.691943   2.162815   2.511611
    27  H    5.443422   4.692446   4.461943   3.423111   3.042429
    28  H    6.337646   5.024797   5.945507   4.472463   3.438341
    29  H    4.331307   5.258932   3.223619   4.311541   4.701335
    30  H    4.138642   4.943959   2.129339   3.388025   4.882258
    31  H    2.498467   3.106044   2.531569   3.056154   2.511457
    32  C    4.517146   4.175983   4.710046   4.292689   2.135035
    33  H    5.211561   5.034359   4.973076   4.686035   3.072114
    34  H    5.257294   4.635405   5.613678   4.952006   2.477073
    35  H    4.211177   4.189073   4.835809   4.730359   2.466976
    36  H    4.805104   4.883858   3.592812   3.595197   3.545275
                   26         27         28         29         30
    26  H    0.000000
    27  H    1.768563   0.000000
    28  H    2.349816   2.293670   0.000000
    29  H    5.138633   4.699736   6.783470   0.000000
    30  H    4.684988   4.694414   6.728173   1.763806   0.000000
    31  H    3.778051   3.816173   5.343473   2.370140   2.910816
    32  C    3.487377   2.758263   3.758247   4.140954   4.960857
    33  H    3.831801   2.639974   4.083656   3.804968   4.767304
    34  H    3.764171   3.018717   3.350844   5.224746   6.000128
    35  H    4.330781   3.791069   4.759325   4.028135   5.073381
    36  H    3.349848   2.382657   4.583509   2.432461   2.917233
                   31         32         33         34         35
    31  H    0.000000
    32  C    2.642593   0.000000
    33  H    2.979744   1.097211   0.000000
    34  H    3.664152   1.092369   1.763434   0.000000
    35  H    2.439112   1.094878   1.768803   1.773986   0.000000
    36  H    2.524128   2.670152   2.116378   3.574844   3.211684
                   36
    36  H    0.000000
 Stoichiometry    C13H19F2NO
 Framework group  C1[X(C13H19F2NO)]
 Deg. of freedom   102
 Full point group                 C1      NOp   1
 Largest Abelian subgroup         C1      NOp   1
 Largest concise Abelian subgroup C1      NOp   1
                         Standard orientation:                         
 ---------------------------------------------------------------------
 Center     Atomic      Atomic             Coordinates (Angstroms)
 Number     Number       Type             X           Y           Z
 ---------------------------------------------------------------------
      1          6           0       -3.450706    2.560450   -0.700058
      2          6           0       -2.218259    1.950696   -0.023121
      3          6           0       -1.848314    0.539457   -0.527418
      4          6           0       -2.882807   -0.548888   -0.139760
      5          6           0       -2.857145   -0.890796    1.354742
      6          8           0       -4.002814   -1.698249    1.637014
      7          7           0       -0.511537    0.157745   -0.030838
      8          6           0        0.596133    0.769920   -0.779487
      9          6           0        4.429849   -0.758041    0.564883
     10          6           0        4.083197    0.564854    0.839110
     11          6           0        2.848539    1.033077    0.402570
     12          6           0        1.933539    0.251055   -0.304452
     13          6           0        2.337838   -1.063606   -0.545427
     14          6           0        3.553594   -1.591030   -0.133804
     15          1           0        5.387550   -1.143611    0.898231
     16          1           0        4.745621    1.230860    1.379758
     17          1           0        3.795784   -2.623253   -0.358368
     18          9           0        2.520908    2.318761    0.668736
     19          9           0        1.473937   -1.867986   -1.218340
     20          1           0       -3.612659    3.586715   -0.355613
     21          1           0       -3.329596    2.591923   -1.789041
     22          1           0       -4.364454    1.997605   -0.484932
     23          1           0       -1.364569    2.614839   -0.199845
     24          1           0       -2.355614    1.927388    1.063862
     25          1           0       -3.876923   -0.131046   -0.340123
     26          1           0       -2.875314    0.027698    1.957651
     27          1           0       -1.930262   -1.425485    1.607006
     28          1           0       -3.942405   -1.977429    2.559664
     29          1           0        0.510850    0.590619   -1.866295
     30          1           0        0.575079    1.851261   -0.634359
     31          1           0       -1.847963    0.586096   -1.634898
     32          6           0       -2.744732   -1.816978   -0.999023
     33          1           0       -1.764435   -2.295243   -0.880058
     34          1           0       -3.501117   -2.551024   -0.712095
     35          1           0       -2.873223   -1.585581   -2.061427
     36          1           0       -0.411048   -0.848534   -0.135455
 ---------------------------------------------------------------------
 Rotational constants (GHZ):      0.6996707      0.2383812      0.2039246
 Standard basis: 6-311G(d) (5D, 7F)
 There are   380 symmetry adapted cartesian basis functions of A   symmetry.
 There are   363 symmetry adapted basis functions of A   symmetry.
   363 basis functions,   639 primitive gaussians,   380 cartesian basis functions
    65 alpha electrons       65 beta electrons
       nuclear repulsion energy      1252.3408810527 Hartrees.
 NAtoms=   36 NActive=   36 NUniq=   36 SFac= 1.00D+00 NAtFMM=   60 NAOKFM=F Big=F
 Integral buffers will be    131072 words long.
 Raffenetti 2 integral format.
 Two-electron integral symmetry is turned on.
 ------------------------------------------------------------------------------
 Polarizable Continuum Model (PCM)
 =================================
 Model                : PCM (using non-symmetric T matrix).
 Atomic radii         : UFF (Universal Force Field).
 Polarization charges : Total charges.
 Charge compensation  : None.
 Solution method      : On-the-fly selection.
 Cavity type          : Scaled VdW (van der Waals Surface) (Alpha=1.100).
 Cavity algorithm     : GePol (No added spheres)
                        Default sphere list used, NSphG=   36.
                        Lebedev-Laikov grids with approx.  5.0 points / Ang**2.
                        Smoothing algorithm: Karplus/York (Gamma=1.0000).
                        Polarization charges: spherical gaussians, with
                                              point-specific exponents (IZeta= 3).
                        Self-potential: point-specific (ISelfS= 7).
                        Self-field    : sphere-specific E.n sum rule (ISelfD= 2).
 Solvent              : Chloroform, Eps=   4.711300 Eps(inf)=   2.090627
 ------------------------------------------------------------------------------
 One-electron integrals computed using PRISM.
 NBasis=   363 RedAO= T EigKep=  2.28D-04  NBF=   363
 NBsUse=   363 1.00D-06 EigRej= -1.00D+00 NBFU=   363
 ExpMin= 1.03D-01 ExpMax= 1.14D+04 ExpMxC= 1.72D+03 IAcc=1 IRadAn=         1 AccDes= 0.00D+00
 Harris functional with IExCor=  908 and IRadAn=       1 diagonalized for initial guess.
 HarFok:  IExCor=  908 AccDes= 0.00D+00 IRadAn=         1 IDoV= 1 UseB2=F ITyADJ=14
 ICtDFT=  3500011 ScaDFX=  1.000000  1.000000  1.000000  1.000000
 FoFCou: FMM=F IPFlag=           0 FMFlag=      100000 FMFlg1=           0
         NFxFlg=           0 DoJE=T BraDBF=F KetDBF=T FulRan=T
         wScrn=  0.000000 ICntrl=     500 IOpCl=  0 I1Cent=   200000004 NGrid=           0
         NMat0=    1 NMatS0=      1 NMatT0=    0 NMatD0=    1 NMtDS0=    0 NMtDT0=    0
 Petite list used in FoFCou.
 Requested convergence on RMS density matrix=1.00D-08 within 128 cycles.
 Requested convergence on MAX density matrix=1.00D-06.
 Requested convergence on             energy=1.00D-06.
 No special actions if energy rises.
 Inv3:  Mode=1 IEnd=    19278675.
 Iteration    1 A*A^-1 deviation from unit magnitude is 7.55D-15 for   1854.
 Iteration    1 A*A^-1 deviation from orthogonality  is 6.22D-15 for   2078    560.
 Iteration    1 A^-1*A deviation from unit magnitude is 7.22D-15 for   2391.
 Iteration    1 A^-1*A deviation from orthogonality  is 9.21D-13 for   2134   2096.
 Error on total polarization charges =  0.00943
 SCF Done:  E(RmPW1PW91) =  -836.459305041     A.U. after   12 cycles
            NFock= 12  Conv=0.67D-08     -V/T= 2.0038
 DoSCS=F DFT=T ScalE2(SS,OS)=  1.000000  1.000000
 Range of M.O.s used for correlation:     1   363
 NBasis=   363 NAE=    65 NBE=    65 NFC=     0 NFV=     0
 NROrb=    363 NOA=    65 NOB=    65 NVA=   298 NVB=   298

 **** Warning!!: The largest alpha MO coefficient is  0.13842327D+02

 NEqPCM:  Using equilibrium solvation (IEInf=0, Eps=   4.7113, EpsInf=   2.0906)
          Differentiating once with respect to magnetic field using GIAOs.
          Electric field/nuclear overlap derivatives assumed to be zero.
 FoFJK:  IHMeth= 1 ICntrl=    6127 DoSepK=F KAlg= 0 I1Cent=   0 FoldK=F
 IRaf=         1 NMat=   1 IRICut=       1 DoRegI=T DoRafI=F ISym2E= 0.
          There are     3 degrees of freedom in the 1st order CPHF.  IDoFFX=0 NUNeed=     3.
      3 vectors produced by pass  0 Test12= 6.46D-13 3.33D-08 XBig12= 4.58D+01 1.83D+00.
 AX will form     3 AO Fock derivatives at one time.
      3 vectors produced by pass  1 Test12= 6.46D-13 3.33D-08 XBig12= 1.43D-01 1.49D-01.
      3 vectors produced by pass  2 Test12= 6.46D-13 3.33D-08 XBig12= 6.82D-04 7.32D-03.
      3 vectors produced by pass  3 Test12= 6.46D-13 3.33D-08 XBig12= 1.55D-06 2.48D-04.
      3 vectors produced by pass  4 Test12= 6.46D-13 3.33D-08 XBig12= 3.51D-09 1.39D-05.
      3 vectors produced by pass  5 Test12= 6.46D-13 3.33D-08 XBig12= 1.40D-11 7.09D-07.
 InvSVY:  IOpt=1 It=  1 EMax= 8.88D-16
 Solved reduced A of dimension    18 with     3 vectors.
 Calculating GIAO nuclear magnetic shielding tensors.
 SCF GIAO Magnetic shielding tensor (ppm):
      1  C    Isotropic =   176.1721   Anisotropy =    21.1937
   XX=   178.4796   YX=    -9.7697   ZX=     8.0188
   XY=    -7.9140   YY=   173.6249   ZY=    -1.7709
   XZ=     8.4640   YZ=    -4.0069   ZZ=   176.4119
   Eigenvalues:   165.8434   172.3717   190.3013
      2  C    Isotropic =   162.8147   Anisotropy =    19.6740
   XX=   160.8094   YX=    -9.2286   ZX=     8.2433
   XY=   -12.5142   YY=   168.0942   ZY=     6.6217
   XZ=     9.9669   YZ=     7.4181   ZZ=   159.5406
   Eigenvalues:   144.3129   168.2005   175.9307
      3  C    Isotropic =   119.3793   Anisotropy =    21.8874
   XX=   129.9293   YX=     2.7460   ZX=     6.5557
   XY=   -14.8498   YY=   110.2414   ZY=    -0.4924
   XZ=     6.7285   YZ=     3.1073   ZZ=   117.9670
   Eigenvalues:   107.4829   116.6840   133.9709
      4  C    Isotropic =   149.7130   Anisotropy =    22.9120
   XX=   151.7457   YX=     8.3667   ZX=    -2.7516
   XY=    11.1040   YY=   142.6022   ZY=    -2.0982
   XZ=   -10.4863   YZ=    -8.6531   ZZ=   154.7911
   Eigenvalues:   136.3539   147.7974   164.9877
      5  C    Isotropic =   122.6474   Anisotropy =    57.6691
   XX=   140.3999   YX=    25.8552   ZX=   -15.3360
   XY=    27.3991   YY=   116.5342   ZY=    -9.8352
   XZ=    -6.7980   YZ=    -4.3361   ZZ=   111.0082
   Eigenvalues:    99.2877   107.5610   161.0935
      6  O    Isotropic =   310.8002   Anisotropy =    93.8865
   XX=   292.9152   YX=    -2.0472   ZX=    10.2404
   XY=    -2.9232   YY=   276.1438   ZY=   -23.8250
   XZ=   -14.4933   YZ=   -38.6306   ZZ=   363.3414
   Eigenvalues:   265.7785   293.2308   373.3912
      7  N    Isotropic =   205.5896   Anisotropy =    56.1171
   XX=   219.4909   YX=   -29.0826   ZX=     9.9180
   XY=    -3.1711   YY=   213.0977   ZY=   -25.6678
   XZ=     1.7380   YZ=   -32.0943   ZZ=   184.1801
   Eigenvalues:   166.0886   207.6791   243.0009
      8  C    Isotropic =   145.0594   Anisotropy =    51.8828
   XX=   161.5746   YX=    12.4056   ZX=   -12.7063
   XY=    18.4488   YY=   121.7777   ZY=   -13.3707
   XZ=   -15.9082   YZ=   -16.5145   ZZ=   151.8260
   Eigenvalues:   113.6587   141.8716   179.6480
      9  C    Isotropic =    54.0455   Anisotropy =   188.2264
   XX=    -6.6105   YX=    43.8398   ZX=   -75.5392
   XY=    43.9594   YY=    34.9696   ZY=   -27.0725
   XZ=   -74.9616   YZ=   -28.1534   ZZ=   133.7774
   Eigenvalues:   -50.4417    33.0485   179.5298
     10  C    Isotropic =    72.0015   Anisotropy =   146.6356
   XX=    52.9389   YX=    -9.5333   ZX=   -59.9307
   XY=   -16.5743   YY=    39.4136   ZY=   -51.4753
   XZ=   -61.9554   YZ=   -48.0470   ZZ=   123.6522
   Eigenvalues:   -12.0887    58.3347   169.7586
     11  C    Isotropic =    19.4844   Anisotropy =    96.8810
   XX=    38.2880   YX=    32.2129   ZX=   -12.1809
   XY=    22.7926   YY=   -46.5935   ZY=   -32.3351
   XZ=   -13.1531   YZ=   -31.8475   ZZ=    66.7589
   Eigenvalues:   -60.7200    35.1016    84.0718
     12  C    Isotropic =    66.0498   Anisotropy =   137.8959
   XX=    42.3980   YX=    20.9185   ZX=   -51.9966
   XY=    20.1624   YY=    34.6464   ZY=   -32.4894
   XZ=   -49.9739   YZ=   -32.3747   ZZ=   121.1050
   Eigenvalues:    15.2737    24.8953   157.9804
     13  C    Isotropic =    16.9897   Anisotropy =    95.4678
   XX=     5.7190   YX=   -35.9734   ZX=   -49.0926
   XY=   -30.7923   YY=     0.5079   ZY=   -40.8193
   XZ=   -45.9219   YZ=   -40.3149   ZZ=    44.7421
   Eigenvalues:   -65.4634    35.7976    80.6349
     14  C    Isotropic =    72.5496   Anisotropy =   146.1394
   XX=    76.5696   YX=    22.6455   ZX=   -37.8857
   XY=    29.7333   YY=     2.9314   ZY=   -41.0444
   XZ=   -36.2346   YZ=   -42.7623   ZZ=   138.1479
   Eigenvalues:   -11.9312    59.6043   169.9759
     15  H    Isotropic =    24.6292   Anisotropy =     3.1659
   XX=    25.4414   YX=    -0.3656   ZX=     1.8370
   XY=    -0.3747   YY=    26.1066   ZY=     1.5270
   XZ=     1.8059   YZ=     1.4848   ZZ=    22.3396
   Eigenvalues:    21.0394    26.1084    26.7398
     16  H    Isotropic =    25.1334   Anisotropy =     4.7869
   XX=    27.1316   YX=    -1.2054   ZX=     2.1798
   XY=    -1.4318   YY=    25.7584   ZY=     0.7379
   XZ=     2.0302   YZ=     0.8635   ZZ=    22.5101
   Eigenvalues:    21.3456    25.7299    28.3246
     17  H    Isotropic =    25.1067   Anisotropy =     5.2460
   XX=    27.5438   YX=    -1.3750   ZX=     2.1815
   XY=    -1.1204   YY=    25.2166   ZY=     0.8833
   XZ=     2.2045   YZ=     0.8764   ZZ=    22.5596
   Eigenvalues:    21.3120    25.4041    28.6040
     18  F    Isotropic =   295.2675   Anisotropy =   118.2224
   XX=   244.7246   YX=    -1.0882   ZX=   -64.0595
   XY=     1.4269   YY=   304.2335   ZY=   -23.4791
   XZ=   -61.9643   YZ=   -19.1153   ZZ=   336.8445
   Eigenvalues:   211.7345   299.9857   374.0824
     19  F    Isotropic =   300.1866   Anisotropy =   116.9248
   XX=   268.4178   YX=    38.9169   ZX=   -34.9850
   XY=    48.9846   YY=   263.2315   ZY=   -11.4846
   XZ=   -18.2709   YZ=     0.0213   ZZ=   368.9104
   Eigenvalues:   220.4026   302.0206   378.1364
     20  H    Isotropic =    30.9735   Anisotropy =    11.2375
   XX=    29.3663   YX=    -4.4101   ZX=     0.3364
   XY=    -3.6097   YY=    36.5630   ZY=     1.6396
   XZ=     0.6847   YZ=     1.2966   ZZ=    26.9912
   Eigenvalues:    26.1126    28.3428    38.4652
     21  H    Isotropic =    31.3273   Anisotropy =     9.0542
   XX=    28.9446   YX=    -1.9946   ZX=     2.1818
   XY=    -2.0670   YY=    29.3221   ZY=    -2.8541
   XZ=     1.1587   YZ=    -2.6470   ZZ=    35.7152
   Eigenvalues:    27.0329    29.5856    37.3635
     22  H    Isotropic =    31.0188   Anisotropy =     7.6685
   XX=    36.1138   YX=     0.5898   ZX=    -0.3620
   XY=    -0.0675   YY=    30.8611   ZY=    -1.7559
   XZ=     0.0957   YZ=    -1.1967   ZZ=    26.0816
   Eigenvalues:    25.6621    31.2632    36.1311
     23  H    Isotropic =    30.3668   Anisotropy =     7.3163
   XX=    34.6820   YX=     1.0146   ZX=    -0.1005
   XY=     1.1756   YY=    33.0593   ZY=    -0.0258
   XZ=     0.6164   YZ=     0.5944   ZZ=    23.3591
   Eigenvalues:    23.3462    32.5098    35.2444
     24  H    Isotropic =    30.7221   Anisotropy =     5.7221
   XX=    27.7633   YX=    -1.1600   ZX=     0.1991
   XY=    -0.9238   YY=    30.2564   ZY=     1.5118
   XZ=    -0.5108   YZ=     0.9645   ZZ=    34.1466
   Eigenvalues:    27.3732    30.2563    34.5368
     25  H    Isotropic =    30.0187   Anisotropy =     6.5049
   XX=    32.5436   YX=    -2.1237   ZX=     0.7469
   XY=    -1.5910   YY=    32.2650   ZY=    -0.6403
   XZ=     0.7884   YZ=    -0.3433   ZZ=    25.2476
   Eigenvalues:    25.1544    30.5465    34.3553
     26  H    Isotropic =    28.2527   Anisotropy =     5.4582
   XX=    25.9157   YX=     4.0818   ZX=    -2.0448
   XY=     3.0603   YY=    29.4435   ZY=     1.1912
   XZ=    -3.0004   YZ=     0.4845   ZZ=    29.3989
   Eigenvalues:    22.6938    30.1728    31.8915
     27  H    Isotropic =    28.8418   Anisotropy =     6.9138
   XX=    32.6513   YX=     0.5263   ZX=     0.2377
   XY=     2.8879   YY=    26.0381   ZY=    -3.6856
   XZ=    -1.0661   YZ=    -3.5694   ZZ=    27.8361
   Eigenvalues:    23.0727    30.0017    33.4510
     28  H    Isotropic =    31.6321   Anisotropy =    20.1622
   XX=    26.9543   YX=     3.4586   ZX=    -2.0363
   XY=     3.3307   YY=    26.3032   ZY=    -7.7175
   XZ=    -1.3319   YZ=    -7.0719   ZZ=    41.6389
   Eigenvalues:    21.9543    27.8685    45.0736
     29  H    Isotropic =    28.6243   Anisotropy =     5.9284
   XX=    28.1280   YX=     0.1143   ZX=    -2.8783
   XY=    -1.1921   YY=    25.4807   ZY=    -1.3093
   XZ=     0.5808   YZ=     0.3646   ZZ=    32.2641
   Eigenvalues:    25.3042    27.9921    32.5765
     30  H    Isotropic =    28.2390   Anisotropy =     7.8203
   XX=    31.5533   YX=     2.4750   ZX=     0.6868
   XY=     1.4492   YY=    31.2821   ZY=     0.9427
   XZ=     1.4899   YZ=    -0.6858   ZZ=    21.8817
   Eigenvalues:    21.7598    29.5047    33.4526
     31  H    Isotropic =    29.3849   Anisotropy =     2.5043
   XX=    28.7087   YX=    -1.2015   ZX=     1.4927
   XY=    -0.3206   YY=    28.8786   ZY=    -0.4543
   XZ=     0.2354   YZ=    -0.1261   ZZ=    30.5674
   Eigenvalues:    27.9374    29.1629    31.0544
     32  C    Isotropic =   171.1739   Anisotropy =    29.2238
   XX=   154.6790   YX=    -7.3055   ZX=     0.6762
   XY=    -1.6209   YY=   179.2896   ZY=    11.9966
   XZ=    -1.1027   YZ=     9.8638   ZZ=   179.5532
   Eigenvalues:   153.7622   169.1032   190.6565
     33  H    Isotropic =    31.2142   Anisotropy =     7.4338
   XX=    34.0554   YX=    -2.0176   ZX=     0.1326
   XY=    -2.6636   YY=    33.0669   ZY=     1.8566
   XZ=    -0.8377   YZ=     1.7967   ZZ=    26.5202
   Eigenvalues:    26.0366    31.4359    36.1701
     34  H    Isotropic =    30.3540   Anisotropy =     9.3024
   XX=    29.4441   YX=     4.5434   ZX=    -0.9091
   XY=     5.3427   YY=    33.0837   ZY=     1.3132
   XZ=    -1.8647   YZ=     1.6726   ZZ=    28.5341
   Eigenvalues:    24.9002    29.6061    36.5556
     35  H    Isotropic =    31.2886   Anisotropy =     9.3982
   XX=    27.9221   YX=     0.5034   ZX=     2.3157
   XY=     0.2613   YY=    29.3252   ZY=     2.4030
   XZ=     2.0270   YZ=     1.2532   ZZ=    36.6184
   Eigenvalues:    27.4086    28.9030    37.5540
     36  H    Isotropic =    31.1426   Anisotropy =    10.4810
   XX=    37.0860   YX=    -1.8573   ZX=    -1.5757
   XY=    -0.0853   YY=    37.0370   ZY=     0.5484
   XZ=    -2.8544   YZ=    -1.4013   ZZ=    19.3048
   Eigenvalues:    19.0167    36.2812    38.1299
 End of Minotr F.D. properties file   721 does not exist.
 End of Minotr F.D. properties file   722 does not exist.
 End of Minotr F.D. properties file   788 does not exist.

 **********************************************************************

            Population analysis using the SCF density.

 **********************************************************************

 Orbital symmetries:
       Occupied  (A) (A) (A) (A) (A) (A) (A) (A) (A) (A) (A) (A)
                 (A) (A) (A) (A) (A) (A) (A) (A) (A) (A) (A) (A)
                 (A) (A) (A) (A) (A) (A) (A) (A) (A) (A) (A) (A)
                 (A) (A) (A) (A) (A) (A) (A) (A) (A) (A) (A) (A)
                 (A) (A) (A) (A) (A) (A) (A) (A) (A) (A) (A) (A)
                 (A) (A) (A) (A) (A)
       Virtual   (A) (A) (A) (A) (A) (A) (A) (A) (A) (A) (A) (A)
                 (A) (A) (A) (A) (A) (A) (A) (A) (A) (A) (A) (A)
                 (A) (A) (A) (A) (A) (A) (A) (A) (A) (A) (A) (A)
                 (A) (A) (A) (A) (A) (A) (A) (A) (A) (A) (A) (A)
                 (A) (A) (A) (A) (A) (A) (A) (A) (A) (A) (A) (A)
                 (A) (A) (A) (A) (A) (A) (A) (A) (A) (A) (A) (A)
                 (A) (A) (A) (A) (A) (A) (A) (A) (A) (A) (A) (A)
                 (A) (A) (A) (A) (A) (A) (A) (A) (A) (A) (A) (A)
                 (A) (A) (A) (A) (A) (A) (A) (A) (A) (A) (A) (A)
                 (A) (A) (A) (A) (A) (A) (A) (A) (A) (A) (A) (A)
                 (A) (A) (A) (A) (A) (A) (A) (A) (A) (A) (A) (A)
                 (A) (A) (A) (A) (A) (A) (A) (A) (A) (A) (A) (A)
                 (A) (A) (A) (A) (A) (A) (A) (A) (A) (A) (A) (A)
                 (A) (A) (A) (A) (A) (A) (A) (A) (A) (A) (A) (A)
                 (A) (A) (A) (A) (A) (A) (A) (A) (A) (A) (A) (A)
                 (A) (A) (A) (A) (A) (A) (A) (A) (A) (A) (A) (A)
                 (A) (A) (A) (A) (A) (A) (A) (A) (A) (A) (A) (A)
                 (A) (A) (A) (A) (A) (A) (A) (A) (A) (A) (A) (A)
                 (A) (A) (A) (A) (A) (A) (A) (A) (A) (A) (A) (A)
                 (A) (A) (A) (A) (A) (A) (A) (A) (A) (A) (A) (A)
                 (A) (A) (A) (A) (A) (A) (A) (A) (A) (A) (A) (A)
                 (A) (A) (A) (A) (A) (A) (A) (A) (A) (A) (A) (A)
                 (A) (A) (A) (A) (A) (A) (A) (A) (A) (A) (A) (A)
                 (A) (A) (A) (A) (A) (A) (A) (A) (A) (A) (A) (A)
                 (A) (A) (A) (A) (A) (A) (A) (A) (A) (A)
 The electronic state is 1-A.
 Alpha  occ. eigenvalues --  -24.80259 -24.79849 -19.20537 -14.37941 -10.33839
 Alpha  occ. eigenvalues --  -10.33829 -10.27060 -10.26992 -10.26693 -10.26230
 Alpha  occ. eigenvalues --  -10.26227 -10.25457 -10.25391 -10.23685 -10.22498
 Alpha  occ. eigenvalues --  -10.21804 -10.21638  -1.27047  -1.26819  -1.04554
 Alpha  occ. eigenvalues --   -0.94265  -0.90714  -0.83220  -0.79995  -0.78862
 Alpha  occ. eigenvalues --   -0.78249  -0.71573  -0.69690  -0.67554  -0.65890
 Alpha  occ. eigenvalues --   -0.64122  -0.61874  -0.58734  -0.56728  -0.55444
 Alpha  occ. eigenvalues --   -0.53776  -0.51786  -0.51571  -0.50774  -0.49370
 Alpha  occ. eigenvalues --   -0.48882  -0.48816  -0.47368  -0.46672  -0.45904
 Alpha  occ. eigenvalues --   -0.44329  -0.43861  -0.42590  -0.42137  -0.41611
 Alpha  occ. eigenvalues --   -0.40341  -0.39245  -0.38641  -0.38158  -0.38059
 Alpha  occ. eigenvalues --   -0.37295  -0.36839  -0.35928  -0.33456  -0.33090
 Alpha  occ. eigenvalues --   -0.32369  -0.28255  -0.27680  -0.27070  -0.24478
 Alpha virt. eigenvalues --   -0.02305  -0.00977   0.05052   0.05658   0.06213
 Alpha virt. eigenvalues --    0.06949   0.08133   0.08552   0.10248   0.10833
 Alpha virt. eigenvalues --    0.11189   0.11454   0.12592   0.12726   0.13238
 Alpha virt. eigenvalues --    0.14256   0.14421   0.14846   0.15464   0.16998
 Alpha virt. eigenvalues --    0.18648   0.18964   0.19368   0.20102   0.20360
 Alpha virt. eigenvalues --    0.21351   0.22232   0.23398   0.24153   0.24712
 Alpha virt. eigenvalues --    0.25209   0.26013   0.27258   0.28543   0.29729
 Alpha virt. eigenvalues --    0.31847   0.32741   0.33617   0.34569   0.35007
 Alpha virt. eigenvalues --    0.35842   0.36894   0.37561   0.38192   0.38597
 Alpha virt. eigenvalues --    0.39197   0.41013   0.41072   0.41495   0.42076
 Alpha virt. eigenvalues --    0.42850   0.44066   0.44601   0.45726   0.46379
 Alpha virt. eigenvalues --    0.47204   0.47558   0.48868   0.49421   0.51503
 Alpha virt. eigenvalues --    0.52748   0.53025   0.53748   0.55227   0.55859
 Alpha virt. eigenvalues --    0.56218   0.57431   0.58249   0.58654   0.59452
 Alpha virt. eigenvalues --    0.59699   0.60695   0.60775   0.61528   0.62026
 Alpha virt. eigenvalues --    0.62825   0.63161   0.63797   0.64558   0.65252
 Alpha virt. eigenvalues --    0.65484   0.65895   0.66148   0.67186   0.67536
 Alpha virt. eigenvalues --    0.68143   0.68438   0.69488   0.70451   0.71367
 Alpha virt. eigenvalues --    0.72432   0.73606   0.74094   0.74250   0.77350
 Alpha virt. eigenvalues --    0.77916   0.79589   0.82281   0.83217   0.86435
 Alpha virt. eigenvalues --    0.87559   0.88027   0.89416   0.92154   0.93364
 Alpha virt. eigenvalues --    0.94579   0.97072   0.97863   0.98994   0.99904
 Alpha virt. eigenvalues --    1.00252   1.01648   1.04443   1.06107   1.07016
 Alpha virt. eigenvalues --    1.08715   1.09593   1.12616   1.13964   1.14855
 Alpha virt. eigenvalues --    1.15207   1.18859   1.22672   1.24157   1.25574
 Alpha virt. eigenvalues --    1.26827   1.27865   1.28802   1.30708   1.31516
 Alpha virt. eigenvalues --    1.33917   1.36471   1.37597   1.41021   1.42758
 Alpha virt. eigenvalues --    1.44076   1.45822   1.46393   1.48339   1.49157
 Alpha virt. eigenvalues --    1.50292   1.52067   1.52716   1.53670   1.54002
 Alpha virt. eigenvalues --    1.54813   1.55240   1.57646   1.57887   1.60018
 Alpha virt. eigenvalues --    1.60547   1.62073   1.64613   1.65475   1.66441
 Alpha virt. eigenvalues --    1.67891   1.68095   1.70780   1.73123   1.73748
 Alpha virt. eigenvalues --    1.74157   1.77274   1.78099   1.80246   1.81355
 Alpha virt. eigenvalues --    1.82424   1.84144   1.85077   1.88482   1.90009
 Alpha virt. eigenvalues --    1.90304   1.90800   1.91687   1.93404   1.93602
 Alpha virt. eigenvalues --    1.95832   1.97973   1.99087   2.01179   2.03070
 Alpha virt. eigenvalues --    2.08341   2.10999   2.13170   2.17056   2.18954
 Alpha virt. eigenvalues --    2.20290   2.21118   2.25395   2.27067   2.27671
 Alpha virt. eigenvalues --    2.29908   2.32459   2.35083   2.37513   2.40514
 Alpha virt. eigenvalues --    2.41682   2.43067   2.43629   2.44883   2.45399
 Alpha virt. eigenvalues --    2.46920   2.50113   2.50838   2.52608   2.54066
 Alpha virt. eigenvalues --    2.55428   2.57444   2.58387   2.61301   2.65439
 Alpha virt. eigenvalues --    2.66241   2.68859   2.69657   2.72272   2.74527
 Alpha virt. eigenvalues --    2.77902   2.82329   2.83923   2.86714   2.89165
 Alpha virt. eigenvalues --    2.91324   2.92798   2.95662   3.00698   3.04259
 Alpha virt. eigenvalues --    3.05809   3.06283   3.08414   3.09047   3.11500
 Alpha virt. eigenvalues --    3.12906   3.14222   3.16131   3.19960   3.22926
 Alpha virt. eigenvalues --    3.23887   3.24820   3.25550   3.26584   3.28644
 Alpha virt. eigenvalues --    3.28797   3.30219   3.32854   3.36300   3.42546
 Alpha virt. eigenvalues --    3.46353   3.49402   3.51895   3.56786   3.63892
 Alpha virt. eigenvalues --    3.74277   3.78148   3.80116   3.80169   3.81021
 Alpha virt. eigenvalues --    3.85488   3.87147   3.97054   3.97379   3.98558
 Alpha virt. eigenvalues --    3.99382   4.05877   4.06667   4.10101   4.11808
 Alpha virt. eigenvalues --    4.16251   4.21269   4.49674   4.75186   4.76763
 Alpha virt. eigenvalues --    4.77802   4.80300   4.91224   5.11445   5.39815
 Alpha virt. eigenvalues --    6.13201   6.15057   6.29443   6.32638   6.55269
 Alpha virt. eigenvalues --    6.57127  23.28791  23.47661  23.57381  23.69461
 Alpha virt. eigenvalues --   23.72717  23.77614  23.81667  23.85988  23.86160
 Alpha virt. eigenvalues --   23.90533  24.10008  24.10424  24.19655  35.58804
 Alpha virt. eigenvalues --   49.96492  66.89048  66.89445
          Condensed to atoms (all electrons):
               1          2          3          4          5          6
     1  C    5.360538   0.291033  -0.066995  -0.004801   0.001569   0.000006
     2  C    0.291033   5.350802   0.302336  -0.056671  -0.013053   0.000036
     3  C   -0.066995   0.302336   5.320327   0.279115  -0.051376   0.003413
     4  C   -0.004801  -0.056671   0.279115   5.488074   0.264090  -0.053873
     5  C    0.001569  -0.013053  -0.051376   0.264090   5.145804   0.221780
     6  O    0.000006   0.000036   0.003413  -0.053873   0.221780   8.225481
     7  N    0.005164  -0.056510   0.240892  -0.041874  -0.002874   0.000071
     8  C   -0.000113  -0.007343  -0.073115   0.007155  -0.000045  -0.000001
     9  C    0.000000   0.000000  -0.000001   0.000000   0.000000   0.000000
    10  C    0.000000  -0.000001   0.000011   0.000000   0.000000   0.000000
    11  C    0.000000   0.000141  -0.000625  -0.000001   0.000007   0.000000
    12  C    0.000006   0.000008   0.008285  -0.000190   0.000010   0.000000
    13  C   -0.000001  -0.000024   0.000613  -0.000048  -0.000034   0.000000
    14  C    0.000000   0.000000   0.000024   0.000000  -0.000001   0.000000
    15  H    0.000000   0.000000   0.000000   0.000000   0.000000   0.000000
    16  H    0.000000   0.000000   0.000000   0.000000   0.000000   0.000000
    17  H    0.000000   0.000000  -0.000001   0.000000   0.000000   0.000000
    18  F    0.000000  -0.000028   0.000034   0.000000   0.000000   0.000000
    19  F    0.000000  -0.000002  -0.000171  -0.000055   0.000005   0.000000
    20  H    0.391108  -0.034761   0.007348  -0.000004  -0.000083   0.000000
    21  H    0.384478  -0.041583  -0.003941  -0.000231   0.000053   0.000001
    22  H    0.387104  -0.037734  -0.007807   0.003536   0.000500  -0.000156
    23  H   -0.042410   0.403331  -0.045806   0.007133  -0.000238   0.000003
    24  H   -0.039304   0.383591  -0.036818  -0.011338   0.005345  -0.000571
    25  H    0.000297  -0.003121  -0.044555   0.399427  -0.053369   0.009229
    26  H    0.000136  -0.001510   0.006267  -0.055350   0.398954  -0.029941
    27  H    0.000033   0.000103  -0.007635  -0.033193   0.375049  -0.032450
    28  H    0.000001   0.000017  -0.000717   0.010763  -0.047825   0.257334
    29  H    0.000344  -0.001234  -0.005477  -0.000227   0.000220   0.000001
    30  H   -0.000463   0.002117  -0.003046   0.000355  -0.000158   0.000000
    31  H    0.003191  -0.071875   0.419362  -0.053484   0.010540  -0.000114
    32  C   -0.000494   0.008510  -0.074510   0.312638  -0.086535  -0.003527
    33  H   -0.000051   0.000104  -0.007089  -0.036349  -0.006149   0.000021
    34  H   -0.000018  -0.000227   0.008869  -0.042526  -0.007854   0.018022
    35  H    0.000136  -0.000178  -0.004825  -0.036375   0.008103  -0.000283
    36  H   -0.000438   0.008129  -0.061833  -0.004240  -0.003174  -0.000465
               7          8          9         10         11         12
     1  C    0.005164  -0.000113   0.000000   0.000000   0.000000   0.000006
     2  C   -0.056510  -0.007343   0.000000  -0.000001   0.000141   0.000008
     3  C    0.240892  -0.073115  -0.000001   0.000011  -0.000625   0.008285
     4  C   -0.041874   0.007155   0.000000   0.000000  -0.000001  -0.000190
     5  C   -0.002874  -0.000045   0.000000   0.000000   0.000007   0.000010
     6  O    0.000071  -0.000001   0.000000   0.000000   0.000000   0.000000
     7  N    6.977288   0.278493   0.000043  -0.000090   0.009179  -0.053921
     8  C    0.278493   5.314593  -0.001375   0.009689  -0.071979   0.286086
     9  C    0.000043  -0.001375   5.070662   0.437375  -0.004691  -0.055241
    10  C   -0.000090   0.009689   0.437375   5.170745   0.471641  -0.029430
    11  C    0.009179  -0.071979  -0.004691   0.471641   4.746308   0.296385
    12  C   -0.053921   0.286086  -0.055241  -0.029430   0.296385   5.710609
    13  C   -0.005018  -0.082246  -0.009748  -0.057590   0.046765   0.233728
    14  C   -0.000193   0.009005   0.440066  -0.043162  -0.062668  -0.038575
    15  H    0.000000   0.000027   0.402761  -0.039928   0.006092  -0.001679
    16  H    0.000007  -0.000215  -0.040566   0.393360  -0.048620   0.011974
    17  H    0.000014  -0.000244  -0.039831   0.006701  -0.001606   0.011984
    18  F   -0.000257  -0.007998   0.005517  -0.052046   0.305431  -0.072469
    19  F   -0.003720   0.002550   0.005299  -0.000511   0.005246  -0.082982
    20  H   -0.000175  -0.000018   0.000000   0.000000   0.000000  -0.000001
    21  H   -0.000045   0.000017   0.000000   0.000000   0.000000  -0.000006
    22  H   -0.000092  -0.000026   0.000000   0.000000   0.000000   0.000001
    23  H   -0.004461   0.004036   0.000001  -0.000008   0.000170   0.000273
    24  H    0.002813  -0.000253   0.000000   0.000000  -0.000005  -0.000107
    25  H    0.005444  -0.000280   0.000000   0.000000   0.000000   0.000031
    26  H   -0.001037  -0.000114   0.000000   0.000000   0.000000  -0.000013
    27  H    0.011795  -0.000336   0.000000  -0.000003   0.000043   0.000490
    28  H    0.000001  -0.000002   0.000000   0.000000   0.000000   0.000000
    29  H   -0.050150   0.376981  -0.000037  -0.000192   0.008298  -0.037383
    30  H   -0.038322   0.382167  -0.000346   0.001685  -0.017398  -0.038444
    31  H   -0.045556  -0.012509   0.000000   0.000001   0.000067   0.000472
    32  C   -0.003392   0.000528   0.000000   0.000000  -0.000003  -0.000060
    33  H    0.001697   0.000295  -0.000002   0.000001  -0.000026  -0.000039
    34  H   -0.000145   0.000046   0.000000   0.000000   0.000000  -0.000004
    35  H   -0.000125  -0.000110   0.000000   0.000000   0.000000  -0.000013
    36  H    0.334758  -0.050135  -0.000048   0.000009  -0.000029  -0.019520
              13         14         15         16         17         18
     1  C   -0.000001   0.000000   0.000000   0.000000   0.000000   0.000000
     2  C   -0.000024   0.000000   0.000000   0.000000   0.000000  -0.000028
     3  C    0.000613   0.000024   0.000000   0.000000  -0.000001   0.000034
     4  C   -0.000048   0.000000   0.000000   0.000000   0.000000   0.000000
     5  C   -0.000034  -0.000001   0.000000   0.000000   0.000000   0.000000
     6  O    0.000000   0.000000   0.000000   0.000000   0.000000   0.000000
     7  N   -0.005018  -0.000193   0.000000   0.000007   0.000014  -0.000257
     8  C   -0.082246   0.009005   0.000027  -0.000215  -0.000244  -0.007998
     9  C   -0.009748   0.440066   0.402761  -0.040566  -0.039831   0.005517
    10  C   -0.057590  -0.043162  -0.039928   0.393360   0.006701  -0.052046
    11  C    0.046765  -0.062668   0.006092  -0.048620  -0.001606   0.305431
    12  C    0.233728  -0.038575  -0.001679   0.011974   0.011984  -0.072469
    13  C    4.810490   0.484893   0.006377  -0.001656  -0.050508   0.005864
    14  C    0.484893   5.167634  -0.041139   0.006867   0.394262  -0.000440
    15  H    0.006377  -0.041139   0.445542  -0.006368  -0.006382  -0.000082
    16  H   -0.001656   0.006867  -0.006368   0.445483  -0.000137   0.001431
    17  H   -0.050508   0.394262  -0.006382  -0.000137   0.445052   0.000004
    18  F    0.005864  -0.000440  -0.000082   0.001431   0.000004   9.044498
    19  F    0.304589  -0.053779  -0.000081   0.000004   0.001502  -0.000002
    20  H    0.000000   0.000000   0.000000   0.000000   0.000000   0.000000
    21  H    0.000000   0.000000   0.000000   0.000000   0.000000   0.000000
    22  H    0.000000   0.000000   0.000000   0.000000   0.000000   0.000000
    23  H   -0.000085   0.000000   0.000000   0.000001   0.000000  -0.000298
    24  H    0.000007   0.000000   0.000000   0.000000   0.000000  -0.000001
    25  H   -0.000003   0.000000   0.000000   0.000000   0.000000   0.000000
    26  H    0.000001   0.000000   0.000000   0.000000   0.000000   0.000000
    27  H   -0.000066  -0.000014   0.000000   0.000000   0.000000   0.000000
    28  H    0.000000   0.000000   0.000000   0.000000   0.000000   0.000000
    29  H   -0.020340  -0.000424   0.000001   0.000013  -0.000012   0.000008
    30  H    0.009535   0.000130   0.000006  -0.000059   0.000007   0.017393
    31  H   -0.000273  -0.000009   0.000000   0.000000   0.000000   0.000001
    32  C    0.000022  -0.000002   0.000000   0.000000   0.000000   0.000000
    33  H   -0.000022   0.000035   0.000000   0.000000   0.000005   0.000000
    34  H    0.000004   0.000000   0.000000   0.000000   0.000000   0.000000
    35  H    0.000010   0.000000   0.000000   0.000000   0.000000   0.000000
    36  H    0.003738   0.000035   0.000002  -0.000001  -0.000004  -0.000007
              19         20         21         22         23         24
     1  C    0.000000   0.391108   0.384478   0.387104  -0.042410  -0.039304
     2  C   -0.000002  -0.034761  -0.041583  -0.037734   0.403331   0.383591
     3  C   -0.000171   0.007348  -0.003941  -0.007807  -0.045806  -0.036818
     4  C   -0.000055  -0.000004  -0.000231   0.003536   0.007133  -0.011338
     5  C    0.000005  -0.000083   0.000053   0.000500  -0.000238   0.005345
     6  O    0.000000   0.000000   0.000001  -0.000156   0.000003  -0.000571
     7  N   -0.003720  -0.000175  -0.000045  -0.000092  -0.004461   0.002813
     8  C    0.002550  -0.000018   0.000017  -0.000026   0.004036  -0.000253
     9  C    0.005299   0.000000   0.000000   0.000000   0.000001   0.000000
    10  C   -0.000511   0.000000   0.000000   0.000000  -0.000008   0.000000
    11  C    0.005246   0.000000   0.000000   0.000000   0.000170  -0.000005
    12  C   -0.082982  -0.000001  -0.000006   0.000001   0.000273  -0.000107
    13  C    0.304589   0.000000   0.000000   0.000000  -0.000085   0.000007
    14  C   -0.053779   0.000000   0.000000   0.000000   0.000000   0.000000
    15  H   -0.000081   0.000000   0.000000   0.000000   0.000000   0.000000
    16  H    0.000004   0.000000   0.000000   0.000000   0.000001   0.000000
    17  H    0.001502   0.000000   0.000000   0.000000   0.000000   0.000000
    18  F   -0.000002   0.000000   0.000000   0.000000  -0.000298  -0.000001
    19  F    9.055901   0.000000   0.000000   0.000000  -0.000002   0.000000
    20  H    0.000000   0.472956  -0.027643  -0.027817  -0.005553  -0.004238
    21  H    0.000000  -0.027643   0.487538  -0.029153  -0.004518   0.007226
    22  H    0.000000  -0.027817  -0.029153   0.478169   0.006797  -0.005158
    23  H   -0.000002  -0.005553  -0.004518   0.006797   0.485521  -0.031494
    24  H    0.000000  -0.004238   0.007226  -0.005158  -0.031494   0.495170
    25  H   -0.000001   0.000207   0.000212   0.000907   0.000216  -0.001913
    26  H    0.000001  -0.000015  -0.000047   0.000536   0.000115   0.007611
    27  H   -0.000150   0.000003   0.000013  -0.000095  -0.000052  -0.000234
    28  H    0.000000   0.000000   0.000000   0.000004  -0.000003   0.000046
    29  H    0.004425  -0.000011   0.000036   0.000017   0.000383   0.000203
    30  H    0.000197   0.000050   0.000029  -0.000020   0.002580  -0.000165
    31  H   -0.000074  -0.000259   0.005896   0.000176  -0.004938   0.008780
    32  C   -0.000226   0.000015  -0.000192   0.000223  -0.000248   0.000080
    33  H    0.002310   0.000002   0.000009  -0.000028  -0.000010  -0.000002
    34  H   -0.000006  -0.000002   0.000001   0.000025   0.000019   0.000026
    35  H   -0.000013  -0.000006   0.000012   0.000083  -0.000017  -0.000002
    36  H    0.012017   0.000028  -0.000026  -0.000016  -0.000159  -0.000552
              25         26         27         28         29         30
     1  C    0.000297   0.000136   0.000033   0.000001   0.000344  -0.000463
     2  C   -0.003121  -0.001510   0.000103   0.000017  -0.001234   0.002117
     3  C   -0.044555   0.006267  -0.007635  -0.000717  -0.005477  -0.003046
     4  C    0.399427  -0.055350  -0.033193   0.010763  -0.000227   0.000355
     5  C   -0.053369   0.398954   0.375049  -0.047825   0.000220  -0.000158
     6  O    0.009229  -0.029941  -0.032450   0.257334   0.000001   0.000000
     7  N    0.005444  -0.001037   0.011795   0.000001  -0.050150  -0.038322
     8  C   -0.000280  -0.000114  -0.000336  -0.000002   0.376981   0.382167
     9  C    0.000000   0.000000   0.000000   0.000000  -0.000037  -0.000346
    10  C    0.000000   0.000000  -0.000003   0.000000  -0.000192   0.001685
    11  C    0.000000   0.000000   0.000043   0.000000   0.008298  -0.017398
    12  C    0.000031  -0.000013   0.000490   0.000000  -0.037383  -0.038444
    13  C   -0.000003   0.000001  -0.000066   0.000000  -0.020340   0.009535
    14  C    0.000000   0.000000  -0.000014   0.000000  -0.000424   0.000130
    15  H    0.000000   0.000000   0.000000   0.000000   0.000001   0.000006
    16  H    0.000000   0.000000   0.000000   0.000000   0.000013  -0.000059
    17  H    0.000000   0.000000   0.000000   0.000000  -0.000012   0.000007
    18  F    0.000000   0.000000   0.000000   0.000000   0.000008   0.017393
    19  F   -0.000001   0.000001  -0.000150   0.000000   0.004425   0.000197
    20  H    0.000207  -0.000015   0.000003   0.000000  -0.000011   0.000050
    21  H    0.000212  -0.000047   0.000013   0.000000   0.000036   0.000029
    22  H    0.000907   0.000536  -0.000095   0.000004   0.000017  -0.000020
    23  H    0.000216   0.000115  -0.000052  -0.000003   0.000383   0.002580
    24  H   -0.001913   0.007611  -0.000234   0.000046   0.000203  -0.000165
    25  H    0.501363  -0.007957   0.010238  -0.000559  -0.000041   0.000007
    26  H   -0.007957   0.498396  -0.038932  -0.002016   0.000006  -0.000002
    27  H    0.010238  -0.038932   0.524317  -0.004472   0.000211  -0.000113
    28  H   -0.000559  -0.002016  -0.004472   0.376457   0.000000   0.000000
    29  H   -0.000041   0.000006   0.000211   0.000000   0.535684  -0.043108
    30  H    0.000007  -0.000002  -0.000113   0.000000  -0.043108   0.463635
    31  H   -0.006225   0.000110   0.000213   0.000037   0.013544  -0.002351
    32  C   -0.048304   0.007498  -0.012543  -0.000020  -0.000357   0.000038
    33  H    0.007512  -0.000238   0.002289  -0.000013  -0.000620   0.000055
    34  H   -0.004816   0.000964  -0.000388  -0.000923  -0.000020   0.000002
    35  H   -0.005829  -0.000293  -0.000113   0.000051   0.000128   0.000004
    36  H    0.001289  -0.000524   0.002552   0.000018  -0.004321   0.006680
              31         32         33         34         35         36
     1  C    0.003191  -0.000494  -0.000051  -0.000018   0.000136  -0.000438
     2  C   -0.071875   0.008510   0.000104  -0.000227  -0.000178   0.008129
     3  C    0.419362  -0.074510  -0.007089   0.008869  -0.004825  -0.061833
     4  C   -0.053484   0.312638  -0.036349  -0.042526  -0.036375  -0.004240
     5  C    0.010540  -0.086535  -0.006149  -0.007854   0.008103  -0.003174
     6  O   -0.000114  -0.003527   0.000021   0.018022  -0.000283  -0.000465
     7  N   -0.045556  -0.003392   0.001697  -0.000145  -0.000125   0.334758
     8  C   -0.012509   0.000528   0.000295   0.000046  -0.000110  -0.050135
     9  C    0.000000   0.000000  -0.000002   0.000000   0.000000  -0.000048
    10  C    0.000001   0.000000   0.000001   0.000000   0.000000   0.000009
    11  C    0.000067  -0.000003  -0.000026   0.000000   0.000000  -0.000029
    12  C    0.000472  -0.000060  -0.000039  -0.000004  -0.000013  -0.019520
    13  C   -0.000273   0.000022  -0.000022   0.000004   0.000010   0.003738
    14  C   -0.000009  -0.000002   0.000035   0.000000   0.000000   0.000035
    15  H    0.000000   0.000000   0.000000   0.000000   0.000000   0.000002
    16  H    0.000000   0.000000   0.000000   0.000000   0.000000  -0.000001
    17  H    0.000000   0.000000   0.000005   0.000000   0.000000  -0.000004
    18  F    0.000001   0.000000   0.000000   0.000000   0.000000  -0.000007
    19  F   -0.000074  -0.000226   0.002310  -0.000006  -0.000013   0.012017
    20  H   -0.000259   0.000015   0.000002  -0.000002  -0.000006   0.000028
    21  H    0.005896  -0.000192   0.000009   0.000001   0.000012  -0.000026
    22  H    0.000176   0.000223  -0.000028   0.000025   0.000083  -0.000016
    23  H   -0.004938  -0.000248  -0.000010   0.000019  -0.000017  -0.000159
    24  H    0.008780   0.000080  -0.000002   0.000026  -0.000002  -0.000552
    25  H   -0.006225  -0.048304   0.007512  -0.004816  -0.005829   0.001289
    26  H    0.000110   0.007498  -0.000238   0.000964  -0.000293  -0.000524
    27  H    0.000213  -0.012543   0.002289  -0.000388  -0.000113   0.002552
    28  H    0.000037  -0.000020  -0.000013  -0.000923   0.000051   0.000018
    29  H    0.013544  -0.000357  -0.000620  -0.000020   0.000128  -0.004321
    30  H   -0.002351   0.000038   0.000055   0.000002   0.000004   0.006680
    31  H    0.534035  -0.012279  -0.002088  -0.000059   0.005248   0.000076
    32  C   -0.012279   5.410028   0.378971   0.387476   0.387979   0.002760
    33  H   -0.002088   0.378971   0.493051  -0.026112  -0.028075   0.007787
    34  H   -0.000059   0.387476  -0.026112   0.451766  -0.025432  -0.000500
    35  H    0.005248   0.387979  -0.028075  -0.025432   0.472533  -0.000531
    36  H    0.000076   0.002760   0.007787  -0.000500  -0.000531   0.434212
 Mulliken charges:
               1
     1  C   -0.670056
     2  C   -0.424404
     3  C   -0.100552
     4  C   -0.341456
     5  C   -0.159262
     6  O   -0.614016
     7  N   -0.559702
     8  C   -0.363211
     9  C   -0.209839
    10  C   -0.268256
    11  C    0.311878
    12  C   -0.130266
    13  C    0.321025
    14  C   -0.262547
    15  H    0.234851
    16  H    0.238480
    17  H    0.239194
    18  F   -0.246555
    19  F   -0.252274
    20  H    0.228868
    21  H    0.221864
    22  H    0.230024
    23  H    0.229720
    24  H    0.221254
    25  H    0.240595
    26  H    0.217396
    27  H    0.203440
    28  H    0.411819
    29  H    0.223452
    30  H    0.257323
    31  H    0.210341
    32  C   -0.654075
    33  H    0.212770
    34  H    0.241809
    35  H    0.227935
    36  H    0.332434
 Sum of Mulliken charges =   0.00000
 Mulliken charges with hydrogens summed into heavy atoms:
               1
     1  C    0.010700
     2  C    0.026570
     3  C    0.109789
     4  C   -0.100861
     5  C    0.261574
     6  O   -0.202196
     7  N   -0.227268
     8  C    0.117563
     9  C    0.025012
    10  C   -0.029776
    11  C    0.311878
    12  C   -0.130266
    13  C    0.321025
    14  C   -0.023353
    18  F   -0.246555
    19  F   -0.252274
    32  C    0.028439
 Electronic spatial extent (au):  <R**2>=           5451.9429
 Charge=              0.0000 electrons
 Dipole moment (field-independent basis, Debye):
    X=              2.4730    Y=             -0.5699    Z=              0.7932  Tot=              2.6589
 Quadrupole moment (field-independent basis, Debye-Ang):
   XX=            -96.0933   YY=           -101.9426   ZZ=            -97.2145
   XY=             -7.2739   XZ=              0.3034   YZ=             -4.5420
 Traceless Quadrupole moment (field-independent basis, Debye-Ang):
   XX=              2.3235   YY=             -3.5258   ZZ=              1.2023
   XY=             -7.2739   XZ=              0.3034   YZ=             -4.5420
 Octapole moment (field-independent basis, Debye-Ang**2):
  XXX=            130.0742  YYY=            -12.2450  ZZZ=             25.5112  XYY=              9.8641
  XXY=             -6.5334  XXZ=             33.8214  XZZ=            -24.6091  YZZ=            -10.8311
  YYZ=              8.7157  XYZ=              8.9848
 Hexadecapole moment (field-independent basis, Debye-Ang**3):
 XXXX=          -4958.0622 YYYY=          -1413.2044 ZZZZ=           -495.8083 XXXY=           -101.0931
 XXXZ=             92.4562 YYYX=             -0.9115 YYYZ=             -5.0536 ZZZX=           -116.4013
 ZZZY=            -32.5982 XXYY=          -1064.0029 XXZZ=           -864.7369 YYZZ=           -311.1333
 XXYZ=             -7.6425 YYXZ=            -40.8857 ZZXY=             78.9646
 N-N= 1.252340881053D+03 E-N=-4.462900612550D+03  KE= 8.332751310608D+02
 1\1\GINC-SWANNODE-0-15\SP\RmPW1PW91\6-311G(d)\C13H19F2N1O1\KE291\06-Ma
 r-2019\0\\# mPW1PW91/6-311g(d) geom=checkpoint nmr=giao scrf=(solvent=
 chloroform)\\AT3_1ginp012\\0,1\C,0,-2.5724361354,-0.0314028347,1.51649
 62594\C,0,-1.3826083119,0.8533208755,1.1284966556\C,0,-0.268884053,0.9
 253113315,2.1948951398\C,0,-0.6943404391,1.6697943974,3.4870561324\C,0
 ,-0.8336079316,3.1833514729,3.2849553619\O,0,-1.4672244578,3.722037478
 6,4.4479519746\N,0,0.9369856496,1.5596245852,1.6267458267\C,0,1.736558
 9196,0.6614654018,0.7804848977\C,0,5.4244326752,2.5696150684,-0.483603
 1734\C,0,4.4241438766,2.3182558807,-1.4225700303\C,0,3.2489199995,1.70
 93851837,-0.9955976452\C,0,3.0148236683,1.32740379,0.3265032963\C,0,4.
 052427289,1.6077967759,1.2179179038\C,0,5.246149072,2.2154110031,0.855
 2810834\H,0,6.3481423488,3.0454394724,-0.7955785273\H,0,4.5384214634,2
 .5839219101,-2.4670955412\H,0,6.0050993956,2.4010768277,1.6063407522\F
 ,0,2.2846676037,1.4649881241,-1.9130157984\F,0,3.8649044389,1.26699572
 68,2.519782871\H,0,-3.287090883,-0.1019306813,0.6904291073\H,0,-2.2464
 343986,-1.0492110304,1.7600774169\H,0,-3.1153116794,0.358454566,2.3832
 747234\H,0,-0.9484328915,0.4595658839,0.2024548914\H,0,-1.7258769641,1
 .8658316481,0.8878106348\H,0,-1.6937874822,1.3041855769,3.7524616675\H
 ,0,-1.4309453558,3.3960819519,2.3875171588\H,0,0.1548934476,3.63942315
 25,3.1316386131\H,0,-1.4822617342,4.6830831538,4.352874355\H,0,1.99107
 39666,-0.2798324713,1.2998637563\H,0,1.1576325747,0.3888391402,-0.1034
 408218\H,0,-0.0481516731,-0.1181150625,2.4969307554\C,0,0.2316117748,1
 .3538033159,4.6737373364\H,0,1.26685102,1.6664101117,4.4881899959\H,0,
 -0.1104390061,1.8781685464,5.5688976769\H,0,0.2432800572,0.2796967468,
 4.8856712961\H,0,1.537308156,1.8433839805,2.3966379978\\Version=EM64L-
 G09RevD.01\State=1-A\HF=-836.459305\RMSD=6.680e-09\Dipole=0.8622631,0.
 3958032,-0.4405968\Quadrupole=4.3032982,2.8529524,-7.1562507,2.5736016
 ,-0.6799226,-0.0830228\PG=C01 [X(C13H19F2N1O1)]\\@


 WE SHOULD BE CAREFUL TO GET OUT OF AN EXPERIENCE ONLY THE WISDOM
 THAT IS IN IT -- AND STOP THERE;
 LEST WE BE LIKE THE CAT THAT SITS DOWN ON A HOT STOVE-LID.
 SHE WILL NEVER SIT DOWN ON A HOT STOVE LID AGAIN;
 BUT ALSO SHE WILL NEVER SIT DOWN ON A COLD ONE ANY MORE.

                                                     -- MARK TWAIN
 Job cpu time:       0 days  0 hours 25 minutes 56.2 seconds.
 File lengths (MBytes):  RWF=    185 Int=      0 D2E=      0 Chk=     15 Scr=      1
 Normal termination of Gaussian 09 at Wed Mar  6 12:30:01 2019.
