 Entering Gaussian System, Link 0=/usr/local/shared/gaussian/em64t/09-D01/g09/g09
 Initial command:
 /usr/local/shared/gaussian/em64t/09-D01/g09/l1.exe "/scratch/ke291/AT3_2ginp006/Gau-17055.inp" -scrdir="/scratch/ke291/AT3_2ginp006/"
 Entering Link 1 = /usr/local/shared/gaussian/em64t/09-D01/g09/l1.exe PID=     17059.
  
 Copyright (c) 1988,1990,1992,1993,1995,1998,2003,2009,2013,
            Gaussian, Inc.  All Rights Reserved.
  
 This is part of the Gaussian(R) 09 program.  It is based on
 the Gaussian(R) 03 system (copyright 2003, Gaussian, Inc.),
 the Gaussian(R) 98 system (copyright 1998, Gaussian, Inc.),
 the Gaussian(R) 94 system (copyright 1995, Gaussian, Inc.),
 the Gaussian 92(TM) system (copyright 1992, Gaussian, Inc.),
 the Gaussian 90(TM) system (copyright 1990, Gaussian, Inc.),
 the Gaussian 88(TM) system (copyright 1988, Gaussian, Inc.),
 the Gaussian 86(TM) system (copyright 1986, Carnegie Mellon
 University), and the Gaussian 82(TM) system (copyright 1983,
 Carnegie Mellon University). Gaussian is a federally registered
 trademark of Gaussian, Inc.
  
 This software contains proprietary and confidential information,
 including trade secrets, belonging to Gaussian, Inc.
  
 This software is provided under written license and may be
 used, copied, transmitted, or stored only in accord with that
 written license.
  
 The following legend is applicable only to US Government
 contracts under FAR:
  
                    RESTRICTED RIGHTS LEGEND
  
 Use, reproduction and disclosure by the US Government is
 subject to restrictions as set forth in subparagraphs (a)
 and (c) of the Commercial Computer Software - Restricted
 Rights clause in FAR 52.227-19.
  
 Gaussian, Inc.
 340 Quinnipiac St., Bldg. 40, Wallingford CT 06492
  
  
 ---------------------------------------------------------------
 Warning -- This program may not be used in any manner that
 competes with the business of Gaussian, Inc. or will provide
 assistance to any competitor of Gaussian, Inc.  The licensee
 of this program is prohibited from giving any competitor of
 Gaussian, Inc. access to this program.  By using this program,
 the user acknowledges that Gaussian, Inc. is engaged in the
 business of creating and licensing software in the field of
 computational chemistry and represents and warrants to the
 licensee that it is not a competitor of Gaussian, Inc. and that
 it will not use this program in any manner prohibited above.
 ---------------------------------------------------------------
  

 Cite this work as:
 Gaussian 09, Revision D.01,
 M. J. Frisch, G. W. Trucks, H. B. Schlegel, G. E. Scuseria, 
 M. A. Robb, J. R. Cheeseman, G. Scalmani, V. Barone, B. Mennucci, 
 G. A. Petersson, H. Nakatsuji, M. Caricato, X. Li, H. P. Hratchian, 
 A. F. Izmaylov, J. Bloino, G. Zheng, J. L. Sonnenberg, M. Hada, 
 M. Ehara, K. Toyota, R. Fukuda, J. Hasegawa, M. Ishida, T. Nakajima, 
 Y. Honda, O. Kitao, H. Nakai, T. Vreven, J. A. Montgomery, Jr., 
 J. E. Peralta, F. Ogliaro, M. Bearpark, J. J. Heyd, E. Brothers, 
 K. N. Kudin, V. N. Staroverov, T. Keith, R. Kobayashi, J. Normand, 
 K. Raghavachari, A. Rendell, J. C. Burant, S. S. Iyengar, J. Tomasi, 
 M. Cossi, N. Rega, J. M. Millam, M. Klene, J. E. Knox, J. B. Cross, 
 V. Bakken, C. Adamo, J. Jaramillo, R. Gomperts, R. E. Stratmann, 
 O. Yazyev, A. J. Austin, R. Cammi, C. Pomelli, J. W. Ochterski, 
 R. L. Martin, K. Morokuma, V. G. Zakrzewski, G. A. Voth, 
 P. Salvador, J. J. Dannenberg, S. Dapprich, A. D. Daniels, 
 O. Farkas, J. B. Foresman, J. V. Ortiz, J. Cioslowski, 
 and D. J. Fox, Gaussian, Inc., Wallingford CT, 2013.
 
 ******************************************
 Gaussian 09:  EM64L-G09RevD.01 24-Apr-2013
                 6-Mar-2019 
 ******************************************
 %nprocshared=2
 Will use up to    2 processors via shared memory.
 %mem=6000MB
 %chk=AT3_2ginp006.chk
 ----------------------------------------------------------------------
 # mPW1PW91/6-311g(d) geom=checkpoint nmr=giao scrf=(solvent=chloroform
 )
 ----------------------------------------------------------------------
 1/29=2,38=1/1;
 2/12=2,40=1/2;
 3/5=4,6=6,7=1,11=2,14=-4,16=1,25=1,30=1,70=2201,72=7,74=-7/1,2,8,3;
 4//1;
 5/5=2,38=5,53=7/2;
 8/6=1,10=90,11=11/1;
 10/13=100,45=16/2;
 6/7=2,8=2,9=2,10=2,28=1/1;
 99/9=1/99;
 ------------
 AT3_2ginp006
 ------------
 Structure from the checkpoint file:  "AT3_2ginp006.chk"
 Charge =  0 Multiplicity = 1
 Redundant internal coordinates found in file.
 C,0,-0.9562013546,-1.831945572,0.3914036031
 C,0,-2.4223247781,-1.3844699739,0.3524077003
 C,0,-3.0918524044,-1.2162028439,1.735705673
 C,0,-2.4232862193,-0.1365296762,2.6236428261
 C,0,-2.98278162,-0.194832274,4.0478705272
 O,0,-2.1676872291,0.6273362085,4.887202545
 N,0,-4.5440836186,-0.9604172589,1.6526289143
 C,0,-5.3544060131,-2.1262166199,1.2785126114
 C,0,-9.5821299136,-1.146089599,1.346825637
 C,0,-8.7701499,-0.6591699883,0.320504927
 C,0,-7.4238206444,-0.9966048043,0.3347921706
 C,0,-6.8293566165,-1.7955938649,1.3129222474
 C,0,-7.688784927,-2.2464677671,2.3158422743
 C,0,-9.0462068467,-1.9466565948,2.3557355112
 H,0,-10.6383678499,-0.8987112654,1.3602811322
 H,0,-9.1593956171,-0.032695373,-0.4736209009
 H,0,-9.6554784171,-2.3362905606,3.1630341292
 F,0,-6.6224020938,-0.5208945564,-0.6526413299
 F,0,-7.1756806543,-3.0268060227,3.2954978647
 H,0,-0.5827720442,-2.0269975005,-0.6190861207
 H,0,-0.305392888,-1.0752501943,0.8400929926
 H,0,-0.8400118825,-2.755296042,0.9706240765
 H,0,-2.5076086059,-0.4444348489,-0.2081732745
 H,0,-2.9974252764,-2.1260772843,-0.2149519392
 H,0,-1.3594130292,-0.3959578658,2.7046265054
 H,0,-2.9749551746,-1.237866333,4.4036442348
 H,0,-4.0267280968,0.1439127614,4.0487495483
 H,0,-2.6164983962,0.7110115557,5.7381280464
 H,0,-5.11539058,-2.5309284228,0.2814575798
 H,0,-5.1574278015,-2.922067314,2.0010928747
 H,0,-2.9851321242,-2.172536982,2.2690850361
 C,0,-2.5239747176,1.2868280338,2.0551924379
 H,0,-2.0176125799,1.3818679633,1.0898054722
 H,0,-3.5697536463,1.5875506618,1.9226513743
 H,0,-2.0631572994,1.994606594,2.748442087
 H,0,-4.7154471396,-0.2219073757,0.9733120052
 Recover connectivity data from disk.
                          Input orientation:                          
 ---------------------------------------------------------------------
 Center     Atomic      Atomic             Coordinates (Angstroms)
 Number     Number       Type             X           Y           Z
 ---------------------------------------------------------------------
      1          6           0       -0.956201   -1.831946    0.391404
      2          6           0       -2.422325   -1.384470    0.352408
      3          6           0       -3.091852   -1.216203    1.735706
      4          6           0       -2.423286   -0.136530    2.623643
      5          6           0       -2.982782   -0.194832    4.047871
      6          8           0       -2.167687    0.627336    4.887203
      7          7           0       -4.544084   -0.960417    1.652629
      8          6           0       -5.354406   -2.126217    1.278513
      9          6           0       -9.582130   -1.146090    1.346826
     10          6           0       -8.770150   -0.659170    0.320505
     11          6           0       -7.423821   -0.996605    0.334792
     12          6           0       -6.829357   -1.795594    1.312922
     13          6           0       -7.688785   -2.246468    2.315842
     14          6           0       -9.046207   -1.946657    2.355736
     15          1           0      -10.638368   -0.898711    1.360281
     16          1           0       -9.159396   -0.032695   -0.473621
     17          1           0       -9.655478   -2.336291    3.163034
     18          9           0       -6.622402   -0.520895   -0.652641
     19          9           0       -7.175681   -3.026806    3.295498
     20          1           0       -0.582772   -2.026998   -0.619086
     21          1           0       -0.305393   -1.075250    0.840093
     22          1           0       -0.840012   -2.755296    0.970624
     23          1           0       -2.507609   -0.444435   -0.208173
     24          1           0       -2.997425   -2.126077   -0.214952
     25          1           0       -1.359413   -0.395958    2.704627
     26          1           0       -2.974955   -1.237866    4.403644
     27          1           0       -4.026728    0.143913    4.048750
     28          1           0       -2.616498    0.711012    5.738128
     29          1           0       -5.115391   -2.530928    0.281458
     30          1           0       -5.157428   -2.922067    2.001093
     31          1           0       -2.985132   -2.172537    2.269085
     32          6           0       -2.523975    1.286828    2.055192
     33          1           0       -2.017613    1.381868    1.089805
     34          1           0       -3.569754    1.587551    1.922651
     35          1           0       -2.063157    1.994607    2.748442
     36          1           0       -4.715447   -0.221907    0.973312
 ---------------------------------------------------------------------
                    Distance matrix (angstroms):
                    1          2          3          4          5
     1  C    0.000000
     2  C    1.533386   0.000000
     3  C    2.597555   1.545993   0.000000
     4  C    3.163805   2.591499   1.549551   0.000000
     5  C    4.489646   3.922473   2.530059   1.531293   0.000000
     6  O    5.265736   4.967552   3.766251   2.402608   1.429971
     7  N    3.901686   2.524333   1.476924   2.473750   2.959893
     8  C    4.496417   3.163062   2.481189   3.789419   4.126038
     9  C    8.705738   7.232462   6.502295   7.341561   7.193882
    10  C    7.901786   6.389207   5.878447   6.772022   6.899456
    11  C    6.521587   5.016544   4.558150   5.566319   5.844024
    12  C    5.945122   4.529188   3.805703   4.887120   4.983826
    13  C    7.014483   5.686275   4.746556   5.680850   5.418081
    14  C    8.325860   6.942996   6.030948   6.871056   6.534320
    15  H    9.775173   8.291872   7.562515   8.346530   8.144113
    16  H    8.442628   6.920819   6.564823   7.414782   7.656418
    17  H    9.144054   7.818190   6.809776   7.578555   7.063545
    18  F    5.908868   4.404150   4.318847   5.339883   5.953819
    19  F    6.967308   5.826958   4.731690   5.602708   5.115324
    20  H    1.094799   2.177291   3.535239   4.180509   5.558539
    21  H    1.094286   2.194278   2.930247   2.923648   4.270057
    22  H    1.096163   2.182904   2.832833   3.478098   4.540582
    23  H    2.165997   1.097812   2.171551   2.849754   4.289755
    24  H    2.149599   1.096640   2.154496   3.513624   4.679912
    25  H    2.752388   2.764032   2.147779   1.098038   2.116620
    26  H    4.530604   4.091382   2.670586   2.164645   1.102069
    27  H    5.168010   4.309641   2.841492   2.163470   1.097531
    28  H    6.149039   5.782277   4.467606   3.233524   1.952354
    29  H    4.218948   2.927799   2.817454   4.297255   4.918458
    30  H    4.629230   3.544454   2.692026   3.952508   4.044279
    31  H    2.785364   2.147430   1.100208   2.141660   2.659962
    32  C    3.866892   3.169486   2.586449   1.535976   2.525190
    33  H    3.455858   2.891396   2.884640   2.196078   3.488221
    34  H    4.568187   3.551783   2.850328   2.185916   2.835133
    35  H    4.628551   4.157901   3.520390   2.164950   2.707003
    36  H    4.130711   2.644898   2.050836   2.825754   3.529274
                    6          7          8          9         10
     6  O    0.000000
     7  N    4.316328   0.000000
     8  C    5.546158   1.468221   0.000000
     9  C    8.405550   5.050733   4.340388   0.000000
    10  C    8.130334   4.441277   3.838921   1.396330   0.000000
    11  C    7.140628   3.167158   2.539509   2.388484   1.388045
    12  C    6.354308   2.456704   1.511944   2.828563   2.458257
    13  C    6.734476   3.461636   2.557311   2.394698   2.769519
    14  C    7.768384   4.662203   3.849941   1.394998   2.424045
    15  H    9.301636   6.101604   5.425284   1.084904   2.151454
    16  H    8.835047   5.165531   4.683028   2.175403   1.083798
    17  H    8.235463   5.504608   4.700508   2.172688   3.417091
    18  F    7.200888   3.134782   2.813224   3.626117   2.361981
    19  F    6.400490   3.727504   2.862924   3.622902   4.122938
    20  H    6.314797   4.689379   5.136070   9.253607   8.353858
    21  H    4.769280   4.317395   5.175836   9.290837   8.490890
    22  H    5.342706   4.172154   4.568401   8.896949   8.228213
    23  H    5.217959   2.806431   3.625311   7.277307   6.288484
    24  H    5.856768   2.690497   2.790304   6.837972   5.980207
    25  H    2.542455   3.401094   4.581219   8.367759   7.789245
    26  H    2.089136   3.179187   4.027083   7.280613   7.112749
    27  H    2.095885   2.688605   3.819742   6.310863   6.086444
    28  H    0.965664   4.816696   5.952661   8.441113   8.312368
    29  H    6.314782   2.161714   1.102288   4.796306   4.106369
    30  H    5.465020   2.084632   1.092841   4.812499   4.582231
    31  H    3.919445   2.068715   2.568431   6.739773   6.289171
    32  C    2.929531   3.048444   4.501494   7.499228   6.768364
    33  H    3.874541   3.490863   4.845251   7.979884   7.096085
    34  H    3.417070   2.741235   4.170368   6.629708   5.887168
    35  H    2.540601   4.010981   5.474869   8.268219   7.610595
    36  H    4.746666   1.017956   2.031701   4.967718   4.130130
                   11         12         13         14         15
    11  C    0.000000
    12  C    1.395890   0.000000
    13  C    2.357313   1.395619   0.000000
    14  C    2.760244   2.454527   1.390709   0.000000
    15  H    3.375578   3.913465   3.380767   2.150371   0.000000
    16  H    2.143566   3.424709   3.852868   3.417794   2.510087
    17  H    3.843697   3.420852   2.143288   1.083862   2.506516
    18  F    1.357791   2.351835   3.595368   4.118004   4.508058
    19  F    3.598481   2.359328   1.353488   2.355577   4.501561
    20  H    6.983662   6.542631   7.691384   8.971385  10.310477
    21  H    7.136773   6.580620   7.619978   8.913941  10.347567
    22  H    6.844254   6.075397   6.998158   8.361463   9.980307
    23  H    4.976831   4.776701   6.038424   7.182170   8.293109
    24  H    4.601185   4.138516   5.331817   6.574830   7.897581
    25  H    6.538649   5.815162   6.605792   7.849407   9.389304
    26  H    6.033752   4.971924   5.253226   6.446426   8.252574
    27  H    5.160862   4.370488   4.703993   5.694905   7.213093
    28  H    7.431173   6.604066   6.796088   7.735950   9.279393
    29  H    2.772335   2.131271   3.292719   4.482780   5.859289
    30  H    3.408886   2.130227   2.638801   4.024898   5.877526
    31  H    4.982596   3.979246   4.704466   6.065901   7.811567
    32  C    5.672947   5.346831   6.263177   7.285963   8.432251
    33  H    5.954348   5.770522   6.843258   7.879263   8.921414
    34  H    4.904385   4.737346   5.640985   6.532207   7.514191
    35  H    6.596193   6.256436   7.058438   8.028123   9.156010
    36  H    2.888451   2.657148   3.839527   4.862236   5.974010
                   16         17         18         19         20
    16  H    0.000000
    17  H    4.333348   0.000000
    18  F    2.589734   5.201403   0.000000
    19  F    5.206350   2.577548   4.708876   0.000000
    20  H    8.806638   9.834333   6.224677   7.732401   0.000000
    21  H    9.011444   9.716500   6.514612   7.552380   1.764076
    22  H    8.871896   9.093661   6.408087   6.754218   1.767419
    23  H    6.669802   8.126266   4.139435   6.382417   2.525539
    24  H    6.512990   7.468912   3.988564   5.531039   2.450243
    25  H    8.430477   8.532276   6.243870   6.410886   3.782926
    26  H    7.967902   6.882953   6.275663   4.698339   5.618994
    27  H    6.843048   6.214397   5.411337   4.531749   6.193737
    28  H    9.052537   8.091007   7.642434   6.381525   7.214354
    29  H    4.813033   5.380870   2.680272   3.684444   4.648608
    30  H    5.521632   4.682489   3.867051   2.399958   5.347332
    31  H    7.086811   6.731974   4.949156   4.398181   3.759528
    32  C    7.222524   8.075435   5.234246   6.464067   4.679901
    33  H    7.446500   8.744139   5.278325   7.134925   4.074241
    34  H    6.293760   7.346504   4.516230   6.014957   5.333615
    35  H    8.052841   8.750537   6.219472   7.186915   5.450237
    36  H    4.677402   5.802535   2.523806   4.394628   4.782581
                   21         22         23         24         25
    21  H    0.000000
    22  H    1.767883   0.000000
    23  H    2.519235   3.083913   0.000000
    24  H    3.076426   2.540854   1.751539   0.000000
    25  H    2.246972   2.973721   3.131311   3.768333   0.000000
    26  H    4.455548   4.318125   4.702851   4.703281   2.491074
    27  H    5.062625   5.294849   4.557990   4.938772   3.035242
    28  H    5.702867   6.156321   6.058499   6.605554   3.465224
    29  H    5.056397   4.336376   3.375459   2.212714   4.953505
    30  H    5.319859   4.441819   4.247477   3.195319   4.615312
    31  H    3.229096   2.574325   3.057969   2.484502   2.447221
    32  C    3.460923   4.511185   2.849625   4.126213   2.147030
    33  H    3.005242   4.303147   2.293518   3.868863   2.490289
    34  H    4.349539   5.217103   3.130101   4.322955   3.071058
    35  H    4.019397   5.217116   3.858502   5.160872   2.492383
    36  H    4.493831   4.630018   2.513956   2.826559   3.780305
                   26         27         28         29         30
    26  H    0.000000
    27  H    1.772425   0.000000
    28  H    2.389030   2.272520   0.000000
    29  H    4.821400   4.746836   6.821282   0.000000
    30  H    3.656771   3.856373   5.798363   1.764058   0.000000
    31  H    2.330248   3.101301   4.526036   2.935491   2.313544
    32  C    3.477455   2.745686   3.728826   4.943363   4.965159
    33  H    4.331402   3.784763   4.734513   5.055653   5.404881
    34  H    3.806848   2.610213   4.029253   4.695144   4.781581
    35  H    3.744322   2.995242   3.300307   5.990209   5.857194
    36  H    3.978525   3.172771   5.289555   2.443398   2.922763
                   31         32         33         34         35
    31  H    0.000000
    32  C    3.496516   0.000000
    33  H    3.867892   1.094261   0.000000
    34  H    3.821002   1.096200   1.773437   0.000000
    35  H    4.294753   1.092657   1.768784   1.765632   0.000000
    36  H    2.911696   2.872159   3.140697   2.342647   3.885700
                   36
    36  H    0.000000
 Stoichiometry    C13H19F2NO
 Framework group  C1[X(C13H19F2NO)]
 Deg. of freedom   102
 Full point group                 C1      NOp   1
 Largest Abelian subgroup         C1      NOp   1
 Largest concise Abelian subgroup C1      NOp   1
                         Standard orientation:                         
 ---------------------------------------------------------------------
 Center     Atomic      Atomic             Coordinates (Angstroms)
 Number     Number       Type             X           Y           Z
 ---------------------------------------------------------------------
      1          6           0       -3.633157   -2.166349   -1.301056
      2          6           0       -2.290581   -1.899508   -0.610000
      3          6           0       -1.893842   -0.408983   -0.504976
      4          6           0       -2.886763    0.442394    0.325910
      5          6           0       -2.560443    1.931926    0.185666
      6          8           0       -3.639054    2.685174    0.746055
      7          7           0       -0.521557   -0.205859    0.001855
      8          6           0        0.543131   -0.536762   -0.953453
      9          6           0        4.444303    0.380494    0.713421
     10          6           0        3.729101   -0.724268    1.180029
     11          6           0        2.485796   -0.983461    0.619958
     12          6           0        1.904606   -0.207463   -0.384310
     13          6           0        2.662717    0.886287   -0.804705
     14          6           0        3.915237    1.196981   -0.286308
     15          1           0        5.419058    0.606357    1.132769
     16          1           0        4.114648   -1.373124    1.957820
     17          1           0        4.450543    2.060081   -0.664810
     18          9           0        1.776749   -2.049304    1.072536
     19          9           0        2.156608    1.680124   -1.777128
     20          1           0       -3.797291   -3.241226   -1.428665
     21          1           0       -4.477995   -1.772360   -0.727923
     22          1           0       -3.663881   -1.706955   -2.295835
     23          1           0       -2.295921   -2.344618    0.393513
     24          1           0       -1.503050   -2.421861   -1.166383
     25          1           0       -3.881688    0.306508   -0.118327
     26          1           0       -2.427996    2.180658   -0.879766
     27          1           0       -1.612826    2.151877    0.693816
     28          1           0       -3.355451    3.606817    0.797542
     29          1           0        0.546650   -1.594135   -1.264885
     30          1           0        0.387239    0.060547   -1.855241
     31          1           0       -1.901868    0.004110   -1.524656
     32          6           0       -2.967070    0.037873    1.805483
     33          1           0       -3.321914   -0.989340    1.933250
     34          1           0       -1.989254    0.123916    2.293467
     35          1           0       -3.657526    0.700811    2.332438
     36          1           0       -0.386565   -0.770796    0.837832
 ---------------------------------------------------------------------
 Rotational constants (GHZ):      0.6668940      0.2360178      0.2100746
 Standard basis: 6-311G(d) (5D, 7F)
 There are   380 symmetry adapted cartesian basis functions of A   symmetry.
 There are   363 symmetry adapted basis functions of A   symmetry.
   363 basis functions,   639 primitive gaussians,   380 cartesian basis functions
    65 alpha electrons       65 beta electrons
       nuclear repulsion energy      1250.0688267347 Hartrees.
 NAtoms=   36 NActive=   36 NUniq=   36 SFac= 1.00D+00 NAtFMM=   60 NAOKFM=F Big=F
 Integral buffers will be    131072 words long.
 Raffenetti 2 integral format.
 Two-electron integral symmetry is turned on.
 ------------------------------------------------------------------------------
 Polarizable Continuum Model (PCM)
 =================================
 Model                : PCM (using non-symmetric T matrix).
 Atomic radii         : UFF (Universal Force Field).
 Polarization charges : Total charges.
 Charge compensation  : None.
 Solution method      : On-the-fly selection.
 Cavity type          : Scaled VdW (van der Waals Surface) (Alpha=1.100).
 Cavity algorithm     : GePol (No added spheres)
                        Default sphere list used, NSphG=   36.
                        Lebedev-Laikov grids with approx.  5.0 points / Ang**2.
                        Smoothing algorithm: Karplus/York (Gamma=1.0000).
                        Polarization charges: spherical gaussians, with
                                              point-specific exponents (IZeta= 3).
                        Self-potential: point-specific (ISelfS= 7).
                        Self-field    : sphere-specific E.n sum rule (ISelfD= 2).
 Solvent              : Chloroform, Eps=   4.711300 Eps(inf)=   2.090627
 ------------------------------------------------------------------------------
 One-electron integrals computed using PRISM.
 NBasis=   363 RedAO= T EigKep=  2.31D-04  NBF=   363
 NBsUse=   363 1.00D-06 EigRej= -1.00D+00 NBFU=   363
 ExpMin= 1.03D-01 ExpMax= 1.14D+04 ExpMxC= 1.72D+03 IAcc=1 IRadAn=         1 AccDes= 0.00D+00
 Harris functional with IExCor=  908 and IRadAn=       1 diagonalized for initial guess.
 HarFok:  IExCor=  908 AccDes= 0.00D+00 IRadAn=         1 IDoV= 1 UseB2=F ITyADJ=14
 ICtDFT=  3500011 ScaDFX=  1.000000  1.000000  1.000000  1.000000
 FoFCou: FMM=F IPFlag=           0 FMFlag=      100000 FMFlg1=           0
         NFxFlg=           0 DoJE=T BraDBF=F KetDBF=T FulRan=T
         wScrn=  0.000000 ICntrl=     500 IOpCl=  0 I1Cent=   200000004 NGrid=           0
         NMat0=    1 NMatS0=      1 NMatT0=    0 NMatD0=    1 NMtDS0=    0 NMtDT0=    0
 Petite list used in FoFCou.
 Requested convergence on RMS density matrix=1.00D-08 within 128 cycles.
 Requested convergence on MAX density matrix=1.00D-06.
 Requested convergence on             energy=1.00D-06.
 No special actions if energy rises.
 Inv3:  Mode=1 IEnd=    19400547.
 Iteration    1 A*A^-1 deviation from unit magnitude is 1.02D-14 for   2063.
 Iteration    1 A*A^-1 deviation from orthogonality  is 8.48D-15 for   1920   1861.
 Iteration    1 A^-1*A deviation from unit magnitude is 8.22D-15 for    441.
 Iteration    1 A^-1*A deviation from orthogonality  is 3.66D-12 for   2216   1869.
 Error on total polarization charges =  0.00937
 SCF Done:  E(RmPW1PW91) =  -836.460883931     A.U. after   12 cycles
            NFock= 12  Conv=0.68D-08     -V/T= 2.0038
 DoSCS=F DFT=T ScalE2(SS,OS)=  1.000000  1.000000
 Range of M.O.s used for correlation:     1   363
 NBasis=   363 NAE=    65 NBE=    65 NFC=     0 NFV=     0
 NROrb=    363 NOA=    65 NOB=    65 NVA=   298 NVB=   298

 **** Warning!!: The largest alpha MO coefficient is  0.11199538D+02

 NEqPCM:  Using equilibrium solvation (IEInf=0, Eps=   4.7113, EpsInf=   2.0906)
          Differentiating once with respect to magnetic field using GIAOs.
          Electric field/nuclear overlap derivatives assumed to be zero.
 FoFJK:  IHMeth= 1 ICntrl=    6127 DoSepK=F KAlg= 0 I1Cent=   0 FoldK=F
 IRaf=         1 NMat=   1 IRICut=       1 DoRegI=T DoRafI=F ISym2E= 0.
          There are     3 degrees of freedom in the 1st order CPHF.  IDoFFX=0 NUNeed=     3.
      3 vectors produced by pass  0 Test12= 6.46D-13 3.33D-08 XBig12= 3.88D+01 1.50D+00.
 AX will form     3 AO Fock derivatives at one time.
      3 vectors produced by pass  1 Test12= 6.46D-13 3.33D-08 XBig12= 1.01D-01 1.36D-01.
      3 vectors produced by pass  2 Test12= 6.46D-13 3.33D-08 XBig12= 5.24D-04 6.87D-03.
      3 vectors produced by pass  3 Test12= 6.46D-13 3.33D-08 XBig12= 1.42D-06 2.31D-04.
      3 vectors produced by pass  4 Test12= 6.46D-13 3.33D-08 XBig12= 3.63D-09 1.22D-05.
      3 vectors produced by pass  5 Test12= 6.46D-13 3.33D-08 XBig12= 1.26D-11 6.83D-07.
 InvSVY:  IOpt=1 It=  1 EMax= 8.88D-16
 Solved reduced A of dimension    18 with     3 vectors.
 Calculating GIAO nuclear magnetic shielding tensors.
 SCF GIAO Magnetic shielding tensor (ppm):
      1  C    Isotropic =   175.7334   Anisotropy =    21.0832
   XX=   181.0134   YX=     6.3295   ZX=    10.6537
   XY=     4.2027   YY=   171.8033   ZY=    -0.3474
   XZ=    10.1639   YZ=     1.3237   ZZ=   174.3836
   Eigenvalues:   165.4315   171.9799   189.7889
      2  C    Isotropic =   163.0865   Anisotropy =    22.1720
   XX=   162.1966   YX=     5.2222   ZX=    13.9129
   XY=     8.8829   YY=   171.7320   ZY=    -1.7696
   XZ=    17.2856   YZ=    -3.1579   ZZ=   155.3309
   Eigenvalues:   141.4437   169.9480   177.8678
      3  C    Isotropic =   122.2482   Anisotropy =    28.6386
   XX=   137.4842   YX=    -3.5456   ZX=     5.9917
   XY=     9.6987   YY=   115.6016   ZY=     5.5886
   XZ=    12.5457   YZ=     2.0595   ZZ=   113.6588
   Eigenvalues:   109.2885   116.1156   141.3406
      4  C    Isotropic =   149.0827   Anisotropy =    18.6494
   XX=   150.0048   YX=    -3.3771   ZX=    -5.7301
   XY=    -7.7486   YY=   157.9741   ZY=     2.9131
   XZ=    -9.4319   YZ=    -2.5672   ZZ=   139.2692
   Eigenvalues:   135.0804   150.6521   161.5156
      5  C    Isotropic =   115.9140   Anisotropy =    52.8592
   XX=   117.5866   YX=   -20.8391   ZX=   -15.2979
   XY=   -22.4114   YY=   125.6274   ZY=     5.3608
   XZ=   -22.5543   YZ=    11.0873   ZZ=   104.5280
   Eigenvalues:    89.6044   106.9842   151.1535
      6  O    Isotropic =   309.7889   Anisotropy =    98.7953
   XX=   288.2034   YX=    25.9160   ZX=    -0.6093
   XY=     3.1995   YY=   373.2177   ZY=     7.3208
   XZ=     6.1637   YZ=   -10.4479   ZZ=   267.9456
   Eigenvalues:   267.4450   286.2693   375.6524
      7  N    Isotropic =   204.5852   Anisotropy =    53.3601
   XX=   218.6318   YX=     6.9683   ZX=    31.4839
   XY=    18.9389   YY=   169.4016   ZY=    -6.2611
   XZ=     2.7529   YZ=     0.0625   ZZ=   225.7220
   Eigenvalues:   165.2968   208.3000   240.1586
      8  C    Isotropic =   145.6204   Anisotropy =    50.5114
   XX=   159.8368   YX=    -3.2469   ZX=   -18.8838
   XY=   -10.2454   YY=   123.0708   ZY=     8.4304
   XZ=   -21.6122   YZ=     7.8694   ZZ=   153.9537
   Eigenvalues:   120.9434   136.6233   179.2947
      9  C    Isotropic =    54.2896   Anisotropy =   188.0787
   XX=    -6.7316   YX=   -52.0248   ZX=   -73.2564
   XY=   -51.6658   YY=    77.4441   ZY=    51.7898
   XZ=   -73.1122   YZ=    51.1970   ZZ=    92.1562
   Eigenvalues:   -50.2488    33.4421   179.6754
     10  C    Isotropic =    72.7509   Anisotropy =   145.9202
   XX=    73.2735   YX=   -16.0194   ZX=   -47.3562
   XY=   -10.9469   YY=    69.1291   ZY=    76.3496
   XZ=   -52.6770   YZ=    74.2204   ZZ=    75.8501
   Eigenvalues:   -11.4590    59.6807   170.0310
     11  C    Isotropic =    17.4740   Anisotropy =    95.4064
   XX=    19.6477   YX=   -54.6241   ZX=     5.7346
   XY=   -48.6689   YY=   -10.8295   ZY=    45.9963
   XZ=     3.3115   YZ=    46.4825   ZZ=    43.6040
   Eigenvalues:   -64.6875    36.0313    81.0783
     12  C    Isotropic =    65.0781   Anisotropy =   138.6979
   XX=    43.3095   YX=   -35.8396   ZX=   -46.0193
   XY=   -33.9243   YY=    65.8379   ZY=    51.9974
   XZ=   -43.7107   YZ=    52.7184   ZZ=    86.0870
   Eigenvalues:    14.7824    22.9086   157.5434
     13  C    Isotropic =    19.1398   Anisotropy =    97.6078
   XX=    30.9062   YX=    12.1918   ZX=   -44.3119
   XY=     6.7025   YY=    15.4179   ZY=    60.6453
   XZ=   -36.4727   YZ=    60.5023   ZZ=    11.0953
   Eigenvalues:   -61.5907    34.7984    84.2117
     14  C    Isotropic =    72.1137   Anisotropy =   146.7731
   XX=    63.7668   YX=   -51.5987   ZX=   -23.9450
   XY=   -57.3859   YY=    49.5622   ZY=    63.3605
   XZ=   -19.0077   YZ=    66.7478   ZZ=   103.0123
   Eigenvalues:   -12.1432    58.5219   169.9625
     15  H    Isotropic =    24.6433   Anisotropy =     3.1480
   XX=    25.3558   YX=     1.3107   ZX=     1.3786
   XY=     1.2316   YY=    24.8003   ZY=    -2.3575
   XZ=     1.3604   YZ=    -2.3933   ZZ=    23.7737
   Eigenvalues:    21.0494    26.1385    26.7419
     16  H    Isotropic =    25.1752   Anisotropy =     5.0712
   XX=    27.4724   YX=     1.4905   ZX=     2.1490
   XY=     1.5873   YY=    24.4068   ZY=    -1.4514
   XZ=     1.9471   YZ=    -1.5083   ZZ=    23.6465
   Eigenvalues:    21.4155    25.5542    28.5561
     17  H    Isotropic =    25.1378   Anisotropy =     4.7997
   XX=    27.2214   YX=     1.5538   ZX=     2.0410
   XY=     1.2438   YY=    24.1950   ZY=    -1.7089
   XZ=     2.1484   YZ=    -1.5626   ZZ=    23.9970
   Eigenvalues:    21.3916    25.6843    28.3376
     18  F    Isotropic =   299.5050   Anisotropy =   114.7670
   XX=   260.5064   YX=   -17.1035   ZX=   -53.5606
   XY=     3.5577   YY=   337.8646   ZY=    32.5954
   XZ=   -54.7413   YZ=    48.3720   ZZ=   300.1441
   Eigenvalues:   219.7401   302.7586   376.0164
     19  F    Isotropic =   296.1565   Anisotropy =   117.1947
   XX=   254.0987   YX=   -57.7878   ZX=   -27.1409
   XY=   -58.2557   YY=   297.3133   ZY=    27.0102
   XZ=   -24.9922   YZ=    26.4606   ZZ=   337.0574
   Eigenvalues:   213.4554   300.7278   374.2862
     20  H    Isotropic =    30.9514   Anisotropy =    11.2992
   XX=    29.8108   YX=     4.2330   ZX=     2.1057
   XY=     3.3093   YY=    35.8186   ZY=     2.2795
   XZ=     1.9710   YZ=     2.5993   ZZ=    27.2247
   Eigenvalues:    26.0855    28.2844    38.4842
     21  H    Isotropic =    31.0027   Anisotropy =     7.5487
   XX=    35.8691   YX=     0.2091   ZX=    -1.3947
   XY=     0.6679   YY=    28.7037   ZY=     2.7284
   XZ=    -0.8490   YZ=     2.4644   ZZ=    28.4353
   Eigenvalues:    25.8450    31.1279    36.0352
     22  H    Isotropic =    31.3513   Anisotropy =     9.2989
   XX=    29.6989   YX=     0.6492   ZX=     3.9927
   XY=     1.2044   YY=    28.4071   ZY=    -1.0292
   XZ=     2.9976   YZ=    -1.0950   ZZ=    35.9481
   Eigenvalues:    26.9693    29.5341    37.5506
     23  H    Isotropic =    30.7684   Anisotropy =     5.0681
   XX=    28.7467   YX=     0.8206   ZX=     1.6599
   XY=     0.7040   YY=    31.5342   ZY=    -2.6792
   XZ=     0.6510   YZ=    -1.9825   ZZ=    32.0243
   Eigenvalues:    27.6961    30.4620    34.1471
     24  H    Isotropic =    30.0120   Anisotropy =     6.3109
   XX=    33.7419   YX=    -0.4121   ZX=    -1.2284
   XY=    -0.5790   YY=    30.7043   ZY=     3.7722
   XZ=    -0.6506   YZ=     3.2989   ZZ=    25.5899
   Eigenvalues:    23.7460    32.0708    34.2193
     25  H    Isotropic =    30.1387   Anisotropy =     5.8346
   XX=    32.4071   YX=    -0.5840   ZX=     3.3681
   XY=    -0.2865   YY=    29.6184   ZY=     2.0429
   XZ=     2.5035   YZ=     1.8846   ZZ=    28.3905
   Eigenvalues:    25.8373    30.5503    34.0284
     26  H    Isotropic =    28.3601   Anisotropy =     4.4040
   XX=    26.6570   YX=    -2.9132   ZX=    -3.3686
   XY=    -2.7672   YY=    29.5304   ZY=    -1.1723
   XZ=    -2.5721   YZ=    -2.2326   ZZ=    28.8930
   Eigenvalues:    22.9424    30.8419    31.2961
     27  H    Isotropic =    28.3239   Anisotropy =     7.3181
   XX=    32.0702   YX=    -0.6853   ZX=     0.1003
   XY=    -2.3728   YY=    29.8799   ZY=     1.2679
   XZ=    -2.2186   YZ=     2.6732   ZZ=    23.0217
   Eigenvalues:    22.4529    29.3162    33.2027
     28  H    Isotropic =    31.5760   Anisotropy =    20.0695
   XX=    27.3611   YX=     0.8703   ZX=    -1.6026
   XY=     1.9554   YY=    44.5555   ZY=     2.3948
   XZ=    -2.1634   YZ=     2.9238   ZZ=    22.8113
   Eigenvalues:    21.7431    28.0292    44.9557
     29  H    Isotropic =    28.0417   Anisotropy =     5.3584
   XX=    29.4067   YX=    -1.6563   ZX=    -1.9130
   XY=     0.8005   YY=    29.3676   ZY=     2.4914
   XZ=     0.6425   YZ=     4.5160   ZZ=    25.3508
   Eigenvalues:    23.3021    29.2090    31.6140
     30  H    Isotropic =    28.7671   Anisotropy =     8.1263
   XX=    29.9329   YX=     2.5342   ZX=    -2.3980
   XY=     2.8187   YY=    25.8295   ZY=    -2.8604
   XZ=    -0.6294   YZ=    -4.3385   ZZ=    30.5388
   Eigenvalues:    23.4197    28.6969    34.1846
     31  H    Isotropic =    29.6180   Anisotropy =     2.3120
   XX=    29.8494   YX=     0.1264   ZX=     0.8752
   XY=     0.0655   YY=    28.3205   ZY=    -1.0333
   XZ=    -0.3139   YZ=    -1.1760   ZZ=    30.6842
   Eigenvalues:    27.8658    29.8289    31.1593
     32  C    Isotropic =   178.8115   Anisotropy =    18.4131
   XX=   174.6311   YX=     5.7684   ZX=     4.1300
   XY=     3.9705   YY=   173.3844   ZY=    -4.0923
   XZ=     4.4668   YZ=    -8.4771   ZZ=   188.4189
   Eigenvalues:   166.4862   178.8613   191.0869
     33  H    Isotropic =    31.3237   Anisotropy =     8.5922
   XX=    28.5098   YX=     3.4186   ZX=    -2.4853
   XY=     2.7806   YY=    33.8978   ZY=    -1.6502
   XZ=    -2.8141   YZ=    -2.5814   ZZ=    31.5636
   Eigenvalues:    26.5111    30.4083    37.0519
     34  H    Isotropic =    31.7657   Anisotropy =     7.1521
   XX=    33.8400   YX=    -0.5014   ZX=     2.3644
   XY=    -0.9338   YY=    27.1013   ZY=     0.2809
   XZ=     2.4696   YZ=     0.4215   ZZ=    34.3557
   Eigenvalues:    26.9706    31.7927    36.5337
     35  H    Isotropic =    30.7231   Anisotropy =     9.5715
   XX=    29.7067   YX=    -2.9755   ZX=    -4.6567
   XY=    -3.5523   YY=    30.0808   ZY=     0.8107
   XZ=    -4.7703   YZ=     1.2257   ZZ=    32.3817
   Eigenvalues:    25.1943    29.8709    37.1041
     36  H    Isotropic =    31.8625   Anisotropy =    10.0239
   XX=    36.5494   YX=    -2.7674   ZX=     1.5955
   XY=    -3.7026   YY=    24.7128   ZY=    -4.1012
   XZ=    -0.6638   YZ=    -6.2726   ZZ=    34.3254
   Eigenvalues:    21.9130    35.1295    38.5452
 End of Minotr F.D. properties file   721 does not exist.
 End of Minotr F.D. properties file   722 does not exist.
 End of Minotr F.D. properties file   788 does not exist.

 **********************************************************************

            Population analysis using the SCF density.

 **********************************************************************

 Orbital symmetries:
       Occupied  (A) (A) (A) (A) (A) (A) (A) (A) (A) (A) (A) (A)
                 (A) (A) (A) (A) (A) (A) (A) (A) (A) (A) (A) (A)
                 (A) (A) (A) (A) (A) (A) (A) (A) (A) (A) (A) (A)
                 (A) (A) (A) (A) (A) (A) (A) (A) (A) (A) (A) (A)
                 (A) (A) (A) (A) (A) (A) (A) (A) (A) (A) (A) (A)
                 (A) (A) (A) (A) (A)
       Virtual   (A) (A) (A) (A) (A) (A) (A) (A) (A) (A) (A) (A)
                 (A) (A) (A) (A) (A) (A) (A) (A) (A) (A) (A) (A)
                 (A) (A) (A) (A) (A) (A) (A) (A) (A) (A) (A) (A)
                 (A) (A) (A) (A) (A) (A) (A) (A) (A) (A) (A) (A)
                 (A) (A) (A) (A) (A) (A) (A) (A) (A) (A) (A) (A)
                 (A) (A) (A) (A) (A) (A) (A) (A) (A) (A) (A) (A)
                 (A) (A) (A) (A) (A) (A) (A) (A) (A) (A) (A) (A)
                 (A) (A) (A) (A) (A) (A) (A) (A) (A) (A) (A) (A)
                 (A) (A) (A) (A) (A) (A) (A) (A) (A) (A) (A) (A)
                 (A) (A) (A) (A) (A) (A) (A) (A) (A) (A) (A) (A)
                 (A) (A) (A) (A) (A) (A) (A) (A) (A) (A) (A) (A)
                 (A) (A) (A) (A) (A) (A) (A) (A) (A) (A) (A) (A)
                 (A) (A) (A) (A) (A) (A) (A) (A) (A) (A) (A) (A)
                 (A) (A) (A) (A) (A) (A) (A) (A) (A) (A) (A) (A)
                 (A) (A) (A) (A) (A) (A) (A) (A) (A) (A) (A) (A)
                 (A) (A) (A) (A) (A) (A) (A) (A) (A) (A) (A) (A)
                 (A) (A) (A) (A) (A) (A) (A) (A) (A) (A) (A) (A)
                 (A) (A) (A) (A) (A) (A) (A) (A) (A) (A) (A) (A)
                 (A) (A) (A) (A) (A) (A) (A) (A) (A) (A) (A) (A)
                 (A) (A) (A) (A) (A) (A) (A) (A) (A) (A) (A) (A)
                 (A) (A) (A) (A) (A) (A) (A) (A) (A) (A) (A) (A)
                 (A) (A) (A) (A) (A) (A) (A) (A) (A) (A) (A) (A)
                 (A) (A) (A) (A) (A) (A) (A) (A) (A) (A) (A) (A)
                 (A) (A) (A) (A) (A) (A) (A) (A) (A) (A) (A) (A)
                 (A) (A) (A) (A) (A) (A) (A) (A) (A) (A)
 The electronic state is 1-A.
 Alpha  occ. eigenvalues --  -24.80081 -24.79779 -19.20227 -14.37795 -10.33744
 Alpha  occ. eigenvalues --  -10.33708 -10.26992 -10.26541 -10.26507 -10.26146
 Alpha  occ. eigenvalues --  -10.26123 -10.25370 -10.25319 -10.23131 -10.22640
 Alpha  occ. eigenvalues --  -10.21898 -10.21219  -1.26906  -1.26743  -1.04216
 Alpha  occ. eigenvalues --   -0.94036  -0.90605  -0.83063  -0.79889  -0.78770
 Alpha  occ. eigenvalues --   -0.77967  -0.71562  -0.69522  -0.67214  -0.65816
 Alpha  occ. eigenvalues --   -0.63860  -0.62000  -0.58682  -0.57360  -0.55161
 Alpha  occ. eigenvalues --   -0.53144  -0.51560  -0.51474  -0.50893  -0.49051
 Alpha  occ. eigenvalues --   -0.48737  -0.48628  -0.46882  -0.46557  -0.46087
 Alpha  occ. eigenvalues --   -0.45039  -0.42604  -0.42196  -0.41821  -0.41149
 Alpha  occ. eigenvalues --   -0.40321  -0.39502  -0.38522  -0.38275  -0.37799
 Alpha  occ. eigenvalues --   -0.37330  -0.36572  -0.35739  -0.33722  -0.33101
 Alpha  occ. eigenvalues --   -0.32378  -0.28083  -0.27549  -0.26981  -0.23827
 Alpha virt. eigenvalues --   -0.02179  -0.00890   0.05131   0.05693   0.06433
 Alpha virt. eigenvalues --    0.07086   0.07519   0.08615   0.10369   0.11233
 Alpha virt. eigenvalues --    0.11604   0.11826   0.12384   0.13177   0.13646
 Alpha virt. eigenvalues --    0.13760   0.14284   0.14671   0.15200   0.16725
 Alpha virt. eigenvalues --    0.17072   0.18372   0.18984   0.19463   0.20849
 Alpha virt. eigenvalues --    0.20962   0.22514   0.23018   0.24903   0.25136
 Alpha virt. eigenvalues --    0.25581   0.26247   0.26377   0.28149   0.30329
 Alpha virt. eigenvalues --    0.32419   0.32914   0.33335   0.34619   0.34988
 Alpha virt. eigenvalues --    0.35613   0.36771   0.37628   0.38009   0.38662
 Alpha virt. eigenvalues --    0.39390   0.40783   0.41132   0.41571   0.41654
 Alpha virt. eigenvalues --    0.42963   0.44145   0.44664   0.45521   0.46513
 Alpha virt. eigenvalues --    0.47694   0.48340   0.48551   0.50370   0.52190
 Alpha virt. eigenvalues --    0.52231   0.53610   0.54471   0.54734   0.55775
 Alpha virt. eigenvalues --    0.56559   0.57622   0.58518   0.59056   0.59410
 Alpha virt. eigenvalues --    0.60277   0.60714   0.61049   0.61379   0.61725
 Alpha virt. eigenvalues --    0.62889   0.63212   0.63952   0.64196   0.64686
 Alpha virt. eigenvalues --    0.65466   0.65938   0.66924   0.67148   0.67470
 Alpha virt. eigenvalues --    0.67907   0.68129   0.68785   0.69915   0.70990
 Alpha virt. eigenvalues --    0.72170   0.73293   0.74047   0.74728   0.77091
 Alpha virt. eigenvalues --    0.77624   0.78907   0.81828   0.83086   0.85097
 Alpha virt. eigenvalues --    0.87201   0.87631   0.89495   0.91686   0.93115
 Alpha virt. eigenvalues --    0.94046   0.95941   0.97604   0.98091   1.00137
 Alpha virt. eigenvalues --    1.00160   1.01736   1.05226   1.06791   1.08316
 Alpha virt. eigenvalues --    1.08608   1.10097   1.11917   1.13192   1.14865
 Alpha virt. eigenvalues --    1.16960   1.18231   1.19350   1.23177   1.24471
 Alpha virt. eigenvalues --    1.26226   1.27779   1.28669   1.29628   1.30593
 Alpha virt. eigenvalues --    1.33151   1.34170   1.35345   1.39551   1.43136
 Alpha virt. eigenvalues --    1.46440   1.46453   1.47373   1.48084   1.49769
 Alpha virt. eigenvalues --    1.50370   1.52097   1.53274   1.53884   1.54381
 Alpha virt. eigenvalues --    1.54885   1.56832   1.57771   1.58491   1.61375
 Alpha virt. eigenvalues --    1.61576   1.62499   1.64415   1.65899   1.66966
 Alpha virt. eigenvalues --    1.67181   1.68169   1.69817   1.71883   1.73224
 Alpha virt. eigenvalues --    1.74596   1.77447   1.78254   1.81323   1.82157
 Alpha virt. eigenvalues --    1.83916   1.84904   1.85426   1.88353   1.89581
 Alpha virt. eigenvalues --    1.90131   1.90531   1.91275   1.93814   1.94843
 Alpha virt. eigenvalues --    1.96873   1.97987   1.99370   2.01593   2.02917
 Alpha virt. eigenvalues --    2.08020   2.10165   2.12112   2.16743   2.18708
 Alpha virt. eigenvalues --    2.20491   2.21010   2.26403   2.27538   2.27703
 Alpha virt. eigenvalues --    2.29489   2.31640   2.34787   2.39335   2.40470
 Alpha virt. eigenvalues --    2.41790   2.42186   2.43186   2.44979   2.46757
 Alpha virt. eigenvalues --    2.49440   2.49650   2.50906   2.52104   2.54280
 Alpha virt. eigenvalues --    2.56128   2.56404   2.59966   2.60735   2.66053
 Alpha virt. eigenvalues --    2.66197   2.68150   2.69045   2.72562   2.73831
 Alpha virt. eigenvalues --    2.77462   2.82681   2.83752   2.84332   2.89529
 Alpha virt. eigenvalues --    2.91247   2.93683   2.97458   3.01096   3.04940
 Alpha virt. eigenvalues --    3.06042   3.06901   3.07215   3.08692   3.10589
 Alpha virt. eigenvalues --    3.12875   3.14415   3.15732   3.20700   3.22199
 Alpha virt. eigenvalues --    3.22732   3.24666   3.25958   3.27066   3.28570
 Alpha virt. eigenvalues --    3.29552   3.30259   3.33032   3.38400   3.41105
 Alpha virt. eigenvalues --    3.46516   3.48246   3.51921   3.56843   3.63969
 Alpha virt. eigenvalues --    3.75488   3.78155   3.80122   3.80210   3.81088
 Alpha virt. eigenvalues --    3.85771   3.87602   3.96503   3.97246   3.98786
 Alpha virt. eigenvalues --    3.99441   4.04733   4.06924   4.10541   4.12097
 Alpha virt. eigenvalues --    4.18950   4.21267   4.46436   4.75042   4.76464
 Alpha virt. eigenvalues --    4.77849   4.80417   4.91615   5.10839   5.40082
 Alpha virt. eigenvalues --    6.13160   6.14811   6.29461   6.32731   6.55179
 Alpha virt. eigenvalues --    6.57160  23.28934  23.47630  23.57869  23.69547
 Alpha virt. eigenvalues --   23.72942  23.77305  23.81834  23.85856  23.86158
 Alpha virt. eigenvalues --   23.90603  24.10027  24.10736  24.19750  35.58027
 Alpha virt. eigenvalues --   49.96799  66.89151  66.89614
          Condensed to atoms (all electrons):
               1          2          3          4          5          6
     1  C    5.355383   0.293107  -0.070717   0.002887  -0.000444  -0.000004
     2  C    0.293107   5.331348   0.342197  -0.080915   0.008450  -0.000063
     3  C   -0.070717   0.342197   5.314567   0.270016  -0.057945   0.003262
     4  C    0.002887  -0.080915   0.270016   5.493579   0.284003  -0.056611
     5  C   -0.000444   0.008450  -0.057945   0.284003   5.113156   0.233726
     6  O   -0.000004  -0.000063   0.003262  -0.056611   0.233726   8.219747
     7  N    0.006140  -0.062255   0.275414  -0.071655  -0.003690   0.000074
     8  C    0.000095  -0.004407  -0.082314   0.008898  -0.000025  -0.000001
     9  C    0.000000   0.000000  -0.000001   0.000000   0.000000   0.000000
    10  C    0.000000  -0.000001   0.000017   0.000000   0.000000   0.000000
    11  C    0.000002   0.000076  -0.000252   0.000066  -0.000001   0.000000
    12  C    0.000010  -0.000065   0.008744  -0.000359  -0.000059   0.000000
    13  C   -0.000001   0.000001  -0.000257  -0.000049  -0.000006   0.000000
    14  C    0.000000   0.000000   0.000006   0.000000   0.000000   0.000000
    15  H    0.000000   0.000000   0.000000   0.000000   0.000000   0.000000
    16  H    0.000000   0.000000  -0.000001   0.000000   0.000000   0.000000
    17  H    0.000000   0.000000   0.000000   0.000000   0.000000   0.000000
    18  F    0.000000  -0.000083  -0.000047   0.000007   0.000000   0.000000
    19  F    0.000000   0.000000  -0.000022   0.000001   0.000000   0.000000
    20  H    0.387742  -0.033270   0.007459  -0.000173   0.000022   0.000000
    21  H    0.387775  -0.035724  -0.008744   0.003564   0.000212  -0.000053
    22  H    0.386356  -0.043293  -0.003317  -0.001033  -0.000182   0.000004
    23  H   -0.038562   0.389233  -0.041765  -0.009269  -0.000358  -0.000001
    24  H   -0.040798   0.405382  -0.046899   0.007587  -0.000269   0.000003
    25  H    0.000557  -0.008064  -0.038328   0.394936  -0.043891   0.009082
    26  H    0.000007   0.000234   0.006275  -0.062101   0.396443  -0.033612
    27  H   -0.000106   0.000251  -0.007039  -0.038721   0.377453  -0.032892
    28  H    0.000000   0.000023  -0.000788   0.011594  -0.049311   0.258304
    29  H   -0.000749   0.003074   0.001691  -0.001219   0.000123   0.000000
    30  H    0.000069  -0.000289  -0.007277   0.000868  -0.000170  -0.000003
    31  H   -0.000378  -0.052089   0.401680  -0.044063  -0.009780  -0.000229
    32  C   -0.000232  -0.005888  -0.064277   0.282701  -0.080771  -0.003768
    33  H    0.000062   0.001669  -0.005681  -0.035185   0.007272  -0.000180
    34  H   -0.000077   0.000811  -0.009212  -0.038129  -0.004088  -0.000474
    35  H   -0.000029  -0.000265   0.009190  -0.042442  -0.008311   0.019272
    36  H    0.000137  -0.002920  -0.050510  -0.005063  -0.000106  -0.000042
               7          8          9         10         11         12
     1  C    0.006140   0.000095   0.000000   0.000000   0.000002   0.000010
     2  C   -0.062255  -0.004407   0.000000  -0.000001   0.000076  -0.000065
     3  C    0.275414  -0.082314  -0.000001   0.000017  -0.000252   0.008744
     4  C   -0.071655   0.008898   0.000000   0.000000   0.000066  -0.000359
     5  C   -0.003690  -0.000025   0.000000   0.000000  -0.000001  -0.000059
     6  O    0.000074  -0.000001   0.000000   0.000000   0.000000   0.000000
     7  N    6.946981   0.292221   0.000051  -0.000303  -0.007615  -0.062681
     8  C    0.292221   5.277322  -0.001386   0.008771  -0.086231   0.292504
     9  C    0.000051  -0.001386   5.074153   0.440216  -0.009967  -0.055482
    10  C   -0.000303   0.008771   0.440216   5.166171   0.487756  -0.040019
    11  C   -0.007615  -0.086231  -0.009967   0.487756   4.806620   0.235831
    12  C   -0.062681   0.292504  -0.055482  -0.040019   0.235831   5.724100
    13  C    0.011607  -0.070297  -0.004427  -0.061486   0.042786   0.292700
    14  C   -0.000104   0.009526   0.434881  -0.043556  -0.057379  -0.031668
    15  H    0.000000   0.000028   0.402638  -0.040885   0.006293  -0.001642
    16  H    0.000014  -0.000251  -0.040047   0.393812  -0.050108   0.012098
    17  H    0.000009  -0.000221  -0.040662   0.006842  -0.001640   0.011887
    18  F   -0.002528   0.002169   0.005326  -0.053414   0.306039  -0.083856
    19  F   -0.000307  -0.006895   0.005573  -0.000451   0.005813  -0.072609
    20  H   -0.000272  -0.000027   0.000000   0.000000  -0.000001   0.000000
    21  H   -0.000079  -0.000023   0.000000   0.000000   0.000000   0.000000
    22  H   -0.000015  -0.000018   0.000000   0.000000   0.000000  -0.000003
    23  H    0.000564   0.000276   0.000000   0.000002   0.000017  -0.000056
    24  H   -0.003194   0.002964   0.000000   0.000003   0.000240   0.000030
    25  H    0.005244  -0.000144   0.000000   0.000000  -0.000002   0.000024
    26  H   -0.000264  -0.000015   0.000000   0.000000  -0.000002  -0.000050
    27  H    0.022292  -0.000569  -0.000001  -0.000007  -0.000103  -0.000053
    28  H    0.000012  -0.000003   0.000000   0.000000   0.000000   0.000000
    29  H   -0.049445   0.374758  -0.000078  -0.000405  -0.022678  -0.042468
    30  H   -0.038248   0.389219  -0.000305   0.000121   0.009247  -0.034944
    31  H   -0.040777  -0.008513   0.000001   0.000002  -0.000016   0.000226
    32  C   -0.006015  -0.000394   0.000000   0.000000  -0.000012   0.000044
    33  H    0.000036  -0.000095   0.000000   0.000000  -0.000001  -0.000002
    34  H    0.007774  -0.000252   0.000000  -0.000006  -0.000047   0.000333
    35  H   -0.000387   0.000026   0.000000   0.000000   0.000001  -0.000003
    36  H    0.324744  -0.044463  -0.000101   0.000455   0.003658  -0.015745
              13         14         15         16         17         18
     1  C   -0.000001   0.000000   0.000000   0.000000   0.000000   0.000000
     2  C    0.000001   0.000000   0.000000   0.000000   0.000000  -0.000083
     3  C   -0.000257   0.000006   0.000000  -0.000001   0.000000  -0.000047
     4  C   -0.000049   0.000000   0.000000   0.000000   0.000000   0.000007
     5  C   -0.000006   0.000000   0.000000   0.000000   0.000000   0.000000
     6  O    0.000000   0.000000   0.000000   0.000000   0.000000   0.000000
     7  N    0.011607  -0.000104   0.000000   0.000014   0.000009  -0.002528
     8  C   -0.070297   0.009526   0.000028  -0.000251  -0.000221   0.002169
     9  C   -0.004427   0.434881   0.402638  -0.040047  -0.040662   0.005326
    10  C   -0.061486  -0.043556  -0.040885   0.393812   0.006842  -0.053414
    11  C    0.042786  -0.057379   0.006293  -0.050108  -0.001640   0.306039
    12  C    0.292700  -0.031668  -0.001642   0.012098   0.011887  -0.083856
    13  C    4.747988   0.470879   0.005980  -0.001580  -0.048661   0.005263
    14  C    0.470879   5.179431  -0.039882   0.006707   0.393573  -0.000507
    15  H    0.005980  -0.039882   0.445981  -0.006379  -0.006358  -0.000081
    16  H   -0.001580   0.006707  -0.006379   0.445967  -0.000139   0.001538
    17  H   -0.048661   0.393573  -0.006358  -0.000139   0.446213   0.000004
    18  F    0.005263  -0.000507  -0.000081   0.001538   0.000004   9.055593
    19  F    0.307840  -0.052739  -0.000082   0.000004   0.001370  -0.000002
    20  H    0.000000   0.000000   0.000000   0.000000   0.000000   0.000000
    21  H    0.000000   0.000000   0.000000   0.000000   0.000000   0.000000
    22  H    0.000000   0.000000   0.000000   0.000000   0.000000   0.000000
    23  H    0.000001   0.000000   0.000000   0.000000   0.000000   0.000051
    24  H   -0.000065   0.000001   0.000000   0.000000   0.000000  -0.000102
    25  H    0.000001   0.000000   0.000000   0.000000   0.000000   0.000000
    26  H    0.000010   0.000000   0.000000   0.000000   0.000000   0.000000
    27  H    0.000353  -0.000003   0.000000   0.000000   0.000000   0.000001
    28  H    0.000000   0.000000   0.000000   0.000000   0.000000   0.000000
    29  H    0.010068  -0.000174   0.000002  -0.000010   0.000015   0.005367
    30  H   -0.017631   0.001447   0.000005   0.000007  -0.000051   0.000195
    31  H    0.000013  -0.000004   0.000000   0.000000   0.000000  -0.000008
    32  C    0.000000   0.000000   0.000000   0.000000   0.000000  -0.000007
    33  H    0.000000   0.000000   0.000000   0.000000   0.000000   0.000000
    34  H    0.000024  -0.000002   0.000000   0.000000   0.000000  -0.000122
    35  H    0.000000   0.000000   0.000000   0.000000   0.000000   0.000000
    36  H   -0.000551   0.000067   0.000002   0.000011  -0.000002   0.011738
              19         20         21         22         23         24
     1  C    0.000000   0.387742   0.387775   0.386356  -0.038562  -0.040798
     2  C    0.000000  -0.033270  -0.035724  -0.043293   0.389233   0.405382
     3  C   -0.000022   0.007459  -0.008744  -0.003317  -0.041765  -0.046899
     4  C    0.000001  -0.000173   0.003564  -0.001033  -0.009269   0.007587
     5  C    0.000000   0.000022   0.000212  -0.000182  -0.000358  -0.000269
     6  O    0.000000   0.000000  -0.000053   0.000004  -0.000001   0.000003
     7  N   -0.000307  -0.000272  -0.000079  -0.000015   0.000564  -0.003194
     8  C   -0.006895  -0.000027  -0.000023  -0.000018   0.000276   0.002964
     9  C    0.005573   0.000000   0.000000   0.000000   0.000000   0.000000
    10  C   -0.000451   0.000000   0.000000   0.000000   0.000002   0.000003
    11  C    0.005813  -0.000001   0.000000   0.000000   0.000017   0.000240
    12  C   -0.072609   0.000000   0.000000  -0.000003  -0.000056   0.000030
    13  C    0.307840   0.000000   0.000000   0.000000   0.000001  -0.000065
    14  C   -0.052739   0.000000   0.000000   0.000000   0.000000   0.000001
    15  H   -0.000082   0.000000   0.000000   0.000000   0.000000   0.000000
    16  H    0.000004   0.000000   0.000000   0.000000   0.000000   0.000000
    17  H    0.001370   0.000000   0.000000   0.000000   0.000000   0.000000
    18  F   -0.000002   0.000000   0.000000   0.000000   0.000051  -0.000102
    19  F    9.045696   0.000000   0.000000   0.000000   0.000000   0.000002
    20  H    0.000000   0.476870  -0.028012  -0.027915  -0.004531  -0.005865
    21  H    0.000000  -0.028012   0.476783  -0.029002  -0.006003   0.006662
    22  H    0.000000  -0.027915  -0.029002   0.486208   0.007382  -0.004122
    23  H    0.000000  -0.004531  -0.006003   0.007382   0.499493  -0.032977
    24  H    0.000002  -0.005865   0.006662  -0.004122  -0.032977   0.485065
    25  H    0.000000   0.000379  -0.001333   0.000282  -0.000304   0.000026
    26  H    0.000033  -0.000003   0.000061  -0.000013  -0.000023  -0.000018
    27  H    0.000030   0.000005  -0.000051   0.000007  -0.000043  -0.000009
    28  H    0.000000   0.000000   0.000001  -0.000001   0.000000  -0.000001
    29  H   -0.000022   0.000151  -0.000012   0.000024  -0.000716   0.000527
    30  H    0.014688  -0.000012   0.000007  -0.000011   0.000047   0.000814
    31  H   -0.000200  -0.000347  -0.000228   0.005249   0.007889  -0.005899
    32  C    0.000000  -0.000114   0.000751   0.000140   0.004407  -0.000282
    33  H    0.000000   0.000012   0.001322  -0.000090   0.000010   0.000185
    34  H    0.000000   0.000024  -0.000080   0.000001  -0.000347  -0.000127
    35  H    0.000000  -0.000006  -0.000040   0.000010   0.000117   0.000018
    36  H   -0.000011  -0.000018   0.000002   0.000016   0.004704  -0.000353
              25         26         27         28         29         30
     1  C    0.000557   0.000007  -0.000106   0.000000  -0.000749   0.000069
     2  C   -0.008064   0.000234   0.000251   0.000023   0.003074  -0.000289
     3  C   -0.038328   0.006275  -0.007039  -0.000788   0.001691  -0.007277
     4  C    0.394936  -0.062101  -0.038721   0.011594  -0.001219   0.000868
     5  C   -0.043891   0.396443   0.377453  -0.049311   0.000123  -0.000170
     6  O    0.009082  -0.033612  -0.032892   0.258304   0.000000  -0.000003
     7  N    0.005244  -0.000264   0.022292   0.000012  -0.049445  -0.038248
     8  C   -0.000144  -0.000015  -0.000569  -0.000003   0.374758   0.389219
     9  C    0.000000   0.000000  -0.000001   0.000000  -0.000078  -0.000305
    10  C    0.000000   0.000000  -0.000007   0.000000  -0.000405   0.000121
    11  C   -0.000002  -0.000002  -0.000103   0.000000  -0.022678   0.009247
    12  C    0.000024  -0.000050  -0.000053   0.000000  -0.042468  -0.034944
    13  C    0.000001   0.000010   0.000353   0.000000   0.010068  -0.017631
    14  C    0.000000   0.000000  -0.000003   0.000000  -0.000174   0.001447
    15  H    0.000000   0.000000   0.000000   0.000000   0.000002   0.000005
    16  H    0.000000   0.000000   0.000000   0.000000  -0.000010   0.000007
    17  H    0.000000   0.000000   0.000000   0.000000   0.000015  -0.000051
    18  F    0.000000   0.000000   0.000001   0.000000   0.005367   0.000195
    19  F    0.000000   0.000033   0.000030   0.000000  -0.000022   0.014688
    20  H    0.000379  -0.000003   0.000005   0.000000   0.000151  -0.000012
    21  H   -0.001333   0.000061  -0.000051   0.000001  -0.000012   0.000007
    22  H    0.000282  -0.000013   0.000007  -0.000001   0.000024  -0.000011
    23  H   -0.000304  -0.000023  -0.000043   0.000000  -0.000716   0.000047
    24  H    0.000026  -0.000018  -0.000009  -0.000001   0.000527   0.000814
    25  H    0.511365  -0.009463   0.011544  -0.000661   0.000052  -0.000033
    26  H   -0.009463   0.532260  -0.043194  -0.001348   0.000046  -0.000150
    27  H    0.011544  -0.043194   0.518565  -0.005283   0.000288  -0.000338
    28  H   -0.000661  -0.001348  -0.005283   0.377889   0.000000  -0.000001
    29  H    0.000052   0.000046   0.000288   0.000000   0.547715  -0.042887
    30  H   -0.000033  -0.000150  -0.000338  -0.000001  -0.042887   0.462601
    31  H   -0.006020   0.006826  -0.001959  -0.000025  -0.002105   0.005258
    32  C   -0.055352   0.009026  -0.015071   0.000107  -0.000056  -0.000002
    33  H   -0.005411  -0.000304  -0.000067   0.000047   0.000021  -0.000004
    34  H    0.007556  -0.000280   0.005180   0.000016   0.000184  -0.000070
    35  H   -0.004614   0.001169  -0.000605  -0.001089  -0.000004   0.000004
    36  H   -0.000067  -0.000109  -0.000381   0.000000  -0.007386   0.007081
              31         32         33         34         35         36
     1  C   -0.000378  -0.000232   0.000062  -0.000077  -0.000029   0.000137
     2  C   -0.052089  -0.005888   0.001669   0.000811  -0.000265  -0.002920
     3  C    0.401680  -0.064277  -0.005681  -0.009212   0.009190  -0.050510
     4  C   -0.044063   0.282701  -0.035185  -0.038129  -0.042442  -0.005063
     5  C   -0.009780  -0.080771   0.007272  -0.004088  -0.008311  -0.000106
     6  O   -0.000229  -0.003768  -0.000180  -0.000474   0.019272  -0.000042
     7  N   -0.040777  -0.006015   0.000036   0.007774  -0.000387   0.324744
     8  C   -0.008513  -0.000394  -0.000095  -0.000252   0.000026  -0.044463
     9  C    0.000001   0.000000   0.000000   0.000000   0.000000  -0.000101
    10  C    0.000002   0.000000   0.000000  -0.000006   0.000000   0.000455
    11  C   -0.000016  -0.000012  -0.000001  -0.000047   0.000001   0.003658
    12  C    0.000226   0.000044  -0.000002   0.000333  -0.000003  -0.015745
    13  C    0.000013   0.000000   0.000000   0.000024   0.000000  -0.000551
    14  C   -0.000004   0.000000   0.000000  -0.000002   0.000000   0.000067
    15  H    0.000000   0.000000   0.000000   0.000000   0.000000   0.000002
    16  H    0.000000   0.000000   0.000000   0.000000   0.000000   0.000011
    17  H    0.000000   0.000000   0.000000   0.000000   0.000000  -0.000002
    18  F   -0.000008  -0.000007   0.000000  -0.000122   0.000000   0.011738
    19  F   -0.000200   0.000000   0.000000   0.000000   0.000000  -0.000011
    20  H   -0.000347  -0.000114   0.000012   0.000024  -0.000006  -0.000018
    21  H   -0.000228   0.000751   0.001322  -0.000080  -0.000040   0.000002
    22  H    0.005249   0.000140  -0.000090   0.000001   0.000010   0.000016
    23  H    0.007889   0.004407   0.000010  -0.000347   0.000117   0.004704
    24  H   -0.005899  -0.000282   0.000185  -0.000127   0.000018  -0.000353
    25  H   -0.006020  -0.055352  -0.005411   0.007556  -0.004614  -0.000067
    26  H    0.006826   0.009026  -0.000304  -0.000280   0.001169  -0.000109
    27  H   -0.001959  -0.015071  -0.000067   0.005180  -0.000605  -0.000381
    28  H   -0.000025   0.000107   0.000047   0.000016  -0.001089   0.000000
    29  H   -0.002105  -0.000056   0.000021   0.000184  -0.000004  -0.007386
    30  H    0.005258  -0.000002  -0.000004  -0.000070   0.000004   0.007081
    31  H    0.500030   0.009077  -0.000223  -0.000295  -0.000112   0.008308
    32  C    0.009077   5.449257   0.386803   0.377889   0.386650   0.003914
    33  H   -0.000223   0.386803   0.474630  -0.027187  -0.026659  -0.000419
    34  H   -0.000295   0.377889  -0.027187   0.487834  -0.027339  -0.001044
    35  H   -0.000112   0.386650  -0.026659  -0.027339   0.455219  -0.000031
    36  H    0.008308   0.003914  -0.000419  -0.001044  -0.000031   0.435161
 Mulliken charges:
               1
     1  C   -0.668233
     2  C   -0.446267
     3  C   -0.145124
     4  C   -0.273721
     5  C   -0.161452
     6  O   -0.615541
     7  N   -0.543342
     8  C   -0.352233
     9  C   -0.210382
    10  C   -0.263636
    11  C    0.331612
    12  C   -0.136768
    13  C    0.309496
    14  C   -0.270503
    15  H    0.234379
    16  H    0.238354
    17  H    0.237819
    18  F   -0.252532
    19  F   -0.247710
    20  H    0.227902
    21  H    0.232245
    22  H    0.223337
    23  H    0.220763
    24  H    0.231474
    25  H    0.232640
    26  H    0.198557
    27  H    0.210525
    28  H    0.410519
    29  H    0.226309
    30  H    0.250747
    31  H    0.228710
    32  C   -0.678522
    33  H    0.229438
    34  H    0.221554
    35  H    0.240262
    36  H    0.329323
 Sum of Mulliken charges =   0.00000
 Mulliken charges with hydrogens summed into heavy atoms:
               1
     1  C    0.015251
     2  C    0.005970
     3  C    0.083587
     4  C   -0.041081
     5  C    0.247630
     6  O   -0.205022
     7  N   -0.214019
     8  C    0.124823
     9  C    0.023997
    10  C   -0.025282
    11  C    0.331612
    12  C   -0.136768
    13  C    0.309496
    14  C   -0.032684
    18  F   -0.252532
    19  F   -0.247710
    32  C    0.012732
 Electronic spatial extent (au):  <R**2>=           5441.7134
 Charge=              0.0000 electrons
 Dipole moment (field-independent basis, Debye):
    X=              2.8178    Y=             -0.0936    Z=             -0.1080  Tot=              2.8215
 Quadrupole moment (field-independent basis, Debye-Ang):
   XX=            -98.4497   YY=            -96.4085   ZZ=           -102.0952
   XY=              4.5037   XZ=              7.5546   YZ=              0.4595
 Traceless Quadrupole moment (field-independent basis, Debye-Ang):
   XX=              0.5347   YY=              2.5760   ZZ=             -3.1107
   XY=              4.5037   XZ=              7.5546   YZ=              0.4595
 Octapole moment (field-independent basis, Debye-Ang**2):
  XXX=            137.1851  YYY=             51.9065  ZZZ=             -1.6607  XYY=            -11.5806
  XXY=             -0.0588  XXZ=             13.5492  XZZ=              6.0261  YZZ=             -2.8332
  YYZ=              3.8229  XYZ=             -0.4181
 Hexadecapole moment (field-independent basis, Debye-Ang**3):
 XXXX=          -4919.4855 YYYY=          -1124.8673 ZZZZ=           -734.3231 XXXY=            159.6762
 XXXZ=            146.2333 YYYX=           -129.2938 YYYZ=              8.4078 ZZZX=              6.0502
 ZZZY=            -35.2509 XXYY=          -1020.2137 XXZZ=           -958.9048 YYZZ=           -341.9802
 XXYZ=            -55.3900 YYXZ=            -19.5668 ZZXY=            -32.2836
 N-N= 1.250068826735D+03 E-N=-4.458462550599D+03  KE= 8.332765129005D+02
 1\1\GINC-SWANNODE-0-13\SP\RmPW1PW91\6-311G(d)\C13H19F2N1O1\KE291\06-Ma
 r-2019\0\\# mPW1PW91/6-311g(d) geom=checkpoint nmr=giao scrf=(solvent=
 chloroform)\\AT3_2ginp006\\0,1\C,0,-0.9562013546,-1.831945572,0.391403
 6031\C,0,-2.4223247781,-1.3844699739,0.3524077003\C,0,-3.0918524044,-1
 .2162028439,1.735705673\C,0,-2.4232862193,-0.1365296762,2.6236428261\C
 ,0,-2.98278162,-0.194832274,4.0478705272\O,0,-2.1676872291,0.627336208
 5,4.887202545\N,0,-4.5440836186,-0.9604172589,1.6526289143\C,0,-5.3544
 060131,-2.1262166199,1.2785126114\C,0,-9.5821299136,-1.146089599,1.346
 825637\C,0,-8.7701499,-0.6591699883,0.320504927\C,0,-7.4238206444,-0.9
 966048043,0.3347921706\C,0,-6.8293566165,-1.7955938649,1.3129222474\C,
 0,-7.688784927,-2.2464677671,2.3158422743\C,0,-9.0462068467,-1.9466565
 948,2.3557355112\H,0,-10.6383678499,-0.8987112654,1.3602811322\H,0,-9.
 1593956171,-0.032695373,-0.4736209009\H,0,-9.6554784171,-2.3362905606,
 3.1630341292\F,0,-6.6224020938,-0.5208945564,-0.6526413299\F,0,-7.1756
 806543,-3.0268060227,3.2954978647\H,0,-0.5827720442,-2.0269975005,-0.6
 190861207\H,0,-0.305392888,-1.0752501943,0.8400929926\H,0,-0.840011882
 5,-2.755296042,0.9706240765\H,0,-2.5076086059,-0.4444348489,-0.2081732
 745\H,0,-2.9974252764,-2.1260772843,-0.2149519392\H,0,-1.3594130292,-0
 .3959578658,2.7046265054\H,0,-2.9749551746,-1.237866333,4.4036442348\H
 ,0,-4.0267280968,0.1439127614,4.0487495483\H,0,-2.6164983962,0.7110115
 557,5.7381280464\H,0,-5.11539058,-2.5309284228,0.2814575798\H,0,-5.157
 4278015,-2.922067314,2.0010928747\H,0,-2.9851321242,-2.172536982,2.269
 0850361\C,0,-2.5239747176,1.2868280338,2.0551924379\H,0,-2.0176125799,
 1.3818679633,1.0898054722\H,0,-3.5697536463,1.5875506618,1.9226513743\
 H,0,-2.0631572994,1.994606594,2.748442087\H,0,-4.7154471396,-0.2219073
 757,0.9733120052\\Version=EM64L-G09RevD.01\State=1-A\HF=-836.4608839\R
 MSD=6.788e-09\Dipole=-1.0605058,-0.2540686,-0.2073411\Quadrupole=3.399
 6468,-4.3057344,0.9060876,-4.9747419,-2.6222548,-0.6161728\PG=C01 [X(C
 13H19F2N1O1)]\\@


 ALL MY ATTEMPTS TO ADAPT THE THEORETICAL FOUNDATIONS OF PHYSICS
 TO THESE NEW NOTIONS FAILED COMPLETELY. IT WAS AS IF THE GROUND HAD
 BEEN PULLED OUT FROM UNDER ONE WITH NO FIRM FOUNDATION TO BE SEEN ANYWHERE,
 UPON WHICH ONE COULD HAVE BUILT.  -- A.EINSTEIN
 Job cpu time:       0 days  0 hours 25 minutes 16.6 seconds.
 File lengths (MBytes):  RWF=    186 Int=      0 D2E=      0 Chk=     14 Scr=      1
 Normal termination of Gaussian 09 at Wed Mar  6 12:27:38 2019.
