 Entering Gaussian System, Link 0=/usr/local/shared/gaussian/em64t/09-D01/g09/g09
 Initial command:
 /usr/local/shared/gaussian/em64t/09-D01/g09/l1.exe "/scratch/ke291/AT3_2ginp008/Gau-14244.inp" -scrdir="/scratch/ke291/AT3_2ginp008/"
 Entering Link 1 = /usr/local/shared/gaussian/em64t/09-D01/g09/l1.exe PID=     14247.
  
 Copyright (c) 1988,1990,1992,1993,1995,1998,2003,2009,2013,
            Gaussian, Inc.  All Rights Reserved.
  
 This is part of the Gaussian(R) 09 program.  It is based on
 the Gaussian(R) 03 system (copyright 2003, Gaussian, Inc.),
 the Gaussian(R) 98 system (copyright 1998, Gaussian, Inc.),
 the Gaussian(R) 94 system (copyright 1995, Gaussian, Inc.),
 the Gaussian 92(TM) system (copyright 1992, Gaussian, Inc.),
 the Gaussian 90(TM) system (copyright 1990, Gaussian, Inc.),
 the Gaussian 88(TM) system (copyright 1988, Gaussian, Inc.),
 the Gaussian 86(TM) system (copyright 1986, Carnegie Mellon
 University), and the Gaussian 82(TM) system (copyright 1983,
 Carnegie Mellon University). Gaussian is a federally registered
 trademark of Gaussian, Inc.
  
 This software contains proprietary and confidential information,
 including trade secrets, belonging to Gaussian, Inc.
  
 This software is provided under written license and may be
 used, copied, transmitted, or stored only in accord with that
 written license.
  
 The following legend is applicable only to US Government
 contracts under FAR:
  
                    RESTRICTED RIGHTS LEGEND
  
 Use, reproduction and disclosure by the US Government is
 subject to restrictions as set forth in subparagraphs (a)
 and (c) of the Commercial Computer Software - Restricted
 Rights clause in FAR 52.227-19.
  
 Gaussian, Inc.
 340 Quinnipiac St., Bldg. 40, Wallingford CT 06492
  
  
 ---------------------------------------------------------------
 Warning -- This program may not be used in any manner that
 competes with the business of Gaussian, Inc. or will provide
 assistance to any competitor of Gaussian, Inc.  The licensee
 of this program is prohibited from giving any competitor of
 Gaussian, Inc. access to this program.  By using this program,
 the user acknowledges that Gaussian, Inc. is engaged in the
 business of creating and licensing software in the field of
 computational chemistry and represents and warrants to the
 licensee that it is not a competitor of Gaussian, Inc. and that
 it will not use this program in any manner prohibited above.
 ---------------------------------------------------------------
  

 Cite this work as:
 Gaussian 09, Revision D.01,
 M. J. Frisch, G. W. Trucks, H. B. Schlegel, G. E. Scuseria, 
 M. A. Robb, J. R. Cheeseman, G. Scalmani, V. Barone, B. Mennucci, 
 G. A. Petersson, H. Nakatsuji, M. Caricato, X. Li, H. P. Hratchian, 
 A. F. Izmaylov, J. Bloino, G. Zheng, J. L. Sonnenberg, M. Hada, 
 M. Ehara, K. Toyota, R. Fukuda, J. Hasegawa, M. Ishida, T. Nakajima, 
 Y. Honda, O. Kitao, H. Nakai, T. Vreven, J. A. Montgomery, Jr., 
 J. E. Peralta, F. Ogliaro, M. Bearpark, J. J. Heyd, E. Brothers, 
 K. N. Kudin, V. N. Staroverov, T. Keith, R. Kobayashi, J. Normand, 
 K. Raghavachari, A. Rendell, J. C. Burant, S. S. Iyengar, J. Tomasi, 
 M. Cossi, N. Rega, J. M. Millam, M. Klene, J. E. Knox, J. B. Cross, 
 V. Bakken, C. Adamo, J. Jaramillo, R. Gomperts, R. E. Stratmann, 
 O. Yazyev, A. J. Austin, R. Cammi, C. Pomelli, J. W. Ochterski, 
 R. L. Martin, K. Morokuma, V. G. Zakrzewski, G. A. Voth, 
 P. Salvador, J. J. Dannenberg, S. Dapprich, A. D. Daniels, 
 O. Farkas, J. B. Foresman, J. V. Ortiz, J. Cioslowski, 
 and D. J. Fox, Gaussian, Inc., Wallingford CT, 2013.
 
 ******************************************
 Gaussian 09:  EM64L-G09RevD.01 24-Apr-2013
                 6-Mar-2019 
 ******************************************
 %nprocshared=2
 Will use up to    2 processors via shared memory.
 %mem=6000MB
 %chk=AT3_2ginp008.chk
 ----------------------------------------------------------------------
 # mPW1PW91/6-311g(d) geom=checkpoint nmr=giao scrf=(solvent=chloroform
 )
 ----------------------------------------------------------------------
 1/29=2,38=1/1;
 2/12=2,40=1/2;
 3/5=4,6=6,7=1,11=2,14=-4,16=1,25=1,30=1,70=2201,72=7,74=-7/1,2,8,3;
 4//1;
 5/5=2,38=5,53=7/2;
 8/6=1,10=90,11=11/1;
 10/13=100,45=16/2;
 6/7=2,8=2,9=2,10=2,28=1/1;
 99/9=1/99;
 ------------
 AT3_2ginp008
 ------------
 Structure from the checkpoint file:  "AT3_2ginp008.chk"
 Charge =  0 Multiplicity = 1
 Redundant internal coordinates found in file.
 C,0,-2.4925034427,-0.0400689078,-0.8191322603
 C,0,-2.381990126,0.1766703414,0.6959155637
 C,0,-3.0624241812,-0.9239423754,1.5325907727
 C,0,-2.6051393818,-0.959039486,3.0161002198
 C,0,-2.7865726359,0.3902902359,3.713037424
 O,0,-2.6247356542,0.1874751626,5.1199563926
 N,0,-4.5261820489,-0.7532227718,1.4571018389
 C,0,-5.2778950995,-2.0092530521,1.5771089742
 C,0,-9.5375662999,-1.3392367911,1.0824540579
 C,0,-8.6743987942,-1.1731931918,-0.0026601344
 C,0,-7.3198791737,-1.3970403476,0.1988620472
 C,0,-6.7631027767,-1.7788239802,1.4210960883
 C,0,-7.6740076064,-1.9235828115,2.4687817159
 C,0,-9.042508283,-1.7170827567,2.3303806367
 H,0,-10.6016440414,-1.1714905724,0.9537770296
 H,0,-9.0310560162,-0.8777968759,-0.9825072176
 H,0,-9.6915359041,-1.8519207109,3.1878735221
 F,0,-6.4697257809,-1.2295760245,-0.8486021291
 F,0,-7.2021533411,-2.2944769567,3.6812472911
 H,0,-2.0160842914,0.7790893481,-1.3667441555
 H,0,-2.0008757191,-0.9725680506,-1.1174663826
 H,0,-3.5323989657,-0.0955241804,-1.1606228873
 H,0,-1.3219896224,0.2311297423,0.9647216084
 H,0,-2.8203004432,1.1463865403,0.9647513578
 H,0,-3.2773817419,-1.6544516736,3.5372069681
 H,0,-3.7868063202,0.78043386,3.4826537314
 H,0,-2.0445324876,1.1144217025,3.3414142127
 H,0,-2.724750857,1.0461571782,5.5507605688
 H,0,-4.9554121937,-2.7605256371,0.8339007759
 H,0,-5.0953099574,-2.4416150385,2.5627778203
 H,0,-2.7682218889,-1.8965961238,1.0924133113
 C,0,-1.1775088284,-1.498210498,3.1791850282
 H,0,-0.4390418313,-0.8520722836,2.6910041983
 H,0,-0.9151103266,-1.5553193755,4.2383275888
 H,0,-1.0812111546,-2.5005874384,2.7479882045
 H,0,-4.7618477826,-0.3451231992,0.5570142178
 Recover connectivity data from disk.
                          Input orientation:                          
 ---------------------------------------------------------------------
 Center     Atomic      Atomic             Coordinates (Angstroms)
 Number     Number       Type             X           Y           Z
 ---------------------------------------------------------------------
      1          6           0       -2.492503   -0.040069   -0.819132
      2          6           0       -2.381990    0.176670    0.695916
      3          6           0       -3.062424   -0.923942    1.532591
      4          6           0       -2.605139   -0.959039    3.016100
      5          6           0       -2.786573    0.390290    3.713037
      6          8           0       -2.624736    0.187475    5.119956
      7          7           0       -4.526182   -0.753223    1.457102
      8          6           0       -5.277895   -2.009253    1.577109
      9          6           0       -9.537566   -1.339237    1.082454
     10          6           0       -8.674399   -1.173193   -0.002660
     11          6           0       -7.319879   -1.397040    0.198862
     12          6           0       -6.763103   -1.778824    1.421096
     13          6           0       -7.674008   -1.923583    2.468782
     14          6           0       -9.042508   -1.717083    2.330381
     15          1           0      -10.601644   -1.171491    0.953777
     16          1           0       -9.031056   -0.877797   -0.982507
     17          1           0       -9.691536   -1.851921    3.187874
     18          9           0       -6.469726   -1.229576   -0.848602
     19          9           0       -7.202153   -2.294477    3.681247
     20          1           0       -2.016084    0.779089   -1.366744
     21          1           0       -2.000876   -0.972568   -1.117466
     22          1           0       -3.532399   -0.095524   -1.160623
     23          1           0       -1.321990    0.231130    0.964722
     24          1           0       -2.820300    1.146387    0.964751
     25          1           0       -3.277382   -1.654452    3.537207
     26          1           0       -3.786806    0.780434    3.482654
     27          1           0       -2.044532    1.114422    3.341414
     28          1           0       -2.724751    1.046157    5.550761
     29          1           0       -4.955412   -2.760526    0.833901
     30          1           0       -5.095310   -2.441615    2.562778
     31          1           0       -2.768222   -1.896596    1.092413
     32          6           0       -1.177509   -1.498210    3.179185
     33          1           0       -0.439042   -0.852072    2.691004
     34          1           0       -0.915110   -1.555319    4.238328
     35          1           0       -1.081211   -2.500587    2.747988
     36          1           0       -4.761848   -0.345123    0.557014
 ---------------------------------------------------------------------
                    Distance matrix (angstroms):
                    1          2          3          4          5
     1  C    0.000000
     2  C    1.534457   0.000000
     3  C    2.576168   1.540897   0.000000
     4  C    3.945403   2.592853   1.552785   0.000000
     5  C    4.562044   3.051613   2.560791   1.529487   0.000000
     6  O    5.944917   4.430709   3.781007   2.396057   1.430645
     7  N    3.134594   2.457980   1.475612   2.482588   3.069708
     8  C    4.168701   3.733769   2.467426   3.212050   4.065303
     9  C    7.411935   7.324593   6.504042   7.207085   7.448970
    10  C    6.337699   6.473372   5.823520   6.781938   7.135642
    11  C    5.116761   5.206378   4.486488   5.509759   6.007899
    12  C    5.126394   4.852215   3.799773   4.528216   5.076499
    13  C    6.419189   5.963184   4.810659   5.188769   5.548802
    14  C    7.458845   7.114793   6.084977   6.518018   6.744590
    15  H    8.377439   8.333471   7.565457   8.260896   8.433743
    16  H    6.594024   6.938233   6.477068   7.568875   7.915160
    17  H    8.435933   7.984641   6.895377   7.144491   7.278862
    18  F    4.151397   4.590495   4.168117   5.472124   6.082610
    19  F    6.893227   6.184881   4.861322   4.833048   5.167818
    20  H    1.094474   2.179762   3.521546   4.751568   5.152572
    21  H    1.095562   2.180447   2.855180   4.177522   5.080204
    22  H    1.095935   2.200969   2.856668   4.364686   4.954275
    23  H    2.150764   1.094908   2.164666   2.696503   3.118265
    24  H    2.167341   1.097606   2.160400   2.947396   2.850596
    25  H    4.711683   3.496809   2.144373   1.098663   2.110161
    26  H    4.566597   3.178671   2.689307   2.154014   1.098069
    27  H    4.340930   2.826998   2.909102   2.172407   1.101405
    28  H    6.466016   4.943987   4.487873   3.234134   1.952232
    29  H    4.024838   3.907513   2.728481   3.678468   4.787581
    30  H    4.896871   4.207457   2.738109   2.933340   3.830542
    31  H    2.678940   2.145884   1.107414   2.146201   3.478197
    32  C    4.454428   3.228410   2.567871   1.534741   2.537818
    33  H    4.146940   2.968794   2.868662   2.192968   2.845860
    34  H    5.510177   4.207161   3.511496   2.169237   2.750218
    35  H    4.557439   3.615347   2.808595   2.184173   3.492385
    36  H    2.671472   2.440345   2.043238   3.327971   3.795132
                    6          7          8          9         10
     6  O    0.000000
     7  N    4.232838   0.000000
     8  C    4.941319   1.468702   0.000000
     9  C    8.149816   5.059421   4.340323   0.000000
    10  C    8.043074   4.417577   3.838086   1.396460   0.000000
    11  C    6.983712   3.130880   2.538517   2.387931   1.387603
    12  C    5.888462   2.461091   1.511052   2.829410   2.459049
    13  C    6.081155   3.507427   2.558080   2.395040   2.769818
    14  C    7.252371   4.699877   3.850337   1.394694   2.423716
    15  H    9.101368   6.110607   5.425190   1.084877   2.151523
    16  H    8.911555   5.124559   4.681671   2.175671   1.083773
    17  H    7.604719   5.557300   4.701015   2.172405   3.416832
    18  F    7.239867   3.052957   2.812904   3.626658   2.362071
    19  F    5.402104   3.805668   2.865575   3.622204   4.122615
    20  H    6.541999   4.077092   5.203896   8.188930   7.071441
    21  H    6.374978   3.612989   4.367414   7.859758   6.768970
    22  H    6.352135   2.876222   3.768858   6.529950   5.379815
    23  H    4.354886   3.387955   4.587322   8.365143   7.547574
    24  H    4.268897   2.600184   4.046333   7.163368   6.370777
    25  H    2.514704   2.588156   2.823105   6.731648   6.472253
    26  H    2.093506   2.646061   3.692804   6.582188   6.312894
    27  H    2.087840   3.632811   4.829570   8.201762   7.769887
    28  H    0.965883   4.820888   5.625299   8.489424   8.435894
    29  H    5.700266   2.145200   1.104882   4.803954   4.129203
    30  H    4.422105   2.096925   1.091704   4.810430   4.582602
    31  H    4.537074   2.128550   2.558531   6.792258   6.050242
    32  C    2.950016   3.838514   4.431814   8.620447   8.150652
    33  H    3.428954   4.270480   5.098464   9.252454   8.670643
    34  H    2.595654   4.628003   5.130500   9.184388   8.850907
    35  H    3.903125   4.072775   4.384578   8.696705   8.184408
    36  H    5.066690   1.015993   2.018967   4.906306   4.038192
                   11         12         13         14         15
    11  C    0.000000
    12  C    1.396286   0.000000
    13  C    2.356945   1.395832   0.000000
    14  C    2.759212   2.454852   1.390896   0.000000
    15  H    3.375019   3.914287   3.381115   2.150259   0.000000
    16  H    2.143216   3.425313   3.853134   3.417566   2.510418
    17  H    3.842637   3.420901   2.143047   1.083841   2.506485
    18  F    1.359407   2.353566   3.596801   4.118592   4.508292
    19  F    3.598091   2.359438   1.352879   2.354810   4.500748
    20  H    5.942803   6.070351   7.350360   8.322875   9.105022
    21  H    5.495880   5.456478   6.778645   7.875693   8.848889
    22  H    4.229320   4.464999   5.802353   6.721448   7.456716
    23  H    6.261961   5.818411   6.874090   8.078797   9.385065
    24  H    5.225114   4.930598   5.936775   6.984287   8.119235
    25  H    5.249056   4.079662   4.532580   5.890419   7.781528
    26  H    5.292191   4.433752   4.842518   5.931924   7.526436
    27  H    6.634181   5.858617   6.456156   7.616513   9.173351
    28  H    7.465068   6.429847   6.543171   7.610545   9.385929
    29  H    2.802333   2.139225   3.280864   4.475777   5.866800
    30  H    3.409977   2.127031   2.631896   4.019867   5.875527
    31  H    4.665359   4.010109   5.095277   6.397770   7.868132
    32  C    6.827977   5.862464   6.549054   7.913696   9.688834
    33  H    7.338507   6.516539   7.317257   8.654359  10.314963
    34  H    7.573863   6.495057   6.996399   8.349912  10.235455
    35  H    6.829117   5.879241   6.623885   8.010651   9.778770
    36  H    2.788965   2.609053   3.824535   4.832303   5.911305
                   16         17         18         19         20
    16  H    0.000000
    17  H    4.333270   0.000000
    18  F    2.588840   5.201972   0.000000
    19  F    5.206004   2.576102   4.710626   0.000000
    20  H    7.218223   9.304801   4.913057   7.862846   0.000000
    21  H    7.032114   8.857509   4.484302   7.199193   1.769371
    22  H    5.556879   7.741403   3.164067   6.461130   1.762568
    23  H    8.028146   8.906784   5.649867   6.952304   2.493544
    24  H    6.816349   7.819590   4.717177   6.198349   2.493500
    25  H    7.357702   6.426694   5.441222   3.979223   5.617983
    26  H    7.084458   6.471632   5.477041   4.599903   5.162569
    27  H    8.454392   8.203623   6.529387   6.191698   4.720171
    28  H    9.281954   7.906844   7.756007   5.890845   6.958836
    29  H    4.843024   5.366341   2.732722   3.656833   5.100133
    30  H    5.523103   4.675872   3.872411   2.389856   5.941019
    31  H    6.675802   7.233618   4.232445   5.149769   3.711126
    32  C    8.909703   8.521376   6.656034   6.097741   5.153133
    33  H    9.344413   9.319615   7.002890   6.985756   4.648986
    34  H    9.673920   8.844042   7.539013   6.354809   6.170773
    35  H    8.930290   8.645922   6.602047   6.195110   5.344276
    36  H    4.569465   5.787373   2.382197   4.417681   3.536088
                   21         22         23         24         25
    21  H    0.000000
    22  H    1.765399   0.000000
    23  H    2.499056   3.083780   0.000000
    24  H    3.081729   2.562546   1.755742   0.000000
    25  H    4.874466   4.956298   3.741211   3.830293   0.000000
    26  H    5.236761   4.732023   3.566096   2.721743   2.488204
    27  H    4.923317   4.893471   2.636464   2.500273   3.037254
    28  H    7.004605   6.855538   4.864541   4.588099   3.413662
    29  H    3.966600   3.620128   4.708384   4.454188   3.368538
    30  H    5.027705   4.670176   4.892371   4.539065   2.207714
    31  H    2.515197   2.983957   2.575871   3.046105   2.508963
    32  C    4.406296   5.132930   2.813422   3.820520   2.135897
    33  H    4.118045   4.997625   2.221030   3.555865   3.068558
    34  H    5.495727   6.174939   3.751459   4.652447   2.466115
    35  H    4.257037   5.202873   3.271130   4.416422   2.482333
    36  H    3.289459   2.126998   3.511541   2.482027   3.577643
                   26         27         28         29         30
    26  H    0.000000
    27  H    1.779611   0.000000
    28  H    2.340008   2.312697   0.000000
    29  H    4.573831   5.456745   6.458750   0.000000
    30  H    3.597215   4.749623   5.168379   1.763602   0.000000
    31  H    3.730583   3.827265   5.342148   2.365799   2.806128
    32  C    3.477463   2.757516   3.806854   4.622375   4.076657
    33  H    3.807796   2.620636   4.123827   5.242960   4.921780
    34  H    3.778019   3.034397   3.430009   5.419104   4.589886
    35  H    4.315678   3.787933   4.810006   4.329057   4.018802
    36  H    3.282827   4.155353   5.569823   2.438914   2.920542
                   31         32         33         34         35
    31  H    0.000000
    32  C    2.653996   0.000000
    33  H    3.011910   1.095969   0.000000
    34  H    3.667052   1.092656   1.765052   0.000000
    35  H    2.439619   1.095428   1.770093   1.772634   0.000000
    36  H    2.582298   4.588341   4.847428   5.460223   4.795152
                   36
    36  H    0.000000
 Stoichiometry    C13H19F2NO
 Framework group  C1[X(C13H19F2NO)]
 Deg. of freedom   102
 Full point group                 C1      NOp   1
 Largest Abelian subgroup         C1      NOp   1
 Largest concise Abelian subgroup C1      NOp   1
                         Standard orientation:                         
 ---------------------------------------------------------------------
 Center     Atomic      Atomic             Coordinates (Angstroms)
 Number     Number       Type             X           Y           Z
 ---------------------------------------------------------------------
      1          6           0       -2.052027    3.195727   -0.207210
      2          6           0       -2.553547    1.779551   -0.519431
      3          6           0       -1.894874    0.683262    0.340024
      4          6           0       -2.672649   -0.660661    0.348941
      5          6           0       -2.915637   -1.201740   -1.060853
      6          8           0       -3.362227   -2.555925   -0.944715
      7          7           0       -0.512839    0.466164   -0.129315
      8          6           0        0.411094    0.028955    0.925332
      9          6           0        4.465061   -0.314317   -0.586594
     10          6           0        3.865270    0.941985   -0.476791
     11          6           0        2.567801    1.006921    0.010857
     12          6           0        1.821313   -0.107080    0.399922
     13          6           0        2.471441   -1.334583    0.262377
     14          6           0        3.770679   -1.465858   -0.216516
     15          1           0        5.478883   -0.395069   -0.964222
     16          1           0        4.380149    1.852822   -0.759350
     17          1           0        4.213782   -2.452042   -0.292767
     18          9           0        1.971323    2.224163    0.113434
     19          9           0        1.806214   -2.455834    0.623696
     20          1           0       -2.531259    3.932523   -0.859392
     21          1           0       -2.276475    3.470186    0.829396
     22          1           0       -0.969563    3.297701   -0.344853
     23          1           0       -3.637946    1.752137   -0.370598
     24          1           0       -2.380001    1.549792   -1.578596
     25          1           0       -2.023559   -1.397699    0.841402
     26          1           0       -1.980466   -1.141912   -1.633244
     27          1           0       -3.671761   -0.590937   -1.578821
     28          1           0       -3.528609   -2.884651   -1.837568
     29          1           0        0.418480    0.721446    1.786242
     30          1           0        0.086525   -0.942157    1.304034
     31          1           0       -1.890198    1.047883    1.385680
     32          6           0       -3.971830   -0.583255    1.162310
     33          1           0       -4.682596    0.129704    0.729126
     34          1           0       -4.459997   -1.560502    1.186354
     35          1           0       -3.774919   -0.273327    2.194363
     36          1           0       -0.153180    1.339961   -0.502632
 ---------------------------------------------------------------------
 Rotational constants (GHZ):      0.6645399      0.2589840      0.2024668
 Standard basis: 6-311G(d) (5D, 7F)
 There are   380 symmetry adapted cartesian basis functions of A   symmetry.
 There are   363 symmetry adapted basis functions of A   symmetry.
   363 basis functions,   639 primitive gaussians,   380 cartesian basis functions
    65 alpha electrons       65 beta electrons
       nuclear repulsion energy      1254.9191640591 Hartrees.
 NAtoms=   36 NActive=   36 NUniq=   36 SFac= 1.00D+00 NAtFMM=   60 NAOKFM=F Big=F
 Integral buffers will be    131072 words long.
 Raffenetti 2 integral format.
 Two-electron integral symmetry is turned on.
 ------------------------------------------------------------------------------
 Polarizable Continuum Model (PCM)
 =================================
 Model                : PCM (using non-symmetric T matrix).
 Atomic radii         : UFF (Universal Force Field).
 Polarization charges : Total charges.
 Charge compensation  : None.
 Solution method      : On-the-fly selection.
 Cavity type          : Scaled VdW (van der Waals Surface) (Alpha=1.100).
 Cavity algorithm     : GePol (No added spheres)
                        Default sphere list used, NSphG=   36.
                        Lebedev-Laikov grids with approx.  5.0 points / Ang**2.
                        Smoothing algorithm: Karplus/York (Gamma=1.0000).
                        Polarization charges: spherical gaussians, with
                                              point-specific exponents (IZeta= 3).
                        Self-potential: point-specific (ISelfS= 7).
                        Self-field    : sphere-specific E.n sum rule (ISelfD= 2).
 Solvent              : Chloroform, Eps=   4.711300 Eps(inf)=   2.090627
 ------------------------------------------------------------------------------
 One-electron integrals computed using PRISM.
 NBasis=   363 RedAO= T EigKep=  2.29D-04  NBF=   363
 NBsUse=   363 1.00D-06 EigRej= -1.00D+00 NBFU=   363
 ExpMin= 1.03D-01 ExpMax= 1.14D+04 ExpMxC= 1.72D+03 IAcc=1 IRadAn=         1 AccDes= 0.00D+00
 Harris functional with IExCor=  908 and IRadAn=       1 diagonalized for initial guess.
 HarFok:  IExCor=  908 AccDes= 0.00D+00 IRadAn=         1 IDoV= 1 UseB2=F ITyADJ=14
 ICtDFT=  3500011 ScaDFX=  1.000000  1.000000  1.000000  1.000000
 FoFCou: FMM=F IPFlag=           0 FMFlag=      100000 FMFlg1=           0
         NFxFlg=           0 DoJE=T BraDBF=F KetDBF=T FulRan=T
         wScrn=  0.000000 ICntrl=     500 IOpCl=  0 I1Cent=   200000004 NGrid=           0
         NMat0=    1 NMatS0=      1 NMatT0=    0 NMatD0=    1 NMtDS0=    0 NMtDT0=    0
 Petite list used in FoFCou.
 Requested convergence on RMS density matrix=1.00D-08 within 128 cycles.
 Requested convergence on MAX density matrix=1.00D-06.
 Requested convergence on             energy=1.00D-06.
 No special actions if energy rises.
 Inv3:  Mode=1 IEnd=    19845552.
 Iteration    1 A*A^-1 deviation from unit magnitude is 8.22D-15 for   1318.
 Iteration    1 A*A^-1 deviation from orthogonality  is 5.77D-15 for   2135    834.
 Iteration    1 A^-1*A deviation from unit magnitude is 7.99D-15 for   1318.
 Iteration    1 A^-1*A deviation from orthogonality  is 8.10D-08 for   2344   2143.
 Iteration    2 A*A^-1 deviation from unit magnitude is 9.55D-15 for    123.
 Iteration    2 A*A^-1 deviation from orthogonality  is 7.99D-15 for   1963    589.
 Iteration    2 A^-1*A deviation from unit magnitude is 1.44D-15 for    272.
 Iteration    2 A^-1*A deviation from orthogonality  is 9.44D-16 for   2384    226.
 Error on total polarization charges =  0.00957
 SCF Done:  E(RmPW1PW91) =  -836.460548492     A.U. after   12 cycles
            NFock= 12  Conv=0.68D-08     -V/T= 2.0038
 DoSCS=F DFT=T ScalE2(SS,OS)=  1.000000  1.000000
 Range of M.O.s used for correlation:     1   363
 NBasis=   363 NAE=    65 NBE=    65 NFC=     0 NFV=     0
 NROrb=    363 NOA=    65 NOB=    65 NVA=   298 NVB=   298

 **** Warning!!: The largest alpha MO coefficient is  0.13583860D+02

 NEqPCM:  Using equilibrium solvation (IEInf=0, Eps=   4.7113, EpsInf=   2.0906)
          Differentiating once with respect to magnetic field using GIAOs.
          Electric field/nuclear overlap derivatives assumed to be zero.
 FoFJK:  IHMeth= 1 ICntrl=    6127 DoSepK=F KAlg= 0 I1Cent=   0 FoldK=F
 IRaf=         1 NMat=   1 IRICut=       1 DoRegI=T DoRafI=F ISym2E= 0.
          There are     3 degrees of freedom in the 1st order CPHF.  IDoFFX=0 NUNeed=     3.
      3 vectors produced by pass  0 Test12= 6.46D-13 3.33D-08 XBig12= 5.38D+01 2.49D+00.
 AX will form     3 AO Fock derivatives at one time.
      3 vectors produced by pass  1 Test12= 6.46D-13 3.33D-08 XBig12= 1.77D-01 2.43D-01.
      3 vectors produced by pass  2 Test12= 6.46D-13 3.33D-08 XBig12= 8.45D-04 9.63D-03.
      3 vectors produced by pass  3 Test12= 6.46D-13 3.33D-08 XBig12= 1.72D-06 2.71D-04.
      3 vectors produced by pass  4 Test12= 6.46D-13 3.33D-08 XBig12= 3.16D-09 1.38D-05.
      3 vectors produced by pass  5 Test12= 6.46D-13 3.33D-08 XBig12= 1.35D-11 6.67D-07.
 InvSVY:  IOpt=1 It=  1 EMax= 1.78D-15
 Solved reduced A of dimension    18 with     3 vectors.
 Calculating GIAO nuclear magnetic shielding tensors.
 SCF GIAO Magnetic shielding tensor (ppm):
      1  C    Isotropic =   174.5237   Anisotropy =    24.3954
   XX=   161.7212   YX=     8.4290   ZX=     3.3843
   XY=     2.7981   YY=   188.3521   ZY=     2.7780
   XZ=     5.3572   YZ=     5.0146   ZZ=   173.4979
   Eigenvalues:   159.6459   173.1379   190.7873
      2  C    Isotropic =   163.4178   Anisotropy =    15.9886
   XX=   162.5319   YX=     0.8190   ZX=     5.8510
   XY=    -8.9393   YY=   166.4870   ZY=    -6.0995
   XZ=     7.9770   YZ=    -3.6825   ZZ=   161.2346
   Eigenvalues:   154.8503   161.3262   174.0768
      3  C    Isotropic =   120.0537   Anisotropy =    22.5217
   XX=   132.6635   YX=    -7.9036   ZX=    -5.4142
   XY=     8.6088   YY=   115.2323   ZY=     6.7103
   XZ=    -8.5334   YZ=     9.6161   ZZ=   112.2652
   Eigenvalues:   104.3137   120.7793   135.0681
      4  C    Isotropic =   148.3894   Anisotropy =    22.0503
   XX=   140.0604   YX=     3.5637   ZX=    -6.5867
   XY=     7.7840   YY=   158.5166   ZY=     4.1164
   XZ=     1.5805   YZ=    11.4726   ZZ=   146.5912
   Eigenvalues:   136.0671   146.0115   163.0896
      5  C    Isotropic =   121.5648   Anisotropy =    55.8520
   XX=   103.5471   YX=    17.5050   ZX=    -0.5708
   XY=    14.6301   YY=   154.1264   ZY=     5.0041
   XZ=    -0.1332   YZ=    -4.4536   ZZ=   107.0210
   Eigenvalues:    98.8535   107.0415   158.7995
      6  O    Isotropic =   311.5617   Anisotropy =   100.0868
   XX=   275.0387   YX=    -1.2662   ZX=    21.2399
   XY=     1.8954   YY=   302.1766   ZY=    17.8102
   XZ=    29.0856   YZ=    48.8969   ZZ=   357.4697
   Eigenvalues:   265.1083   291.2905   378.2862
      7  N    Isotropic =   205.8475   Anisotropy =    57.7553
   XX=   234.2025   YX=     0.5880   ZX=   -21.8744
   XY=   -20.1244   YY=   174.4464   ZY=   -26.6264
   XZ=   -14.8507   YZ=   -31.9670   ZZ=   208.8936
   Eigenvalues:   153.7527   219.4387   244.3510
      8  C    Isotropic =   145.0217   Anisotropy =    50.5966
   XX=   153.1985   YX=   -15.0077   ZX=    15.9337
   XY=   -17.9647   YY=   121.1918   ZY=    -0.5140
   XZ=    21.4724   YZ=    -4.0569   ZZ=   160.6748
   Eigenvalues:   113.5495   142.7628   178.7528
      9  C    Isotropic =    54.2387   Anisotropy =   187.8506
   XX=   -21.3494   YX=    10.5876   ZX=    75.5868
   XY=    10.0783   YY=    33.8327   ZY=     9.4486
   XZ=    74.6327   YZ=     8.6324   ZZ=   150.2327
   Eigenvalues:   -50.0888    33.3324   179.4724
     10  C    Isotropic =    72.6588   Anisotropy =   145.7239
   XX=    59.9331   YX=   -20.1316   ZX=    43.9860
   XY=   -27.2342   YY=     7.9956   ZY=    25.5142
   XZ=    45.7125   YZ=    24.0064   ZZ=   150.0476
   Eigenvalues:   -11.5959    59.7642   169.8080
     11  C    Isotropic =    16.7990   Anisotropy =    94.8934
   XX=    24.7981   YX=    42.9673   ZX=    18.0169
   XY=    37.1125   YY=   -47.1295   ZY=    -1.9129
   XZ=    18.2616   YZ=    -1.1003   ZZ=    72.7283
   Eigenvalues:   -65.5507    35.8864    80.0612
     12  C    Isotropic =    65.9074   Anisotropy =   137.5863
   XX=    34.2574   YX=     3.6143   ZX=    49.1033
   XY=     3.4468   YY=    25.5688   ZY=     8.7345
   XZ=    47.4485   YZ=     9.6269   ZZ=   137.8961
   Eigenvalues:    15.2538    24.8369   157.6317
     13  C    Isotropic =    19.5649   Anisotropy =    96.7376
   XX=    18.7899   YX=   -41.6744   ZX=    29.5911
   XY=   -32.8032   YY=   -31.7126   ZY=    23.2564
   XZ=    25.9444   YZ=    23.8070   ZZ=    71.6175
   Eigenvalues:   -60.2399    34.8780    84.0567
     14  C    Isotropic =    71.9551   Anisotropy =   146.8407
   XX=    61.7364   YX=    24.8717   ZX=    39.1016
   XY=    32.3266   YY=    -0.5431   ZY=     3.4060
   XZ=    38.0524   YZ=     6.5071   ZZ=   154.6720
   Eigenvalues:   -12.2695    58.2859   169.8489
     15  H    Isotropic =    24.6291   Anisotropy =     3.1141
   XX=    25.5955   YX=    -0.2239   ZX=    -1.5897
   XY=    -0.1732   YY=    26.6531   ZY=    -0.4742
   XZ=    -1.6230   YZ=    -0.5261   ZZ=    21.6386
   Eigenvalues:    21.0173    26.1648    26.7051
     16  H    Isotropic =    25.1209   Anisotropy =     5.1833
   XX=    27.8345   YX=    -0.4061   ZX=    -2.1711
   XY=    -0.5791   YY=    25.5211   ZY=    -0.1415
   XZ=    -2.0490   YZ=    -0.1703   ZZ=    22.0070
   Eigenvalues:    21.3018    25.4845    28.5764
     17  H    Isotropic =    25.0967   Anisotropy =     4.8919
   XX=    27.6222   YX=    -0.3587   ZX=    -2.1745
   XY=    -0.0692   YY=    25.5939   ZY=    -0.4570
   XZ=    -2.1199   YZ=    -0.3548   ZZ=    22.0738
   Eigenvalues:    21.2922    25.6398    28.3579
     18  F    Isotropic =   299.5336   Anisotropy =   116.4223
   XX=   248.1834   YX=   -11.6882   ZX=    46.7857
   XY=   -27.7798   YY=   295.0818   ZY=    22.0822
   XZ=    41.4813   YZ=    37.4845   ZZ=   355.3357
   Eigenvalues:   220.8331   300.6193   377.1485
     19  F    Isotropic =   294.3884   Anisotropy =   118.1237
   XX=   252.5924   YX=    42.1344   ZX=    42.9093
   XY=    39.1026   YY=   274.2537   ZY=    -7.1197
   XZ=    43.7726   YZ=    -1.5687   ZZ=   356.3192
   Eigenvalues:   211.5401   298.4876   373.1376
     20  H    Isotropic =    31.0061   Anisotropy =    11.3673
   XX=    28.1141   YX=    -1.7551   ZX=     1.9128
   XY=    -2.5646   YY=    36.0532   ZY=    -4.0482
   XZ=     2.5368   YZ=    -3.8235   ZZ=    28.8511
   Eigenvalues:    26.0885    28.3456    38.5844
     21  H    Isotropic =    31.2903   Anisotropy =     8.9978
   XX=    27.8558   YX=    -0.6498   ZX=    -1.1401
   XY=    -0.6675   YY=    32.9225   ZY=     4.5705
   XZ=    -1.7890   YZ=     3.5067   ZZ=    33.0927
   Eigenvalues:    27.4213    29.1608    37.2889
     22  H    Isotropic =    31.0627   Anisotropy =     7.6472
   XX=    35.2666   YX=     1.0490   ZX=    -1.1854
   XY=     2.1939   YY=    32.7337   ZY=    -0.4706
   XZ=    -0.2799   YZ=    -1.3681   ZZ=    25.1879
   Eigenvalues:    25.0485    31.9788    36.1608
     23  H    Isotropic =    30.6034   Anisotropy =     6.9554
   XX=    35.2085   YX=     0.4309   ZX=     0.1006
   XY=     0.1141   YY=    32.3378   ZY=    -1.4652
   XZ=     0.7224   YZ=    -1.9862   ZZ=    24.2639
   Eigenvalues:    23.8920    32.6779    35.2403
     24  H    Isotropic =    31.2313   Anisotropy =     5.8046
   XX=    27.0597   YX=     0.4563   ZX=     1.9404
   XY=     0.5866   YY=    31.9995   ZY=     0.1958
   XZ=     1.8423   YZ=     0.0727   ZZ=    34.6347
   Eigenvalues:    26.5718    32.0211    35.1011
     25  H    Isotropic =    29.9197   Anisotropy =     5.9989
   XX=    33.2166   YX=    -0.2933   ZX=     1.2477
   XY=    -1.1060   YY=    30.4945   ZY=    -2.1623
   XZ=     1.7322   YZ=    -2.0374   ZZ=    26.0479
   Eigenvalues:    25.0532    30.7869    33.9189
     26  H    Isotropic =    27.9672   Anisotropy =     5.9969
   XX=    28.1050   YX=     2.7483   ZX=    -2.1508
   XY=     4.1888   YY=    28.6726   ZY=     2.0170
   XZ=    -1.2020   YZ=     2.6964   ZZ=    27.1239
   Eigenvalues:    22.9646    28.9718    31.9651
     27  H    Isotropic =    28.7914   Anisotropy =     5.3066
   XX=    26.1959   YX=     2.1784   ZX=     3.0771
   XY=     0.1233   YY=    32.1118   ZY=    -1.0158
   XZ=     3.6359   YZ=    -0.3573   ZZ=    28.0663
   Eigenvalues:    23.4421    30.6028    32.3291
     28  H    Isotropic =    31.6668   Anisotropy =    20.2567
   XX=    23.7548   YX=     3.9536   ZX=     3.8783
   XY=     3.9167   YY=    32.1559   ZY=     7.9383
   XZ=     3.6552   YZ=     7.0009   ZZ=    39.0896
   Eigenvalues:    22.1470    27.6820    45.1712
     29  H    Isotropic =    28.4326   Anisotropy =     5.9369
   XX=    28.0911   YX=     0.1455   ZX=     2.5881
   XY=     0.1328   YY=    26.2152   ZY=     1.3752
   XZ=    -0.4241   YZ=     3.8281   ZZ=    30.9916
   Eigenvalues:    25.0391    27.8683    32.3905
     30  H    Isotropic =    28.1100   Anisotropy =     7.4250
   XX=    30.3463   YX=    -2.1576   ZX=     0.7822
   XY=    -1.6922   YY=    30.0045   ZY=    -3.1230
   XZ=    -0.5351   YZ=    -4.5345   ZZ=    23.9791
   Eigenvalues:    22.0530    29.2169    33.0600
     31  H    Isotropic =    29.4955   Anisotropy =     2.6365
   XX=    29.8049   YX=     0.7849   ZX=    -2.2234
   XY=     0.6957   YY=    28.8738   ZY=     1.6353
   XZ=    -0.4685   YZ=     0.9881   ZZ=    29.8078
   Eigenvalues:    27.1838    30.0496    31.2531
     32  C    Isotropic =   172.7478   Anisotropy =    26.7817
   XX=   182.9206   YX=    -1.6816   ZX=   -10.7435
   XY=    -3.5877   YY=   157.2826   ZY=     1.6945
   XZ=    -8.1058   YZ=     3.2213   ZZ=   178.0402
   Eigenvalues:   156.8884   170.7527   190.6023
     33  H    Isotropic =    31.4021   Anisotropy =     7.9648
   XX=    35.4387   YX=    -2.9161   ZX=    -0.1250
   XY=    -2.4752   YY=    30.9307   ZY=    -1.6453
   XZ=    -0.6196   YZ=    -1.5397   ZZ=    27.8369
   Eigenvalues:    26.9007    30.5936    36.7119
     34  H    Isotropic =    30.4754   Anisotropy =     9.4242
   XX=    31.0304   YX=     4.7211   ZX=    -3.1904
   XY=     3.9332   YY=    32.2770   ZY=    -0.5456
   XZ=    -3.4581   YZ=    -0.1361   ZZ=    28.1190
   Eigenvalues:    25.1343    29.5338    36.7582
     35  H    Isotropic =    31.3738   Anisotropy =     9.3714
   XX=    29.8422   YX=     0.3282   ZX=    -2.5960
   XY=     0.6791   YY=    27.3157   ZY=     1.0067
   XZ=    -1.5743   YZ=     1.2802   ZZ=    36.9635
   Eigenvalues:    26.9601    29.5399    37.6214
     36  H    Isotropic =    31.1238   Anisotropy =    11.5089
   XX=    37.1017   YX=     1.8390   ZX=    -0.6851
   XY=     2.4213   YY=    32.8026   ZY=    -5.5470
   XZ=     0.7522   YZ=    -8.7974   ZZ=    23.4671
   Eigenvalues:    19.5147    35.0603    38.7964
 End of Minotr F.D. properties file   721 does not exist.
 End of Minotr F.D. properties file   722 does not exist.
 End of Minotr F.D. properties file   788 does not exist.

 **********************************************************************

            Population analysis using the SCF density.

 **********************************************************************

 Orbital symmetries:
       Occupied  (A) (A) (A) (A) (A) (A) (A) (A) (A) (A) (A) (A)
                 (A) (A) (A) (A) (A) (A) (A) (A) (A) (A) (A) (A)
                 (A) (A) (A) (A) (A) (A) (A) (A) (A) (A) (A) (A)
                 (A) (A) (A) (A) (A) (A) (A) (A) (A) (A) (A) (A)
                 (A) (A) (A) (A) (A) (A) (A) (A) (A) (A) (A) (A)
                 (A) (A) (A) (A) (A)
       Virtual   (A) (A) (A) (A) (A) (A) (A) (A) (A) (A) (A) (A)
                 (A) (A) (A) (A) (A) (A) (A) (A) (A) (A) (A) (A)
                 (A) (A) (A) (A) (A) (A) (A) (A) (A) (A) (A) (A)
                 (A) (A) (A) (A) (A) (A) (A) (A) (A) (A) (A) (A)
                 (A) (A) (A) (A) (A) (A) (A) (A) (A) (A) (A) (A)
                 (A) (A) (A) (A) (A) (A) (A) (A) (A) (A) (A) (A)
                 (A) (A) (A) (A) (A) (A) (A) (A) (A) (A) (A) (A)
                 (A) (A) (A) (A) (A) (A) (A) (A) (A) (A) (A) (A)
                 (A) (A) (A) (A) (A) (A) (A) (A) (A) (A) (A) (A)
                 (A) (A) (A) (A) (A) (A) (A) (A) (A) (A) (A) (A)
                 (A) (A) (A) (A) (A) (A) (A) (A) (A) (A) (A) (A)
                 (A) (A) (A) (A) (A) (A) (A) (A) (A) (A) (A) (A)
                 (A) (A) (A) (A) (A) (A) (A) (A) (A) (A) (A) (A)
                 (A) (A) (A) (A) (A) (A) (A) (A) (A) (A) (A) (A)
                 (A) (A) (A) (A) (A) (A) (A) (A) (A) (A) (A) (A)
                 (A) (A) (A) (A) (A) (A) (A) (A) (A) (A) (A) (A)
                 (A) (A) (A) (A) (A) (A) (A) (A) (A) (A) (A) (A)
                 (A) (A) (A) (A) (A) (A) (A) (A) (A) (A) (A) (A)
                 (A) (A) (A) (A) (A) (A) (A) (A) (A) (A) (A) (A)
                 (A) (A) (A) (A) (A) (A) (A) (A) (A) (A) (A) (A)
                 (A) (A) (A) (A) (A) (A) (A) (A) (A) (A) (A) (A)
                 (A) (A) (A) (A) (A) (A) (A) (A) (A) (A) (A) (A)
                 (A) (A) (A) (A) (A) (A) (A) (A) (A) (A) (A) (A)
                 (A) (A) (A) (A) (A) (A) (A) (A) (A) (A) (A) (A)
                 (A) (A) (A) (A) (A) (A) (A) (A) (A) (A)
 The electronic state is 1-A.
 Alpha  occ. eigenvalues --  -24.80236 -24.79754 -19.20206 -14.37859 -10.33777
 Alpha  occ. eigenvalues --  -10.33771 -10.26930 -10.26627 -10.26504 -10.26193
 Alpha  occ. eigenvalues --  -10.26170 -10.25411 -10.25330 -10.23117 -10.23057
 Alpha  occ. eigenvalues --  -10.22206 -10.21323  -1.27005  -1.26735  -1.04176
 Alpha  occ. eigenvalues --   -0.94211  -0.90659  -0.83133  -0.80072  -0.78806
 Alpha  occ. eigenvalues --   -0.78266  -0.71538  -0.69311  -0.67453  -0.65851
 Alpha  occ. eigenvalues --   -0.63940  -0.62550  -0.58648  -0.56160  -0.55450
 Alpha  occ. eigenvalues --   -0.52816  -0.52286  -0.51515  -0.50803  -0.49625
 Alpha  occ. eigenvalues --   -0.48984  -0.48725  -0.46987  -0.46575  -0.45732
 Alpha  occ. eigenvalues --   -0.44170  -0.43807  -0.42562  -0.42283  -0.41517
 Alpha  occ. eigenvalues --   -0.40269  -0.39247  -0.38936  -0.38015  -0.37882
 Alpha  occ. eigenvalues --   -0.37505  -0.36450  -0.35269  -0.34231  -0.33448
 Alpha  occ. eigenvalues --   -0.31669  -0.28050  -0.27617  -0.27013  -0.24262
 Alpha virt. eigenvalues --   -0.02235  -0.00923   0.05109   0.05827   0.06205
 Alpha virt. eigenvalues --    0.07154   0.07744   0.09125   0.10220   0.10783
 Alpha virt. eigenvalues --    0.10944   0.11628   0.12916   0.13061   0.13402
 Alpha virt. eigenvalues --    0.13731   0.14434   0.14511   0.15531   0.16128
 Alpha virt. eigenvalues --    0.17277   0.18152   0.18807   0.19800   0.20596
 Alpha virt. eigenvalues --    0.21002   0.22841   0.23585   0.24358   0.24962
 Alpha virt. eigenvalues --    0.25512   0.25613   0.26895   0.28776   0.30606
 Alpha virt. eigenvalues --    0.31719   0.32852   0.33611   0.34086   0.34906
 Alpha virt. eigenvalues --    0.36057   0.37442   0.37543   0.38282   0.38787
 Alpha virt. eigenvalues --    0.39495   0.40965   0.41226   0.41798   0.42372
 Alpha virt. eigenvalues --    0.43046   0.43345   0.44590   0.45338   0.46356
 Alpha virt. eigenvalues --    0.47057   0.48207   0.50307   0.50918   0.51163
 Alpha virt. eigenvalues --    0.52416   0.53236   0.53909   0.55637   0.55975
 Alpha virt. eigenvalues --    0.56425   0.57767   0.58234   0.58931   0.59039
 Alpha virt. eigenvalues --    0.59615   0.60088   0.61245   0.61641   0.61738
 Alpha virt. eigenvalues --    0.62666   0.63338   0.63843   0.64442   0.64485
 Alpha virt. eigenvalues --    0.65391   0.65462   0.66057   0.67034   0.67183
 Alpha virt. eigenvalues --    0.67291   0.69160   0.69546   0.70424   0.70799
 Alpha virt. eigenvalues --    0.72117   0.73627   0.73687   0.74310   0.75961
 Alpha virt. eigenvalues --    0.77776   0.78809   0.81790   0.83386   0.85594
 Alpha virt. eigenvalues --    0.87926   0.89151   0.89456   0.92563   0.93698
 Alpha virt. eigenvalues --    0.93971   0.96222   0.98376   0.98602   0.98941
 Alpha virt. eigenvalues --    1.00370   1.03229   1.04060   1.05795   1.06870
 Alpha virt. eigenvalues --    1.08506   1.08832   1.11860   1.13247   1.14553
 Alpha virt. eigenvalues --    1.18776   1.19639   1.22880   1.23771   1.25036
 Alpha virt. eigenvalues --    1.26022   1.28056   1.28972   1.30329   1.31225
 Alpha virt. eigenvalues --    1.32988   1.34374   1.37129   1.41328   1.43539
 Alpha virt. eigenvalues --    1.45496   1.45857   1.47209   1.48323   1.49419
 Alpha virt. eigenvalues --    1.50442   1.51167   1.52281   1.53819   1.53889
 Alpha virt. eigenvalues --    1.55329   1.56292   1.58309   1.58871   1.59907
 Alpha virt. eigenvalues --    1.62663   1.63070   1.63621   1.65258   1.67484
 Alpha virt. eigenvalues --    1.67672   1.68122   1.69039   1.72864   1.73745
 Alpha virt. eigenvalues --    1.76110   1.76909   1.78308   1.79699   1.81243
 Alpha virt. eigenvalues --    1.83318   1.84147   1.84944   1.89050   1.89932
 Alpha virt. eigenvalues --    1.90095   1.90618   1.92363   1.94040   1.94391
 Alpha virt. eigenvalues --    1.95757   1.98589   1.99774   2.01322   2.03795
 Alpha virt. eigenvalues --    2.06732   2.09584   2.14177   2.17510   2.18114
 Alpha virt. eigenvalues --    2.20448   2.22190   2.26154   2.27263   2.27612
 Alpha virt. eigenvalues --    2.30376   2.33326   2.35126   2.38035   2.39424
 Alpha virt. eigenvalues --    2.41007   2.41745   2.42977   2.43941   2.46172
 Alpha virt. eigenvalues --    2.48866   2.50892   2.51586   2.52192   2.54477
 Alpha virt. eigenvalues --    2.54583   2.56974   2.57616   2.60269   2.65476
 Alpha virt. eigenvalues --    2.66177   2.68239   2.69884   2.71747   2.74614
 Alpha virt. eigenvalues --    2.77795   2.82465   2.84131   2.87466   2.89833
 Alpha virt. eigenvalues --    2.91042   2.92927   2.96627   3.00963   3.05333
 Alpha virt. eigenvalues --    3.06169   3.06394   3.08316   3.09919   3.11580
 Alpha virt. eigenvalues --    3.13053   3.14367   3.15788   3.20717   3.22140
 Alpha virt. eigenvalues --    3.22295   3.25258   3.25580   3.26011   3.27802
 Alpha virt. eigenvalues --    3.28949   3.29925   3.32766   3.36651   3.38820
 Alpha virt. eigenvalues --    3.46494   3.48132   3.52190   3.61106   3.63834
 Alpha virt. eigenvalues --    3.73088   3.78119   3.79995   3.80270   3.81034
 Alpha virt. eigenvalues --    3.85969   3.86949   3.96358   3.97192   3.98523
 Alpha virt. eigenvalues --    3.99503   4.04782   4.09169   4.10128   4.11972
 Alpha virt. eigenvalues --    4.17954   4.23020   4.47933   4.75285   4.76937
 Alpha virt. eigenvalues --    4.77909   4.80310   4.91567   5.11696   5.39969
 Alpha virt. eigenvalues --    6.13233   6.14906   6.29501   6.32502   6.55239
 Alpha virt. eigenvalues --    6.57281  23.28849  23.46804  23.58875  23.70340
 Alpha virt. eigenvalues --   23.72277  23.77558  23.82140  23.85169  23.86116
 Alpha virt. eigenvalues --   23.90551  24.10053  24.10497  24.19714  35.59117
 Alpha virt. eigenvalues --   49.97069  66.89102  66.89431
          Condensed to atoms (all electrons):
               1          2          3          4          5          6
     1  C    5.347109   0.309638  -0.073581   0.007511   0.000064  -0.000001
     2  C    0.309638   5.373336   0.290577  -0.043996  -0.016453  -0.000072
     3  C   -0.073581   0.290577   5.338241   0.263864  -0.044566   0.003267
     4  C    0.007511  -0.043996   0.263864   5.477988   0.268586  -0.051866
     5  C    0.000064  -0.016453  -0.044566   0.268586   5.165449   0.226436
     6  O   -0.000001  -0.000072   0.003267  -0.051866   0.226436   8.224494
     7  N   -0.002645  -0.044641   0.251089  -0.065295  -0.013086   0.000013
     8  C    0.000443   0.006183  -0.074661  -0.003844   0.000803  -0.000014
     9  C    0.000000   0.000000  -0.000001   0.000000   0.000000   0.000000
    10  C   -0.000004   0.000000   0.000019   0.000000   0.000000   0.000000
    11  C   -0.000023  -0.000065   0.000380   0.000046   0.000017   0.000000
    12  C   -0.000022  -0.000194   0.008658   0.000097  -0.000009  -0.000004
    13  C   -0.000002   0.000010  -0.000566   0.000038  -0.000058   0.000001
    14  C    0.000000   0.000000   0.000012  -0.000002   0.000000   0.000000
    15  H    0.000000   0.000000   0.000000   0.000000   0.000000   0.000000
    16  H    0.000000   0.000000  -0.000001   0.000000   0.000000   0.000000
    17  H    0.000000   0.000000   0.000000   0.000000   0.000000   0.000000
    18  F   -0.000346  -0.000083  -0.000072  -0.000003   0.000000   0.000000
    19  F    0.000000   0.000000   0.000035  -0.000044   0.000001   0.000000
    20  H    0.392487  -0.036812   0.007573  -0.000197   0.000003   0.000000
    21  H    0.386140  -0.040431  -0.004505  -0.000491   0.000024   0.000000
    22  H    0.382467  -0.039076  -0.004723   0.000421  -0.000028   0.000000
    23  H   -0.037234   0.400525  -0.051300   0.001260  -0.002187  -0.000108
    24  H   -0.044665   0.389950  -0.040613  -0.012131   0.003299  -0.000029
    25  H   -0.000136   0.008772  -0.045958   0.399833  -0.054061   0.010717
    26  H   -0.000255  -0.004837   0.003789  -0.063191   0.390312  -0.031183
    27  H    0.000366   0.007615  -0.007181  -0.034371   0.373217  -0.035405
    28  H   -0.000001  -0.000008  -0.000699   0.010932  -0.049193   0.257501
    29  H   -0.000276   0.000949  -0.006687  -0.002243  -0.000099   0.000001
    30  H    0.000006  -0.000169  -0.004129   0.005750   0.000693  -0.000211
    31  H   -0.012045  -0.045321   0.415522  -0.079659   0.008630  -0.000151
    32  C   -0.000477  -0.007623  -0.063843   0.298175  -0.075591  -0.003193
    33  H   -0.000107   0.003095  -0.008784  -0.034718  -0.006025  -0.000344
    34  H    0.000028  -0.000400   0.008672  -0.039614  -0.008245   0.017001
    35  H   -0.000133   0.000254  -0.005309  -0.038000   0.008134  -0.000316
    36  H    0.004199  -0.012071  -0.056618   0.007075  -0.000123   0.000002
               7          8          9         10         11         12
     1  C   -0.002645   0.000443   0.000000  -0.000004  -0.000023  -0.000022
     2  C   -0.044641   0.006183   0.000000   0.000000  -0.000065  -0.000194
     3  C    0.251089  -0.074661  -0.000001   0.000019   0.000380   0.008658
     4  C   -0.065295  -0.003844   0.000000   0.000000   0.000046   0.000097
     5  C   -0.013086   0.000803   0.000000   0.000000   0.000017  -0.000009
     6  O    0.000013  -0.000014   0.000000   0.000000   0.000000  -0.000004
     7  N    6.954184   0.277571   0.000046  -0.000224  -0.005946  -0.054057
     8  C    0.277571   5.316235  -0.001429   0.009196  -0.080420   0.278757
     9  C    0.000046  -0.001429   5.072036   0.438958  -0.009426  -0.055056
    10  C   -0.000224   0.009196   0.438958   5.172604   0.484958  -0.041044
    11  C   -0.005946  -0.080420  -0.009426   0.484958   4.811916   0.230410
    12  C   -0.054057   0.278757  -0.055056  -0.041044   0.230410   5.718220
    13  C    0.009978  -0.071579  -0.003983  -0.063168   0.044026   0.297498
    14  C   -0.000109   0.009989   0.436410  -0.043046  -0.057185  -0.030356
    15  H    0.000000   0.000028   0.402720  -0.041096   0.006308  -0.001651
    16  H    0.000014  -0.000248  -0.039872   0.394260  -0.050492   0.011962
    17  H    0.000007  -0.000219  -0.040640   0.006858  -0.001636   0.011976
    18  F   -0.003807   0.003017   0.005308  -0.054314   0.306173  -0.083022
    19  F   -0.000234  -0.007432   0.005537  -0.000436   0.005854  -0.073136
    20  H   -0.000010   0.000041   0.000000   0.000000   0.000002  -0.000003
    21  H   -0.000140   0.000017   0.000000   0.000000   0.000008  -0.000007
    22  H    0.002648   0.000292  -0.000003   0.000061   0.000040  -0.000155
    23  H    0.005073  -0.000526   0.000000   0.000000   0.000000   0.000022
    24  H    0.001417  -0.000216   0.000000  -0.000002  -0.000043   0.000081
    25  H   -0.002385   0.002728   0.000000   0.000001  -0.000096  -0.000332
    26  H    0.024977  -0.000726   0.000000  -0.000005  -0.000082  -0.000001
    27  H    0.000173  -0.000086   0.000000   0.000000  -0.000002  -0.000002
    28  H    0.000022   0.000004   0.000000   0.000000   0.000000   0.000000
    29  H   -0.049699   0.372631  -0.000009  -0.000611  -0.021800  -0.033938
    30  H   -0.038894   0.383321  -0.000344   0.000171   0.010116  -0.036992
    31  H   -0.045482  -0.010901   0.000000  -0.000012  -0.000422   0.001067
    32  C    0.004681  -0.000010   0.000000   0.000000  -0.000001   0.000012
    33  H   -0.000050  -0.000015   0.000000   0.000000   0.000000   0.000001
    34  H   -0.000225  -0.000024   0.000000   0.000000   0.000000  -0.000001
    35  H    0.000011   0.000079   0.000000   0.000000   0.000000  -0.000001
    36  H    0.342531  -0.051639  -0.000035  -0.000098   0.004390  -0.017490
              13         14         15         16         17         18
     1  C   -0.000002   0.000000   0.000000   0.000000   0.000000  -0.000346
     2  C    0.000010   0.000000   0.000000   0.000000   0.000000  -0.000083
     3  C   -0.000566   0.000012   0.000000  -0.000001   0.000000  -0.000072
     4  C    0.000038  -0.000002   0.000000   0.000000   0.000000  -0.000003
     5  C   -0.000058   0.000000   0.000000   0.000000   0.000000   0.000000
     6  O    0.000001   0.000000   0.000000   0.000000   0.000000   0.000000
     7  N    0.009978  -0.000109   0.000000   0.000014   0.000007  -0.003807
     8  C   -0.071579   0.009989   0.000028  -0.000248  -0.000219   0.003017
     9  C   -0.003983   0.436410   0.402720  -0.039872  -0.040640   0.005308
    10  C   -0.063168  -0.043046  -0.041096   0.394260   0.006858  -0.054314
    11  C    0.044026  -0.057185   0.006308  -0.050492  -0.001636   0.306173
    12  C    0.297498  -0.030356  -0.001651   0.011962   0.011976  -0.083022
    13  C    4.749553   0.469978   0.006035  -0.001577  -0.048478   0.005190
    14  C    0.469978   5.174361  -0.039821   0.006675   0.393264  -0.000513
    15  H    0.006035  -0.039821   0.445726  -0.006379  -0.006360  -0.000081
    16  H   -0.001577   0.006675  -0.006379   0.445520  -0.000138   0.001487
    17  H   -0.048478   0.393264  -0.006360  -0.000138   0.445572   0.000004
    18  F    0.005190  -0.000513  -0.000081   0.001487   0.000004   9.056719
    19  F    0.307093  -0.052325  -0.000082   0.000004   0.001427  -0.000002
    20  H    0.000000   0.000000   0.000000   0.000000   0.000000  -0.000005
    21  H    0.000000   0.000000   0.000000   0.000000   0.000000  -0.000025
    22  H   -0.000031   0.000001   0.000000   0.000006   0.000000   0.003355
    23  H    0.000000   0.000000   0.000000   0.000000   0.000000  -0.000001
    24  H    0.000007   0.000000   0.000000   0.000000   0.000000  -0.000031
    25  H    0.000273  -0.000003   0.000000   0.000000   0.000001  -0.000001
    26  H    0.000246  -0.000004   0.000000   0.000000   0.000000   0.000001
    27  H    0.000002   0.000000   0.000000   0.000000   0.000000   0.000000
    28  H    0.000000   0.000000   0.000000   0.000000   0.000000   0.000000
    29  H    0.009171  -0.000236   0.000002  -0.000013   0.000013   0.004239
    30  H   -0.018946   0.001662   0.000006   0.000007  -0.000056   0.000187
    31  H    0.000117   0.000000   0.000000   0.000000   0.000000  -0.000071
    32  C    0.000000   0.000000   0.000000   0.000000   0.000000   0.000000
    33  H    0.000000   0.000000   0.000000   0.000000   0.000000   0.000000
    34  H    0.000000   0.000000   0.000000   0.000000   0.000000   0.000000
    35  H    0.000000   0.000000   0.000000   0.000000   0.000000   0.000000
    36  H    0.000074   0.000005   0.000001   0.000005   0.000000   0.010019
              19         20         21         22         23         24
     1  C    0.000000   0.392487   0.386140   0.382467  -0.037234  -0.044665
     2  C    0.000000  -0.036812  -0.040431  -0.039076   0.400525   0.389950
     3  C    0.000035   0.007573  -0.004505  -0.004723  -0.051300  -0.040613
     4  C   -0.000044  -0.000197  -0.000491   0.000421   0.001260  -0.012131
     5  C    0.000001   0.000003   0.000024  -0.000028  -0.002187   0.003299
     6  O    0.000000   0.000000   0.000000   0.000000  -0.000108  -0.000029
     7  N   -0.000234  -0.000010  -0.000140   0.002648   0.005073   0.001417
     8  C   -0.007432   0.000041   0.000017   0.000292  -0.000526  -0.000216
     9  C    0.005537   0.000000   0.000000  -0.000003   0.000000   0.000000
    10  C   -0.000436   0.000000   0.000000   0.000061   0.000000  -0.000002
    11  C    0.005854   0.000002   0.000008   0.000040   0.000000  -0.000043
    12  C   -0.073136  -0.000003  -0.000007  -0.000155   0.000022   0.000081
    13  C    0.307093   0.000000   0.000000  -0.000031   0.000000   0.000007
    14  C   -0.052325   0.000000   0.000000   0.000001   0.000000   0.000000
    15  H   -0.000082   0.000000   0.000000   0.000000   0.000000   0.000000
    16  H    0.000004   0.000000   0.000000   0.000006   0.000000   0.000000
    17  H    0.001427   0.000000   0.000000   0.000000   0.000000   0.000000
    18  F   -0.000002  -0.000005  -0.000025   0.003355  -0.000001  -0.000031
    19  F    9.042819   0.000000   0.000000   0.000000   0.000000   0.000000
    20  H    0.000000   0.468522  -0.026854  -0.026341  -0.004381  -0.004389
    21  H    0.000000  -0.026854   0.481198  -0.029255  -0.005597   0.007304
    22  H    0.000000  -0.026341  -0.029255   0.485960   0.006930  -0.006168
    23  H    0.000000  -0.004381  -0.005597   0.006930   0.474592  -0.029938
    24  H    0.000000  -0.004389   0.007304  -0.006168  -0.029938   0.491735
    25  H   -0.000187   0.000016  -0.000036  -0.000004   0.000480  -0.000518
    26  H    0.000021  -0.000007   0.000007  -0.000094  -0.000216   0.003355
    27  H    0.000000   0.000001  -0.000022   0.000004   0.001348  -0.001818
    28  H    0.000000   0.000000   0.000000   0.000000   0.000008   0.000004
    29  H    0.000031  -0.000027   0.000084  -0.000809  -0.000008   0.000249
    30  H    0.016434   0.000002   0.000005   0.000090   0.000017  -0.000099
    31  H    0.000000  -0.000055   0.005721  -0.002248  -0.002568   0.008864
    32  C    0.000000  -0.000007   0.000168  -0.000060  -0.000655   0.001371
    33  H    0.000000   0.000036   0.000095  -0.000022   0.003629   0.000158
    34  H    0.000000  -0.000001  -0.000008   0.000002  -0.000018  -0.000029
    35  H    0.000000   0.000002  -0.000005   0.000007   0.000072  -0.000028
    36  H   -0.000009  -0.000341  -0.000349   0.007058   0.000833  -0.000306
              25         26         27         28         29         30
     1  C   -0.000136  -0.000255   0.000366  -0.000001  -0.000276   0.000006
     2  C    0.008772  -0.004837   0.007615  -0.000008   0.000949  -0.000169
     3  C   -0.045958   0.003789  -0.007181  -0.000699  -0.006687  -0.004129
     4  C    0.399833  -0.063191  -0.034371   0.010932  -0.002243   0.005750
     5  C   -0.054061   0.390312   0.373217  -0.049193  -0.000099   0.000693
     6  O    0.010717  -0.031183  -0.035405   0.257501   0.000001  -0.000211
     7  N   -0.002385   0.024977   0.000173   0.000022  -0.049699  -0.038894
     8  C    0.002728  -0.000726  -0.000086   0.000004   0.372631   0.383321
     9  C    0.000000   0.000000   0.000000   0.000000  -0.000009  -0.000344
    10  C    0.000001  -0.000005   0.000000   0.000000  -0.000611   0.000171
    11  C   -0.000096  -0.000082  -0.000002   0.000000  -0.021800   0.010116
    12  C   -0.000332  -0.000001  -0.000002   0.000000  -0.033938  -0.036992
    13  C    0.000273   0.000246   0.000002   0.000000   0.009171  -0.018946
    14  C   -0.000003  -0.000004   0.000000   0.000000  -0.000236   0.001662
    15  H    0.000000   0.000000   0.000000   0.000000   0.000002   0.000006
    16  H    0.000000   0.000000   0.000000   0.000000  -0.000013   0.000007
    17  H    0.000001   0.000000   0.000000   0.000000   0.000013  -0.000056
    18  F   -0.000001   0.000001   0.000000   0.000000   0.004239   0.000187
    19  F   -0.000187   0.000021   0.000000   0.000000   0.000031   0.016434
    20  H    0.000016  -0.000007   0.000001   0.000000  -0.000027   0.000002
    21  H   -0.000036   0.000007  -0.000022   0.000000   0.000084   0.000005
    22  H   -0.000004  -0.000094   0.000004   0.000000  -0.000809   0.000090
    23  H    0.000480  -0.000216   0.001348   0.000008  -0.000008   0.000017
    24  H   -0.000518   0.003355  -0.001818   0.000004   0.000249  -0.000099
    25  H    0.513185  -0.009322   0.011181  -0.000616   0.000586   0.000283
    26  H   -0.009322   0.504162  -0.042553  -0.002109   0.000431  -0.000767
    27  H    0.011181  -0.042553   0.542232  -0.003740   0.000009  -0.000101
    28  H   -0.000616  -0.002109  -0.003740   0.379137   0.000000   0.000005
    29  H    0.000586   0.000431   0.000009   0.000000   0.538205  -0.044977
    30  H    0.000283  -0.000767  -0.000101   0.000005  -0.044977   0.465574
    31  H   -0.007722   0.001547  -0.000624   0.000038   0.013390  -0.003000
    32  C   -0.052287   0.009402  -0.012346  -0.000066   0.000242  -0.000247
    33  H    0.007710  -0.000247   0.003844  -0.000017   0.000017  -0.000025
    34  H   -0.005489   0.000820  -0.000444  -0.000851  -0.000014   0.000062
    35  H   -0.005444  -0.000269  -0.000183   0.000053   0.000043   0.000032
    36  H   -0.000310  -0.000052  -0.000054  -0.000003  -0.001863   0.005895
              31         32         33         34         35         36
     1  C   -0.012045  -0.000477  -0.000107   0.000028  -0.000133   0.004199
     2  C   -0.045321  -0.007623   0.003095  -0.000400   0.000254  -0.012071
     3  C    0.415522  -0.063843  -0.008784   0.008672  -0.005309  -0.056618
     4  C   -0.079659   0.298175  -0.034718  -0.039614  -0.038000   0.007075
     5  C    0.008630  -0.075591  -0.006025  -0.008245   0.008134  -0.000123
     6  O   -0.000151  -0.003193  -0.000344   0.017001  -0.000316   0.000002
     7  N   -0.045482   0.004681  -0.000050  -0.000225   0.000011   0.342531
     8  C   -0.010901  -0.000010  -0.000015  -0.000024   0.000079  -0.051639
     9  C    0.000000   0.000000   0.000000   0.000000   0.000000  -0.000035
    10  C   -0.000012   0.000000   0.000000   0.000000   0.000000  -0.000098
    11  C   -0.000422  -0.000001   0.000000   0.000000   0.000000   0.004390
    12  C    0.001067   0.000012   0.000001  -0.000001  -0.000001  -0.017490
    13  C    0.000117   0.000000   0.000000   0.000000   0.000000   0.000074
    14  C    0.000000   0.000000   0.000000   0.000000   0.000000   0.000005
    15  H    0.000000   0.000000   0.000000   0.000000   0.000000   0.000001
    16  H    0.000000   0.000000   0.000000   0.000000   0.000000   0.000005
    17  H    0.000000   0.000000   0.000000   0.000000   0.000000   0.000000
    18  F   -0.000071   0.000000   0.000000   0.000000   0.000000   0.010019
    19  F    0.000000   0.000000   0.000000   0.000000   0.000000  -0.000009
    20  H   -0.000055  -0.000007   0.000036  -0.000001   0.000002  -0.000341
    21  H    0.005721   0.000168   0.000095  -0.000008  -0.000005  -0.000349
    22  H   -0.002248  -0.000060  -0.000022   0.000002   0.000007   0.007058
    23  H   -0.002568  -0.000655   0.003629  -0.000018   0.000072   0.000833
    24  H    0.008864   0.001371   0.000158  -0.000029  -0.000028  -0.000306
    25  H   -0.007722  -0.052287   0.007710  -0.005489  -0.005444  -0.000310
    26  H    0.001547   0.009402  -0.000247   0.000820  -0.000269  -0.000052
    27  H   -0.000624  -0.012346   0.003844  -0.000444  -0.000183  -0.000054
    28  H    0.000038  -0.000066  -0.000017  -0.000851   0.000053  -0.000003
    29  H    0.013390   0.000242   0.000017  -0.000014   0.000043  -0.001863
    30  H   -0.003000  -0.000247  -0.000025   0.000062   0.000032   0.005895
    31  H    0.533336   0.003037  -0.000383  -0.000209   0.005059   0.003694
    32  C    0.003037   5.402533   0.379766   0.386643   0.388356  -0.000278
    33  H   -0.000383   0.379766   0.491683  -0.027837  -0.028628  -0.000013
    34  H   -0.000209   0.386643  -0.027837   0.457664  -0.026414   0.000027
    35  H    0.005059   0.388356  -0.028628  -0.026414   0.479347  -0.000010
    36  H    0.003694  -0.000278  -0.000013   0.000027  -0.000010   0.422761
 Mulliken charges:
               1
     1  C   -0.658506
     2  C   -0.498654
     3  C   -0.097902
     4  C   -0.271912
     5  C   -0.175943
     6  O   -0.616538
     7  N   -0.547507
     8  C   -0.357346
     9  C   -0.210218
    10  C   -0.263026
    11  C    0.322993
    12  C   -0.131288
    13  C    0.309100
    14  C   -0.268755
    15  H    0.234645
    16  H    0.238779
    17  H    0.238406
    18  F   -0.253319
    19  F   -0.245370
    20  H    0.230747
    21  H    0.226955
    22  H    0.219677
    23  H    0.239947
    24  H    0.233228
    25  H    0.229144
    26  H    0.216851
    27  H    0.198939
    28  H    0.409599
    29  H    0.223017
    30  H    0.258639
    31  H    0.210853
    32  C   -0.657702
    33  H    0.217178
    34  H    0.238905
    35  H    0.223291
    36  H    0.333095
 Sum of Mulliken charges =   0.00000
 Mulliken charges with hydrogens summed into heavy atoms:
               1
     1  C    0.018872
     2  C   -0.025478
     3  C    0.112951
     4  C   -0.042768
     5  C    0.239848
     6  O   -0.206939
     7  N   -0.214412
     8  C    0.124310
     9  C    0.024426
    10  C   -0.024247
    11  C    0.322993
    12  C   -0.131288
    13  C    0.309100
    14  C   -0.030349
    18  F   -0.253319
    19  F   -0.245370
    32  C    0.021671
 Electronic spatial extent (au):  <R**2>=           5358.0036
 Charge=              0.0000 electrons
 Dipole moment (field-independent basis, Debye):
    X=              1.7370    Y=              1.7378    Z=             -1.5491  Tot=              2.9046
 Quadrupole moment (field-independent basis, Debye-Ang):
   XX=            -87.7158   YY=           -104.9710   ZZ=            -97.9653
   XY=             -4.9936   XZ=              1.5248   YZ=              3.5931
 Traceless Quadrupole moment (field-independent basis, Debye-Ang):
   XX=              9.1682   YY=             -8.0870   ZZ=             -1.0813
   XY=             -4.9936   XZ=              1.5248   YZ=              3.5931
 Octapole moment (field-independent basis, Debye-Ang**2):
  XXX=             93.6196  YYY=             -6.7942  ZZZ=             -7.5814  XYY=             10.9940
  XXY=              1.6203  XXZ=            -47.1447  XZZ=            -20.1898  YZZ=            -14.8208
  YYZ=            -19.7377  XYZ=            -14.9544
 Hexadecapole moment (field-independent basis, Debye-Ang**3):
 XXXX=          -4543.4703 YYYY=          -1666.2386 ZZZZ=           -397.5767 XXXY=            -32.2405
 XXXZ=            -14.7748 YYYX=             10.2812 YYYZ=             40.7803 ZZZX=             72.5431
 ZZZY=             35.6993 XXYY=          -1044.9190 XXZZ=           -854.9377 YYZZ=           -299.7791
 XXYZ=             52.8482 YYXZ=             44.2375 ZZXY=             64.5778
 N-N= 1.254919164059D+03 E-N=-4.468198110464D+03  KE= 8.332776854597D+02
 1\1\GINC-SWANNODE-0-1\SP\RmPW1PW91\6-311G(d)\C13H19F2N1O1\KE291\06-Mar
 -2019\0\\# mPW1PW91/6-311g(d) geom=checkpoint nmr=giao scrf=(solvent=c
 hloroform)\\AT3_2ginp008\\0,1\C,0,-2.4925034427,-0.0400689078,-0.81913
 22603\C,0,-2.381990126,0.1766703414,0.6959155637\C,0,-3.0624241812,-0.
 9239423754,1.5325907727\C,0,-2.6051393818,-0.959039486,3.0161002198\C,
 0,-2.7865726359,0.3902902359,3.713037424\O,0,-2.6247356542,0.187475162
 6,5.1199563926\N,0,-4.5261820489,-0.7532227718,1.4571018389\C,0,-5.277
 8950995,-2.0092530521,1.5771089742\C,0,-9.5375662999,-1.3392367911,1.0
 824540579\C,0,-8.6743987942,-1.1731931918,-0.0026601344\C,0,-7.3198791
 737,-1.3970403476,0.1988620472\C,0,-6.7631027767,-1.7788239802,1.42109
 60883\C,0,-7.6740076064,-1.9235828115,2.4687817159\C,0,-9.042508283,-1
 .7170827567,2.3303806367\H,0,-10.6016440414,-1.1714905724,0.9537770296
 \H,0,-9.0310560162,-0.8777968759,-0.9825072176\H,0,-9.6915359041,-1.85
 19207109,3.1878735221\F,0,-6.4697257809,-1.2295760245,-0.8486021291\F,
 0,-7.2021533411,-2.2944769567,3.6812472911\H,0,-2.0160842914,0.7790893
 481,-1.3667441555\H,0,-2.0008757191,-0.9725680506,-1.1174663826\H,0,-3
 .5323989657,-0.0955241804,-1.1606228873\H,0,-1.3219896224,0.2311297423
 ,0.9647216084\H,0,-2.8203004432,1.1463865403,0.9647513578\H,0,-3.27738
 17419,-1.6544516736,3.5372069681\H,0,-3.7868063202,0.78043386,3.482653
 7314\H,0,-2.0445324876,1.1144217025,3.3414142127\H,0,-2.724750857,1.04
 61571782,5.5507605688\H,0,-4.9554121937,-2.7605256371,0.8339007759\H,0
 ,-5.0953099574,-2.4416150385,2.5627778203\H,0,-2.7682218889,-1.8965961
 238,1.0924133113\C,0,-1.1775088284,-1.498210498,3.1791850282\H,0,-0.43
 90418313,-0.8520722836,2.6910041983\H,0,-0.9151103266,-1.5553193755,4.
 2383275888\H,0,-1.0812111546,-2.5005874384,2.7479882045\H,0,-4.7618477
 826,-0.3451231992,0.5570142178\\Version=EM64L-G09RevD.01\State=1-A\HF=
 -836.4605485\RMSD=6.777e-09\Dipole=-0.6348808,0.5532049,-0.7725335\Qua
 drupole=7.1868024,-0.697121,-6.4896814,2.345334,-1.0239428,3.1873295\P
 G=C01 [X(C13H19F2N1O1)]\\@


 I do not feel obliged to believe that the same God who
 has endowed us with sense, reason, and intellect has
 intended us to forgo their use.
                   --Galileo Galilei
 Job cpu time:       0 days  0 hours 26 minutes 56.5 seconds.
 File lengths (MBytes):  RWF=    188 Int=      0 D2E=      0 Chk=     14 Scr=      1
 Normal termination of Gaussian 09 at Wed Mar  6 18:53:41 2019.
