 Entering Gaussian System, Link 0=/usr/local/shared/gaussian/em64t/09-D01/g09/g09
 Initial command:
 /usr/local/shared/gaussian/em64t/09-D01/g09/l1.exe "/scratch/ke291/AT3_1ginp007/Gau-29454.inp" -scrdir="/scratch/ke291/AT3_1ginp007/"
 Entering Link 1 = /usr/local/shared/gaussian/em64t/09-D01/g09/l1.exe PID=     29457.
  
 Copyright (c) 1988,1990,1992,1993,1995,1998,2003,2009,2013,
            Gaussian, Inc.  All Rights Reserved.
  
 This is part of the Gaussian(R) 09 program.  It is based on
 the Gaussian(R) 03 system (copyright 2003, Gaussian, Inc.),
 the Gaussian(R) 98 system (copyright 1998, Gaussian, Inc.),
 the Gaussian(R) 94 system (copyright 1995, Gaussian, Inc.),
 the Gaussian 92(TM) system (copyright 1992, Gaussian, Inc.),
 the Gaussian 90(TM) system (copyright 1990, Gaussian, Inc.),
 the Gaussian 88(TM) system (copyright 1988, Gaussian, Inc.),
 the Gaussian 86(TM) system (copyright 1986, Carnegie Mellon
 University), and the Gaussian 82(TM) system (copyright 1983,
 Carnegie Mellon University). Gaussian is a federally registered
 trademark of Gaussian, Inc.
  
 This software contains proprietary and confidential information,
 including trade secrets, belonging to Gaussian, Inc.
  
 This software is provided under written license and may be
 used, copied, transmitted, or stored only in accord with that
 written license.
  
 The following legend is applicable only to US Government
 contracts under FAR:
  
                    RESTRICTED RIGHTS LEGEND
  
 Use, reproduction and disclosure by the US Government is
 subject to restrictions as set forth in subparagraphs (a)
 and (c) of the Commercial Computer Software - Restricted
 Rights clause in FAR 52.227-19.
  
 Gaussian, Inc.
 340 Quinnipiac St., Bldg. 40, Wallingford CT 06492
  
  
 ---------------------------------------------------------------
 Warning -- This program may not be used in any manner that
 competes with the business of Gaussian, Inc. or will provide
 assistance to any competitor of Gaussian, Inc.  The licensee
 of this program is prohibited from giving any competitor of
 Gaussian, Inc. access to this program.  By using this program,
 the user acknowledges that Gaussian, Inc. is engaged in the
 business of creating and licensing software in the field of
 computational chemistry and represents and warrants to the
 licensee that it is not a competitor of Gaussian, Inc. and that
 it will not use this program in any manner prohibited above.
 ---------------------------------------------------------------
  

 Cite this work as:
 Gaussian 09, Revision D.01,
 M. J. Frisch, G. W. Trucks, H. B. Schlegel, G. E. Scuseria, 
 M. A. Robb, J. R. Cheeseman, G. Scalmani, V. Barone, B. Mennucci, 
 G. A. Petersson, H. Nakatsuji, M. Caricato, X. Li, H. P. Hratchian, 
 A. F. Izmaylov, J. Bloino, G. Zheng, J. L. Sonnenberg, M. Hada, 
 M. Ehara, K. Toyota, R. Fukuda, J. Hasegawa, M. Ishida, T. Nakajima, 
 Y. Honda, O. Kitao, H. Nakai, T. Vreven, J. A. Montgomery, Jr., 
 J. E. Peralta, F. Ogliaro, M. Bearpark, J. J. Heyd, E. Brothers, 
 K. N. Kudin, V. N. Staroverov, T. Keith, R. Kobayashi, J. Normand, 
 K. Raghavachari, A. Rendell, J. C. Burant, S. S. Iyengar, J. Tomasi, 
 M. Cossi, N. Rega, J. M. Millam, M. Klene, J. E. Knox, J. B. Cross, 
 V. Bakken, C. Adamo, J. Jaramillo, R. Gomperts, R. E. Stratmann, 
 O. Yazyev, A. J. Austin, R. Cammi, C. Pomelli, J. W. Ochterski, 
 R. L. Martin, K. Morokuma, V. G. Zakrzewski, G. A. Voth, 
 P. Salvador, J. J. Dannenberg, S. Dapprich, A. D. Daniels, 
 O. Farkas, J. B. Foresman, J. V. Ortiz, J. Cioslowski, 
 and D. J. Fox, Gaussian, Inc., Wallingford CT, 2013.
 
 ******************************************
 Gaussian 09:  EM64L-G09RevD.01 24-Apr-2013
                 6-Mar-2019 
 ******************************************
 %nprocshared=2
 Will use up to    2 processors via shared memory.
 %mem=6000MB
 %chk=AT3_1ginp007.chk
 ----------------------------------------------------------------------
 # mPW1PW91/6-311g(d) geom=checkpoint nmr=giao scrf=(solvent=chloroform
 )
 ----------------------------------------------------------------------
 1/29=2,38=1/1;
 2/12=2,40=1/2;
 3/5=4,6=6,7=1,11=2,14=-4,16=1,25=1,30=1,70=2201,72=7,74=-7/1,2,8,3;
 4//1;
 5/5=2,38=5,53=7/2;
 8/6=1,10=90,11=11/1;
 10/13=100,45=16/2;
 6/7=2,8=2,9=2,10=2,28=1/1;
 99/9=1/99;
 ------------
 AT3_1ginp007
 ------------
 Structure from the checkpoint file:  "AT3_1ginp007.chk"
 Charge =  0 Multiplicity = 1
 Redundant internal coordinates found in file.
 C,0,-1.3928982479,0.0744012497,0.0774956736
 C,0,-1.7600549096,1.0037537163,1.2407621845
 C,0,-0.6732165903,1.1715033951,2.3220013667
 C,0,-1.1786317475,2.0068585726,3.5328133792
 C,0,-0.0338881202,2.4077959498,4.4856592836
 O,0,0.8427493571,3.378672058,3.9429315693
 N,0,0.5741760041,1.7582878671,1.7490975303
 C,0,1.6535964944,0.7853715339,1.4861597381
 C,0,4.8983534367,2.6794724002,-0.6745421092
 C,0,4.8234547723,2.8081529077,0.7135424109
 C,0,3.7732616181,2.1881886359,1.3781794358
 C,0,2.7891914585,1.4339613075,0.7340124664
 C,0,2.911695173,1.3495840887,-0.6542088402
 C,0,3.9393226872,1.9463042071,-1.3743523602
 H,0,5.7094724365,3.1559922806,-1.2149128845
 H,0,5.5549126508,3.374471246,1.2780872313
 H,0,3.9745118994,1.834326821,-2.4517101977
 F,0,3.6924728769,2.3102876834,2.7218165106
 F,0,1.9744893443,0.6431508513,-1.3341223628
 H,0,-0.5167240227,0.4241742749,-0.4768191902
 H,0,-1.1801486707,-0.940261112,0.4326019136
 H,0,-2.2223049655,0.0073451145,-0.6337048257
 H,0,-2.0074559939,2.0020820552,0.8512513355
 H,0,-2.6761494247,0.6306424816,1.7094703099
 H,0,-1.6047925983,2.9444321041,3.1464525637
 H,0,0.5103056106,1.4954879063,4.7951035977
 H,0,-0.4645411343,2.8374980306,5.3983305799
 H,0,1.0655431394,3.003129962,3.0629502951
 H,0,2.0221025593,0.4270780093,2.4517901823
 H,0,1.307195038,-0.0888787543,0.9214802669
 H,0,-0.4048513494,0.1765190471,2.7065019849
 C,0,-2.2615617229,1.2588885085,4.3276213244
 H,0,-1.8673129318,0.3230201743,4.7426690882
 H,0,-2.6122431364,1.8696537951,5.1658953199
 H,0,-3.1344697201,1.0097197849,3.7194036599
 H,0,0.3509067297,2.2465438461,0.8845715682
 Recover connectivity data from disk.
                          Input orientation:                          
 ---------------------------------------------------------------------
 Center     Atomic      Atomic             Coordinates (Angstroms)
 Number     Number       Type             X           Y           Z
 ---------------------------------------------------------------------
      1          6           0       -1.392898    0.074401    0.077496
      2          6           0       -1.760055    1.003754    1.240762
      3          6           0       -0.673217    1.171503    2.322001
      4          6           0       -1.178632    2.006859    3.532813
      5          6           0       -0.033888    2.407796    4.485659
      6          8           0        0.842749    3.378672    3.942932
      7          7           0        0.574176    1.758288    1.749098
      8          6           0        1.653596    0.785372    1.486160
      9          6           0        4.898353    2.679472   -0.674542
     10          6           0        4.823455    2.808153    0.713542
     11          6           0        3.773262    2.188189    1.378179
     12          6           0        2.789191    1.433961    0.734012
     13          6           0        2.911695    1.349584   -0.654209
     14          6           0        3.939323    1.946304   -1.374352
     15          1           0        5.709472    3.155992   -1.214913
     16          1           0        5.554913    3.374471    1.278087
     17          1           0        3.974512    1.834327   -2.451710
     18          9           0        3.692473    2.310288    2.721817
     19          9           0        1.974489    0.643151   -1.334122
     20          1           0       -0.516724    0.424174   -0.476819
     21          1           0       -1.180149   -0.940261    0.432602
     22          1           0       -2.222305    0.007345   -0.633705
     23          1           0       -2.007456    2.002082    0.851251
     24          1           0       -2.676149    0.630642    1.709470
     25          1           0       -1.604793    2.944432    3.146453
     26          1           0        0.510306    1.495488    4.795104
     27          1           0       -0.464541    2.837498    5.398331
     28          1           0        1.065543    3.003130    3.062950
     29          1           0        2.022103    0.427078    2.451790
     30          1           0        1.307195   -0.088879    0.921480
     31          1           0       -0.404851    0.176519    2.706502
     32          6           0       -2.261562    1.258889    4.327621
     33          1           0       -1.867313    0.323020    4.742669
     34          1           0       -2.612243    1.869654    5.165895
     35          1           0       -3.134470    1.009720    3.719404
     36          1           0        0.350907    2.246544    0.884572
 ---------------------------------------------------------------------
                    Distance matrix (angstroms):
                    1          2          3          4          5
     1  C    0.000000
     2  C    1.533522   0.000000
     3  C    2.599881   1.542218   0.000000
     4  C    3.964785   2.568613   1.555419   0.000000
     5  C    5.169482   3.934507   2.572659   1.542434   0.000000
     6  O    5.554991   4.440332   3.130042   2.477105   1.416209
     7  N    3.082062   2.505267   1.492824   2.513119   2.877564
     8  C    3.430881   3.429421   2.502357   3.701667   3.804847
     9  C    6.850679   7.128171   6.503510   7.421860   7.143423
    10  C    6.820630   6.846635   5.956438   6.679476   6.163029
    11  C    5.731412   5.660332   4.657855   5.403386   4.919253
    12  C    4.446267   4.597555   3.818228   4.889286   4.795100
    13  C    4.548737   5.053292   4.662739   5.890156   6.017850
    14  C    5.834763   6.341146   5.961448   7.090656   7.095006
    15  H    7.849216   8.152074   7.562187   8.444370   8.126654
    16  H    7.784854   7.689632   6.688230   7.231513   6.515955
    17  H    6.188967   6.870914   6.695449   7.899315   8.032635
    18  F    6.152448   5.799191   4.529451   4.947469   4.123884
    19  F    3.695327   4.550482   4.544969   5.957259   6.404484
    20  H    1.094206   2.198151   2.901101   4.361211   5.366011
    21  H    1.095857   2.183714   2.878604   4.277479   5.380583
    22  H    1.094632   2.172586   3.534280   4.737846   6.062938
    23  H    2.166179   1.099812   2.152478   2.806733   4.155538
    24  H    2.149297   1.094591   2.163207   2.731503   4.224576
    25  H    4.207193   2.724334   2.165832   1.099969   2.132884
    26  H    5.281808   4.246137   2.760783   2.169651   1.106440
    27  H    6.066946   4.725077   3.504695   2.163340   1.096848
    28  H    4.851219   3.911762   2.631947   2.499930   1.894010
    29  H    4.174193   4.012961   2.799243   3.729480   3.505277
    30  H    2.833633   3.271668   2.733506   4.170193   4.553599
    31  H    2.810398   2.160853   1.099934   2.152131   2.877779
    32  C    4.496794   3.137722   2.559880   1.537503   2.511472
    33  H    4.695820   3.569069   2.829385   2.184798   2.788152
    34  H    5.531866   4.108854   3.512118   2.177389   2.720337
    35  H    4.143837   2.834205   2.834903   2.203271   3.486455
    36  H    2.900074   2.475390   2.066578   3.067592   3.625176
                    6          7          8          9         10
     6  O    0.000000
     7  N    2.740563   0.000000
     8  C    3.663115   1.476770   0.000000
     9  C    6.185294   5.041936   4.334132   0.000000
    10  C    5.157564   4.497884   3.838826   1.396047   0.000000
    11  C    4.072236   3.249084   2.544118   2.391831   1.388886
    12  C    4.227020   2.458023   1.508632   2.825577   2.455005
    13  C    5.434283   3.377413   2.546041   2.390780   2.766404
    14  C    6.317749   4.595161   3.841203   1.395353   2.425650
    15  H    7.094923   6.091815   5.419019   1.084890   2.150572
    16  H    5.413492   5.257531   4.686897   2.174133   1.083724
    17  H    7.285903   5.405076   4.689752   2.173955   3.418752
    18  F    3.279252   3.312803   2.830059   3.622940   2.357998
    19  F    6.050720   3.565200   2.842040   3.623622   4.122714
    20  H    5.487388   2.815071   2.948566   5.869287   5.968067
    21  H    5.921800   3.477497   3.481078   7.160756   7.083275
    22  H    6.458019   4.069871   4.485729   7.605637   7.700801
    23  H    4.424608   2.744155   3.909834   7.104724   6.879684
    24  H    4.992260   3.440606   4.338261   8.200873   7.872578
    25  H    2.610250   2.847357   4.246789   7.547259   6.874590
    26  H    2.093585   3.057989   3.572183   7.111526   6.081569
    27  H    2.029794   3.944684   4.899266   8.103419   7.064772
    28  H    0.982362   1.875442   2.783977   5.363212   4.436173
    29  H    3.510881   2.088633   1.093898   4.808332   4.066767
    30  H    4.622638   2.152741   1.096891   4.807023   4.560714
    31  H    3.652266   2.092154   2.469240   6.769063   6.183249
    32  C    3.778653   3.865177   4.860719   8.848959   8.103039
    33  H    4.161854   4.120963   4.818239   8.981831   8.196104
    34  H    3.963553   4.673347   5.737030   9.548590   8.717444
    35  H    4.634671   4.265737   5.288033   9.307045   8.694718
    36  H    3.298058   1.017668   2.047910   4.826752   4.510914
                   11         12         13         14         15
    11  C    0.000000
    12  C    1.397213   0.000000
    13  C    2.361389   1.396168   0.000000
    14  C    2.768125   2.455708   1.389496   0.000000
    15  H    3.377822   3.910466   3.377137   2.149929   0.000000
    16  H    2.142794   3.422106   3.849745   3.418366   2.507324
    17  H    3.851464   3.422588   2.143727   1.083733   2.507300
    18  F    1.351590   2.352707   3.595847   4.119711   4.503481
    19  F    3.602680   2.359301   1.356350   2.358049   4.503186
    20  H    4.995672   3.662630   3.555546   4.793621   6.839089
    21  H    5.934441   4.635023   4.813287   6.148685   8.182938
    22  H    6.689587   5.387112   5.306598   6.501829   8.553647
    23  H    5.807666   4.831597   5.185577   6.349850   8.071650
    24  H    6.643087   5.609527   6.109653   7.416562   9.232988
    25  H    5.711581   5.235311   6.114510   7.222960   8.518494
    26  H    4.775153   4.657206   5.956758   7.072735   8.118430
    27  H    5.877260   5.857692   7.088448   8.127575   9.052893
    28  H    3.291553   3.295027   4.467635   5.391210   6.315818
    29  H    2.705681   2.133776   3.360003   4.541272   5.872681
    30  H    3.387491   2.133190   2.669530   4.042390   5.871406
    31  H    4.823679   3.959013   4.865176   6.217504   7.851096
    32  C    6.780995   6.201192   7.182579   8.451983   9.892223
    33  H    6.827498   6.243921   7.281418   8.588948  10.046203
    34  H    7.431213   7.000494   8.041019   9.257631  10.565052
    35  H    7.388293   6.646977   7.469947   8.767102  10.352260
    36  H    3.458261   2.574527   3.119298   4.250836   5.826591
                   16         17         18         19         20
    16  H    0.000000
    17  H    4.333717   0.000000
    18  F    2.585638   5.203024   0.000000
    19  F    5.206072   2.582246   4.709719   0.000000
    20  H    6.974863   5.104892   5.613023   2.643684   0.000000
    21  H    8.043184   6.525957   6.288800   3.947182   1.768859
    22  H    8.687785   6.711449   7.179670   4.302083   1.762772
    23  H    7.697731   6.835323   6.006929   4.741143   2.544768
    24  H    8.687063   7.936975   6.663738   5.558062   3.079872
    25  H    7.411957   7.981253   5.351960   6.179216   4.545733
    26  H    6.430244   8.039393   3.884406   6.359066   5.476831
    27  H    7.314272   9.073846   4.972167   7.489323   6.351712
    28  H    4.845417   6.343475   2.738095   5.072468   4.656667
    29  H    4.748205   5.462286   2.531705   3.792372   3.875874
    30  H    5.492273   4.710808   3.832331   2.463512   2.354813
    31  H    6.912746   6.966656   4.619661   4.712287   3.194899
    32  C    8.652897   9.229251   6.255764   7.097789   5.179175
    33  H    8.740945   9.389891   6.240536   7.196480   5.392345
    34  H    9.169622  10.070477   6.776217   8.049388   6.190383
    35  H    9.330458   9.449881   7.020955   7.195412   4.980336
    36  H    5.339359   4.942794   3.813869   3.182686   2.434584
                   21         22         23         24         25
    21  H    0.000000
    22  H    1.766651   0.000000
    23  H    3.084978   2.496043   0.000000
    24  H    2.517171   2.466768   1.750582   0.000000
    25  H    4.757746   4.826737   2.513585   2.926832   0.000000
    26  H    5.274650   6.257291   4.706350   4.519136   3.048135
    27  H    6.280288   6.890932   4.873852   4.834161   2.526373
    28  H    5.245207   5.783592   3.916252   4.632588   2.672286
    29  H    4.025065   5.264167   4.612993   4.760887   4.469228
    30  H    2.674085   3.858138   3.919689   4.123793   4.757221
    31  H    2.649322   3.806408   3.056628   2.521725   3.048731
    32  C    4.601835   5.116899   3.563994   2.724205   2.160454
    33  H    4.543650   5.397320   4.240521   3.154226   3.080361
    34  H    5.687757   6.103737   4.358837   3.672344   2.499651
    35  H    4.292419   4.559205   3.237474   2.096089   2.532054
    36  H    3.564286   3.733710   2.371233   3.529117   3.070491
                   26         27         28         29         30
    26  H    0.000000
    27  H    1.764993   0.000000
    28  H    2.362547   2.796890   0.000000
    29  H    2.986327   4.547045   2.815061   0.000000
    30  H    4.260306   5.634263   3.768927   1.766112   0.000000
    31  H    2.634283   3.785540   3.206064   2.453113   2.487537
    32  C    2.820952   2.620631   3.963761   4.749782   5.114127
    33  H    2.651509   2.953009   4.313478   4.515142   4.984842
    34  H    3.166670   2.367144   4.385574   5.560985   6.100238
    35  H    3.831121   3.645283   4.695181   5.341962   5.363178
    36  H    3.985192   4.624738   2.414221   2.925667   2.523895
                   31         32         33         34         35
    31  H    0.000000
    32  C    2.692011   0.000000
    33  H    2.511221   1.097063   0.000000
    34  H    3.713206   1.094858   1.768083   0.000000
    35  H    3.028368   1.092695   1.767573   1.761972   0.000000
    36  H    2.859301   4.433401   4.848232   5.220348   4.659813
                   36
    36  H    0.000000
 Stoichiometry    C13H19F2NO
 Framework group  C1[X(C13H19F2NO)]
 Deg. of freedom   102
 Full point group                 C1      NOp   1
 Largest Abelian subgroup         C1      NOp   1
 Largest concise Abelian subgroup C1      NOp   1
                         Standard orientation:                         
 ---------------------------------------------------------------------
 Center     Atomic      Atomic             Coordinates (Angstroms)
 Number     Number       Type             X           Y           Z
 ---------------------------------------------------------------------
      1          6           0        1.587047    3.067182    0.054735
      2          6           0        2.452107    1.912841   -0.465704
      3          6           0        2.119397    0.523082    0.114218
      4          6           0        3.133337   -0.561100   -0.350329
      5          6           0        2.663684   -1.988615   -0.002862
      6          8           0        1.558322   -2.425755   -0.772751
      7          7           0        0.718817    0.121932   -0.211321
      8          6           0       -0.247627    0.291688    0.892318
      9          6           0       -4.285222   -0.414534   -0.516147
     10          6           0       -3.477628   -1.496145   -0.159979
     11          6           0       -2.189150   -1.237958    0.289651
     12          6           0       -1.657345    0.048149    0.413409
     13          6           0       -2.508325    1.087670    0.033259
     14          6           0       -3.806299    0.892724   -0.422767
     15          1           0       -5.294909   -0.592313   -0.870990
     16          1           0       -3.826719   -2.519944   -0.226532
     17          1           0       -4.412979    1.748214   -0.695810
     18          9           0       -1.400296   -2.280050    0.633961
     19          9           0       -2.038947    2.357451    0.117083
     20          1           0        0.525616    2.930104   -0.172996
     21          1           0        1.684056    3.176958    1.140756
     22          1           0        1.898059    4.012596   -0.400986
     23          1           0        2.366625    1.852470   -1.560525
     24          1           0        3.502164    2.143895   -0.260463
     25          1           0        3.203731   -0.514910   -1.447071
     26          1           0        2.450834   -2.041326    1.081631
     27          1           0        3.485503   -2.689764   -0.192805
     28          1           0        0.923533   -1.681245   -0.684528
     29          1           0       -0.001137   -0.440275    1.666970
     30          1           0       -0.195463    1.286517    1.351409
     31          1           0        2.184377    0.576255    1.210943
     32          6           0        4.530265   -0.327129    0.247806
     33          1           0        4.501996   -0.381554    1.343153
     34          1           0        5.230280   -1.092583   -0.102584
     35          1           0        4.948263    0.644936   -0.024867
     36          1           0        0.395625    0.650758   -1.018501
 ---------------------------------------------------------------------
 Rotational constants (GHZ):      0.7073993      0.2929472      0.2177654
 Standard basis: 6-311G(d) (5D, 7F)
 There are   380 symmetry adapted cartesian basis functions of A   symmetry.
 There are   363 symmetry adapted basis functions of A   symmetry.
   363 basis functions,   639 primitive gaussians,   380 cartesian basis functions
    65 alpha electrons       65 beta electrons
       nuclear repulsion energy      1282.8811901849 Hartrees.
 NAtoms=   36 NActive=   36 NUniq=   36 SFac= 1.00D+00 NAtFMM=   60 NAOKFM=F Big=F
 Integral buffers will be    131072 words long.
 Raffenetti 2 integral format.
 Two-electron integral symmetry is turned on.
 ------------------------------------------------------------------------------
 Polarizable Continuum Model (PCM)
 =================================
 Model                : PCM (using non-symmetric T matrix).
 Atomic radii         : UFF (Universal Force Field).
 Polarization charges : Total charges.
 Charge compensation  : None.
 Solution method      : On-the-fly selection.
 Cavity type          : Scaled VdW (van der Waals Surface) (Alpha=1.100).
 Cavity algorithm     : GePol (No added spheres)
                        Default sphere list used, NSphG=   36.
                        Lebedev-Laikov grids with approx.  5.0 points / Ang**2.
                        Smoothing algorithm: Karplus/York (Gamma=1.0000).
                        Polarization charges: spherical gaussians, with
                                              point-specific exponents (IZeta= 3).
                        Self-potential: point-specific (ISelfS= 7).
                        Self-field    : sphere-specific E.n sum rule (ISelfD= 2).
 Solvent              : Chloroform, Eps=   4.711300 Eps(inf)=   2.090627
 ------------------------------------------------------------------------------
 One-electron integrals computed using PRISM.
 NBasis=   363 RedAO= T EigKep=  2.29D-04  NBF=   363
 NBsUse=   363 1.00D-06 EigRej= -1.00D+00 NBFU=   363
 ExpMin= 1.03D-01 ExpMax= 1.14D+04 ExpMxC= 1.72D+03 IAcc=1 IRadAn=         1 AccDes= 0.00D+00
 Harris functional with IExCor=  908 and IRadAn=       1 diagonalized for initial guess.
 HarFok:  IExCor=  908 AccDes= 0.00D+00 IRadAn=         1 IDoV= 1 UseB2=F ITyADJ=14
 ICtDFT=  3500011 ScaDFX=  1.000000  1.000000  1.000000  1.000000
 FoFCou: FMM=F IPFlag=           0 FMFlag=      100000 FMFlg1=           0
         NFxFlg=           0 DoJE=T BraDBF=F KetDBF=T FulRan=T
         wScrn=  0.000000 ICntrl=     500 IOpCl=  0 I1Cent=   200000004 NGrid=           0
         NMat0=    1 NMatS0=      1 NMatT0=    0 NMatD0=    1 NMtDS0=    0 NMtDT0=    0
 Petite list used in FoFCou.
 Requested convergence on RMS density matrix=1.00D-08 within 128 cycles.
 Requested convergence on MAX density matrix=1.00D-06.
 Requested convergence on             energy=1.00D-06.
 No special actions if energy rises.
 Inv3:  Mode=1 IEnd=    18600300.
 Iteration    1 A*A^-1 deviation from unit magnitude is 8.44D-15 for   1633.
 Iteration    1 A*A^-1 deviation from orthogonality  is 7.53D-15 for   1974   1924.
 Iteration    1 A^-1*A deviation from unit magnitude is 7.55D-15 for   1961.
 Iteration    1 A^-1*A deviation from orthogonality  is 2.45D-12 for   1990   1972.
 Error on total polarization charges =  0.00979
 SCF Done:  E(RmPW1PW91) =  -836.467571377     A.U. after   12 cycles
            NFock= 12  Conv=0.68D-08     -V/T= 2.0039
 DoSCS=F DFT=T ScalE2(SS,OS)=  1.000000  1.000000
 Range of M.O.s used for correlation:     1   363
 NBasis=   363 NAE=    65 NBE=    65 NFC=     0 NFV=     0
 NROrb=    363 NOA=    65 NOB=    65 NVA=   298 NVB=   298

 **** Warning!!: The largest alpha MO coefficient is  0.11267419D+02

 NEqPCM:  Using equilibrium solvation (IEInf=0, Eps=   4.7113, EpsInf=   2.0906)
          Differentiating once with respect to magnetic field using GIAOs.
          Electric field/nuclear overlap derivatives assumed to be zero.
 FoFJK:  IHMeth= 1 ICntrl=    6127 DoSepK=F KAlg= 0 I1Cent=   0 FoldK=F
 IRaf=         1 NMat=   1 IRICut=       1 DoRegI=T DoRafI=F ISym2E= 0.
          There are     3 degrees of freedom in the 1st order CPHF.  IDoFFX=0 NUNeed=     3.
      3 vectors produced by pass  0 Test12= 6.46D-13 3.33D-08 XBig12= 5.53D+01 2.42D+00.
 AX will form     3 AO Fock derivatives at one time.
      3 vectors produced by pass  1 Test12= 6.46D-13 3.33D-08 XBig12= 1.70D-01 2.42D-01.
      3 vectors produced by pass  2 Test12= 6.46D-13 3.33D-08 XBig12= 8.70D-04 1.02D-02.
      3 vectors produced by pass  3 Test12= 6.46D-13 3.33D-08 XBig12= 1.72D-06 2.74D-04.
      3 vectors produced by pass  4 Test12= 6.46D-13 3.33D-08 XBig12= 2.96D-09 1.38D-05.
      3 vectors produced by pass  5 Test12= 6.46D-13 3.33D-08 XBig12= 1.23D-11 5.88D-07.
 InvSVY:  IOpt=1 It=  1 EMax= 8.88D-16
 Solved reduced A of dimension    18 with     3 vectors.
 Calculating GIAO nuclear magnetic shielding tensors.
 SCF GIAO Magnetic shielding tensor (ppm):
      1  C    Isotropic =   175.6496   Anisotropy =    18.1832
   XX=   169.5598   YX=    -9.2723   ZX=    -5.3735
   XY=    -6.2795   YY=   181.7348   ZY=     2.4327
   XZ=    -6.5595   YZ=     2.9816   ZZ=   175.6542
   Eigenvalues:   164.0894   175.0877   187.7717
      2  C    Isotropic =   155.2222   Anisotropy =    27.4886
   XX=   147.5564   YX=     2.3055   ZX=    -6.0123
   XY=     6.8444   YY=   168.1418   ZY=    -6.6305
   XZ=    -7.0581   YZ=   -11.1613   ZZ=   149.9685
   Eigenvalues:   141.8709   150.2478   173.5480
      3  C    Isotropic =   117.9490   Anisotropy =    27.7150
   XX=   135.3689   YX=    -1.8211   ZX=     8.6496
   XY=    -7.4780   YY=   114.1437   ZY=     8.5142
   XZ=    -1.7987   YZ=     9.2423   ZZ=   104.3345
   Eigenvalues:    98.3291   119.0923   136.4257
      4  C    Isotropic =   142.8535   Anisotropy =    10.2532
   XX=   135.3470   YX=    -5.4276   ZX=    -2.7220
   XY=     4.9742   YY=   149.6822   ZY=    -2.8954
   XZ=    10.2548   YZ=     3.2686   ZZ=   143.5312
   Eigenvalues:   133.8726   144.9989   149.6889
      5  C    Isotropic =   115.7528   Anisotropy =    58.8927
   XX=   132.6414   YX=    20.7781   ZX=    25.9131
   XY=    23.1758   YY=   114.1643   ZY=     4.1026
   XZ=    19.9212   YZ=    -0.1831   ZZ=   100.4528
   Eigenvalues:    85.3134   106.9305   155.0146
      6  O    Isotropic =   290.1822   Anisotropy =    62.3289
   XX=   280.1189   YX=    -3.4656   ZX=     6.1826
   XY=   -13.6542   YY=   330.2070   ZY=     2.4698
   XZ=   -11.2679   YZ=    -8.8725   ZZ=   260.2207
   Eigenvalues:   259.6337   279.1780   331.7348
      7  N    Isotropic =   197.3862   Anisotropy =    70.2508
   XX=   231.9936   YX=    11.4052   ZX=    24.5520
   XY=    23.9805   YY=   151.0110   ZY=    -6.3370
   XZ=    13.5570   YZ=   -10.7012   ZZ=   209.1541
   Eigenvalues:   144.8655   203.0731   244.2201
      8  C    Isotropic =   143.9745   Anisotropy =    54.4548
   XX=   160.5464   YX=     4.4393   ZX=   -19.8490
   XY=     1.4266   YY=   118.4703   ZY=     4.3716
   XZ=   -26.5906   YZ=     5.8861   ZZ=   152.9069
   Eigenvalues:   116.4387   135.2072   180.2777
      9  C    Isotropic =    53.0060   Anisotropy =   189.7407
   XX=   -23.8446   YX=   -15.8431   ZX=   -73.0771
   XY=   -15.1069   YY=    29.6295   ZY=     3.4548
   XZ=   -71.5658   YZ=     3.5400   ZZ=   153.2330
   Eigenvalues:   -51.8408    31.3590   179.4998
     10  C    Isotropic =    71.8332   Anisotropy =   147.4767
   XX=    65.5903   YX=   -17.3317   ZX=   -37.3377
   XY=   -25.2108   YY=    -6.3992   ZY=     1.2542
   XZ=   -37.1254   YZ=     3.6767   ZZ=   156.3085
   Eigenvalues:   -12.5765    57.9251   170.1510
     11  C    Isotropic =    17.4762   Anisotropy =    99.5242
   XX=     7.9976   YX=    47.9905   ZX=   -31.7141
   XY=    39.1115   YY=   -28.1069   ZY=    20.4496
   XZ=   -26.4942   YZ=    19.3615   ZZ=    72.5379
   Eigenvalues:   -65.0748    33.6777    83.8257
     12  C    Isotropic =    67.5270   Anisotropy =   136.1076
   XX=    35.3050   YX=    -3.5550   ZX=   -48.2399
   XY=    -4.8535   YY=    27.2604   ZY=     6.8997
   XZ=   -45.1009   YZ=     6.6553   ZZ=   140.0155
   Eigenvalues:    17.2825    27.0331   158.2653
     13  C    Isotropic =    18.4930   Anisotropy =    96.2418
   XX=    30.5120   YX=   -36.1709   ZX=   -17.1985
   XY=   -27.9783   YY=   -51.4077   ZY=    -1.5063
   XZ=   -16.3827   YZ=     0.8261   ZZ=    76.3748
   Eigenvalues:   -62.7176    35.5424    82.6542
     14  C    Isotropic =    72.4304   Anisotropy =   146.2995
   XX=    51.7892   YX=    24.4841   ZX=   -44.7800
   XY=    32.1458   YY=    13.3784   ZY=    21.2292
   XZ=   -45.5490   YZ=    19.0322   ZZ=   152.1237
   Eigenvalues:   -11.6123    58.9402   169.9634
     15  H    Isotropic =    24.6099   Anisotropy =     3.1297
   XX=    25.6119   YX=     0.0387   ZX=     1.4828
   XY=     0.0313   YY=    26.6611   ZY=    -0.3702
   XZ=     1.5573   YZ=    -0.3686   ZZ=    21.5567
   Eigenvalues:    21.0270    26.1064    26.6964
     16  H    Isotropic =    25.1037   Anisotropy =     5.2230
   XX=    27.9368   YX=     0.6378   ZX=     2.0259
   XY=     0.2272   YY=    25.4644   ZY=    -0.2998
   XZ=     2.0054   YZ=    -0.2198   ZZ=    21.9099
   Eigenvalues:    21.2645    25.4609    28.5857
     17  H    Isotropic =    25.1327   Anisotropy =     5.1047
   XX=    27.8195   YX=     0.5249   ZX=     2.0202
   XY=     0.7400   YY=    25.6922   ZY=     0.0168
   XZ=     1.9031   YZ=    -0.0641   ZZ=    21.8863
   Eigenvalues:    21.2868    25.5754    28.5358
     18  F    Isotropic =   293.2818   Anisotropy =   128.3323
   XX=   248.3711   YX=   -30.4180   ZX=   -43.6560
   XY=   -43.1003   YY=   263.4549   ZY=    -9.9587
   XZ=   -30.4799   YZ=   -21.8812   ZZ=   368.0194
   Eigenvalues:   208.8493   292.1595   378.8366
     19  F    Isotropic =   300.8891   Anisotropy =   112.5188
   XX=   247.5342   YX=    13.8756   ZX=   -49.7614
   XY=    21.1017   YY=   299.1993   ZY=    12.2288
   XZ=   -44.4382   YZ=    28.8646   ZZ=   355.9337
   Eigenvalues:   222.5661   304.1994   375.9016
     20  H    Isotropic =    30.5077   Anisotropy =     8.7420
   XX=    36.2797   YX=     0.1501   ZX=     1.2055
   XY=    -0.6954   YY=    30.9499   ZY=     0.0154
   XZ=     0.1672   YZ=    -1.0050   ZZ=    24.2934
   Eigenvalues:    24.2202    30.9671    36.3357
     21  H    Isotropic =    31.0680   Anisotropy =     7.8726
   XX=    28.0212   YX=    -0.0932   ZX=    -0.3202
   XY=    -0.3267   YY=    31.1223   ZY=     3.8258
   XZ=     0.3347   YZ=     3.0173   ZZ=    34.0604
   Eigenvalues:    27.9834    28.9041    36.3164
     22  H    Isotropic =    30.9485   Anisotropy =    11.3072
   XX=    27.9481   YX=     0.4805   ZX=    -1.1362
   XY=     1.1245   YY=    37.6456   ZY=    -2.7286
   XZ=    -1.5781   YZ=    -2.9387   ZZ=    27.2518
   Eigenvalues:    25.8920    28.4669    38.4867
     23  H    Isotropic =    30.9212   Anisotropy =     5.9591
   XX=    28.0811   YX=    -0.8475   ZX=    -2.4031
   XY=    -1.0297   YY=    30.7361   ZY=    -1.2264
   XZ=    -2.2029   YZ=    -1.0587   ZZ=    33.9463
   Eigenvalues:    26.8662    31.0035    34.8939
     24  H    Isotropic =    30.1473   Anisotropy =     7.6026
   XX=    35.1117   YX=     0.5496   ZX=     0.5197
   XY=     0.5857   YY=    32.1182   ZY=    -0.2939
   XZ=    -0.4159   YZ=    -0.2663   ZZ=    23.2120
   Eigenvalues:    23.2028    32.0233    35.2157
     25  H    Isotropic =    30.6247   Anisotropy =     4.5135
   XX=    30.2106   YX=    -0.5902   ZX=    -1.7904
   XY=    -0.8130   YY=    29.0316   ZY=     0.5002
   XZ=    -1.2358   YZ=     1.3160   ZZ=    32.6320
   Eigenvalues:    28.6898    29.5507    33.6337
     26  H    Isotropic =    28.1725   Anisotropy =     3.9905
   XX=    28.2005   YX=     0.9538   ZX=     3.4072
   XY=     1.0643   YY=    27.5632   ZY=    -1.6994
   XZ=     0.7827   YZ=    -2.0856   ZZ=    28.7538
   Eigenvalues:    24.8335    28.8512    30.8328
     27  H    Isotropic =    28.5191   Anisotropy =     6.4595
   XX=    31.0560   YX=    -2.5302   ZX=     1.2959
   XY=    -0.8813   YY=    31.0589   ZY=     0.8934
   XZ=     2.6230   YZ=     1.0090   ZZ=    23.4423
   Eigenvalues:    22.7498    29.9820    32.8254
     28  H    Isotropic =    27.0034   Anisotropy =    24.2230
   XX=    31.2828   YX=    -9.5037   ZX=     0.2800
   XY=    -8.8189   YY=    35.1053   ZY=     4.9392
   XZ=    -0.1783   YZ=     5.6905   ZZ=    14.6221
   Eigenvalues:    12.9944    24.8638    43.1521
     29  H    Isotropic =    28.2833   Anisotropy =     5.4651
   XX=    28.0707   YX=     0.9361   ZX=    -1.8676
   XY=     0.6644   YY=    27.3053   ZY=    -2.4945
   XZ=     1.0223   YZ=    -3.8789   ZZ=    29.4739
   Eigenvalues:    24.9690    27.9542    31.9267
     30  H    Isotropic =    28.0293   Anisotropy =     4.9980
   XX=    28.9802   YX=    -0.7185   ZX=    -2.3611
   XY=     0.0870   YY=    29.2631   ZY=     1.7674
   XZ=    -0.6114   YZ=     3.9821   ZZ=    25.8446
   Eigenvalues:    23.9454    28.7812    31.3613
     31  H    Isotropic =    29.7223   Anisotropy =     4.1026
   XX=    32.1722   YX=    -0.1437   ZX=     1.9330
   XY=    -0.5568   YY=    27.9472   ZY=     0.6448
   XZ=    -0.0144   YZ=    -0.0160   ZZ=    29.0475
   Eigenvalues:    27.7756    28.9340    32.4574
     32  C    Isotropic =   171.1834   Anisotropy =    31.0917
   XX=   187.4992   YX=    -0.7523   ZX=     8.7450
   XY=    -0.4134   YY=   164.6432   ZY=     2.3508
   XZ=    14.3208   YZ=     6.9246   ZZ=   161.4078
   Eigenvalues:   154.9123   166.7267   191.9112
     33  H    Isotropic =    31.6338   Anisotropy =     8.1456
   XX=    31.8011   YX=    -0.2182   ZX=     3.8807
   XY=    -0.1198   YY=    28.1127   ZY=    -0.2206
   XZ=     2.7116   YZ=    -0.2340   ZZ=    34.9875
   Eigenvalues:    28.1035    29.7336    37.0642
     34  H    Isotropic =    31.3449   Anisotropy =    10.7588
   XX=    36.2586   YX=    -4.4711   ZX=    -1.4243
   XY=    -3.4232   YY=    30.5309   ZY=     1.6398
   XZ=    -0.7732   YZ=     1.3610   ZZ=    27.2453
   Eigenvalues:    26.6358    28.8816    38.5175
     35  H    Isotropic =    31.0776   Anisotropy =     8.3654
   XX=    34.4547   YX=     3.1849   ZX=    -0.0114
   XY=     2.2838   YY=    33.1177   ZY=    -2.0775
   XZ=     0.3086   YZ=    -0.7572   ZZ=    25.6605
   Eigenvalues:    25.3504    31.2279    36.6546
     36  H    Isotropic =    31.9766   Anisotropy =     7.0084
   XX=    35.3440   YX=    -1.1213   ZX=     2.6627
   XY=    -0.5401   YY=    27.8246   ZY=    -3.0227
   XZ=    -0.4905   YZ=    -5.5445   ZZ=    32.7612
   Eigenvalues:    25.3459    33.9351    36.6489
 End of Minotr F.D. properties file   721 does not exist.
 End of Minotr F.D. properties file   722 does not exist.
 End of Minotr F.D. properties file   788 does not exist.

 **********************************************************************

            Population analysis using the SCF density.

 **********************************************************************

 Orbital symmetries:
       Occupied  (A) (A) (A) (A) (A) (A) (A) (A) (A) (A) (A) (A)
                 (A) (A) (A) (A) (A) (A) (A) (A) (A) (A) (A) (A)
                 (A) (A) (A) (A) (A) (A) (A) (A) (A) (A) (A) (A)
                 (A) (A) (A) (A) (A) (A) (A) (A) (A) (A) (A) (A)
                 (A) (A) (A) (A) (A) (A) (A) (A) (A) (A) (A) (A)
                 (A) (A) (A) (A) (A)
       Virtual   (A) (A) (A) (A) (A) (A) (A) (A) (A) (A) (A) (A)
                 (A) (A) (A) (A) (A) (A) (A) (A) (A) (A) (A) (A)
                 (A) (A) (A) (A) (A) (A) (A) (A) (A) (A) (A) (A)
                 (A) (A) (A) (A) (A) (A) (A) (A) (A) (A) (A) (A)
                 (A) (A) (A) (A) (A) (A) (A) (A) (A) (A) (A) (A)
                 (A) (A) (A) (A) (A) (A) (A) (A) (A) (A) (A) (A)
                 (A) (A) (A) (A) (A) (A) (A) (A) (A) (A) (A) (A)
                 (A) (A) (A) (A) (A) (A) (A) (A) (A) (A) (A) (A)
                 (A) (A) (A) (A) (A) (A) (A) (A) (A) (A) (A) (A)
                 (A) (A) (A) (A) (A) (A) (A) (A) (A) (A) (A) (A)
                 (A) (A) (A) (A) (A) (A) (A) (A) (A) (A) (A) (A)
                 (A) (A) (A) (A) (A) (A) (A) (A) (A) (A) (A) (A)
                 (A) (A) (A) (A) (A) (A) (A) (A) (A) (A) (A) (A)
                 (A) (A) (A) (A) (A) (A) (A) (A) (A) (A) (A) (A)
                 (A) (A) (A) (A) (A) (A) (A) (A) (A) (A) (A) (A)
                 (A) (A) (A) (A) (A) (A) (A) (A) (A) (A) (A) (A)
                 (A) (A) (A) (A) (A) (A) (A) (A) (A) (A) (A) (A)
                 (A) (A) (A) (A) (A) (A) (A) (A) (A) (A) (A) (A)
                 (A) (A) (A) (A) (A) (A) (A) (A) (A) (A) (A) (A)
                 (A) (A) (A) (A) (A) (A) (A) (A) (A) (A) (A) (A)
                 (A) (A) (A) (A) (A) (A) (A) (A) (A) (A) (A) (A)
                 (A) (A) (A) (A) (A) (A) (A) (A) (A) (A) (A) (A)
                 (A) (A) (A) (A) (A) (A) (A) (A) (A) (A) (A) (A)
                 (A) (A) (A) (A) (A) (A) (A) (A) (A) (A) (A) (A)
                 (A) (A) (A) (A) (A) (A) (A) (A) (A) (A)
 The electronic state is 1-A.
 Alpha  occ. eigenvalues --  -24.80345 -24.79983 -19.17676 -14.39628 -10.34140
 Alpha  occ. eigenvalues --  -10.34006 -10.27720 -10.26956 -10.26922 -10.26416
 Alpha  occ. eigenvalues --  -10.26224 -10.25583 -10.25510 -10.23451 -10.23320
 Alpha  occ. eigenvalues --  -10.22207 -10.22103  -1.27185  -1.26947  -1.02511
 Alpha  occ. eigenvalues --   -0.94840  -0.90900  -0.83452  -0.80431  -0.79024
 Alpha  occ. eigenvalues --   -0.78376  -0.72305  -0.68443  -0.68008  -0.66092
 Alpha  occ. eigenvalues --   -0.64256  -0.62076  -0.59371  -0.58588  -0.55960
 Alpha  occ. eigenvalues --   -0.52450  -0.51814  -0.51624  -0.50809  -0.49233
 Alpha  occ. eigenvalues --   -0.49070  -0.48817  -0.47214  -0.46741  -0.44782
 Alpha  occ. eigenvalues --   -0.44437  -0.43585  -0.43008  -0.42266  -0.41674
 Alpha  occ. eigenvalues --   -0.40101  -0.39596  -0.39517  -0.39266  -0.38226
 Alpha  occ. eigenvalues --   -0.37857  -0.36542  -0.35277  -0.34953  -0.33512
 Alpha  occ. eigenvalues --   -0.33112  -0.27996  -0.27216  -0.26373  -0.24902
 Alpha virt. eigenvalues --   -0.02666  -0.01117   0.05027   0.05940   0.06356
 Alpha virt. eigenvalues --    0.07126   0.07878   0.09981   0.10346   0.10775
 Alpha virt. eigenvalues --    0.10856   0.11679   0.12162   0.12953   0.13203
 Alpha virt. eigenvalues --    0.13755   0.14677   0.14979   0.15069   0.15605
 Alpha virt. eigenvalues --    0.17039   0.17349   0.18547   0.19082   0.20958
 Alpha virt. eigenvalues --    0.20986   0.23254   0.23476   0.23972   0.24631
 Alpha virt. eigenvalues --    0.25089   0.25492   0.26336   0.27440   0.29480
 Alpha virt. eigenvalues --    0.31375   0.32773   0.33358   0.34304   0.34843
 Alpha virt. eigenvalues --    0.36199   0.37596   0.38093   0.39190   0.39552
 Alpha virt. eigenvalues --    0.39633   0.40143   0.41152   0.41489   0.42568
 Alpha virt. eigenvalues --    0.43149   0.44260   0.44785   0.45572   0.46368
 Alpha virt. eigenvalues --    0.46688   0.47988   0.49341   0.50265   0.51339
 Alpha virt. eigenvalues --    0.53385   0.53470   0.54644   0.55244   0.56018
 Alpha virt. eigenvalues --    0.57562   0.57834   0.58204   0.58771   0.59192
 Alpha virt. eigenvalues --    0.59950   0.60165   0.60616   0.61589   0.62040
 Alpha virt. eigenvalues --    0.62296   0.62942   0.63244   0.63759   0.64281
 Alpha virt. eigenvalues --    0.64570   0.64887   0.65613   0.65867   0.66721
 Alpha virt. eigenvalues --    0.67666   0.68785   0.69340   0.70927   0.71372
 Alpha virt. eigenvalues --    0.72178   0.73408   0.73944   0.74725   0.76697
 Alpha virt. eigenvalues --    0.78518   0.78941   0.80409   0.82192   0.83812
 Alpha virt. eigenvalues --    0.86433   0.89261   0.92432   0.93914   0.95149
 Alpha virt. eigenvalues --    0.96194   0.96928   0.98636   0.99539   1.00776
 Alpha virt. eigenvalues --    1.01625   1.03250   1.05018   1.07197   1.08481
 Alpha virt. eigenvalues --    1.09153   1.10699   1.11517   1.12394   1.15120
 Alpha virt. eigenvalues --    1.16614   1.18133   1.19169   1.20893   1.25702
 Alpha virt. eigenvalues --    1.26754   1.27702   1.29765   1.30875   1.31722
 Alpha virt. eigenvalues --    1.34910   1.37283   1.38724   1.40597   1.42498
 Alpha virt. eigenvalues --    1.43543   1.44376   1.46948   1.48193   1.48699
 Alpha virt. eigenvalues --    1.50532   1.51908   1.53138   1.54435   1.55074
 Alpha virt. eigenvalues --    1.55972   1.57091   1.57817   1.58703   1.60336
 Alpha virt. eigenvalues --    1.62089   1.62964   1.64577   1.65612   1.66856
 Alpha virt. eigenvalues --    1.67529   1.68238   1.70343   1.71901   1.72787
 Alpha virt. eigenvalues --    1.73637   1.75058   1.78195   1.80342   1.81602
 Alpha virt. eigenvalues --    1.83040   1.84517   1.84769   1.88074   1.89240
 Alpha virt. eigenvalues --    1.89637   1.90845   1.91019   1.92506   1.95515
 Alpha virt. eigenvalues --    1.96929   1.98038   1.98929   2.02236   2.03932
 Alpha virt. eigenvalues --    2.08816   2.10012   2.13706   2.17024   2.21403
 Alpha virt. eigenvalues --    2.21593   2.24298   2.25862   2.27230   2.29120
 Alpha virt. eigenvalues --    2.30206   2.31918   2.34303   2.37866   2.41362
 Alpha virt. eigenvalues --    2.42015   2.42635   2.44337   2.44845   2.46618
 Alpha virt. eigenvalues --    2.48632   2.50950   2.52438   2.53361   2.53732
 Alpha virt. eigenvalues --    2.55706   2.56805   2.58668   2.60096   2.63557
 Alpha virt. eigenvalues --    2.65505   2.66875   2.69336   2.70468   2.73266
 Alpha virt. eigenvalues --    2.75908   2.83709   2.85435   2.86311   2.90998
 Alpha virt. eigenvalues --    2.91979   2.93824   2.96601   2.99017   2.99537
 Alpha virt. eigenvalues --    3.05697   3.06001   3.08374   3.09579   3.11568
 Alpha virt. eigenvalues --    3.12807   3.15780   3.16961   3.21511   3.21777
 Alpha virt. eigenvalues --    3.23419   3.25150   3.26713   3.27168   3.28645
 Alpha virt. eigenvalues --    3.28945   3.29468   3.32791   3.35380   3.38565
 Alpha virt. eigenvalues --    3.46716   3.47756   3.51727   3.57603   3.63741
 Alpha virt. eigenvalues --    3.75084   3.78287   3.79914   3.80259   3.80843
 Alpha virt. eigenvalues --    3.86368   3.89559   3.95639   3.97060   3.98632
 Alpha virt. eigenvalues --    3.99545   4.07876   4.08972   4.10776   4.11823
 Alpha virt. eigenvalues --    4.17628   4.26102   4.47462   4.75064   4.76865
 Alpha virt. eigenvalues --    4.77338   4.78306   4.95280   5.08685   5.48294
 Alpha virt. eigenvalues --    6.13927   6.14947   6.31482   6.33161   6.56459
 Alpha virt. eigenvalues --    6.58006  23.28942  23.47016  23.59211  23.69226
 Alpha virt. eigenvalues --   23.71192  23.75893  23.81422  23.83128  23.85844
 Alpha virt. eigenvalues --   23.90605  24.09821  24.10347  24.19453  35.56867
 Alpha virt. eigenvalues --   50.01083  66.89187  66.89924
          Condensed to atoms (all electrons):
               1          2          3          4          5          6
     1  C    5.373384   0.305296  -0.070550   0.007191  -0.000205   0.000002
     2  C    0.305296   5.331813   0.330670  -0.083200   0.006456  -0.000098
     3  C   -0.070550   0.330670   5.310615   0.322788  -0.065966  -0.005503
     4  C    0.007191  -0.083200   0.322788   5.388796   0.338406  -0.042778
     5  C   -0.000205   0.006456  -0.065966   0.338406   5.083031   0.258408
     6  O    0.000002  -0.000098  -0.005503  -0.042778   0.258408   8.221227
     7  N   -0.001658  -0.046330   0.218030  -0.057207   0.002874  -0.038129
     8  C    0.000005  -0.001574  -0.066473   0.005390   0.000013   0.003197
     9  C    0.000001   0.000000  -0.000002   0.000000   0.000000  -0.000001
    10  C    0.000000  -0.000001   0.000014  -0.000001   0.000007   0.000019
    11  C   -0.000013   0.000005  -0.000285  -0.000123   0.000391   0.000866
    12  C   -0.000203  -0.000231   0.008935   0.000166  -0.000522  -0.000670
    13  C    0.000362  -0.000034  -0.000419   0.000042  -0.000019   0.000002
    14  C   -0.000015   0.000001   0.000017   0.000000   0.000000   0.000000
    15  H    0.000000   0.000000   0.000000   0.000000   0.000000   0.000000
    16  H    0.000000   0.000000   0.000000   0.000000   0.000000   0.000005
    17  H    0.000001   0.000000   0.000000   0.000000   0.000000   0.000000
    18  F    0.000000  -0.000001  -0.000056   0.000001  -0.000146  -0.000269
    19  F   -0.002984   0.000078  -0.000074   0.000000   0.000000   0.000000
    20  H    0.372869  -0.035909  -0.009426   0.000177  -0.000007   0.000006
    21  H    0.386855  -0.043071  -0.003045  -0.000139  -0.000012   0.000000
    22  H    0.393559  -0.035762   0.007449  -0.000281   0.000009   0.000000
    23  H   -0.044295   0.390753  -0.040649  -0.007445  -0.000274  -0.000203
    24  H   -0.035842   0.389782  -0.045077  -0.001760   0.000215   0.000028
    25  H   -0.000254  -0.001281  -0.063050   0.386261  -0.053762   0.010932
    26  H   -0.000038   0.000503  -0.012858  -0.055795   0.362781  -0.037565
    27  H    0.000013  -0.000406   0.008483  -0.038862   0.395431  -0.030084
    28  H   -0.000017   0.000927  -0.000791  -0.006343  -0.065620   0.259845
    29  H    0.000374  -0.000603  -0.005106   0.000997   0.000081   0.001671
    30  H   -0.000784   0.001895   0.002894  -0.001254   0.000183  -0.000188
    31  H   -0.005814  -0.039485   0.398040  -0.048525  -0.005340  -0.000623
    32  C   -0.000127  -0.003028  -0.083911   0.290152  -0.072817   0.005274
    33  H   -0.000114   0.000798  -0.008666  -0.037632  -0.005517  -0.000020
    34  H    0.000021  -0.000267   0.008486  -0.038462  -0.004694   0.000012
    35  H    0.000187  -0.000018  -0.003873  -0.028462   0.005919  -0.000230
    36  H    0.000656  -0.005087  -0.059074   0.002081   0.000106   0.001981
               7          8          9         10         11         12
     1  C   -0.001658   0.000005   0.000001   0.000000  -0.000013  -0.000203
     2  C   -0.046330  -0.001574   0.000000  -0.000001   0.000005  -0.000231
     3  C    0.218030  -0.066473  -0.000002   0.000014  -0.000285   0.008935
     4  C   -0.057207   0.005390   0.000000  -0.000001  -0.000123   0.000166
     5  C    0.002874   0.000013   0.000000   0.000007   0.000391  -0.000522
     6  O   -0.038129   0.003197  -0.000001   0.000019   0.000866  -0.000670
     7  N    7.093327   0.246071   0.000051  -0.000087   0.009907  -0.066593
     8  C    0.246071   5.271403  -0.001281   0.009085  -0.078977   0.306984
     9  C    0.000051  -0.001281   5.067101   0.432821  -0.004415  -0.054994
    10  C   -0.000087   0.009085   0.432821   5.183322   0.470199  -0.032877
    11  C    0.009907  -0.078977  -0.004415   0.470199   4.762293   0.247141
    12  C   -0.066593   0.306984  -0.054994  -0.032877   0.247141   5.772913
    13  C   -0.002930  -0.087820  -0.005708  -0.065177   0.051113   0.255928
    14  C   -0.000177   0.007797   0.442087  -0.041538  -0.057178  -0.034889
    15  H    0.000000   0.000025   0.403328  -0.041047   0.006464  -0.001880
    16  H    0.000010  -0.000225  -0.040571   0.393956  -0.049431   0.012277
    17  H    0.000009  -0.000242  -0.039687   0.006788  -0.001649   0.011952
    18  F   -0.000820  -0.000733   0.005439  -0.054957   0.309644  -0.079011
    19  F   -0.000412  -0.003655   0.005116  -0.000398   0.004964  -0.076202
    20  H    0.009740  -0.001850  -0.000025   0.000011  -0.000168  -0.002006
    21  H   -0.000673  -0.000104   0.000000   0.000000   0.000003   0.000188
    22  H   -0.000231   0.000210   0.000000   0.000000   0.000001  -0.000003
    23  H   -0.007065  -0.000301   0.000000   0.000000   0.000005   0.000119
    24  H    0.006618  -0.000354   0.000000   0.000000  -0.000002   0.000017
    25  H    0.001886  -0.000623   0.000000  -0.000001  -0.000010   0.000131
    26  H    0.001158  -0.000704   0.000000  -0.000009  -0.000249   0.000491
    27  H   -0.000326   0.000065   0.000000   0.000000   0.000009  -0.000018
    28  H    0.057795  -0.003619  -0.000024  -0.000031   0.001256  -0.004827
    29  H   -0.042410   0.393736  -0.000164   0.000643  -0.016026  -0.030634
    30  H   -0.046130   0.392300  -0.000166   0.000031   0.009931  -0.042245
    31  H   -0.042860  -0.009597   0.000000  -0.000001   0.000083   0.001092
    32  C    0.005163  -0.000233   0.000000   0.000000   0.000000   0.000007
    33  H   -0.000012  -0.000035   0.000000   0.000000   0.000000   0.000002
    34  H   -0.000204   0.000015   0.000000   0.000000   0.000000   0.000000
    35  H   -0.000113  -0.000011   0.000000   0.000000   0.000000   0.000000
    36  H    0.334567  -0.047679   0.000017  -0.000110   0.000490  -0.006320
              13         14         15         16         17         18
     1  C    0.000362  -0.000015   0.000000   0.000000   0.000001   0.000000
     2  C   -0.000034   0.000001   0.000000   0.000000   0.000000  -0.000001
     3  C   -0.000419   0.000017   0.000000   0.000000   0.000000  -0.000056
     4  C    0.000042   0.000000   0.000000   0.000000   0.000000   0.000001
     5  C   -0.000019   0.000000   0.000000   0.000000   0.000000  -0.000146
     6  O    0.000002   0.000000   0.000000   0.000005   0.000000  -0.000269
     7  N   -0.002930  -0.000177   0.000000   0.000010   0.000009  -0.000820
     8  C   -0.087820   0.007797   0.000025  -0.000225  -0.000242  -0.000733
     9  C   -0.005708   0.442087   0.403328  -0.040571  -0.039687   0.005439
    10  C   -0.065177  -0.041538  -0.041047   0.393956   0.006788  -0.054957
    11  C    0.051113  -0.057178   0.006464  -0.049431  -0.001649   0.309644
    12  C    0.255928  -0.034889  -0.001880   0.012277   0.011952  -0.079011
    13  C    4.806015   0.478011   0.006450  -0.001725  -0.049406   0.005672
    14  C    0.478011   5.157529  -0.040909   0.006827   0.393561  -0.000523
    15  H    0.006450  -0.040909   0.444194  -0.006406  -0.006378  -0.000078
    16  H   -0.001725   0.006827  -0.006406   0.442822  -0.000130   0.001453
    17  H   -0.049406   0.393561  -0.006378  -0.000130   0.443320   0.000004
    18  F    0.005672  -0.000523  -0.000078   0.001453   0.000004   9.039126
    19  F    0.300180  -0.050585  -0.000083   0.000005   0.001500  -0.000001
    20  H    0.000305   0.000320   0.000001   0.000000   0.000005   0.000001
    21  H   -0.000041  -0.000004   0.000000   0.000000   0.000000   0.000000
    22  H   -0.000009  -0.000001   0.000000   0.000000   0.000000   0.000000
    23  H   -0.000047   0.000000   0.000000   0.000000   0.000000   0.000000
    24  H    0.000011   0.000000   0.000000   0.000000   0.000000   0.000000
    25  H    0.000003   0.000000   0.000000   0.000000   0.000000  -0.000001
    26  H    0.000014   0.000000   0.000000  -0.000001   0.000000   0.000242
    27  H    0.000000   0.000000   0.000000   0.000000   0.000000  -0.000007
    28  H   -0.000398   0.000025   0.000001   0.000001   0.000000   0.007369
    29  H    0.008393   0.000062   0.000002  -0.000028   0.000008   0.007378
    30  H   -0.021307   0.000315   0.000002   0.000012  -0.000039   0.000121
    31  H   -0.000177  -0.000001   0.000000   0.000000   0.000000  -0.000042
    32  C    0.000000   0.000000   0.000000   0.000000   0.000000   0.000000
    33  H    0.000000   0.000000   0.000000   0.000000   0.000000   0.000000
    34  H    0.000000   0.000000   0.000000   0.000000   0.000000   0.000000
    35  H    0.000000   0.000000   0.000000   0.000000   0.000000   0.000000
    36  H    0.003880  -0.000282  -0.000001   0.000002   0.000004  -0.000175
              19         20         21         22         23         24
     1  C   -0.002984   0.372869   0.386855   0.393559  -0.044295  -0.035842
     2  C    0.000078  -0.035909  -0.043071  -0.035762   0.390753   0.389782
     3  C   -0.000074  -0.009426  -0.003045   0.007449  -0.040649  -0.045077
     4  C    0.000000   0.000177  -0.000139  -0.000281  -0.007445  -0.001760
     5  C    0.000000  -0.000007  -0.000012   0.000009  -0.000274   0.000215
     6  O    0.000000   0.000006   0.000000   0.000000  -0.000203   0.000028
     7  N   -0.000412   0.009740  -0.000673  -0.000231  -0.007065   0.006618
     8  C   -0.003655  -0.001850  -0.000104   0.000210  -0.000301  -0.000354
     9  C    0.005116  -0.000025   0.000000   0.000000   0.000000   0.000000
    10  C   -0.000398   0.000011   0.000000   0.000000   0.000000   0.000000
    11  C    0.004964  -0.000168   0.000003   0.000001   0.000005  -0.000002
    12  C   -0.076202  -0.002006   0.000188  -0.000003   0.000119   0.000017
    13  C    0.300180   0.000305  -0.000041  -0.000009  -0.000047   0.000011
    14  C   -0.050585   0.000320  -0.000004  -0.000001   0.000000   0.000000
    15  H   -0.000083   0.000001   0.000000   0.000000   0.000000   0.000000
    16  H    0.000005   0.000000   0.000000   0.000000   0.000000   0.000000
    17  H    0.001500   0.000005   0.000000   0.000000   0.000000   0.000000
    18  F   -0.000001   0.000001   0.000000   0.000000   0.000000   0.000000
    19  F    9.046907   0.012733  -0.000195  -0.000052  -0.000021  -0.000002
    20  H    0.012733   0.480953  -0.029740  -0.027271  -0.006076   0.007537
    21  H   -0.000195  -0.029740   0.484152  -0.026846   0.007444  -0.005425
    22  H   -0.000052  -0.027271  -0.026846   0.465970  -0.004401  -0.005075
    23  H   -0.000021  -0.006076   0.007444  -0.004401   0.501820  -0.031686
    24  H   -0.000002   0.007537  -0.005425  -0.005075  -0.031686   0.487912
    25  H    0.000000  -0.000045   0.000015  -0.000011   0.004644  -0.001071
    26  H    0.000000  -0.000005  -0.000010   0.000000  -0.000059  -0.000022
    27  H    0.000000   0.000001   0.000000   0.000000   0.000000   0.000017
    28  H   -0.000003  -0.000117  -0.000001   0.000003   0.000147  -0.000159
    29  H    0.000213   0.000739  -0.000071  -0.000017  -0.000077   0.000156
    30  H    0.008563  -0.007589   0.000835   0.000378   0.000256  -0.000580
    31  H   -0.000013  -0.001032   0.004955  -0.000102   0.008193  -0.005691
    32  C    0.000000  -0.000049   0.000046   0.000008   0.000246  -0.001037
    33  H    0.000000   0.000005  -0.000016   0.000002   0.000008   0.000083
    34  H    0.000000   0.000003  -0.000005  -0.000002  -0.000115   0.000403
    35  H    0.000000  -0.000021   0.000082   0.000015   0.000583   0.003175
    36  H    0.000895   0.003662   0.000103  -0.000208   0.003339   0.000796
              25         26         27         28         29         30
     1  C   -0.000254  -0.000038   0.000013  -0.000017   0.000374  -0.000784
     2  C   -0.001281   0.000503  -0.000406   0.000927  -0.000603   0.001895
     3  C   -0.063050  -0.012858   0.008483  -0.000791  -0.005106   0.002894
     4  C    0.386261  -0.055795  -0.038862  -0.006343   0.000997  -0.001254
     5  C   -0.053762   0.362781   0.395431  -0.065620   0.000081   0.000183
     6  O    0.010932  -0.037565  -0.030084   0.259845   0.001671  -0.000188
     7  N    0.001886   0.001158  -0.000326   0.057795  -0.042410  -0.046130
     8  C   -0.000623  -0.000704   0.000065  -0.003619   0.393736   0.392300
     9  C    0.000000   0.000000   0.000000  -0.000024  -0.000164  -0.000166
    10  C   -0.000001  -0.000009   0.000000  -0.000031   0.000643   0.000031
    11  C   -0.000010  -0.000249   0.000009   0.001256  -0.016026   0.009931
    12  C    0.000131   0.000491  -0.000018  -0.004827  -0.030634  -0.042245
    13  C    0.000003   0.000014   0.000000  -0.000398   0.008393  -0.021307
    14  C    0.000000   0.000000   0.000000   0.000025   0.000062   0.000315
    15  H    0.000000   0.000000   0.000000   0.000001   0.000002   0.000002
    16  H    0.000000  -0.000001   0.000000   0.000001  -0.000028   0.000012
    17  H    0.000000   0.000000   0.000000   0.000000   0.000008  -0.000039
    18  F   -0.000001   0.000242  -0.000007   0.007369   0.007378   0.000121
    19  F    0.000000   0.000000   0.000000  -0.000003   0.000213   0.008563
    20  H   -0.000045  -0.000005   0.000001  -0.000117   0.000739  -0.007589
    21  H    0.000015  -0.000010   0.000000  -0.000001  -0.000071   0.000835
    22  H   -0.000011   0.000000   0.000000   0.000003  -0.000017   0.000378
    23  H    0.004644  -0.000059   0.000000   0.000147  -0.000077   0.000256
    24  H   -0.001071  -0.000022   0.000017  -0.000159   0.000156  -0.000580
    25  H    0.527131   0.012640  -0.010483   0.001644  -0.000138   0.000035
    26  H    0.012640   0.582700  -0.049307   0.001042  -0.000508   0.000023
    27  H   -0.010483  -0.049307   0.508715   0.005205   0.000086  -0.000006
    28  H    0.001644   0.001042   0.005205   0.339987  -0.003967   0.001534
    29  H   -0.000138  -0.000508   0.000086  -0.003967   0.459488  -0.041848
    30  H    0.000035   0.000023  -0.000006   0.001534  -0.041848   0.495191
    31  H    0.008182   0.004126  -0.000539   0.000962  -0.000733   0.002904
    32  C   -0.033411   0.002377  -0.004933  -0.000602  -0.000084   0.000051
    33  H    0.008149   0.005659  -0.001351   0.000048  -0.000046  -0.000001
    34  H   -0.005831  -0.001020   0.006412  -0.000121   0.000013  -0.000004
    35  H   -0.006591  -0.000835   0.000192   0.000071  -0.000002   0.000006
    36  H    0.000815   0.000040   0.000027  -0.003185   0.006866  -0.003509
              31         32         33         34         35         36
     1  C   -0.005814  -0.000127  -0.000114   0.000021   0.000187   0.000656
     2  C   -0.039485  -0.003028   0.000798  -0.000267  -0.000018  -0.005087
     3  C    0.398040  -0.083911  -0.008666   0.008486  -0.003873  -0.059074
     4  C   -0.048525   0.290152  -0.037632  -0.038462  -0.028462   0.002081
     5  C   -0.005340  -0.072817  -0.005517  -0.004694   0.005919   0.000106
     6  O   -0.000623   0.005274  -0.000020   0.000012  -0.000230   0.001981
     7  N   -0.042860   0.005163  -0.000012  -0.000204  -0.000113   0.334567
     8  C   -0.009597  -0.000233  -0.000035   0.000015  -0.000011  -0.047679
     9  C    0.000000   0.000000   0.000000   0.000000   0.000000   0.000017
    10  C   -0.000001   0.000000   0.000000   0.000000   0.000000  -0.000110
    11  C    0.000083   0.000000   0.000000   0.000000   0.000000   0.000490
    12  C    0.001092   0.000007   0.000002   0.000000   0.000000  -0.006320
    13  C   -0.000177   0.000000   0.000000   0.000000   0.000000   0.003880
    14  C   -0.000001   0.000000   0.000000   0.000000   0.000000  -0.000282
    15  H    0.000000   0.000000   0.000000   0.000000   0.000000  -0.000001
    16  H    0.000000   0.000000   0.000000   0.000000   0.000000   0.000002
    17  H    0.000000   0.000000   0.000000   0.000000   0.000000   0.000004
    18  F   -0.000042   0.000000   0.000000   0.000000   0.000000  -0.000175
    19  F   -0.000013   0.000000   0.000000   0.000000   0.000000   0.000895
    20  H   -0.001032  -0.000049   0.000005   0.000003  -0.000021   0.003662
    21  H    0.004955   0.000046  -0.000016  -0.000005   0.000082   0.000103
    22  H   -0.000102   0.000008   0.000002  -0.000002   0.000015  -0.000208
    23  H    0.008193   0.000246   0.000008  -0.000115   0.000583   0.003339
    24  H   -0.005691  -0.001037   0.000083   0.000403   0.003175   0.000796
    25  H    0.008182  -0.033411   0.008149  -0.005831  -0.006591   0.000815
    26  H    0.004126   0.002377   0.005659  -0.001020  -0.000835   0.000040
    27  H   -0.000539  -0.004933  -0.001351   0.006412   0.000192   0.000027
    28  H    0.000962  -0.000602   0.000048  -0.000121   0.000071  -0.003185
    29  H   -0.000733  -0.000084  -0.000046   0.000013  -0.000002   0.006866
    30  H    0.002904   0.000051  -0.000001  -0.000004   0.000006  -0.003509
    31  H    0.496961  -0.003988   0.005753  -0.000324  -0.000100   0.006542
    32  C   -0.003988   5.419169   0.380032   0.390003   0.381356  -0.000099
    33  H    0.005753   0.380032   0.485726  -0.027634  -0.028284   0.000002
    34  H   -0.000324   0.390003  -0.027634   0.465250  -0.025168   0.000028
    35  H   -0.000100   0.381356  -0.028284  -0.025168   0.466671  -0.000038
    36  H    0.006542  -0.000099   0.000002   0.000028  -0.000038   0.407093
 Mulliken charges:
               1
     1  C   -0.677863
     2  C   -0.462591
     3  C   -0.071569
     4  C   -0.294178
     5  C   -0.179409
     6  O   -0.607111
     7  N   -0.632837
     8  C   -0.330204
     9  C   -0.208924
    10  C   -0.260663
    11  C    0.333762
    12  C   -0.184215
    13  C    0.318838
    14  C   -0.260449
    15  H    0.236317
    16  H    0.241146
    17  H    0.240381
    18  F   -0.239629
    19  F   -0.246472
    20  H    0.232267
    21  H    0.224720
    22  H    0.232667
    23  H    0.225158
    24  H    0.237032
    25  H    0.214097
    26  H    0.185186
    27  H    0.211666
    28  H    0.411963
    29  H    0.261554
    30  H    0.248190
    31  H    0.227195
    32  C   -0.669565
    33  H    0.223064
    34  H    0.233206
    35  H    0.235492
    36  H    0.351777
 Sum of Mulliken charges =   0.00000
 Mulliken charges with hydrogens summed into heavy atoms:
               1
     1  C    0.011792
     2  C   -0.000400
     3  C    0.155626
     4  C   -0.080081
     5  C    0.217444
     6  O   -0.195149
     7  N   -0.281060
     8  C    0.179540
     9  C    0.027394
    10  C   -0.019516
    11  C    0.333762
    12  C   -0.184215
    13  C    0.318838
    14  C   -0.020068
    18  F   -0.239629
    19  F   -0.246472
    32  C    0.022197
 Electronic spatial extent (au):  <R**2>=           4947.2993
 Charge=              0.0000 electrons
 Dipole moment (field-independent basis, Debye):
    X=             -1.7420    Y=              3.6295    Z=              0.6341  Tot=              4.0755
 Quadrupole moment (field-independent basis, Debye-Ang):
   XX=            -83.4896   YY=           -112.7151   ZZ=           -102.5454
   XY=              7.4277   XZ=              6.0455   YZ=             -4.1889
 Traceless Quadrupole moment (field-independent basis, Debye-Ang):
   XX=             16.0938   YY=            -13.1318   ZZ=             -2.9620
   XY=              7.4277   XZ=              6.0455   YZ=             -4.1889
 Octapole moment (field-independent basis, Debye-Ang**2):
  XXX=            -75.1426  YYY=             17.4759  ZZZ=              6.7737  XYY=            -18.2155
  XXY=             -8.9257  XXZ=            -19.1886  XZZ=             -0.2013  YZZ=              4.7081
  YYZ=              5.4934  XYZ=             -6.3235
 Hexadecapole moment (field-independent basis, Debye-Ang**3):
 XXXX=          -4135.5111 YYYY=          -1760.1680 ZZZZ=           -275.3882 XXXY=             -9.5300
 XXXZ=             92.6239 YYYX=             47.5824 YYYZ=            -33.3517 ZZZX=            -10.9127
 ZZZY=            -10.0197 XXYY=           -974.7414 XXZZ=           -836.4738 YYZZ=           -335.8738
 XXYZ=             -8.0164 YYXZ=             20.8706 ZZXY=             -3.9841
 N-N= 1.282881190185D+03 E-N=-4.523552655131D+03  KE= 8.332589302608D+02
 1\1\GINC-SWANNODE-0-5\SP\RmPW1PW91\6-311G(d)\C13H19F2N1O1\KE291\06-Mar
 -2019\0\\# mPW1PW91/6-311g(d) geom=checkpoint nmr=giao scrf=(solvent=c
 hloroform)\\AT3_1ginp007\\0,1\C,0,-1.3928982479,0.0744012497,0.0774956
 736\C,0,-1.7600549096,1.0037537163,1.2407621845\C,0,-0.6732165903,1.17
 15033951,2.3220013667\C,0,-1.1786317475,2.0068585726,3.5328133792\C,0,
 -0.0338881202,2.4077959498,4.4856592836\O,0,0.8427493571,3.378672058,3
 .9429315693\N,0,0.5741760041,1.7582878671,1.7490975303\C,0,1.653596494
 4,0.7853715339,1.4861597381\C,0,4.8983534367,2.6794724002,-0.674542109
 2\C,0,4.8234547723,2.8081529077,0.7135424109\C,0,3.7732616181,2.188188
 6359,1.3781794358\C,0,2.7891914585,1.4339613075,0.7340124664\C,0,2.911
 695173,1.3495840887,-0.6542088402\C,0,3.9393226872,1.9463042071,-1.374
 3523602\H,0,5.7094724365,3.1559922806,-1.2149128845\H,0,5.5549126508,3
 .374471246,1.2780872313\H,0,3.9745118994,1.834326821,-2.4517101977\F,0
 ,3.6924728769,2.3102876834,2.7218165106\F,0,1.9744893443,0.6431508513,
 -1.3341223628\H,0,-0.5167240227,0.4241742749,-0.4768191902\H,0,-1.1801
 486707,-0.940261112,0.4326019136\H,0,-2.2223049655,0.0073451145,-0.633
 7048257\H,0,-2.0074559939,2.0020820552,0.8512513355\H,0,-2.6761494247,
 0.6306424816,1.7094703099\H,0,-1.6047925983,2.9444321041,3.1464525637\
 H,0,0.5103056106,1.4954879063,4.7951035977\H,0,-0.4645411343,2.8374980
 306,5.3983305799\H,0,1.0655431394,3.003129962,3.0629502951\H,0,2.02210
 25593,0.4270780093,2.4517901823\H,0,1.307195038,-0.0888787543,0.921480
 2669\H,0,-0.4048513494,0.1765190471,2.7065019849\C,0,-2.2615617229,1.2
 588885085,4.3276213244\H,0,-1.8673129318,0.3230201743,4.7426690882\H,0
 ,-2.6122431364,1.8696537951,5.1658953199\H,0,-3.1344697201,1.009719784
 9,3.7194036599\H,0,0.3509067297,2.2465438461,0.8845715682\\Version=EM6
 4L-G09RevD.01\State=1-A\HF=-836.4675714\RMSD=6.825e-09\Dipole=0.008261
 8,-0.8335895,-1.3696752\Quadrupole=8.8125697,-5.2888444,-3.5237253,4.1
 308307,-6.1880395,-8.2271109\PG=C01 [X(C13H19F2N1O1)]\\@


 ... UNTIL SCIENCE IS MIXED WITH EMOTION AND APPEALS TO THE HEART AND
 IMAGINATION , IT IS LIKE DEAD INORGANIC MATTER; AND WHEN IT IS SO MIXED
 AND SO TRANSFORMED IT IS LITERATURE.

                                  -- JOHN BURROUGHS
 Job cpu time:       0 days  0 hours 27 minutes 48.2 seconds.
 File lengths (MBytes):  RWF=    181 Int=      0 D2E=      0 Chk=     15 Scr=      1
 Normal termination of Gaussian 09 at Wed Mar  6 12:56:49 2019.
