 Entering Gaussian System, Link 0=/usr/local/shared/gaussian/em64t/09-D01/g09/g09
 Initial command:
 /usr/local/shared/gaussian/em64t/09-D01/g09/l1.exe "/scratch/ke291/AT3_1ginp015/Gau-28787.inp" -scrdir="/scratch/ke291/AT3_1ginp015/"
 Entering Link 1 = /usr/local/shared/gaussian/em64t/09-D01/g09/l1.exe PID=     28791.
  
 Copyright (c) 1988,1990,1992,1993,1995,1998,2003,2009,2013,
            Gaussian, Inc.  All Rights Reserved.
  
 This is part of the Gaussian(R) 09 program.  It is based on
 the Gaussian(R) 03 system (copyright 2003, Gaussian, Inc.),
 the Gaussian(R) 98 system (copyright 1998, Gaussian, Inc.),
 the Gaussian(R) 94 system (copyright 1995, Gaussian, Inc.),
 the Gaussian 92(TM) system (copyright 1992, Gaussian, Inc.),
 the Gaussian 90(TM) system (copyright 1990, Gaussian, Inc.),
 the Gaussian 88(TM) system (copyright 1988, Gaussian, Inc.),
 the Gaussian 86(TM) system (copyright 1986, Carnegie Mellon
 University), and the Gaussian 82(TM) system (copyright 1983,
 Carnegie Mellon University). Gaussian is a federally registered
 trademark of Gaussian, Inc.
  
 This software contains proprietary and confidential information,
 including trade secrets, belonging to Gaussian, Inc.
  
 This software is provided under written license and may be
 used, copied, transmitted, or stored only in accord with that
 written license.
  
 The following legend is applicable only to US Government
 contracts under FAR:
  
                    RESTRICTED RIGHTS LEGEND
  
 Use, reproduction and disclosure by the US Government is
 subject to restrictions as set forth in subparagraphs (a)
 and (c) of the Commercial Computer Software - Restricted
 Rights clause in FAR 52.227-19.
  
 Gaussian, Inc.
 340 Quinnipiac St., Bldg. 40, Wallingford CT 06492
  
  
 ---------------------------------------------------------------
 Warning -- This program may not be used in any manner that
 competes with the business of Gaussian, Inc. or will provide
 assistance to any competitor of Gaussian, Inc.  The licensee
 of this program is prohibited from giving any competitor of
 Gaussian, Inc. access to this program.  By using this program,
 the user acknowledges that Gaussian, Inc. is engaged in the
 business of creating and licensing software in the field of
 computational chemistry and represents and warrants to the
 licensee that it is not a competitor of Gaussian, Inc. and that
 it will not use this program in any manner prohibited above.
 ---------------------------------------------------------------
  

 Cite this work as:
 Gaussian 09, Revision D.01,
 M. J. Frisch, G. W. Trucks, H. B. Schlegel, G. E. Scuseria, 
 M. A. Robb, J. R. Cheeseman, G. Scalmani, V. Barone, B. Mennucci, 
 G. A. Petersson, H. Nakatsuji, M. Caricato, X. Li, H. P. Hratchian, 
 A. F. Izmaylov, J. Bloino, G. Zheng, J. L. Sonnenberg, M. Hada, 
 M. Ehara, K. Toyota, R. Fukuda, J. Hasegawa, M. Ishida, T. Nakajima, 
 Y. Honda, O. Kitao, H. Nakai, T. Vreven, J. A. Montgomery, Jr., 
 J. E. Peralta, F. Ogliaro, M. Bearpark, J. J. Heyd, E. Brothers, 
 K. N. Kudin, V. N. Staroverov, T. Keith, R. Kobayashi, J. Normand, 
 K. Raghavachari, A. Rendell, J. C. Burant, S. S. Iyengar, J. Tomasi, 
 M. Cossi, N. Rega, J. M. Millam, M. Klene, J. E. Knox, J. B. Cross, 
 V. Bakken, C. Adamo, J. Jaramillo, R. Gomperts, R. E. Stratmann, 
 O. Yazyev, A. J. Austin, R. Cammi, C. Pomelli, J. W. Ochterski, 
 R. L. Martin, K. Morokuma, V. G. Zakrzewski, G. A. Voth, 
 P. Salvador, J. J. Dannenberg, S. Dapprich, A. D. Daniels, 
 O. Farkas, J. B. Foresman, J. V. Ortiz, J. Cioslowski, 
 and D. J. Fox, Gaussian, Inc., Wallingford CT, 2013.
 
 ******************************************
 Gaussian 09:  EM64L-G09RevD.01 24-Apr-2013
                 6-Mar-2019 
 ******************************************
 %nprocshared=2
 Will use up to    2 processors via shared memory.
 %mem=6000MB
 %chk=AT3_1ginp015.chk
 ----------------------------------------------------------------------
 # mPW1PW91/6-311g(d) geom=checkpoint nmr=giao scrf=(solvent=chloroform
 )
 ----------------------------------------------------------------------
 1/29=2,38=1/1;
 2/12=2,40=1/2;
 3/5=4,6=6,7=1,11=2,14=-4,16=1,25=1,30=1,70=2201,72=7,74=-7/1,2,8,3;
 4//1;
 5/5=2,38=5,53=7/2;
 8/6=1,10=90,11=11/1;
 10/13=100,45=16/2;
 6/7=2,8=2,9=2,10=2,28=1/1;
 99/9=1/99;
 ------------
 AT3_1ginp015
 ------------
 Structure from the checkpoint file:  "AT3_1ginp015.chk"
 Charge =  0 Multiplicity = 1
 Redundant internal coordinates found in file.
 C,0,-1.2913149409,-0.6250876453,0.9674080715
 C,0,-0.8243035178,0.8291942395,0.8543829893
 C,0,0.1234615204,1.3056045041,1.9737471218
 C,0,-0.4710166265,1.1747184788,3.4038498318
 C,0,-1.6851188458,2.0971362567,3.629174719
 O,0,-1.3427006875,3.4771681369,3.62160948
 N,0,0.5185958357,2.7141754358,1.6798012347
 C,0,1.9426658529,3.048338845,1.8634911504
 C,0,4.7034499003,0.8796514239,-0.7018928168
 C,0,3.8405255991,1.8315141624,-1.2504466433
 C,0,2.973201861,2.497380064,-0.3964167023
 C,0,2.9110663533,2.2777299172,0.9817153074
 C,0,3.7917742646,1.310984362,1.4685333892
 C,0,4.6852516189,0.6092095803,0.6662590851
 H,0,5.3921772318,0.3439469133,-1.3465515735
 H,0,3.8334917062,2.0585962668,-2.3101420543
 H,0,5.3422854901,-0.1270717495,1.1144622322
 F,0,2.1228232222,3.4191141659,-0.9165831351
 F,0,3.7753824204,1.0421604632,2.7974253587
 H,0,-1.9549498198,-0.782598709,1.8226942625
 H,0,-1.8421700772,-0.9191415242,0.068649079
 H,0,-0.4406475713,-1.3076591483,1.0739258124
 H,0,-0.2895843955,0.9525402246,-0.0967636267
 H,0,-1.6949194632,1.4957752171,0.8022263323
 H,0,-0.8343312375,0.1425401436,3.4932158691
 H,0,-2.1277316087,1.8771529578,4.609028509
 H,0,-2.463105579,1.8789849511,2.8783593581
 H,0,-0.6990554043,3.5582712544,2.8837319039
 H,0,2.0514736092,4.1173000353,1.6562283381
 H,0,2.2148287631,2.8924273473,2.9064132662
 H,0,1.0133476403,0.6575421833,1.9325781917
 C,0,0.5782661519,1.3864269895,4.5072756335
 H,0,0.8337409283,2.4447893052,4.6050334093
 H,0,0.1846479234,1.0584724709,5.4754738239
 H,0,1.4961782893,0.8248783616,4.3062423452
 H,0,0.2763805926,2.9304091187,0.715912447
 Recover connectivity data from disk.
                          Input orientation:                          
 ---------------------------------------------------------------------
 Center     Atomic      Atomic             Coordinates (Angstroms)
 Number     Number       Type             X           Y           Z
 ---------------------------------------------------------------------
      1          6           0       -1.291315   -0.625088    0.967408
      2          6           0       -0.824304    0.829194    0.854383
      3          6           0        0.123462    1.305605    1.973747
      4          6           0       -0.471017    1.174718    3.403850
      5          6           0       -1.685119    2.097136    3.629175
      6          8           0       -1.342701    3.477168    3.621609
      7          7           0        0.518596    2.714175    1.679801
      8          6           0        1.942666    3.048339    1.863491
      9          6           0        4.703450    0.879651   -0.701893
     10          6           0        3.840526    1.831514   -1.250447
     11          6           0        2.973202    2.497380   -0.396417
     12          6           0        2.911066    2.277730    0.981715
     13          6           0        3.791774    1.310984    1.468533
     14          6           0        4.685252    0.609210    0.666259
     15          1           0        5.392177    0.343947   -1.346552
     16          1           0        3.833492    2.058596   -2.310142
     17          1           0        5.342285   -0.127072    1.114462
     18          9           0        2.122823    3.419114   -0.916583
     19          9           0        3.775382    1.042160    2.797425
     20          1           0       -1.954950   -0.782599    1.822694
     21          1           0       -1.842170   -0.919142    0.068649
     22          1           0       -0.440648   -1.307659    1.073926
     23          1           0       -0.289584    0.952540   -0.096764
     24          1           0       -1.694919    1.495775    0.802226
     25          1           0       -0.834331    0.142540    3.493216
     26          1           0       -2.127732    1.877153    4.609029
     27          1           0       -2.463106    1.878985    2.878359
     28          1           0       -0.699055    3.558271    2.883732
     29          1           0        2.051474    4.117300    1.656228
     30          1           0        2.214829    2.892427    2.906413
     31          1           0        1.013348    0.657542    1.932578
     32          6           0        0.578266    1.386427    4.507276
     33          1           0        0.833741    2.444789    4.605033
     34          1           0        0.184648    1.058472    5.475474
     35          1           0        1.496178    0.824878    4.306242
     36          1           0        0.276381    2.930409    0.715912
 ---------------------------------------------------------------------
                    Distance matrix (angstroms):
                    1          2          3          4          5
     1  C    0.000000
     2  C    1.531604   0.000000
     3  C    2.596514   1.542142   0.000000
     4  C    3.138222   2.596917   1.554262   0.000000
     5  C    3.827608   3.169882   2.576417   1.541321   0.000000
     6  O    4.886300   3.864977   3.095282   2.471543   1.421899
     7  N    3.864448   2.457203   1.492182   2.514280   3.006186
     8  C    4.975506   3.687685   2.521663   3.421845   4.145268
     9  C    6.402188   5.742874   5.321351   6.612056   7.813720
    10  C    6.106518   5.214939   4.948593   6.378342   7.376585
    11  C    5.458564   4.332250   3.893459   5.296612   6.169727
    12  C    5.107501   4.008423   3.114466   4.303702   5.307219
    13  C    5.462353   4.681610   3.702943   4.683525   5.939930
    14  C    6.110117   5.517153   4.796292   5.865263   7.181533
    15  H    7.138803   6.612429   6.301471   7.591676   8.827210
    16  H    6.648920   5.763740   5.716907   7.208310   8.107529
    17  H    6.653894   6.245711   5.479695   6.382040   7.788151
    18  F    5.617947   4.304598   4.101022   5.516472   6.075522
    19  F    5.639158   4.997787   3.752916   4.291530   5.623331
    20  H    1.093954   2.194052   2.950119   2.921164   3.410140
    21  H    1.094384   2.170278   3.527407   4.169877   4.669041
    22  H    1.095849   2.182094   2.820823   3.404654   4.435159
    23  H    2.150543   1.098098   2.140625   3.512346   4.140076
    24  H    2.165235   1.097735   2.171436   2.893002   2.890219
    25  H    2.679140   2.726726   2.139830   1.097896   2.136064
    26  H    4.496910   4.110293   3.512726   2.165773   1.097457
    27  H    3.360834   2.807884   2.799539   2.177280   1.102986
    28  H    4.639349   3.403205   2.564978   2.450275   1.913876
    29  H    5.842855   4.441249   3.423986   4.251579   4.683557
    30  H    5.331575   4.207622   2.785981   3.226722   4.045301
    31  H    2.808587   2.137506   1.101625   2.153009   3.497512
    32  C    4.480199   3.952383   2.575295   1.537323   2.529640
    33  H    5.212708   4.407566   2.953965   2.181356   2.723567
    34  H    5.033438   4.735508   3.510970   2.176014   2.825539
    35  H    4.584794   4.159325   2.748815   2.192386   3.492522
    36  H    3.893902   2.376086   2.060467   3.296371   3.609560
                    6          7          8          9         10
     6  O    0.000000
     7  N    2.795926   0.000000
     8  C    3.750801   1.474240   0.000000
     9  C    7.873735   5.152761   4.348141   0.000000
    10  C    7.301434   4.516709   3.844365   1.396994   0.000000
    11  C    5.977586   3.222231   2.544159   2.388330   1.387442
    12  C    5.148031   2.530163   1.519594   2.828745   2.458770
    13  C    5.974188   3.567531   2.567799   2.393314   2.768787
    14  C    7.300376   4.776941   3.860634   1.394744   2.425150
    15  H    8.936346   6.207140   5.432977   1.084855   2.151677
    16  H    7.999437   5.228572   4.687646   2.175593   1.083776
    17  H    7.997835   5.626746   4.711867   2.172728   3.418206
    18  F    5.710378   3.132363   2.810470   3.626927   2.362719
    19  F    5.727418   3.827712   2.873297   3.623941   4.124632
    20  H    4.664393   4.285589   5.465268   7.312380   7.061538
    21  H    5.674552   4.622772   5.769518   6.831876   6.449740
    22  H    5.495358   4.178802   5.027754   5.865117   5.795305
    23  H    4.616178   2.629201   3.635645   5.030098   4.377372
    24  H    3.463942   2.674750   4.094968   6.601599   5.913319
    25  H    3.375599   3.425229   4.337209   6.986365   6.870899
    26  H    2.037478   4.035347   5.047553   8.710105   8.363948
    27  H    2.088520   3.320336   4.669922   8.073190   7.535586
    28  H    0.982507   1.909089   2.877432   7.015609   6.378159
    29  H    3.974030   2.078227   1.094292   4.803757   4.107832
    30  H    3.675519   2.100847   1.089067   4.823316   4.587800
    31  H    4.044018   2.130356   2.565992   4.539452   4.416197
    32  C    2.974175   3.124274   3.407805   6.664038   6.632632
    33  H    2.601889   2.954466   3.018284   6.751872   6.610863
    34  H    3.408767   4.154516   4.482925   7.655809   7.694221
    35  H    3.944946   3.379838   3.333191   5.947353   6.114415
    36  H    3.370971   1.017107   2.026660   5.080819   4.216310
                   11         12         13         14         15
    11  C    0.000000
    12  C    1.396909   0.000000
    13  C    2.357039   1.395434   0.000000
    14  C    2.761446   2.455851   1.390839   0.000000
    15  H    3.375126   3.913599   3.379520   2.149771   0.000000
    16  H    2.143589   3.425670   3.852149   3.418359   2.509588
    17  H    3.844874   3.422210   2.144168   1.083831   2.506180
    18  F    1.357686   2.351090   3.594216   4.119101   4.508903
    19  F    3.600248   2.360186   1.355909   2.357367   4.502674
    20  H    6.322135   5.809559   6.126447   6.882350   8.080439
    21  H    5.922560   5.800598   6.218880   6.730544   7.478901
    22  H    5.319267   4.908921   4.992635   5.487752   6.527508
    23  H    3.622443   3.628141   4.385901   5.044707   5.849339
    24  H    4.922531   4.675337   5.530092   6.442908   7.494724
    25  H    5.930584   4.989456   5.183189   6.218944   7.888810
    26  H    7.173471   6.221523   6.724865   7.973070   9.714355
    27  H    6.376520   5.712966   6.436906   7.589778   9.050507
    28  H    5.036898   4.276732   5.217340   6.527244   8.082716
    29  H    2.772558   2.139599   3.307459   4.497057   5.866445
    30  H    3.411727   2.137069   2.656166   4.041579   5.888803
    31  H    3.556719   2.670297   2.891709   3.884428   5.479524
    32  C    5.569213   4.320411   4.423379   5.676690   7.650346
    33  H    5.440088   4.179907   4.457926   5.806671   7.785515
    34  H    6.657746   5.395722   5.397286   6.601956   8.612139
    35  H    5.205177   3.894248   3.682207   4.844190   6.882164
    36  H    2.949175   2.727308   3.942964   4.982828   6.092202
                   16         17         18         19         20
    16  H    0.000000
    17  H    4.333765   0.000000
    18  F    2.592181   5.202453   0.000000
    19  F    5.208048   2.579662   4.709004   0.000000
    20  H    7.658902   7.360771   6.464230   6.092336   0.000000
    21  H    6.836571   7.303253   5.959221   6.545978   1.762963
    22  H    6.407172   5.902351   5.733750   5.125135   1.769026
    23  H    4.808551   5.860938   3.546238   4.990823   3.077088
    24  H    6.369218   7.228650   4.607461   5.840444   2.509972
    25  H    7.690176   6.624330   6.239153   4.747937   2.214116
    26  H    9.134770   8.487053   7.139835   6.231041   3.855877
    27  H    8.160879   8.249832   6.148523   6.294883   2.908037
    28  H    7.054738   7.294509   4.735479   5.134088   4.641791
    29  H    4.811023   5.397930   2.666817   3.705493   6.331520
    30  H    5.525196   4.702069   3.860203   2.422951   5.662801
    31  H    5.283639   4.474889   4.120065   2.919714   3.301041
    32  C    7.584556   6.041336   5.994641   3.641931   4.281219
    33  H    7.547669   6.255040   5.753198   3.726670   5.092567
    34  H    8.656219   6.857490   7.084317   4.479462   4.616299
    35  H    7.124720   5.087849   5.865207   2.741990   4.545578
    36  H    4.750800   5.930466   2.512613   4.487894   4.471043
                   21         22         23         24         25
    21  H    0.000000
    22  H    1.767991   0.000000
    23  H    2.437432   2.549870   0.000000
    24  H    2.528170   3.083223   1.754495   0.000000
    25  H    3.724321   2.847987   3.720323   3.132616   0.000000
    26  H    5.340024   5.048389   5.135969   3.850262   2.434503
    27  H    4.013670   4.183422   3.799191   2.246617   2.458901
    28  H    5.410973   5.198024   3.980057   3.094883   3.472318
    29  H    6.560992   5.998327   4.309204   4.651577   5.244150
    30  H    6.248216   5.296253   4.365125   4.654500   4.147721
    31  H    3.756880   2.591023   2.429585   3.052055   2.472799
    32  C    5.556578   4.481537   4.705167   4.348186   2.137990
    33  H    6.249425   5.307886   5.059206   4.664343   3.052696
    34  H    6.103499   5.036189   5.593384   5.056011   2.409688
    35  H    5.669512   4.329767   4.753073   4.786579   2.560834
    36  H    4.441424   4.313180   2.211950   2.439600   4.088925
                   26         27         28         29         30
    26  H    0.000000
    27  H    1.762865   0.000000
    28  H    2.800700   2.435550   0.000000
    29  H    5.585968   5.185083   3.063444   0.000000
    30  H    4.773627   4.786536   2.989077   1.757828   0.000000
    31  H    4.303163   3.804228   3.500178   3.622706   2.717834
    32  C    2.752016   3.485100   2.997391   4.213844   2.740280
    33  H    3.015385   3.764404   2.559724   3.602168   2.234523
    34  H    2.601550   3.798532   3.707702   5.237184   3.753012
    35  H    3.785721   4.338885   3.783388   4.262742   2.598218
    36  H    4.695259   3.645059   2.458684   2.333208   2.925289
                   31         32         33         34         35
    31  H    0.000000
    32  C    2.711021   0.000000
    33  H    3.220020   1.093140   0.000000
    34  H    3.660546   1.095398   1.760927   0.000000
    35  H    2.428046   1.094675   1.775447   1.772507   0.000000
    36  H    2.681291   4.104808   3.958755   5.115270   4.337238
                   36
    36  H    0.000000
 Stoichiometry    C13H19F2NO
 Framework group  C1[X(C13H19F2NO)]
 Deg. of freedom   102
 Full point group                 C1      NOp   1
 Largest Abelian subgroup         C1      NOp   1
 Largest concise Abelian subgroup C1      NOp   1
                         Standard orientation:                         
 ---------------------------------------------------------------------
 Center     Atomic      Atomic             Coordinates (Angstroms)
 Number     Number       Type             X           Y           Z
 ---------------------------------------------------------------------
      1          6           0       -1.926743   -1.869548    2.435345
      2          6           0       -1.491145   -1.766554    0.970607
      3          6           0       -1.307425   -0.331254    0.437351
      4          6           0       -2.580480    0.553162    0.550792
      5          6           0       -3.734249    0.050451   -0.339022
      6          8           0       -3.459582    0.177389   -1.728353
      7          7           0       -0.833590   -0.417414   -0.974975
      8          6           0        0.259287    0.495120   -1.357448
      9          6           0        3.996561   -0.083566    0.788300
     10          6           0        3.556976   -1.047345   -0.122462
     11          6           0        2.357004   -0.824566   -0.782334
     12          6           0        1.560531    0.307698   -0.595345
     13          6           0        2.048707    1.229808    0.331280
     14          6           0        3.243048    1.066014    1.024933
     15          1           0        4.931360   -0.232059    1.318403
     16          1           0        4.122632   -1.949848   -0.322690
     17          1           0        3.561344    1.825921    1.729148
     18          9           0        1.912948   -1.756573   -1.664087
     19          9           0        1.317973    2.347327    0.567220
     20          1           0       -2.946007   -1.504400    2.591877
     21          1           0       -1.898795   -2.911576    2.768621
     22          1           0       -1.261207   -1.293866    3.088443
     23          1           0       -0.527820   -2.280717    0.854589
     24          1           0       -2.202710   -2.306769    0.332746
     25          1           0       -2.921368    0.470503    1.591147
     26          1           0       -4.634539    0.642229   -0.130004
     27          1           0       -3.978286   -0.993115   -0.078267
     28          1           0       -2.519804   -0.097076   -1.810851
     29          1           0        0.449768    0.339596   -2.423752
     30          1           0       -0.075384    1.524362   -1.236105
     31          1           0       -0.529313    0.140301    1.058443
     32          6           0       -2.299528    2.040010    0.279291
     33          1           0       -2.151007    2.220490   -0.788568
     34          1           0       -3.150990    2.652591    0.594972
     35          1           0       -1.412291    2.389188    0.817062
     36          1           0       -0.517344   -1.366333   -1.159491
 ---------------------------------------------------------------------
 Rotational constants (GHZ):      0.6973812      0.2848199      0.2688409
 Standard basis: 6-311G(d) (5D, 7F)
 There are   380 symmetry adapted cartesian basis functions of A   symmetry.
 There are   363 symmetry adapted basis functions of A   symmetry.
   363 basis functions,   639 primitive gaussians,   380 cartesian basis functions
    65 alpha electrons       65 beta electrons
       nuclear repulsion energy      1302.2703117713 Hartrees.
 NAtoms=   36 NActive=   36 NUniq=   36 SFac= 1.00D+00 NAtFMM=   60 NAOKFM=F Big=F
 Integral buffers will be    131072 words long.
 Raffenetti 2 integral format.
 Two-electron integral symmetry is turned on.
 ------------------------------------------------------------------------------
 Polarizable Continuum Model (PCM)
 =================================
 Model                : PCM (using non-symmetric T matrix).
 Atomic radii         : UFF (Universal Force Field).
 Polarization charges : Total charges.
 Charge compensation  : None.
 Solution method      : On-the-fly selection.
 Cavity type          : Scaled VdW (van der Waals Surface) (Alpha=1.100).
 Cavity algorithm     : GePol (No added spheres)
                        Default sphere list used, NSphG=   36.
                        Lebedev-Laikov grids with approx.  5.0 points / Ang**2.
                        Smoothing algorithm: Karplus/York (Gamma=1.0000).
                        Polarization charges: spherical gaussians, with
                                              point-specific exponents (IZeta= 3).
                        Self-potential: point-specific (ISelfS= 7).
                        Self-field    : sphere-specific E.n sum rule (ISelfD= 2).
 Solvent              : Chloroform, Eps=   4.711300 Eps(inf)=   2.090627
 ------------------------------------------------------------------------------
 One-electron integrals computed using PRISM.
 NBasis=   363 RedAO= T EigKep=  2.29D-04  NBF=   363
 NBsUse=   363 1.00D-06 EigRej= -1.00D+00 NBFU=   363
 ExpMin= 1.03D-01 ExpMax= 1.14D+04 ExpMxC= 1.72D+03 IAcc=1 IRadAn=         1 AccDes= 0.00D+00
 Harris functional with IExCor=  908 and IRadAn=       1 diagonalized for initial guess.
 HarFok:  IExCor=  908 AccDes= 0.00D+00 IRadAn=         1 IDoV= 1 UseB2=F ITyADJ=14
 ICtDFT=  3500011 ScaDFX=  1.000000  1.000000  1.000000  1.000000
 FoFCou: FMM=F IPFlag=           0 FMFlag=      100000 FMFlg1=           0
         NFxFlg=           0 DoJE=T BraDBF=F KetDBF=T FulRan=T
         wScrn=  0.000000 ICntrl=     500 IOpCl=  0 I1Cent=   200000004 NGrid=           0
         NMat0=    1 NMatS0=      1 NMatT0=    0 NMatD0=    1 NMtDS0=    0 NMtDT0=    0
 Petite list used in FoFCou.
 Requested convergence on RMS density matrix=1.00D-08 within 128 cycles.
 Requested convergence on MAX density matrix=1.00D-06.
 Requested convergence on             energy=1.00D-06.
 No special actions if energy rises.
 Inv3:  Mode=1 IEnd=    17743872.
 Iteration    1 A*A^-1 deviation from unit magnitude is 7.55D-15 for    185.
 Iteration    1 A*A^-1 deviation from orthogonality  is 6.22D-15 for   1651    911.
 Iteration    1 A^-1*A deviation from unit magnitude is 9.55D-15 for    760.
 Iteration    1 A^-1*A deviation from orthogonality  is 1.12D-12 for   2414   2380.
 Error on total polarization charges =  0.00919
 SCF Done:  E(RmPW1PW91) =  -836.467948701     A.U. after   12 cycles
            NFock= 12  Conv=0.71D-08     -V/T= 2.0039
 DoSCS=F DFT=T ScalE2(SS,OS)=  1.000000  1.000000
 Range of M.O.s used for correlation:     1   363
 NBasis=   363 NAE=    65 NBE=    65 NFC=     0 NFV=     0
 NROrb=    363 NOA=    65 NOB=    65 NVA=   298 NVB=   298

 **** Warning!!: The largest alpha MO coefficient is  0.11045215D+02

 NEqPCM:  Using equilibrium solvation (IEInf=0, Eps=   4.7113, EpsInf=   2.0906)
          Differentiating once with respect to magnetic field using GIAOs.
          Electric field/nuclear overlap derivatives assumed to be zero.
 FoFJK:  IHMeth= 1 ICntrl=    6127 DoSepK=F KAlg= 0 I1Cent=   0 FoldK=F
 IRaf=         1 NMat=   1 IRICut=       1 DoRegI=T DoRafI=F ISym2E= 0.
          There are     3 degrees of freedom in the 1st order CPHF.  IDoFFX=0 NUNeed=     3.
      3 vectors produced by pass  0 Test12= 6.46D-13 3.33D-08 XBig12= 3.52D+01 1.65D+00.
 AX will form     3 AO Fock derivatives at one time.
      3 vectors produced by pass  1 Test12= 6.46D-13 3.33D-08 XBig12= 1.08D-01 1.36D-01.
      3 vectors produced by pass  2 Test12= 6.46D-13 3.33D-08 XBig12= 5.20D-04 6.16D-03.
      3 vectors produced by pass  3 Test12= 6.46D-13 3.33D-08 XBig12= 1.32D-06 2.19D-04.
      3 vectors produced by pass  4 Test12= 6.46D-13 3.33D-08 XBig12= 3.36D-09 1.27D-05.
      3 vectors produced by pass  5 Test12= 6.46D-13 3.33D-08 XBig12= 1.54D-11 7.96D-07.
      2 vectors produced by pass  6 Test12= 6.46D-13 3.33D-08 XBig12= 3.71D-14 3.83D-08.
 InvSVY:  IOpt=1 It=  1 EMax= 8.88D-16
 Solved reduced A of dimension    20 with     3 vectors.
 Calculating GIAO nuclear magnetic shielding tensors.
 SCF GIAO Magnetic shielding tensor (ppm):
      1  C    Isotropic =   175.6739   Anisotropy =    20.2142
   XX=   167.0177   YX=     2.3146   ZX=    -3.4104
   XY=     2.5766   YY=   172.2166   ZY=    -1.8345
   XZ=    -4.0805   YZ=    -4.3075   ZZ=   187.7874
   Eigenvalues:   165.7664   172.1052   189.1500
      2  C    Isotropic =   157.7626   Anisotropy =    32.8039
   XX=   142.4166   YX=    -1.8824   ZX=   -16.6925
   XY=    -1.8375   YY=   167.3454   ZY=   -14.3875
   XZ=   -14.9023   YZ=    -8.6039   ZZ=   163.5258
   Eigenvalues:   132.4495   161.2065   179.6318
      3  C    Isotropic =   123.6842   Anisotropy =    19.5586
   XX=   121.4533   YX=    -2.3482   ZX=    -3.5901
   XY=    -1.5164   YY=   115.3431   ZY=    -6.6388
   XZ=    -8.6023   YZ=     3.4175   ZZ=   134.2561
   Eigenvalues:   114.1419   120.1874   136.7232
      4  C    Isotropic =   151.4516   Anisotropy =     8.5028
   XX=   156.4926   YX=     0.7349   ZX=     1.9153
   XY=     2.5253   YY=   147.2368   ZY=    -8.2294
   XZ=     1.9447   YZ=     1.7560   ZZ=   150.6254
   Eigenvalues:   144.7848   152.4499   157.1201
      5  C    Isotropic =   123.1710   Anisotropy =    59.0808
   XX=   110.9112   YX=     4.6747   ZX=   -10.9770
   XY=     5.1020   YY=    97.9660   ZY=     0.9205
   XZ=    -8.6350   YZ=     4.8794   ZZ=   160.6358
   Eigenvalues:    95.7605   111.1942   162.5582
      6  O    Isotropic =   312.8284   Anisotropy =    98.3575
   XX=   373.3133   YX=   -21.8259   ZX=     1.9031
   XY=   -19.2188   YY=   287.7492   ZY=    25.9364
   XZ=    17.6245   YZ=     2.0230   ZZ=   277.4226
   Eigenvalues:   263.9901   296.0950   378.4000
      7  N    Isotropic =   194.5745   Anisotropy =    26.6989
   XX=   169.9964   YX=     4.3211   ZX=    -6.5591
   XY=     6.4239   YY=   209.7007   ZY=     0.5607
   XZ=   -27.5696   YZ=     0.3367   ZZ=   204.0264
   Eigenvalues:   162.3562   208.9935   212.3738
      8  C    Isotropic =   144.6865   Anisotropy =    51.0111
   XX=   156.4314   YX=    21.1149   ZX=    -9.8948
   XY=    19.4834   YY=   138.3326   ZY=   -18.9872
   XZ=    -9.3337   YZ=   -18.9855   ZZ=   139.2955
   Eigenvalues:   117.6188   137.7468   178.6939
      9  C    Isotropic =    53.4671   Anisotropy =   189.2485
   XX=     6.1299   YX=    43.9428   ZX=   -88.6444
   XY=    42.7463   YY=    63.2610   ZY=   -46.1026
   XZ=   -87.7909   YZ=   -45.7530   ZZ=    91.0104
   Eigenvalues:   -50.9104    31.6790   179.6328
     10  C    Isotropic =    72.2966   Anisotropy =   146.9926
   XX=    69.3658   YX=    51.6826   ZX=   -34.9149
   XY=    58.1805   YY=    32.3666   ZY=   -49.3039
   XZ=   -31.7993   YZ=   -52.4432   ZZ=   115.1576
   Eigenvalues:   -11.8583    58.4564   170.2917
     11  C    Isotropic =    17.2991   Anisotropy =    95.4818
   XX=    37.7905   YX=   -14.3138   ZX=   -39.6005
   XY=    -9.6989   YY=    -4.8935   ZY=   -59.9411
   XZ=   -34.1546   YZ=   -60.8148   ZZ=    19.0003
   Eigenvalues:   -65.2069    36.1506    80.9536
     12  C    Isotropic =    66.7760   Anisotropy =   139.0735
   XX=    52.0458   YX=    34.6348   ZX=   -52.6359
   XY=    34.2153   YY=    60.3774   ZY=   -45.9631
   XZ=   -50.0012   YZ=   -49.9418   ZZ=    87.9048
   Eigenvalues:    15.6071    25.2292   159.4916
     13  C    Isotropic =    18.2581   Anisotropy =    98.8586
   XX=    19.3814   YX=    57.7039   ZX=    -6.1212
   XY=    56.8058   YY=   -20.8195   ZY=   -30.5264
   XZ=   -11.1986   YZ=   -30.5097   ZZ=    56.2125
   Eigenvalues:   -64.8068    35.4173    84.1638
     14  C    Isotropic =    72.4538   Anisotropy =   146.5435
   XX=    80.5990   YX=    14.4459   ZX=   -51.3672
   XY=     9.2964   YY=    48.6444   ZY=   -72.4078
   XZ=   -55.6129   YZ=   -68.4109   ZZ=    88.1179
   Eigenvalues:   -11.6155    58.8274   170.1494
     15  H    Isotropic =    24.6163   Anisotropy =     3.0418
   XX=    25.2355   YX=    -1.1171   ZX=     1.6452
   XY=    -1.2285   YY=    25.3457   ZY=     2.0523
   XZ=     1.5730   YZ=     2.0347   ZZ=    23.2678
   Eigenvalues:    21.0679    26.1369    26.6442
     16  H    Isotropic =    25.1380   Anisotropy =     4.8159
   XX=    27.0911   YX=    -1.2885   ZX=     2.3389
   XY=    -1.0552   YY=    24.4745   ZY=     1.5397
   XZ=     2.3248   YZ=     1.4062   ZZ=    23.8484
   Eigenvalues:    21.4813    25.5841    28.3486
     17  H    Isotropic =    25.0898   Anisotropy =     4.9893
   XX=    27.1252   YX=    -1.0881   ZX=     2.5771
   XY=    -1.2789   YY=    24.7636   ZY=     1.3567
   XZ=     2.3568   YZ=     1.3530   ZZ=    23.3807
   Eigenvalues:    21.2797    25.5738    28.4160
     18  F    Isotropic =   297.8359   Anisotropy =   129.5170
   XX=   252.2838   YX=    37.1650   ZX=   -56.1159
   XY=    52.1659   YY=   286.4917   ZY=   -19.5498
   XZ=   -36.7974   YZ=   -14.7243   ZZ=   354.7321
   Eigenvalues:   214.9673   294.3597   384.1805
     19  F    Isotropic =   297.9979   Anisotropy =   117.0204
   XX=   278.1623   YX=     5.3137   ZX=   -68.1723
   XY=    -1.5892   YY=   315.4539   ZY=   -40.7351
   XZ=   -63.7172   YZ=   -43.6515   ZZ=   300.3773
   Eigenvalues:   215.1759   302.8061   376.0115
     20  H    Isotropic =    31.3746   Anisotropy =     8.2522
   XX=    34.2205   YX=    -1.4702   ZX=    -3.4017
   XY=    -1.2532   YY=    28.3738   ZY=    -2.0065
   XZ=    -4.1345   YZ=    -1.8332   ZZ=    31.5296
   Eigenvalues:    26.2569    30.9908    36.8761
     21  H    Isotropic =    31.2476   Anisotropy =    11.5787
   XX=    26.9967   YX=     0.7879   ZX=    -1.3862
   XY=     0.6137   YY=    35.1357   ZY=    -4.5864
   XZ=    -1.3611   YZ=    -5.6994   ZZ=    31.6105
   Eigenvalues:    26.4946    28.2815    38.9668
     22  H    Isotropic =    31.6732   Anisotropy =     8.0462
   XX=    30.0070   YX=     1.8740   ZX=     1.8976
   XY=     2.6601   YY=    28.9456   ZY=     0.4530
   XZ=     2.5605   YZ=     0.8949   ZZ=    36.0671
   Eigenvalues:    27.0564    30.9259    37.0374
     23  H    Isotropic =    31.0817   Anisotropy =     6.6889
   XX=    32.9362   YX=    -2.8125   ZX=    -2.3011
   XY=    -2.9682   YY=    31.6097   ZY=    -1.9133
   XZ=    -4.3408   YZ=    -2.7081   ZZ=    28.6993
   Eigenvalues:    25.0435    32.6606    35.5410
     24  H    Isotropic =    30.3979   Anisotropy =     5.5730
   XX=    29.0364   YX=     2.3141   ZX=     1.1711
   XY=     3.4521   YY=    31.9590   ZY=     0.9487
   XZ=     1.3398   YZ=     0.3556   ZZ=    30.1984
   Eigenvalues:    27.0822    29.9984    34.1133
     25  H    Isotropic =    30.6758   Anisotropy =     6.8974
   XX=    27.7893   YX=    -1.6926   ZX=    -3.6316
   XY=    -1.4841   YY=    30.6389   ZY=    -2.1074
   XZ=    -2.9891   YZ=    -1.2011   ZZ=    33.5992
   Eigenvalues:    25.4102    31.3431    35.2740
     26  H    Isotropic =    28.6238   Anisotropy =     8.6430
   XX=    33.5634   YX=    -1.6904   ZX=    -0.7210
   XY=    -1.1594   YY=    24.0805   ZY=     0.0901
   XZ=    -2.9533   YZ=     1.5671   ZZ=    28.2273
   Eigenvalues:    23.7957    27.6898    34.3858
     27  H    Isotropic =    27.8946   Anisotropy =     5.3073
   XX=    28.6942   YX=     3.2511   ZX=     0.7960
   XY=     2.6460   YY=    27.2461   ZY=    -1.1953
   XZ=    -0.1575   YZ=    -3.3372   ZZ=    27.7435
   Eigenvalues:    23.8707    28.3803    31.4328
     28  H    Isotropic =    27.7196   Anisotropy =    24.4890
   XX=    42.2879   YX=    -7.3760   ZX=     1.2211
   XY=    -6.6299   YY=    15.9738   ZY=     0.8166
   XZ=     0.1354   YZ=     0.9968   ZZ=    24.8970
   Eigenvalues:    14.1250    24.9881    44.0456
     29  H    Isotropic =    28.2665   Anisotropy =     7.8565
   XX=    28.1980   YX=     0.4689   ZX=    -2.7876
   XY=    -0.1041   YY=    23.7548   ZY=    -2.2306
   XZ=    -0.4551   YZ=    -0.1714   ZZ=    32.8466
   Eigenvalues:    23.5986    27.6966    33.5042
     30  H    Isotropic =    28.1255   Anisotropy =     4.5984
   XX=    29.5345   YX=     0.8128   ZX=    -0.0150
   XY=    -1.2884   YY=    31.0740   ZY=     0.1950
   XZ=     0.9740   YZ=    -1.6119   ZZ=    23.7679
   Eigenvalues:    23.6645    29.5208    31.1911
     31  H    Isotropic =    29.6362   Anisotropy =     6.3604
   XX=    33.2809   YX=     1.5561   ZX=     0.1293
   XY=     2.4147   YY=    27.0681   ZY=    -0.3805
   XZ=    -0.8146   YZ=     0.6913   ZZ=    28.5597
   Eigenvalues:    26.4590    28.5731    33.8765
     32  C    Isotropic =   170.0384   Anisotropy =    25.3333
   XX=   174.9670   YX=    -1.5546   ZX=     6.3115
   XY=    -0.3186   YY=   186.7492   ZY=     0.9622
   XZ=     4.3660   YZ=    -4.0161   ZZ=   148.3989
   Eigenvalues:   147.3219   175.8660   186.9272
     33  H    Isotropic =    30.0097   Anisotropy =     4.1939
   XX=    28.0211   YX=    -0.0469   ZX=    -0.2425
   XY=    -0.2283   YY=    31.1009   ZY=    -2.1815
   XZ=    -0.5753   YZ=    -1.4026   ZZ=    30.9072
   Eigenvalues:    27.8976    29.3260    32.8057
     34  H    Isotropic =    30.9364   Anisotropy =    11.5159
   XX=    31.8238   YX=    -4.5916   ZX=    -2.0544
   XY=    -5.0317   YY=    34.2883   ZY=     1.8903
   XZ=    -1.3625   YZ=     2.1747   ZZ=    26.6973
   Eigenvalues:    26.1014    28.0942    38.6137
     35  H    Isotropic =    30.9625   Anisotropy =     8.0312
   XX=    33.8894   YX=     1.2816   ZX=     2.7008
   XY=     2.5020   YY=    31.9909   ZY=     2.8384
   XZ=     1.5990   YZ=     3.0006   ZZ=    27.0073
   Eigenvalues:    25.4822    31.0886    36.3167
     36  H    Isotropic =    31.0271   Anisotropy =    10.2482
   XX=    30.4907   YX=    -0.6628   ZX=    -4.5591
   XY=    -1.1089   YY=    36.0744   ZY=     3.3729
   XZ=    -6.1116   YZ=     2.4304   ZZ=    26.5163
   Eigenvalues:    22.5398    32.6823    37.8592
 End of Minotr F.D. properties file   721 does not exist.
 End of Minotr F.D. properties file   722 does not exist.
 End of Minotr F.D. properties file   788 does not exist.

 **********************************************************************

            Population analysis using the SCF density.

 **********************************************************************

 Orbital symmetries:
       Occupied  (A) (A) (A) (A) (A) (A) (A) (A) (A) (A) (A) (A)
                 (A) (A) (A) (A) (A) (A) (A) (A) (A) (A) (A) (A)
                 (A) (A) (A) (A) (A) (A) (A) (A) (A) (A) (A) (A)
                 (A) (A) (A) (A) (A) (A) (A) (A) (A) (A) (A) (A)
                 (A) (A) (A) (A) (A) (A) (A) (A) (A) (A) (A) (A)
                 (A) (A) (A) (A) (A)
       Virtual   (A) (A) (A) (A) (A) (A) (A) (A) (A) (A) (A) (A)
                 (A) (A) (A) (A) (A) (A) (A) (A) (A) (A) (A) (A)
                 (A) (A) (A) (A) (A) (A) (A) (A) (A) (A) (A) (A)
                 (A) (A) (A) (A) (A) (A) (A) (A) (A) (A) (A) (A)
                 (A) (A) (A) (A) (A) (A) (A) (A) (A) (A) (A) (A)
                 (A) (A) (A) (A) (A) (A) (A) (A) (A) (A) (A) (A)
                 (A) (A) (A) (A) (A) (A) (A) (A) (A) (A) (A) (A)
                 (A) (A) (A) (A) (A) (A) (A) (A) (A) (A) (A) (A)
                 (A) (A) (A) (A) (A) (A) (A) (A) (A) (A) (A) (A)
                 (A) (A) (A) (A) (A) (A) (A) (A) (A) (A) (A) (A)
                 (A) (A) (A) (A) (A) (A) (A) (A) (A) (A) (A) (A)
                 (A) (A) (A) (A) (A) (A) (A) (A) (A) (A) (A) (A)
                 (A) (A) (A) (A) (A) (A) (A) (A) (A) (A) (A) (A)
                 (A) (A) (A) (A) (A) (A) (A) (A) (A) (A) (A) (A)
                 (A) (A) (A) (A) (A) (A) (A) (A) (A) (A) (A) (A)
                 (A) (A) (A) (A) (A) (A) (A) (A) (A) (A) (A) (A)
                 (A) (A) (A) (A) (A) (A) (A) (A) (A) (A) (A) (A)
                 (A) (A) (A) (A) (A) (A) (A) (A) (A) (A) (A) (A)
                 (A) (A) (A) (A) (A) (A) (A) (A) (A) (A) (A) (A)
                 (A) (A) (A) (A) (A) (A) (A) (A) (A) (A) (A) (A)
                 (A) (A) (A) (A) (A) (A) (A) (A) (A) (A) (A) (A)
                 (A) (A) (A) (A) (A) (A) (A) (A) (A) (A) (A) (A)
                 (A) (A) (A) (A) (A) (A) (A) (A) (A) (A) (A) (A)
                 (A) (A) (A) (A) (A) (A) (A) (A) (A) (A) (A) (A)
                 (A) (A) (A) (A) (A) (A) (A) (A) (A) (A)
 The electronic state is 1-A.
 Alpha  occ. eigenvalues --  -24.80443 -24.80197 -19.18072 -14.39700 -10.34106
 Alpha  occ. eigenvalues --  -10.34080 -10.27653 -10.26821 -10.26785 -10.26466
 Alpha  occ. eigenvalues --  -10.26331 -10.25682 -10.25640 -10.23533 -10.23435
 Alpha  occ. eigenvalues --  -10.22335 -10.21399  -1.27260  -1.27048  -1.02678
 Alpha  occ. eigenvalues --   -0.94872  -0.90924  -0.83210  -0.80414  -0.79102
 Alpha  occ. eigenvalues --   -0.78386  -0.72450  -0.68998  -0.67724  -0.66135
 Alpha  occ. eigenvalues --   -0.64064  -0.62976  -0.58969  -0.57949  -0.55540
 Alpha  occ. eigenvalues --   -0.52657  -0.51950  -0.51758  -0.50878  -0.49360
 Alpha  occ. eigenvalues --   -0.49265  -0.47766  -0.47211  -0.46915  -0.46349
 Alpha  occ. eigenvalues --   -0.44914  -0.44331  -0.42650  -0.41885  -0.41316
 Alpha  occ. eigenvalues --   -0.40582  -0.39920  -0.38812  -0.38518  -0.38354
 Alpha  occ. eigenvalues --   -0.38028  -0.37251  -0.36067  -0.33599  -0.33285
 Alpha  occ. eigenvalues --   -0.32669  -0.28129  -0.27335  -0.26643  -0.25331
 Alpha virt. eigenvalues --   -0.02675  -0.01247   0.04968   0.05520   0.06942
 Alpha virt. eigenvalues --    0.07386   0.08075   0.10013   0.10102   0.10543
 Alpha virt. eigenvalues --    0.11107   0.11403   0.12357   0.12818   0.13086
 Alpha virt. eigenvalues --    0.13918   0.14328   0.14855   0.15941   0.16352
 Alpha virt. eigenvalues --    0.16747   0.17701   0.18299   0.19103   0.20229
 Alpha virt. eigenvalues --    0.20694   0.22214   0.23369   0.24093   0.24755
 Alpha virt. eigenvalues --    0.25060   0.26523   0.26962   0.28188   0.28625
 Alpha virt. eigenvalues --    0.31743   0.32644   0.32815   0.33847   0.34448
 Alpha virt. eigenvalues --    0.35817   0.36918   0.37701   0.38047   0.39225
 Alpha virt. eigenvalues --    0.40486   0.40803   0.41299   0.42026   0.42430
 Alpha virt. eigenvalues --    0.43458   0.43682   0.44713   0.45260   0.46320
 Alpha virt. eigenvalues --    0.46962   0.48678   0.50172   0.50763   0.51917
 Alpha virt. eigenvalues --    0.52269   0.52706   0.53575   0.54121   0.55446
 Alpha virt. eigenvalues --    0.56103   0.57011   0.57438   0.58660   0.59162
 Alpha virt. eigenvalues --    0.59525   0.59835   0.60045   0.61304   0.61910
 Alpha virt. eigenvalues --    0.62722   0.62947   0.63303   0.64107   0.64380
 Alpha virt. eigenvalues --    0.65140   0.65639   0.66227   0.66676   0.66988
 Alpha virt. eigenvalues --    0.67882   0.70117   0.70630   0.71405   0.72225
 Alpha virt. eigenvalues --    0.72738   0.74195   0.74921   0.76032   0.78029
 Alpha virt. eigenvalues --    0.79286   0.80283   0.81179   0.82838   0.83555
 Alpha virt. eigenvalues --    0.88347   0.89422   0.91092   0.92941   0.93492
 Alpha virt. eigenvalues --    0.94769   0.96359   0.98429   0.99130   1.01477
 Alpha virt. eigenvalues --    1.02725   1.03128   1.04257   1.04730   1.07012
 Alpha virt. eigenvalues --    1.08525   1.10326   1.11182   1.12729   1.14787
 Alpha virt. eigenvalues --    1.17552   1.18189   1.18902   1.21361   1.24444
 Alpha virt. eigenvalues --    1.26396   1.27514   1.29053   1.30392   1.32498
 Alpha virt. eigenvalues --    1.34971   1.36468   1.38705   1.39698   1.39951
 Alpha virt. eigenvalues --    1.43159   1.46405   1.47453   1.48589   1.49186
 Alpha virt. eigenvalues --    1.51626   1.52479   1.53796   1.54496   1.55265
 Alpha virt. eigenvalues --    1.56689   1.59000   1.59150   1.59804   1.60388
 Alpha virt. eigenvalues --    1.62184   1.62994   1.64548   1.66958   1.67434
 Alpha virt. eigenvalues --    1.68174   1.69379   1.70783   1.72436   1.72983
 Alpha virt. eigenvalues --    1.74416   1.76979   1.78820   1.79788   1.82174
 Alpha virt. eigenvalues --    1.83611   1.84614   1.85283   1.86836   1.88104
 Alpha virt. eigenvalues --    1.89843   1.90304   1.91067   1.92734   1.95906
 Alpha virt. eigenvalues --    1.97780   1.98585   1.98707   2.01078   2.04144
 Alpha virt. eigenvalues --    2.08862   2.11679   2.16646   2.17755   2.18956
 Alpha virt. eigenvalues --    2.20884   2.23671   2.25942   2.27265   2.28028
 Alpha virt. eigenvalues --    2.30898   2.32253   2.34015   2.39107   2.40681
 Alpha virt. eigenvalues --    2.42229   2.42912   2.43839   2.45260   2.47121
 Alpha virt. eigenvalues --    2.48850   2.49636   2.50610   2.51928   2.54984
 Alpha virt. eigenvalues --    2.56370   2.57059   2.59659   2.63022   2.64637
 Alpha virt. eigenvalues --    2.66226   2.67816   2.68835   2.72457   2.74572
 Alpha virt. eigenvalues --    2.76031   2.84073   2.84929   2.85434   2.86804
 Alpha virt. eigenvalues --    2.90494   2.92683   2.97215   3.01074   3.04805
 Alpha virt. eigenvalues --    3.05896   3.07963   3.08606   3.11278   3.12668
 Alpha virt. eigenvalues --    3.13261   3.15725   3.16479   3.20989   3.22308
 Alpha virt. eigenvalues --    3.25012   3.27380   3.27656   3.28523   3.29109
 Alpha virt. eigenvalues --    3.29527   3.31214   3.34910   3.37714   3.39922
 Alpha virt. eigenvalues --    3.45405   3.46873   3.50691   3.59603   3.64101
 Alpha virt. eigenvalues --    3.74588   3.78277   3.79729   3.80052   3.81003
 Alpha virt. eigenvalues --    3.86080   3.87367   3.95146   3.97067   3.98395
 Alpha virt. eigenvalues --    3.98821   4.06240   4.07252   4.09821   4.10949
 Alpha virt. eigenvalues --    4.16801   4.22975   4.42665   4.74689   4.76693
 Alpha virt. eigenvalues --    4.77471   4.77906   4.95577   5.08201   5.45115
 Alpha virt. eigenvalues --    6.13802   6.14884   6.30311   6.32996   6.55340
 Alpha virt. eigenvalues --    6.57387  23.28514  23.46655  23.57827  23.70128
 Alpha virt. eigenvalues --   23.72012  23.76946  23.82719  23.85901  23.86276
 Alpha virt. eigenvalues --   23.90588  24.09787  24.10204  24.19413  35.57163
 Alpha virt. eigenvalues --   50.00321  66.89283  66.90161
          Condensed to atoms (all electrons):
               1          2          3          4          5          6
     1  C    5.343221   0.303316  -0.066323   0.001062  -0.001305   0.000061
     2  C    0.303316   5.329465   0.329498  -0.072546  -0.001330  -0.001615
     3  C   -0.066323   0.329498   5.385861   0.289489  -0.074069  -0.000920
     4  C    0.001062  -0.072546   0.289489   5.478295   0.303813  -0.046226
     5  C   -0.001305  -0.001330  -0.074069   0.303813   5.116184   0.247951
     6  O    0.000061  -0.001615  -0.000920  -0.046226   0.247951   8.230228
     7  N    0.005236  -0.045435   0.207919  -0.066756   0.003465  -0.034214
     8  C   -0.000492   0.005812  -0.073349   0.000052   0.000414   0.001336
     9  C    0.000000  -0.000005   0.000033  -0.000001   0.000000   0.000000
    10  C    0.000000   0.000009  -0.000045   0.000004   0.000000   0.000000
    11  C    0.000011   0.000675   0.000250   0.000032  -0.000003  -0.000001
    12  C    0.000010   0.001088  -0.014483  -0.000377  -0.000008   0.000009
    13  C    0.000003   0.000227  -0.001464   0.000044  -0.000006   0.000001
    14  C   -0.000002   0.000012  -0.000237   0.000017   0.000000   0.000000
    15  H    0.000000   0.000000   0.000000   0.000000   0.000000   0.000000
    16  H    0.000000   0.000002  -0.000001   0.000000   0.000000   0.000000
    17  H    0.000000   0.000000   0.000005   0.000001   0.000000   0.000000
    18  F   -0.000002  -0.000340  -0.000010  -0.000003   0.000000   0.000000
    19  F    0.000001   0.000006  -0.000196  -0.000146  -0.000001   0.000000
    20  H    0.386974  -0.035958  -0.008731   0.002665   0.000165  -0.000052
    21  H    0.389629  -0.034719   0.007489  -0.000037  -0.000076   0.000002
    22  H    0.386429  -0.043096  -0.002783  -0.001456   0.000202  -0.000003
    23  H   -0.033793   0.399730  -0.048980   0.009728  -0.000388  -0.000024
    24  H   -0.040439   0.393737  -0.041543  -0.013346   0.004574   0.000296
    25  H    0.001208  -0.009984  -0.052958   0.389879  -0.037219   0.004796
    26  H    0.000136  -0.000590   0.009888  -0.034219   0.389966  -0.032619
    27  H   -0.000628   0.004701  -0.017406  -0.047174   0.389945  -0.036131
    28  H   -0.000166   0.000039   0.002141  -0.009399  -0.062349   0.259724
    29  H    0.000014  -0.000301   0.006687  -0.000493   0.000041   0.000215
    30  H    0.000031  -0.000386  -0.003700   0.001757   0.000224   0.000149
    31  H   -0.003619  -0.038125   0.413627  -0.071465   0.007632  -0.000546
    32  C   -0.000295   0.007844  -0.082853   0.291678  -0.087661  -0.005202
    33  H   -0.000031  -0.000039  -0.014573  -0.039175  -0.013280   0.025176
    34  H    0.000026  -0.000309   0.007896  -0.032412  -0.002568  -0.000704
    35  H    0.000003   0.000303  -0.003024  -0.042958   0.007032   0.000008
    36  H    0.000700  -0.005024  -0.060036   0.006199   0.000385   0.001115
               7          8          9         10         11         12
     1  C    0.005236  -0.000492   0.000000   0.000000   0.000011   0.000010
     2  C   -0.045435   0.005812  -0.000005   0.000009   0.000675   0.001088
     3  C    0.207919  -0.073349   0.000033  -0.000045   0.000250  -0.014483
     4  C   -0.066756   0.000052  -0.000001   0.000004   0.000032  -0.000377
     5  C    0.003465   0.000414   0.000000   0.000000  -0.000003  -0.000008
     6  O   -0.034214   0.001336   0.000000   0.000000  -0.000001   0.000009
     7  N    7.046493   0.283810  -0.000034   0.000497   0.002293  -0.074875
     8  C    0.283810   5.315471  -0.001153   0.007291  -0.080078   0.243790
     9  C   -0.000034  -0.001153   5.066855   0.436463  -0.008457  -0.054392
    10  C    0.000497   0.007291   0.436463   5.169406   0.484004  -0.037817
    11  C    0.002293  -0.080078  -0.008457   0.484004   4.763864   0.236800
    12  C   -0.074875   0.243790  -0.054392  -0.037817   0.236800   5.848512
    13  C    0.000826  -0.068753  -0.006016  -0.060045   0.049571   0.303184
    14  C   -0.000035   0.007832   0.441723  -0.044062  -0.052267  -0.035197
    15  H   -0.000001   0.000025   0.403216  -0.041227   0.006346  -0.001773
    16  H    0.000037  -0.000235  -0.040290   0.395262  -0.051703   0.012375
    17  H    0.000012  -0.000175  -0.040366   0.006970  -0.001769   0.012074
    18  F   -0.003448   0.005771   0.005246  -0.053059   0.308386  -0.085551
    19  F   -0.000020  -0.008705   0.005235  -0.000354   0.005520  -0.071126
    20  H   -0.000085  -0.000011   0.000000   0.000000   0.000000  -0.000001
    21  H   -0.000157   0.000020   0.000000   0.000000  -0.000001  -0.000004
    22  H   -0.000039  -0.000003   0.000000  -0.000002  -0.000001   0.000121
    23  H   -0.001926  -0.000454  -0.000010   0.000112   0.000661  -0.000603
    24  H    0.000184  -0.000010   0.000001  -0.000004  -0.000045   0.000284
    25  H    0.005655  -0.000284   0.000000  -0.000001  -0.000002   0.000145
    26  H   -0.000684  -0.000007   0.000000   0.000000   0.000000  -0.000001
    27  H    0.000185  -0.000019   0.000000   0.000000   0.000003  -0.000002
    28  H    0.055182  -0.003171   0.000000  -0.000002  -0.000084   0.001569
    29  H   -0.032270   0.407775  -0.000055   0.000261  -0.008279  -0.051255
    30  H   -0.031647   0.397863  -0.000273   0.000128   0.006791  -0.062810
    31  H   -0.043939  -0.008453   0.000100  -0.000293  -0.000090   0.002589
    32  C    0.001895  -0.005648   0.000001   0.000000   0.000035   0.000788
    33  H    0.005003  -0.002182   0.000001   0.000000   0.000011   0.000792
    34  H   -0.000454   0.000353   0.000000   0.000000   0.000000  -0.000047
    35  H   -0.000001  -0.000473  -0.000016   0.000005  -0.000017  -0.000074
    36  H    0.337975  -0.046414  -0.000117   0.000597   0.002452  -0.011221
              13         14         15         16         17         18
     1  C    0.000003  -0.000002   0.000000   0.000000   0.000000  -0.000002
     2  C    0.000227   0.000012   0.000000   0.000002   0.000000  -0.000340
     3  C   -0.001464  -0.000237   0.000000  -0.000001   0.000005  -0.000010
     4  C    0.000044   0.000017   0.000000   0.000000   0.000001  -0.000003
     5  C   -0.000006   0.000000   0.000000   0.000000   0.000000   0.000000
     6  O    0.000001   0.000000   0.000000   0.000000   0.000000   0.000000
     7  N    0.000826  -0.000035  -0.000001   0.000037   0.000012  -0.003448
     8  C   -0.068753   0.007832   0.000025  -0.000235  -0.000175   0.005771
     9  C   -0.006016   0.441723   0.403216  -0.040290  -0.040366   0.005246
    10  C   -0.060045  -0.044062  -0.041227   0.395262   0.006970  -0.053059
    11  C    0.049571  -0.052267   0.006346  -0.051703  -0.001769   0.308386
    12  C    0.303184  -0.035197  -0.001773   0.012375   0.012074  -0.085551
    13  C    4.738165   0.477822   0.006195  -0.001682  -0.049110   0.005103
    14  C    0.477822   5.161859  -0.040198   0.006824   0.393718  -0.000511
    15  H    0.006195  -0.040198   0.443906  -0.006404  -0.006373  -0.000080
    16  H   -0.001682   0.006824  -0.006404   0.444447  -0.000124   0.001504
    17  H   -0.049110   0.393718  -0.006373  -0.000124   0.443778   0.000004
    18  F    0.005103  -0.000511  -0.000080   0.001504   0.000004   9.051826
    19  F    0.291349  -0.051330  -0.000083   0.000005   0.001321  -0.000002
    20  H   -0.000001   0.000000   0.000000   0.000000   0.000000   0.000000
    21  H    0.000000   0.000000   0.000000   0.000000   0.000000   0.000000
    22  H    0.000029   0.000015   0.000000   0.000000   0.000001  -0.000001
    23  H   -0.000075   0.000034  -0.000001   0.000022   0.000002   0.000751
    24  H   -0.000010  -0.000002   0.000000   0.000000   0.000000  -0.000059
    25  H    0.000038  -0.000002   0.000000   0.000000   0.000000   0.000000
    26  H    0.000000   0.000000   0.000000   0.000000   0.000000   0.000000
    27  H    0.000001   0.000000   0.000000   0.000000   0.000000   0.000000
    28  H   -0.000039   0.000000   0.000000   0.000000   0.000000  -0.000028
    29  H    0.003398  -0.000069   0.000001  -0.000010   0.000012   0.003733
    30  H   -0.009502   0.001324   0.000004   0.000011  -0.000038   0.000187
    31  H   -0.000018  -0.000970   0.000003  -0.000012  -0.000076   0.000056
    32  C    0.000106  -0.000022   0.000000   0.000000   0.000000   0.000000
    33  H    0.000058  -0.000010   0.000000   0.000000   0.000001   0.000000
    34  H    0.000004   0.000000   0.000000   0.000000   0.000000   0.000000
    35  H   -0.001006   0.000125   0.000000   0.000000   0.000013   0.000000
    36  H   -0.000703   0.000103   0.000002   0.000018  -0.000001   0.011224
              19         20         21         22         23         24
     1  C    0.000001   0.386974   0.389629   0.386429  -0.033793  -0.040439
     2  C    0.000006  -0.035958  -0.034719  -0.043096   0.399730   0.393737
     3  C   -0.000196  -0.008731   0.007489  -0.002783  -0.048980  -0.041543
     4  C   -0.000146   0.002665  -0.000037  -0.001456   0.009728  -0.013346
     5  C   -0.000001   0.000165  -0.000076   0.000202  -0.000388   0.004574
     6  O    0.000000  -0.000052   0.000002  -0.000003  -0.000024   0.000296
     7  N   -0.000020  -0.000085  -0.000157  -0.000039  -0.001926   0.000184
     8  C   -0.008705  -0.000011   0.000020  -0.000003  -0.000454  -0.000010
     9  C    0.005235   0.000000   0.000000   0.000000  -0.000010   0.000001
    10  C   -0.000354   0.000000   0.000000  -0.000002   0.000112  -0.000004
    11  C    0.005520   0.000000  -0.000001  -0.000001   0.000661  -0.000045
    12  C   -0.071126  -0.000001  -0.000004   0.000121  -0.000603   0.000284
    13  C    0.291349  -0.000001   0.000000   0.000029  -0.000075  -0.000010
    14  C   -0.051330   0.000000   0.000000   0.000015   0.000034  -0.000002
    15  H   -0.000083   0.000000   0.000000   0.000000  -0.000001   0.000000
    16  H    0.000005   0.000000   0.000000   0.000000   0.000022   0.000000
    17  H    0.001321   0.000000   0.000000   0.000001   0.000002   0.000000
    18  F   -0.000002   0.000000   0.000000  -0.000001   0.000751  -0.000059
    19  F    9.054818   0.000000   0.000000  -0.000016   0.000000  -0.000001
    20  H    0.000000   0.474663  -0.027177  -0.028458   0.006478  -0.006202
    21  H    0.000000  -0.027177   0.468525  -0.026723  -0.006356  -0.003091
    22  H   -0.000016  -0.028458  -0.026723   0.480485  -0.004143   0.007082
    23  H    0.000000   0.006478  -0.006356  -0.004143   0.486683  -0.036313
    24  H   -0.000001  -0.006202  -0.003091   0.007082  -0.036313   0.488904
    25  H   -0.000031   0.000756   0.000431   0.000011   0.000066   0.000045
    26  H    0.000000  -0.000204  -0.000002   0.000008   0.000012   0.000093
    27  H    0.000000   0.002331  -0.000035  -0.000097   0.000465  -0.001077
    28  H   -0.000003   0.000028   0.000006   0.000003  -0.000219   0.001179
    29  H    0.000091   0.000000  -0.000001   0.000002  -0.000058   0.000042
    30  H    0.012347  -0.000006   0.000000   0.000002   0.000036  -0.000036
    31  H    0.003753  -0.000284  -0.000116   0.004963  -0.009468   0.008393
    32  C   -0.001861   0.000486   0.000006  -0.000185  -0.000235  -0.000302
    33  H   -0.000580   0.000013   0.000002   0.000000   0.000025  -0.000024
    34  H    0.000002   0.000017  -0.000002   0.000006   0.000020  -0.000002
    35  H    0.008507   0.000024  -0.000001  -0.000025  -0.000032  -0.000012
    36  H   -0.000037  -0.000026  -0.000105   0.000034   0.003852   0.000908
              25         26         27         28         29         30
     1  C    0.001208   0.000136  -0.000628  -0.000166   0.000014   0.000031
     2  C   -0.009984  -0.000590   0.004701   0.000039  -0.000301  -0.000386
     3  C   -0.052958   0.009888  -0.017406   0.002141   0.006687  -0.003700
     4  C    0.389879  -0.034219  -0.047174  -0.009399  -0.000493   0.001757
     5  C   -0.037219   0.389966   0.389945  -0.062349   0.000041   0.000224
     6  O    0.004796  -0.032619  -0.036131   0.259724   0.000215   0.000149
     7  N    0.005655  -0.000684   0.000185   0.055182  -0.032270  -0.031647
     8  C   -0.000284  -0.000007  -0.000019  -0.003171   0.407775   0.397863
     9  C    0.000000   0.000000   0.000000   0.000000  -0.000055  -0.000273
    10  C   -0.000001   0.000000   0.000000  -0.000002   0.000261   0.000128
    11  C   -0.000002   0.000000   0.000003  -0.000084  -0.008279   0.006791
    12  C    0.000145  -0.000001  -0.000002   0.001569  -0.051255  -0.062810
    13  C    0.000038   0.000000   0.000001  -0.000039   0.003398  -0.009502
    14  C   -0.000002   0.000000   0.000000   0.000000  -0.000069   0.001324
    15  H    0.000000   0.000000   0.000000   0.000000   0.000001   0.000004
    16  H    0.000000   0.000000   0.000000   0.000000  -0.000010   0.000011
    17  H    0.000000   0.000000   0.000000   0.000000   0.000012  -0.000038
    18  F    0.000000   0.000000   0.000000  -0.000028   0.003733   0.000187
    19  F   -0.000031   0.000000   0.000000  -0.000003   0.000091   0.012347
    20  H    0.000756  -0.000204   0.002331   0.000028   0.000000  -0.000006
    21  H    0.000431  -0.000002  -0.000035   0.000006  -0.000001   0.000000
    22  H    0.000011   0.000008  -0.000097   0.000003   0.000002   0.000002
    23  H    0.000066   0.000012   0.000465  -0.000219  -0.000058   0.000036
    24  H    0.000045   0.000093  -0.001077   0.001179   0.000042  -0.000036
    25  H    0.507439  -0.004487   0.001013  -0.000631   0.000033  -0.000107
    26  H   -0.004487   0.507531  -0.045928   0.006056  -0.000004   0.000100
    27  H    0.001013  -0.045928   0.536839  -0.002159   0.000010  -0.000094
    28  H   -0.000631   0.006056  -0.002159   0.343182  -0.000769  -0.001387
    29  H    0.000033  -0.000004   0.000010  -0.000769   0.436009  -0.021309
    30  H   -0.000107   0.000100  -0.000094  -0.001387  -0.021309   0.429746
    31  H   -0.002624  -0.000281  -0.000311   0.001571   0.000182  -0.002455
    32  C   -0.036212  -0.010342   0.009585   0.001530   0.000143   0.000968
    33  H    0.008816  -0.003702   0.001861  -0.001919   0.000478  -0.000542
    34  H   -0.007618   0.004441  -0.000331  -0.000098  -0.000016   0.000579
    35  H   -0.002858  -0.000103  -0.000258   0.000014   0.000022  -0.001463
    36  H   -0.000341   0.000107  -0.000544  -0.001364  -0.007675   0.006825
              31         32         33         34         35         36
     1  C   -0.003619  -0.000295  -0.000031   0.000026   0.000003   0.000700
     2  C   -0.038125   0.007844  -0.000039  -0.000309   0.000303  -0.005024
     3  C    0.413627  -0.082853  -0.014573   0.007896  -0.003024  -0.060036
     4  C   -0.071465   0.291678  -0.039175  -0.032412  -0.042958   0.006199
     5  C    0.007632  -0.087661  -0.013280  -0.002568   0.007032   0.000385
     6  O   -0.000546  -0.005202   0.025176  -0.000704   0.000008   0.001115
     7  N   -0.043939   0.001895   0.005003  -0.000454  -0.000001   0.337975
     8  C   -0.008453  -0.005648  -0.002182   0.000353  -0.000473  -0.046414
     9  C    0.000100   0.000001   0.000001   0.000000  -0.000016  -0.000117
    10  C   -0.000293   0.000000   0.000000   0.000000   0.000005   0.000597
    11  C   -0.000090   0.000035   0.000011   0.000000  -0.000017   0.002452
    12  C    0.002589   0.000788   0.000792  -0.000047  -0.000074  -0.011221
    13  C   -0.000018   0.000106   0.000058   0.000004  -0.001006  -0.000703
    14  C   -0.000970  -0.000022  -0.000010   0.000000   0.000125   0.000103
    15  H    0.000003   0.000000   0.000000   0.000000   0.000000   0.000002
    16  H   -0.000012   0.000000   0.000000   0.000000   0.000000   0.000018
    17  H   -0.000076   0.000000   0.000001   0.000000   0.000013  -0.000001
    18  F    0.000056   0.000000   0.000000   0.000000   0.000000   0.011224
    19  F    0.003753  -0.001861  -0.000580   0.000002   0.008507  -0.000037
    20  H   -0.000284   0.000486   0.000013   0.000017   0.000024  -0.000026
    21  H   -0.000116   0.000006   0.000002  -0.000002  -0.000001  -0.000105
    22  H    0.004963  -0.000185   0.000000   0.000006  -0.000025   0.000034
    23  H   -0.009468  -0.000235   0.000025   0.000020  -0.000032   0.003852
    24  H    0.008393  -0.000302  -0.000024  -0.000002  -0.000012   0.000908
    25  H   -0.002624  -0.036212   0.008816  -0.007618  -0.002858  -0.000341
    26  H   -0.000281  -0.010342  -0.003702   0.004441  -0.000103   0.000107
    27  H   -0.000311   0.009585   0.001861  -0.000331  -0.000258  -0.000544
    28  H    0.001571   0.001530  -0.001919  -0.000098   0.000014  -0.001364
    29  H    0.000182   0.000143   0.000478  -0.000016   0.000022  -0.007675
    30  H   -0.002455   0.000968  -0.000542   0.000579  -0.001463   0.006825
    31  H    0.498546  -0.006601  -0.000466  -0.000087   0.004656   0.002934
    32  C   -0.006601   5.450490   0.379212   0.385827   0.384120  -0.000721
    33  H   -0.000466   0.379212   0.481743  -0.028325  -0.027652  -0.000231
    34  H   -0.000087   0.385827  -0.028325   0.470014  -0.024673   0.000052
    35  H    0.004656   0.384120  -0.027652  -0.024673   0.469559  -0.000122
    36  H    0.002934  -0.000721  -0.000231   0.000052  -0.000122   0.406895
 Mulliken charges:
               1
     1  C   -0.670977
     2  C   -0.486663
     3  C   -0.093097
     4  C   -0.296526
     5  C   -0.191731
     6  O   -0.612810
     7  N   -0.620647
     8  C   -0.377546
     9  C   -0.207689
    10  C   -0.264101
    11  C    0.335092
    12  C   -0.162511
    13  C    0.322301
    14  C   -0.266495
    15  H    0.236441
    16  H    0.239955
    17  H    0.240122
    18  F   -0.250701
    19  F   -0.248463
    20  H    0.232595
    21  H    0.232494
    22  H    0.227638
    23  H    0.234402
    24  H    0.236796
    25  H    0.235029
    26  H    0.214836
    27  H    0.205255
    28  H    0.411561
    29  H    0.263416
    30  H    0.276682
    31  H    0.241296
    32  C   -0.676576
    33  H    0.229540
    34  H    0.228407
    35  H    0.230374
    36  H    0.352301
 Sum of Mulliken charges =   0.00000
 Mulliken charges with hydrogens summed into heavy atoms:
               1
     1  C    0.021751
     2  C   -0.015465
     3  C    0.148198
     4  C   -0.061497
     5  C    0.228360
     6  O   -0.201249
     7  N   -0.268347
     8  C    0.162552
     9  C    0.028752
    10  C   -0.024146
    11  C    0.335092
    12  C   -0.162511
    13  C    0.322301
    14  C   -0.026373
    18  F   -0.250701
    19  F   -0.248463
    32  C    0.011746
 Electronic spatial extent (au):  <R**2>=           4543.9207
 Charge=              0.0000 electrons
 Dipole moment (field-independent basis, Debye):
    X=              4.6865    Y=             -1.4851    Z=              3.2967  Tot=              5.9192
 Quadrupole moment (field-independent basis, Debye-Ang):
   XX=           -101.9814   YY=           -101.9642   ZZ=           -105.5731
   XY=              0.6402   XZ=             -6.7258   YZ=              0.3036
 Traceless Quadrupole moment (field-independent basis, Debye-Ang):
   XX=              1.1915   YY=              1.2087   ZZ=             -2.4002
   XY=              0.6402   XZ=             -6.7258   YZ=              0.3036
 Octapole moment (field-independent basis, Debye-Ang**2):
  XXX=            107.9263  YYY=             -9.5895  ZZZ=             -7.2996  XYY=              2.5243
  XXY=            -11.5574  XXZ=             65.0961  XZZ=             25.7428  YZZ=              5.1459
  YYZ=             -2.0852  XYZ=              0.5371
 Hexadecapole moment (field-independent basis, Debye-Ang**3):
 XXXX=          -3791.3897 YYYY=          -1103.6187 ZZZZ=           -921.5094 XXXY=            -61.9211
 XXXZ=            -53.2975 YYYX=             -6.5559 YYYZ=             26.2928 ZZZX=            -24.3394
 ZZZY=             38.0117 XXYY=           -799.2206 XXZZ=           -877.1657 YYZZ=           -332.0529
 XXYZ=             46.0325 YYXZ=              8.6771 ZZXY=             24.1178
 N-N= 1.302270311771D+03 E-N=-4.562069610401D+03  KE= 8.332507983678D+02
 1\1\GINC-SWANNODE-0-6\SP\RmPW1PW91\6-311G(d)\C13H19F2N1O1\ROOT\06-Mar-
 2019\0\\# mPW1PW91/6-311g(d) geom=checkpoint nmr=giao scrf=(solvent=ch
 loroform)\\AT3_1ginp015\\0,1\C,0,-1.2913149409,-0.6250876453,0.9674080
 715\C,0,-0.8243035178,0.8291942395,0.8543829893\C,0,0.1234615204,1.305
 6045041,1.9737471218\C,0,-0.4710166265,1.1747184788,3.4038498318\C,0,-
 1.6851188458,2.0971362567,3.629174719\O,0,-1.3427006875,3.4771681369,3
 .62160948\N,0,0.5185958357,2.7141754358,1.6798012347\C,0,1.9426658529,
 3.048338845,1.8634911504\C,0,4.7034499003,0.8796514239,-0.7018928168\C
 ,0,3.8405255991,1.8315141624,-1.2504466433\C,0,2.973201861,2.497380064
 ,-0.3964167023\C,0,2.9110663533,2.2777299172,0.9817153074\C,0,3.791774
 2646,1.310984362,1.4685333892\C,0,4.6852516189,0.6092095803,0.66625908
 51\H,0,5.3921772318,0.3439469133,-1.3465515735\H,0,3.8334917062,2.0585
 962668,-2.3101420543\H,0,5.3422854901,-0.1270717495,1.1144622322\F,0,2
 .1228232222,3.4191141659,-0.9165831351\F,0,3.7753824204,1.0421604632,2
 .7974253587\H,0,-1.9549498198,-0.782598709,1.8226942625\H,0,-1.8421700
 772,-0.9191415242,0.068649079\H,0,-0.4406475713,-1.3076591483,1.073925
 8124\H,0,-0.2895843955,0.9525402246,-0.0967636267\H,0,-1.6949194632,1.
 4957752171,0.8022263323\H,0,-0.8343312375,0.1425401436,3.4932158691\H,
 0,-2.1277316087,1.8771529578,4.609028509\H,0,-2.463105579,1.8789849511
 ,2.8783593581\H,0,-0.6990554043,3.5582712544,2.8837319039\H,0,2.051473
 6092,4.1173000353,1.6562283381\H,0,2.2148287631,2.8924273473,2.9064132
 662\H,0,1.0133476403,0.6575421833,1.9325781917\C,0,0.5782661519,1.3864
 269895,4.5072756335\H,0,0.8337409283,2.4447893052,4.6050334093\H,0,0.1
 846479234,1.0584724709,5.4754738239\H,0,1.4961782893,0.8248783616,4.30
 62423452\H,0,0.2763805926,2.9304091187,0.715912447\\Version=EM64L-G09R
 evD.01\State=1-A\HF=-836.4679487\RMSD=7.069e-09\Dipole=1.1929529,-1.29
 68688,-1.5225591\Quadrupole=1.572041,-1.8870314,0.3149904,3.9737134,0.
 2123207,-2.9613617\PG=C01 [X(C13H19F2N1O1)]\\@


 NATURE REVEALS EVERY SECRET ONCE.
                    - RALPH WALDO EMERSON
 Job cpu time:       0 days  0 hours 47 minutes 10.0 seconds.
 File lengths (MBytes):  RWF=    176 Int=      0 D2E=      0 Chk=     14 Scr=      1
 Normal termination of Gaussian 09 at Wed Mar  6 13:24:54 2019.
