 Entering Gaussian System, Link 0=/usr/local/shared/gaussian/em64t/09-D01/g09/g09
 Initial command:
 /usr/local/shared/gaussian/em64t/09-D01/g09/l1.exe "/scratch/ke291/AT3_1ginp005/Gau-24048.inp" -scrdir="/scratch/ke291/AT3_1ginp005/"
 Entering Link 1 = /usr/local/shared/gaussian/em64t/09-D01/g09/l1.exe PID=     24051.
  
 Copyright (c) 1988,1990,1992,1993,1995,1998,2003,2009,2013,
            Gaussian, Inc.  All Rights Reserved.
  
 This is part of the Gaussian(R) 09 program.  It is based on
 the Gaussian(R) 03 system (copyright 2003, Gaussian, Inc.),
 the Gaussian(R) 98 system (copyright 1998, Gaussian, Inc.),
 the Gaussian(R) 94 system (copyright 1995, Gaussian, Inc.),
 the Gaussian 92(TM) system (copyright 1992, Gaussian, Inc.),
 the Gaussian 90(TM) system (copyright 1990, Gaussian, Inc.),
 the Gaussian 88(TM) system (copyright 1988, Gaussian, Inc.),
 the Gaussian 86(TM) system (copyright 1986, Carnegie Mellon
 University), and the Gaussian 82(TM) system (copyright 1983,
 Carnegie Mellon University). Gaussian is a federally registered
 trademark of Gaussian, Inc.
  
 This software contains proprietary and confidential information,
 including trade secrets, belonging to Gaussian, Inc.
  
 This software is provided under written license and may be
 used, copied, transmitted, or stored only in accord with that
 written license.
  
 The following legend is applicable only to US Government
 contracts under FAR:
  
                    RESTRICTED RIGHTS LEGEND
  
 Use, reproduction and disclosure by the US Government is
 subject to restrictions as set forth in subparagraphs (a)
 and (c) of the Commercial Computer Software - Restricted
 Rights clause in FAR 52.227-19.
  
 Gaussian, Inc.
 340 Quinnipiac St., Bldg. 40, Wallingford CT 06492
  
  
 ---------------------------------------------------------------
 Warning -- This program may not be used in any manner that
 competes with the business of Gaussian, Inc. or will provide
 assistance to any competitor of Gaussian, Inc.  The licensee
 of this program is prohibited from giving any competitor of
 Gaussian, Inc. access to this program.  By using this program,
 the user acknowledges that Gaussian, Inc. is engaged in the
 business of creating and licensing software in the field of
 computational chemistry and represents and warrants to the
 licensee that it is not a competitor of Gaussian, Inc. and that
 it will not use this program in any manner prohibited above.
 ---------------------------------------------------------------
  

 Cite this work as:
 Gaussian 09, Revision D.01,
 M. J. Frisch, G. W. Trucks, H. B. Schlegel, G. E. Scuseria, 
 M. A. Robb, J. R. Cheeseman, G. Scalmani, V. Barone, B. Mennucci, 
 G. A. Petersson, H. Nakatsuji, M. Caricato, X. Li, H. P. Hratchian, 
 A. F. Izmaylov, J. Bloino, G. Zheng, J. L. Sonnenberg, M. Hada, 
 M. Ehara, K. Toyota, R. Fukuda, J. Hasegawa, M. Ishida, T. Nakajima, 
 Y. Honda, O. Kitao, H. Nakai, T. Vreven, J. A. Montgomery, Jr., 
 J. E. Peralta, F. Ogliaro, M. Bearpark, J. J. Heyd, E. Brothers, 
 K. N. Kudin, V. N. Staroverov, T. Keith, R. Kobayashi, J. Normand, 
 K. Raghavachari, A. Rendell, J. C. Burant, S. S. Iyengar, J. Tomasi, 
 M. Cossi, N. Rega, J. M. Millam, M. Klene, J. E. Knox, J. B. Cross, 
 V. Bakken, C. Adamo, J. Jaramillo, R. Gomperts, R. E. Stratmann, 
 O. Yazyev, A. J. Austin, R. Cammi, C. Pomelli, J. W. Ochterski, 
 R. L. Martin, K. Morokuma, V. G. Zakrzewski, G. A. Voth, 
 P. Salvador, J. J. Dannenberg, S. Dapprich, A. D. Daniels, 
 O. Farkas, J. B. Foresman, J. V. Ortiz, J. Cioslowski, 
 and D. J. Fox, Gaussian, Inc., Wallingford CT, 2013.
 
 ******************************************
 Gaussian 09:  EM64L-G09RevD.01 24-Apr-2013
                 6-Mar-2019 
 ******************************************
 %nprocshared=2
 Will use up to    2 processors via shared memory.
 %mem=6000MB
 %chk=AT3_1ginp005.chk
 ----------------------------------------------------------------------
 # mPW1PW91/6-311g(d) geom=checkpoint nmr=giao scrf=(solvent=chloroform
 )
 ----------------------------------------------------------------------
 1/29=2,38=1/1;
 2/12=2,40=1/2;
 3/5=4,6=6,7=1,11=2,14=-4,16=1,25=1,30=1,70=2201,72=7,74=-7/1,2,8,3;
 4//1;
 5/5=2,38=5,53=7/2;
 8/6=1,10=90,11=11/1;
 10/13=100,45=16/2;
 6/7=2,8=2,9=2,10=2,28=1/1;
 99/9=1/99;
 ------------
 AT3_1ginp005
 ------------
 Structure from the checkpoint file:  "AT3_1ginp005.chk"
 Charge =  0 Multiplicity = 1
 Redundant internal coordinates found in file.
 C,0,-3.2059698479,0.562139726,1.5920530371
 C,0,-1.9006621937,1.218868415,1.1322189426
 C,0,-0.6656162137,0.9091367826,2.0010359349
 C,0,-0.8136845069,1.3256261843,3.4909996079
 C,0,-0.9200406386,2.853079659,3.6702494914
 O,0,0.2851310141,3.5358536183,3.3525652599
 N,0,0.5256714753,1.5675076214,1.3855779522
 C,0,1.7030109989,0.6885186714,1.2447933177
 C,0,5.097789108,2.9140661503,-0.2717570197
 C,0,4.1576914411,2.3943395945,-1.1632761274
 C,0,3.0825398682,1.6854077992,-0.6436184745
 C,0,2.8917084984,1.454484278,0.7194403902
 C,0,3.8576983222,2.0071784865,1.5625277593
 C,0,4.9556984173,2.7245036409,1.1037188541
 H,0,5.9465064046,3.4728605305,-0.6517317468
 H,0,4.2435775743,2.5319426615,-2.2348184648
 H,0,5.671303442,3.1209836824,1.8144740392
 F,0,2.1552982387,1.1873643487,-1.4986770416
 F,0,3.7183611641,1.8210302104,2.8958760498
 H,0,-3.5620975502,0.9696261324,2.5426658171
 H,0,-3.9953204939,0.7239733507,0.8515311099
 H,0,-3.0838925873,-0.5197890678,1.7162763119
 H,0,-1.6747297366,0.8758960808,0.1137057252
 H,0,-2.0373132242,2.3057150459,1.0638635613
 H,0,-1.7601873365,0.8964270118,3.845398252
 H,0,-1.153905106,3.0748459792,4.7193946491
 H,0,-1.7635168143,3.2409076647,3.0741600539
 H,0,0.6179957112,3.0725889535,2.5526251378
 H,0,1.9505275624,0.285216253,2.2264224266
 H,0,1.4967815488,-0.1649283765,0.5819382883
 H,0,-0.5251726143,-0.1843487676,1.9778577965
 C,0,0.3075525315,0.7573726375,4.3754753691
 H,0,1.2686118007,1.2251983731,4.1480992715
 H,0,0.0939550915,0.9514704534,5.4322040725
 H,0,0.4067197045,-0.3264822526,4.2492436045
 H,0,0.2746969464,1.8882024674,0.4526227914
 Recover connectivity data from disk.
                          Input orientation:                          
 ---------------------------------------------------------------------
 Center     Atomic      Atomic             Coordinates (Angstroms)
 Number     Number       Type             X           Y           Z
 ---------------------------------------------------------------------
      1          6           0       -3.205970    0.562140    1.592053
      2          6           0       -1.900662    1.218868    1.132219
      3          6           0       -0.665616    0.909137    2.001036
      4          6           0       -0.813685    1.325626    3.491000
      5          6           0       -0.920041    2.853080    3.670249
      6          8           0        0.285131    3.535854    3.352565
      7          7           0        0.525671    1.567508    1.385578
      8          6           0        1.703011    0.688519    1.244793
      9          6           0        5.097789    2.914066   -0.271757
     10          6           0        4.157691    2.394340   -1.163276
     11          6           0        3.082540    1.685408   -0.643618
     12          6           0        2.891708    1.454484    0.719440
     13          6           0        3.857698    2.007178    1.562528
     14          6           0        4.955698    2.724504    1.103719
     15          1           0        5.946506    3.472861   -0.651732
     16          1           0        4.243578    2.531943   -2.234818
     17          1           0        5.671303    3.120984    1.814474
     18          9           0        2.155298    1.187364   -1.498677
     19          9           0        3.718361    1.821030    2.895876
     20          1           0       -3.562098    0.969626    2.542666
     21          1           0       -3.995320    0.723973    0.851531
     22          1           0       -3.083893   -0.519789    1.716276
     23          1           0       -1.674730    0.875896    0.113706
     24          1           0       -2.037313    2.305715    1.063864
     25          1           0       -1.760187    0.896427    3.845398
     26          1           0       -1.153905    3.074846    4.719395
     27          1           0       -1.763517    3.240908    3.074160
     28          1           0        0.617996    3.072589    2.552625
     29          1           0        1.950528    0.285216    2.226422
     30          1           0        1.496782   -0.164928    0.581938
     31          1           0       -0.525173   -0.184349    1.977858
     32          6           0        0.307553    0.757373    4.375475
     33          1           0        1.268612    1.225198    4.148099
     34          1           0        0.093955    0.951470    5.432204
     35          1           0        0.406720   -0.326482    4.249244
     36          1           0        0.274697    1.888202    0.452623
 ---------------------------------------------------------------------
                    Distance matrix (angstroms):
                    1          2          3          4          5
     1  C    0.000000
     2  C    1.531851   0.000000
     3  C    2.596357   1.541465   0.000000
     4  C    3.148323   2.599378   1.554149   0.000000
     5  C    3.846138   3.173935   2.574863   1.541608   0.000000
     6  O    4.912246   3.882789   3.103255   2.472178   1.421106
     7  N    3.870212   2.464312   1.493789   2.507026   2.993744
     8  C    4.922870   3.644229   2.496191   3.432944   4.177148
     9  C    8.829369   7.336427   6.511695   7.185193   7.194262
    10  C    8.072936   6.584427   5.956760   6.893403   7.025438
    11  C    6.767962   5.310702   4.652469   5.692545   5.999464
    12  C    6.224099   4.815882   3.820268   4.629048   5.019240
    13  C    7.210022   5.827977   4.675292   5.099543   5.290069
    14  C    8.457371   7.019788   5.974940   6.398574   6.413105
    15  H    9.862793   8.357094   7.571659   8.214196   8.137144
    16  H    8.603536   7.128309   6.684022   7.734086   7.850854
    17  H    9.241382   7.836975   6.714434   6.934632   6.852846
    18  F    6.219864   4.834607   4.503661   5.807826   6.241003
    19  F    7.157592   5.920009   4.566349   4.597721   4.814515
    20  H    1.093863   2.193593   2.947308   2.929138   3.435012
    21  H    1.094366   2.170553   3.527404   4.177510   4.683547
    22  H    1.095858   2.182679   2.823292   3.421848   4.458308
    23  H    2.151430   1.098201   2.140428   3.514224   4.138576
    24  H    2.164439   1.097534   2.170317   2.889434   2.888106
    25  H    2.698073   2.735881   2.144742   1.098034   2.136589
    26  H    4.506099   4.107326   3.509729   2.164365   1.097533
    27  H    3.384244   2.806882   2.791798   2.178128   1.103261
    28  H    4.674159   3.434745   2.575352   2.445840   1.913851
    29  H    5.202747   4.111040   2.698941   3.212861   4.113237
    30  H    4.864651   3.709491   2.800610   4.002830   4.948441
    31  H    2.809406   2.139181   1.102711   2.157049   3.499440
    32  C    4.486691   3.950684   2.570613   1.537004   2.529094
    33  H    5.195662   4.374914   2.907063   2.185823   2.769212
    34  H    5.078173   4.747617   3.514492   2.175334   2.783665
    35  H    4.571853   4.174681   2.780485   2.189471   3.493586
    36  H    3.895098   2.375299   2.059209   3.276095   3.565320
                    6          7          8          9         10
     6  O    0.000000
     7  N    2.793078   0.000000
     8  C    3.815810   1.475998   0.000000
     9  C    6.056733   5.046210   4.333302   0.000000
    10  C    6.057442   4.513522   3.838500   1.395960   0.000000
    11  C    5.217196   3.266361   2.542241   2.389375   1.388733
    12  C    4.249670   2.460619   1.508543   2.824826   2.455741
    13  C    4.278355   3.365565   2.546075   2.392670   2.769458
    14  C    5.246885   4.587289   3.839936   1.395728   2.425920
    15  H    6.934662   6.096429   5.418175   1.084875   2.150522
    16  H    6.920693   5.278279   4.686191   2.174697   1.083750
    17  H    5.616823   5.392102   4.689218   2.173498   3.418483
    18  F    5.705040   3.334534   2.824897   3.625615   2.361961
    19  F    3.864745   3.540980   2.840826   3.623734   4.122913
    20  H    4.694958   4.290241   5.429997   9.311040   8.680954
    21  H    5.699483   4.629916   5.711996   9.420346   8.562778
    22  H    5.520507   4.182717   4.959511   9.093050   8.320127
    23  H    4.626731   2.633961   3.567016   7.083059   6.160640
    24  H    3.484988   2.686511   4.078981   7.284481   6.583775
    25  H    3.375320   3.424356   4.335910   8.249465   7.896319
    26  H    2.037542   4.025839   5.092090   8.001320   7.954996
    27  H    2.088411   3.300297   4.677402   7.640648   7.330297
    28  H    0.982506   1.906775   2.927708   5.298190   5.176620
    29  H    3.822092   2.093205   1.089731   4.801771   4.561801
    30  H    4.779148   2.142481   1.100127   4.814173   4.083634
    31  H    4.048002   2.126986   2.502815   6.802841   6.200449
    32  C    2.960879   3.105379   3.428296   7.013876   6.941253
    33  H    2.634243   2.881087   2.984278   6.086871   6.158277
    34  H    3.322722   4.115952   4.493619   7.837430   7.880113
    35  H    3.966920   3.435393   3.425977   7.276451   7.125169
    36  H    3.335345   1.017958   2.026538   4.983908   4.236148
                   11         12         13         14         15
    11  C    0.000000
    12  C    1.395590   0.000000
    13  C    2.360400   1.396210   0.000000
    14  C    2.764350   2.453706   1.389484   0.000000
    15  H    3.375997   3.909699   3.378504   2.150197   0.000000
    16  H    2.143956   3.422881   3.852807   3.419068   2.508278
    17  H    3.847700   3.420887   2.143176   1.083725   2.506337
    18  F    1.356079   2.352381   3.597393   4.120377   4.507113
    19  F    3.598706   2.356816   1.353471   2.357773   4.503187
    20  H    7.403780   6.723901   7.555829   8.814931  10.338467
    21  H    7.297666   6.926923   7.988870   9.175318  10.423824
    22  H    6.961098   6.371754   7.388835   8.691127  10.153660
    23  H    4.884717   4.642633   5.829807   6.954139   8.087853
    24  H    5.432603   5.013829   5.923593   7.005654   8.249053
    25  H    6.650246   5.632333   6.164893   7.480761   9.287374
    26  H    6.974232   5.915420   6.018463   7.107961   8.911973
    27  H    6.302834   5.514267   5.950225   7.021194   8.566244
    28  H    4.267812   3.338952   3.551206   4.586519   6.230662
    29  H    3.388085   2.126971   2.653905   4.030092   5.866233
    30  H    2.727703   2.141781   3.354628   4.537089   5.878393
    31  H    4.835671   3.993052   4.917809   6.266218   7.884957
    32  C    5.809742   4.531050   4.698747   6.014919   8.027732
    33  H    5.144190   3.800357   3.741663   5.011065   7.069163
    34  H    6.810721   5.503689   5.500425   6.746553   8.810451
    35  H    5.928559   4.669745   4.957183   6.316332   8.315275
    36  H    3.021068   2.666093   3.752858   4.799490   5.991674
                   16         17         18         19         20
    16  H    0.000000
    17  H    4.333837   0.000000
    18  F    2.590503   5.203667   0.000000
    19  F    5.206273   2.583272   4.707100   0.000000
    20  H    9.284059   9.508643   7.004889   7.338578   0.000000
    21  H    8.981857  10.005825   6.600630   8.055046   1.762942
    22  H    8.866568   9.482527   6.379610   7.289825   1.769169
    23  H    6.579089   7.867480   4.167242   6.141594   3.077465
    24  H    7.098033   7.787866   5.039376   6.059619   2.509374
    25  H    8.699951   8.018751   6.631351   5.636575   2.224714
    26  H    8.819787   7.417827   7.292313   5.351285   3.869042
    27  H    8.048172   7.541733   6.362782   5.665582   2.945522
    28  H    6.029657   5.107164   4.725507   3.361025   4.679287
    29  H    5.496229   4.696323   3.838251   2.435596   5.563943
    30  H    4.769918   5.453714   2.567353   3.772765   5.542917
    31  H    6.918516   7.024830   4.599219   4.782456   3.297511
    32  C    7.895402   6.396500   6.172902   3.867066   4.287008
    33  H    7.162377   5.331370   5.716094   2.815022   5.096910
    34  H    8.860050   6.992966   7.234770   4.508371   4.660095
    35  H    8.058234   6.747516   6.195793   4.172575   4.510412
    36  H    4.836192   5.700680   2.799180   4.222893   4.464645
                   21         22         23         24         25
    21  H    0.000000
    22  H    1.767889   0.000000
    23  H    2.439797   2.549884   0.000000
    24  H    2.526021   3.082928   1.754608   0.000000
    25  H    3.740161   2.879414   3.732727   3.130467   0.000000
    26  H    5.344213   5.066061   5.130206   3.838604   2.424244
    27  H    4.031871   4.210710   3.790178   2.234019   2.468078
    28  H    5.449074   5.225767   4.003795   3.139295   3.473139
    29  H    6.118492   5.123833   4.237330   4.619181   4.094395
    30  H    5.570100   4.732359   3.370614   4.338912   4.731225
    31  H    3.759732   2.593837   2.433241   3.053256   2.486171
    32  C    5.561836   4.494928   4.701720   4.343102   2.139127
    33  H    6.231177   5.282333   5.006156   4.648566   3.061592
    34  H    6.144631   5.106020   5.605389   5.045660   2.441071
    35  H    5.659140   4.317136   4.783390   4.800876   2.520731
    36  H    4.443828   4.321501   2.222587   2.427617   4.078639
                   26         27         28         29         30
    26  H    0.000000
    27  H    1.762385   0.000000
    28  H    2.799023   2.443754   0.000000
    29  H    4.861527   4.821711   3.106686   0.000000
    30  H    5.885645   5.332957   3.890680   1.764325   0.000000
    31  H    4.305076   3.803650   3.499262   2.532068   2.457085
    32  C    2.761308   3.485785   2.963003   2.746038   4.081155
    33  H    3.100994   3.796081   2.526201   2.245310   3.834321
    34  H    2.563977   3.775195   3.614656   3.764013   5.171010
    35  H    3.771687   4.337859   3.804844   2.617121   3.829290
    36  H    4.653425   3.585608   2.435290   2.919647   2.392814
                   31         32         33         34         35
    31  H    0.000000
    32  C    2.707183   0.000000
    33  H    3.148719   1.092793   0.000000
    34  H    3.688619   1.095433   1.761724   0.000000
    35  H    2.459231   1.095678   1.777864   1.769288   0.000000
    36  H    2.694736   4.082723   3.883811   5.070144   4.397339
                   36
    36  H    0.000000
 Stoichiometry    C13H19F2NO
 Framework group  C1[X(C13H19F2NO)]
 Deg. of freedom   102
 Full point group                 C1      NOp   1
 Largest Abelian subgroup         C1      NOp   1
 Largest concise Abelian subgroup C1      NOp   1
                         Standard orientation:                         
 ---------------------------------------------------------------------
 Center     Atomic      Atomic             Coordinates (Angstroms)
 Number     Number       Type             X           Y           Z
 ---------------------------------------------------------------------
      1          6           0       -4.254834    1.941452   -0.062588
      2          6           0       -2.800614    1.692713    0.349652
      3          6           0       -2.092312    0.543416   -0.394350
      4          6           0       -2.787586   -0.838240   -0.242690
      5          6           0       -2.750469   -1.362997    1.206381
      6          8           0       -1.441811   -1.708029    1.639867
      7          7           0       -0.675831    0.475048    0.075025
      8          6           0        0.322484    0.396613   -1.009312
      9          6           0        4.307872   -0.102001    0.617209
     10          6           0        3.761801    1.177861    0.505556
     11          6           0        2.482706    1.301827   -0.020873
     12          6           0        1.713823    0.220499   -0.453562
     13          6           0        2.307765   -1.034589   -0.307304
     14          6           0        3.583291   -1.223415    0.210426
     15          1           0        5.304913   -0.226556    1.026290
     16          1           0        4.302592    2.063348    0.818561
     17          1           0        3.985740   -2.226475    0.290200
     18          9           0        1.936005    2.538723   -0.121647
     19          9           0        1.603614   -2.120430   -0.703542
     20          1           0       -4.914577    1.119420    0.229882
     21          1           0       -4.635526    2.850450    0.413262
     22          1           0       -4.343361    2.072228   -1.147008
     23          1           0       -2.221050    2.606375    0.161578
     24          1           0       -2.747725    1.516311    1.431626
     25          1           0       -3.844395   -0.688989   -0.500678
     26          1           0       -3.366328   -2.268874    1.274814
     27          1           0       -3.209156   -0.622356    1.883318
     28          1           0       -0.873115   -0.996709    1.271186
     29          1           0        0.082899   -0.462094   -1.635998
     30          1           0        0.296380    1.289196   -1.651879
     31          1           0       -2.104689    0.801646   -1.466327
     32          6           0       -2.223235   -1.890784   -1.210183
     33          1           0       -1.200827   -2.168730   -0.942558
     34          1           0       -2.827764   -2.803597   -1.174267
     35          1           0       -2.228653   -1.528069   -2.244068
     36          1           0       -0.470770    1.313596    0.614494
 ---------------------------------------------------------------------
 Rotational constants (GHZ):      0.7356145      0.2767711      0.2270777
 Standard basis: 6-311G(d) (5D, 7F)
 There are   380 symmetry adapted cartesian basis functions of A   symmetry.
 There are   363 symmetry adapted basis functions of A   symmetry.
   363 basis functions,   639 primitive gaussians,   380 cartesian basis functions
    65 alpha electrons       65 beta electrons
       nuclear repulsion energy      1284.4114850940 Hartrees.
 NAtoms=   36 NActive=   36 NUniq=   36 SFac= 1.00D+00 NAtFMM=   60 NAOKFM=F Big=F
 Integral buffers will be    131072 words long.
 Raffenetti 2 integral format.
 Two-electron integral symmetry is turned on.
 ------------------------------------------------------------------------------
 Polarizable Continuum Model (PCM)
 =================================
 Model                : PCM (using non-symmetric T matrix).
 Atomic radii         : UFF (Universal Force Field).
 Polarization charges : Total charges.
 Charge compensation  : None.
 Solution method      : On-the-fly selection.
 Cavity type          : Scaled VdW (van der Waals Surface) (Alpha=1.100).
 Cavity algorithm     : GePol (No added spheres)
                        Default sphere list used, NSphG=   36.
                        Lebedev-Laikov grids with approx.  5.0 points / Ang**2.
                        Smoothing algorithm: Karplus/York (Gamma=1.0000).
                        Polarization charges: spherical gaussians, with
                                              point-specific exponents (IZeta= 3).
                        Self-potential: point-specific (ISelfS= 7).
                        Self-field    : sphere-specific E.n sum rule (ISelfD= 2).
 Solvent              : Chloroform, Eps=   4.711300 Eps(inf)=   2.090627
 ------------------------------------------------------------------------------
 One-electron integrals computed using PRISM.
 NBasis=   363 RedAO= T EigKep=  2.31D-04  NBF=   363
 NBsUse=   363 1.00D-06 EigRej= -1.00D+00 NBFU=   363
 ExpMin= 1.03D-01 ExpMax= 1.14D+04 ExpMxC= 1.72D+03 IAcc=1 IRadAn=         1 AccDes= 0.00D+00
 Harris functional with IExCor=  908 and IRadAn=       1 diagonalized for initial guess.
 HarFok:  IExCor=  908 AccDes= 0.00D+00 IRadAn=         1 IDoV= 1 UseB2=F ITyADJ=14
 ICtDFT=  3500011 ScaDFX=  1.000000  1.000000  1.000000  1.000000
 FoFCou: FMM=F IPFlag=           0 FMFlag=      100000 FMFlg1=           0
         NFxFlg=           0 DoJE=T BraDBF=F KetDBF=T FulRan=T
         wScrn=  0.000000 ICntrl=     500 IOpCl=  0 I1Cent=   200000004 NGrid=           0
         NMat0=    1 NMatS0=      1 NMatT0=    0 NMatD0=    1 NMtDS0=    0 NMtDT0=    0
 Petite list used in FoFCou.
 Requested convergence on RMS density matrix=1.00D-08 within 128 cycles.
 Requested convergence on MAX density matrix=1.00D-06.
 Requested convergence on             energy=1.00D-06.
 No special actions if energy rises.
 Inv3:  Mode=1 IEnd=    19081452.
 Iteration    1 A*A^-1 deviation from unit magnitude is 7.77D-15 for   1642.
 Iteration    1 A*A^-1 deviation from orthogonality  is 7.11D-15 for   2105    764.
 Iteration    1 A^-1*A deviation from unit magnitude is 8.33D-15 for   1642.
 Iteration    1 A^-1*A deviation from orthogonality  is 8.67D-09 for   2282   2115.
 Iteration    2 A*A^-1 deviation from unit magnitude is 8.22D-15 for     76.
 Iteration    2 A*A^-1 deviation from orthogonality  is 7.77D-15 for   2370    397.
 Iteration    2 A^-1*A deviation from unit magnitude is 1.89D-15 for   1400.
 Iteration    2 A^-1*A deviation from orthogonality  is 7.77D-16 for   1846   1327.
 Error on total polarization charges =  0.00963
 SCF Done:  E(RmPW1PW91) =  -836.467114045     A.U. after   12 cycles
            NFock= 12  Conv=0.71D-08     -V/T= 2.0038
 DoSCS=F DFT=T ScalE2(SS,OS)=  1.000000  1.000000
 Range of M.O.s used for correlation:     1   363
 NBasis=   363 NAE=    65 NBE=    65 NFC=     0 NFV=     0
 NROrb=    363 NOA=    65 NOB=    65 NVA=   298 NVB=   298

 **** Warning!!: The largest alpha MO coefficient is  0.13434496D+02

 NEqPCM:  Using equilibrium solvation (IEInf=0, Eps=   4.7113, EpsInf=   2.0906)
          Differentiating once with respect to magnetic field using GIAOs.
          Electric field/nuclear overlap derivatives assumed to be zero.
 FoFJK:  IHMeth= 1 ICntrl=    6127 DoSepK=F KAlg= 0 I1Cent=   0 FoldK=F
 IRaf=         1 NMat=   1 IRICut=       1 DoRegI=T DoRafI=F ISym2E= 0.
          There are     3 degrees of freedom in the 1st order CPHF.  IDoFFX=0 NUNeed=     3.
      3 vectors produced by pass  0 Test12= 6.46D-13 3.33D-08 XBig12= 5.12D+01 2.41D+00.
 AX will form     3 AO Fock derivatives at one time.
      3 vectors produced by pass  1 Test12= 6.46D-13 3.33D-08 XBig12= 1.68D-01 2.36D-01.
      3 vectors produced by pass  2 Test12= 6.46D-13 3.33D-08 XBig12= 8.05D-04 9.35D-03.
      3 vectors produced by pass  3 Test12= 6.46D-13 3.33D-08 XBig12= 1.74D-06 2.67D-04.
      3 vectors produced by pass  4 Test12= 6.46D-13 3.33D-08 XBig12= 3.28D-09 1.56D-05.
      3 vectors produced by pass  5 Test12= 6.46D-13 3.33D-08 XBig12= 1.42D-11 7.33D-07.
 InvSVY:  IOpt=1 It=  1 EMax= 1.78D-15
 Solved reduced A of dimension    18 with     3 vectors.
 Calculating GIAO nuclear magnetic shielding tensors.
 SCF GIAO Magnetic shielding tensor (ppm):
      1  C    Isotropic =   175.4198   Anisotropy =    20.8436
   XX=   184.8172   YX=    -8.1482   ZX=     5.2114
   XY=    -6.6777   YY=   169.5645   ZY=     1.5128
   XZ=     6.3101   YZ=     0.0604   ZZ=   171.8776
   Eigenvalues:   165.0794   171.8643   189.3155
      2  C    Isotropic =   158.0960   Anisotropy =    31.9137
   XX=   173.7876   YX=    -8.6256   ZX=     5.1338
   XY=    -9.8580   YY=   160.2146   ZY=    13.2706
   XZ=    -2.3585   YZ=    15.7868   ZZ=   140.2858
   Eigenvalues:   131.8734   163.0428   179.3719
      3  C    Isotropic =   119.9640   Anisotropy =    28.6167
   XX=   136.6759   YX=     1.3095   ZX=     8.6906
   XY=    -7.2100   YY=   111.5109   ZY=    -7.1553
   XZ=     4.8483   YZ=    -3.5344   ZZ=   111.7052
   Eigenvalues:   105.9981   114.8521   139.0418
      4  C    Isotropic =   150.9716   Anisotropy =     6.7382
   XX=   151.6274   YX=     1.1778   ZX=     0.3716
   XY=    -5.5490   YY=   150.3579   ZY=    -7.0453
   XZ=    -6.5278   YZ=    -2.1083   ZZ=   150.9295
   Eigenvalues:   144.2013   153.2498   155.4638
      5  C    Isotropic =   123.0634   Anisotropy =    58.9420
   XX=   153.3016   YX=    -7.4831   ZX=    20.5324
   XY=    -8.6231   YY=    98.9000   ZY=    -8.0404
   XZ=    15.4822   YZ=    -6.3449   ZZ=   116.9886
   Eigenvalues:    96.3197   110.5125   162.3581
      6  O    Isotropic =   312.8854   Anisotropy =    96.3527
   XX=   295.5819   YX=    30.5420   ZX=   -17.3405
   XY=    51.6846   YY=   329.2510   ZY=   -25.5672
   XZ=   -16.1557   YZ=   -38.1533   ZZ=   313.8234
   Eigenvalues:   267.5267   294.0089   377.1206
      7  N    Isotropic =   193.9469   Anisotropy =    72.0638
   XX=   237.3361   YX=     0.8796   ZX=    20.7207
   XY=   -17.4178   YY=   163.0652   ZY=    24.7412
   XZ=    12.7630   YZ=    25.7548   ZZ=   181.4393
   Eigenvalues:   142.5132   197.3379   241.9894
      8  C    Isotropic =   144.0762   Anisotropy =    53.4010
   XX=   163.2739   YX=    -6.1202   ZX=   -15.9932
   XY=    -4.5649   YY=   115.0806   ZY=    -2.6824
   XZ=   -24.7466   YZ=     0.6985   ZZ=   153.8739
   Eigenvalues:   114.1700   138.3816   179.6768
      9  C    Isotropic =    53.4416   Anisotropy =   189.1903
   XX=   -16.3256   YX=    13.9187   ZX=   -81.7879
   XY=    13.2261   YY=    31.8427   ZY=    -7.7609
   XZ=   -80.3708   YZ=    -7.5765   ZZ=   144.8076
   Eigenvalues:   -51.1760    31.9323   179.5685
     10  C    Isotropic =    72.6871   Anisotropy =   146.1940
   XX=    60.5954   YX=   -19.7825   ZX=   -48.5519
   XY=   -27.5522   YY=    10.9084   ZY=   -26.5567
   XZ=   -50.0479   YZ=   -24.1974   ZZ=   146.5575
   Eigenvalues:   -10.9759    58.8874   170.1497
     11  C    Isotropic =    17.9781   Anisotropy =    96.4160
   XX=    28.4079   YX=    41.3423   ZX=   -19.6672
   XY=    33.6884   YY=   -48.3111   ZY=     0.9274
   XZ=   -18.4614   YZ=    -0.7625   ZZ=    73.8375
   Eigenvalues:   -63.9986    35.6775    82.2554
     12  C    Isotropic =    67.0235   Anisotropy =   137.1053
   XX=    39.8101   YX=     5.7245   ZX=   -53.7836
   XY=     6.1806   YY=    26.9629   ZY=    -9.6350
   XZ=   -50.3986   YZ=   -10.7816   ZZ=   134.2976
   Eigenvalues:    16.5489    26.0947   158.4271
     13  C    Isotropic =    18.5752   Anisotropy =    97.7187
   XX=    17.0125   YX=   -43.8255   ZX=   -33.2773
   XY=   -33.7641   YY=   -30.3549   ZY=   -24.5318
   XZ=   -28.4038   YZ=   -23.3610   ZZ=    69.0681
   Eigenvalues:   -62.1608    34.1655    83.7210
     14  C    Isotropic =    71.8929   Anisotropy =   147.5061
   XX=    67.0531   YX=    22.0420   ZX=   -42.0346
   XY=    30.0985   YY=    -3.4391   ZY=    -2.9805
   XZ=   -41.2790   YZ=    -5.9744   ZZ=   152.0645
   Eigenvalues:   -12.5635    58.0118   170.2303
     15  H    Isotropic =    24.6312   Anisotropy =     3.1155
   XX=    25.5149   YX=    -0.0912   ZX=     1.7102
   XY=    -0.0706   YY=    26.6394   ZY=     0.5153
   XZ=     1.7482   YZ=     0.5090   ZZ=    21.7393
   Eigenvalues:    21.0213    26.1641    26.7082
     16  H    Isotropic =    25.1715   Anisotropy =     4.9030
   XX=    27.5955   YX=    -0.2828   ZX=     2.3166
   XY=    -0.5363   YY=    25.7169   ZY=     0.1328
   XZ=     2.1447   YZ=     0.1573   ZZ=    22.2019
   Eigenvalues:    21.3814    25.6928    28.4401
     17  H    Isotropic =    25.1032   Anisotropy =     5.2649
   XX=    27.7917   YX=    -0.5127   ZX=     2.3263
   XY=    -0.0976   YY=    25.3929   ZY=     0.4505
   XZ=     2.2667   YZ=     0.3363   ZZ=    22.1251
   Eigenvalues:    21.2572    25.4393    28.6131
     18  F    Isotropic =   300.1072   Anisotropy =   117.9851
   XX=   249.7027   YX=   -13.1695   ZX=   -53.6704
   XY=   -26.5404   YY=   296.0322   ZY=   -17.7420
   XZ=   -45.4985   YZ=   -37.9385   ZZ=   354.5867
   Eigenvalues:   218.9415   302.6162   378.7640
     19  F    Isotropic =   296.1356   Anisotropy =   120.8215
   XX=   254.8525   YX=    29.0693   ZX=   -48.4064
   XY=    39.6690   YY=   272.5006   ZY=     8.5796
   XZ=   -38.8433   YZ=    17.8280   ZZ=   361.0537
   Eigenvalues:   215.4713   296.2523   376.6833
     20  H    Isotropic =    31.2331   Anisotropy =     7.7583
   XX=    35.7593   YX=     1.5236   ZX=    -1.2677
   XY=     1.2142   YY=    31.5231   ZY=    -1.2874
   XZ=    -1.2557   YZ=    -1.0898   ZZ=    26.4170
   Eigenvalues:    26.0591    31.2349    36.4054
     21  H    Isotropic =    31.0224   Anisotropy =    11.4420
   XX=    32.0781   YX=    -5.5785   ZX=    -1.2213
   XY=    -4.5577   YY=    33.4577   ZY=     3.0267
   XZ=    -1.0151   YZ=     2.7423   ZZ=    27.5314
   Eigenvalues:    26.0981    28.3186    38.6504
     22  H    Isotropic =    31.3560   Anisotropy =     8.9495
   XX=    31.0431   YX=    -2.6659   ZX=     3.7776
   XY=    -2.2550   YY=    28.6604   ZY=    -1.9418
   XZ=     2.4412   YZ=    -2.2294   ZZ=    34.3645
   Eigenvalues:    27.1152    29.6305    37.3223
     23  H    Isotropic =    30.5160   Anisotropy =     7.1241
   XX=    32.4894   YX=     1.4015   ZX=    -0.5335
   XY=     1.2155   YY=    34.6350   ZY=     0.2382
   XZ=    -0.2380   YZ=     0.8920   ZZ=    24.4235
   Eigenvalues:    24.3661    31.9165    35.2654
     24  H    Isotropic =    30.3099   Anisotropy =     4.6036
   XX=    29.3283   YX=    -2.2655   ZX=     0.6854
   XY=    -1.7331   YY=    28.5971   ZY=     1.6567
   XZ=    -0.5678   YZ=     0.7838   ZZ=    33.0042
   Eigenvalues:    26.7745    30.7762    33.3790
     25  H    Isotropic =    30.6062   Anisotropy =     7.6436
   XX=    35.0253   YX=    -1.5544   ZX=     2.5905
   XY=    -1.4991   YY=    31.0111   ZY=     1.4619
   XZ=     1.0795   YZ=     1.8542   ZZ=    25.7823
   Eigenvalues:    24.8252    31.2915    35.7020
     26  H    Isotropic =    28.6324   Anisotropy =     8.8270
   XX=    31.7668   YX=     4.7295   ZX=    -1.1391
   XY=     2.3428   YY=    27.6943   ZY=    -3.1952
   XZ=    -0.8680   YZ=    -2.6051   ZZ=    26.4361
   Eigenvalues:    23.7627    27.6174    34.5170
     27  H    Isotropic =    27.9513   Anisotropy =     5.8096
   XX=    29.0354   YX=    -3.2178   ZX=    -3.2419
   XY=    -1.9625   YY=    26.3343   ZY=    -0.3991
   XZ=    -1.8902   YZ=    -0.8912   ZZ=    28.4841
   Eigenvalues:    23.8944    28.1351    31.8243
     28  H    Isotropic =    27.9314   Anisotropy =    24.7446
   XX=    30.9453   YX=     9.2937   ZX=    -2.7214
   XY=     8.5789   YY=    30.4669   ZY=   -10.5400
   XZ=    -3.7138   YZ=   -11.3504   ZZ=    22.3821
   Eigenvalues:    14.2923    25.0742    44.4278
     29  H    Isotropic =    28.3033   Anisotropy =     3.8817
   XX=    30.0052   YX=    -0.4047   ZX=    -1.4051
   XY=     0.4408   YY=    28.3012   ZY=     2.4434
   XZ=     0.7109   YZ=     4.1284   ZZ=    26.6035
   Eigenvalues:    24.0449    29.9739    30.8911
     30  H    Isotropic =    28.2599   Anisotropy =     6.3165
   XX=    28.4075   YX=     1.4527   ZX=    -2.3711
   XY=     1.4326   YY=    28.1100   ZY=    -2.6005
   XZ=     0.6654   YZ=    -4.6701   ZZ=    28.2623
   Eigenvalues:    24.4970    27.8119    32.4709
     31  H    Isotropic =    29.3540   Anisotropy =     2.8633
   XX=    29.6964   YX=    -1.2144   ZX=     1.3186
   XY=    -0.1538   YY=    28.6855   ZY=    -1.9794
   XZ=    -0.3050   YZ=    -1.1741   ZZ=    29.6799
   Eigenvalues:    27.4977    29.3014    31.2628
     32  C    Isotropic =   169.5499   Anisotropy =    25.3017
   XX=   152.2107   YX=     0.7283   ZX=   -11.5345
   XY=     2.8648   YY=   182.1122   ZY=     8.0890
   XZ=    -8.0441   YZ=     5.4483   ZZ=   174.3267
   Eigenvalues:   147.9966   174.2354   186.4177
     33  H    Isotropic =    29.8336   Anisotropy =     6.5044
   XX=    33.5411   YX=    -1.5264   ZX=     0.7331
   XY=    -1.9009   YY=    29.4614   ZY=     1.5005
   XZ=     0.1309   YZ=     1.9172   ZZ=    26.4983
   Eigenvalues:    25.5572    29.7738    34.1699
     34  H    Isotropic =    30.9111   Anisotropy =    11.2416
   XX=    29.0582   YX=     3.8237   ZX=     0.7349
   XY=     4.4321   YY=    35.9445   ZY=     2.1967
   XZ=    -0.0218   YZ=     2.7051   ZZ=    27.7307
   Eigenvalues:    26.4637    27.8641    38.4055
     35  H    Isotropic =    31.1624   Anisotropy =     7.5969
   XX=    27.7321   YX=     0.9783   ZX=     0.0476
   XY=     0.2437   YY=    29.6698   ZY=     1.1750
   XZ=     0.3880   YZ=     0.6761   ZZ=    36.0855
   Eigenvalues:    27.5552    29.7050    36.2271
     36  H    Isotropic =    31.5072   Anisotropy =     9.0825
   XX=    35.7353   YX=     2.6230   ZX=     0.0041
   XY=     2.0460   YY=    31.1155   ZY=     5.9840
   XZ=    -2.1273   YZ=     8.0643   ZZ=    27.6707
   Eigenvalues:    21.7869    35.1725    37.5622
 End of Minotr F.D. properties file   721 does not exist.
 End of Minotr F.D. properties file   722 does not exist.
 End of Minotr F.D. properties file   788 does not exist.

 **********************************************************************

            Population analysis using the SCF density.

 **********************************************************************

 Orbital symmetries:
       Occupied  (A) (A) (A) (A) (A) (A) (A) (A) (A) (A) (A) (A)
                 (A) (A) (A) (A) (A) (A) (A) (A) (A) (A) (A) (A)
                 (A) (A) (A) (A) (A) (A) (A) (A) (A) (A) (A) (A)
                 (A) (A) (A) (A) (A) (A) (A) (A) (A) (A) (A) (A)
                 (A) (A) (A) (A) (A) (A) (A) (A) (A) (A) (A) (A)
                 (A) (A) (A) (A) (A)
       Virtual   (A) (A) (A) (A) (A) (A) (A) (A) (A) (A) (A) (A)
                 (A) (A) (A) (A) (A) (A) (A) (A) (A) (A) (A) (A)
                 (A) (A) (A) (A) (A) (A) (A) (A) (A) (A) (A) (A)
                 (A) (A) (A) (A) (A) (A) (A) (A) (A) (A) (A) (A)
                 (A) (A) (A) (A) (A) (A) (A) (A) (A) (A) (A) (A)
                 (A) (A) (A) (A) (A) (A) (A) (A) (A) (A) (A) (A)
                 (A) (A) (A) (A) (A) (A) (A) (A) (A) (A) (A) (A)
                 (A) (A) (A) (A) (A) (A) (A) (A) (A) (A) (A) (A)
                 (A) (A) (A) (A) (A) (A) (A) (A) (A) (A) (A) (A)
                 (A) (A) (A) (A) (A) (A) (A) (A) (A) (A) (A) (A)
                 (A) (A) (A) (A) (A) (A) (A) (A) (A) (A) (A) (A)
                 (A) (A) (A) (A) (A) (A) (A) (A) (A) (A) (A) (A)
                 (A) (A) (A) (A) (A) (A) (A) (A) (A) (A) (A) (A)
                 (A) (A) (A) (A) (A) (A) (A) (A) (A) (A) (A) (A)
                 (A) (A) (A) (A) (A) (A) (A) (A) (A) (A) (A) (A)
                 (A) (A) (A) (A) (A) (A) (A) (A) (A) (A) (A) (A)
                 (A) (A) (A) (A) (A) (A) (A) (A) (A) (A) (A) (A)
                 (A) (A) (A) (A) (A) (A) (A) (A) (A) (A) (A) (A)
                 (A) (A) (A) (A) (A) (A) (A) (A) (A) (A) (A) (A)
                 (A) (A) (A) (A) (A) (A) (A) (A) (A) (A) (A) (A)
                 (A) (A) (A) (A) (A) (A) (A) (A) (A) (A) (A) (A)
                 (A) (A) (A) (A) (A) (A) (A) (A) (A) (A) (A) (A)
                 (A) (A) (A) (A) (A) (A) (A) (A) (A) (A) (A) (A)
                 (A) (A) (A) (A) (A) (A) (A) (A) (A) (A) (A) (A)
                 (A) (A) (A) (A) (A) (A) (A) (A) (A) (A)
 The electronic state is 1-A.
 Alpha  occ. eigenvalues --  -24.80231 -24.80013 -19.17919 -14.39667 -10.33965
 Alpha  occ. eigenvalues --  -10.33937 -10.27592 -10.26948 -10.26760 -10.26316
 Alpha  occ. eigenvalues --  -10.26297 -10.25508 -10.25439 -10.23615 -10.23483
 Alpha  occ. eigenvalues --  -10.22394 -10.21469  -1.27111  -1.26907  -1.02570
 Alpha  occ. eigenvalues --   -0.94892  -0.90836  -0.83378  -0.80290  -0.78945
 Alpha  occ. eigenvalues --   -0.78424  -0.72282  -0.69018  -0.67518  -0.66027
 Alpha  occ. eigenvalues --   -0.64118  -0.62959  -0.58912  -0.57671  -0.55823
 Alpha  occ. eigenvalues --   -0.52281  -0.51843  -0.51619  -0.50815  -0.49190
 Alpha  occ. eigenvalues --   -0.49037  -0.47994  -0.47203  -0.46736  -0.46237
 Alpha  occ. eigenvalues --   -0.44869  -0.44102  -0.43006  -0.41863  -0.41330
 Alpha  occ. eigenvalues --   -0.40440  -0.39292  -0.38994  -0.38662  -0.38230
 Alpha  occ. eigenvalues --   -0.37914  -0.37273  -0.36193  -0.33695  -0.33297
 Alpha  occ. eigenvalues --   -0.32634  -0.27858  -0.27129  -0.26523  -0.25362
 Alpha virt. eigenvalues --   -0.02501  -0.01031   0.04837   0.05654   0.07024
 Alpha virt. eigenvalues --    0.07247   0.07919   0.10044   0.10277   0.10506
 Alpha virt. eigenvalues --    0.11025   0.11684   0.12055   0.13132   0.13518
 Alpha virt. eigenvalues --    0.13650   0.14184   0.14656   0.15495   0.16505
 Alpha virt. eigenvalues --    0.16610   0.17595   0.17906   0.19054   0.20443
 Alpha virt. eigenvalues --    0.21530   0.23099   0.23260   0.24122   0.24609
 Alpha virt. eigenvalues --    0.25064   0.25664   0.26779   0.27856   0.28542
 Alpha virt. eigenvalues --    0.31928   0.32686   0.33013   0.33628   0.34672
 Alpha virt. eigenvalues --    0.35252   0.37155   0.38155   0.38858   0.39186
 Alpha virt. eigenvalues --    0.39531   0.40620   0.41265   0.41816   0.42617
 Alpha virt. eigenvalues --    0.43915   0.44608   0.45409   0.45838   0.46762
 Alpha virt. eigenvalues --    0.47675   0.48419   0.50011   0.50442   0.51247
 Alpha virt. eigenvalues --    0.52252   0.53077   0.53523   0.54289   0.55489
 Alpha virt. eigenvalues --    0.56451   0.56634   0.57599   0.58273   0.59622
 Alpha virt. eigenvalues --    0.60035   0.60436   0.60480   0.61314   0.61761
 Alpha virt. eigenvalues --    0.62219   0.62583   0.63327   0.63655   0.64441
 Alpha virt. eigenvalues --    0.64895   0.65112   0.65502   0.65935   0.67040
 Alpha virt. eigenvalues --    0.67735   0.68454   0.70091   0.71213   0.71698
 Alpha virt. eigenvalues --    0.72313   0.73233   0.74567   0.74901   0.75839
 Alpha virt. eigenvalues --    0.77864   0.78564   0.82017   0.82517   0.85145
 Alpha virt. eigenvalues --    0.86124   0.90200   0.92654   0.92895   0.94381
 Alpha virt. eigenvalues --    0.95836   0.97184   0.98529   0.99242   1.01547
 Alpha virt. eigenvalues --    1.02178   1.03779   1.04059   1.06071   1.07317
 Alpha virt. eigenvalues --    1.08526   1.10109   1.11865   1.13512   1.15205
 Alpha virt. eigenvalues --    1.16761   1.18467   1.19074   1.20480   1.24791
 Alpha virt. eigenvalues --    1.26127   1.27025   1.29430   1.29682   1.31001
 Alpha virt. eigenvalues --    1.35526   1.36478   1.38860   1.40130   1.40549
 Alpha virt. eigenvalues --    1.43835   1.45735   1.47971   1.49096   1.49800
 Alpha virt. eigenvalues --    1.51717   1.52333   1.52614   1.54480   1.55342
 Alpha virt. eigenvalues --    1.56079   1.57847   1.58337   1.59402   1.61026
 Alpha virt. eigenvalues --    1.61945   1.63629   1.65106   1.66161   1.67451
 Alpha virt. eigenvalues --    1.67736   1.68997   1.70287   1.71922   1.73214
 Alpha virt. eigenvalues --    1.73299   1.77489   1.78787   1.81807   1.82636
 Alpha virt. eigenvalues --    1.83831   1.84151   1.84508   1.87236   1.88574
 Alpha virt. eigenvalues --    1.89542   1.90034   1.90787   1.93093   1.95596
 Alpha virt. eigenvalues --    1.96401   1.98367   1.99371   2.02899   2.04466
 Alpha virt. eigenvalues --    2.05792   2.12621   2.13285   2.17942   2.19079
 Alpha virt. eigenvalues --    2.20928   2.23135   2.26207   2.27410   2.28969
 Alpha virt. eigenvalues --    2.30817   2.32852   2.33938   2.37635   2.41267
 Alpha virt. eigenvalues --    2.41739   2.43401   2.44530   2.45033   2.47324
 Alpha virt. eigenvalues --    2.48514   2.49948   2.50467   2.52962   2.54334
 Alpha virt. eigenvalues --    2.55899   2.57266   2.58635   2.61636   2.63109
 Alpha virt. eigenvalues --    2.66112   2.67537   2.69549   2.71670   2.74290
 Alpha virt. eigenvalues --    2.77079   2.83533   2.84949   2.85632   2.86969
 Alpha virt. eigenvalues --    2.89982   2.92371   2.96830   3.00706   3.05788
 Alpha virt. eigenvalues --    3.06163   3.07892   3.08659   3.11206   3.12650
 Alpha virt. eigenvalues --    3.12935   3.15777   3.16265   3.20871   3.22456
 Alpha virt. eigenvalues --    3.23842   3.26475   3.27443   3.28254   3.28574
 Alpha virt. eigenvalues --    3.29438   3.30756   3.32883   3.37412   3.38638
 Alpha virt. eigenvalues --    3.46618   3.48203   3.52198   3.58365   3.63795
 Alpha virt. eigenvalues --    3.74581   3.78310   3.79883   3.80215   3.80763
 Alpha virt. eigenvalues --    3.86082   3.87278   3.95095   3.97042   3.98761
 Alpha virt. eigenvalues --    3.99321   4.07938   4.08511   4.11041   4.11569
 Alpha virt. eigenvalues --    4.17964   4.26326   4.46086   4.74673   4.76377
 Alpha virt. eigenvalues --    4.77475   4.78298   4.96185   5.08316   5.45824
 Alpha virt. eigenvalues --    6.13120   6.14342   6.31456   6.33383   6.55557
 Alpha virt. eigenvalues --    6.58303  23.28817  23.46547  23.57737  23.70306
 Alpha virt. eigenvalues --   23.71381  23.76557  23.81885  23.84169  23.86057
 Alpha virt. eigenvalues --   23.90608  24.09950  24.10650  24.19586  35.57159
 Alpha virt. eigenvalues --   50.00441  66.89384  66.89752
          Condensed to atoms (all electrons):
               1          2          3          4          5          6
     1  C    5.341554   0.304681  -0.067435   0.001304  -0.001139   0.000055
     2  C    0.304681   5.324066   0.332339  -0.072100  -0.001638  -0.001306
     3  C   -0.067435   0.332339   5.335220   0.293518  -0.073866  -0.002356
     4  C    0.001304  -0.072100   0.293518   5.483474   0.303498  -0.049454
     5  C   -0.001139  -0.001638  -0.073866   0.303498   5.113982   0.250828
     6  O    0.000055  -0.001306  -0.002356  -0.049454   0.250828   8.232162
     7  N    0.005337  -0.044662   0.213578  -0.067959   0.002467  -0.033768
     8  C   -0.000369   0.004451  -0.064335  -0.001198   0.000288   0.001441
     9  C    0.000000   0.000000  -0.000001   0.000000   0.000000  -0.000001
    10  C    0.000000   0.000000   0.000013   0.000000   0.000000   0.000000
    11  C    0.000001   0.000004  -0.000034   0.000052  -0.000006   0.000023
    12  C    0.000008  -0.000338   0.011183  -0.000645   0.000138   0.000030
    13  C    0.000000  -0.000003  -0.000847  -0.000004  -0.000009   0.000131
    14  C    0.000000   0.000000   0.000001   0.000003  -0.000001   0.000013
    15  H    0.000000   0.000000   0.000000   0.000000   0.000000   0.000000
    16  H    0.000000   0.000000   0.000000   0.000000   0.000000   0.000000
    17  H    0.000000   0.000000   0.000000   0.000000   0.000000   0.000002
    18  F    0.000000  -0.000038  -0.000061  -0.000002   0.000000   0.000000
    19  F    0.000000   0.000000  -0.000048   0.000087  -0.000024  -0.000082
    20  H    0.387147  -0.036014  -0.008744   0.002784   0.000159  -0.000047
    21  H    0.389521  -0.034881   0.007587  -0.000079  -0.000075   0.000002
    22  H    0.386127  -0.042993  -0.002776  -0.001550   0.000195  -0.000002
    23  H   -0.033785   0.401262  -0.051011   0.009958  -0.000420  -0.000016
    24  H   -0.040525   0.392468  -0.040039  -0.013496   0.004691   0.000105
    25  H    0.001186  -0.009705  -0.052920   0.390361  -0.037244   0.004763
    26  H    0.000119  -0.000503   0.009590  -0.031514   0.387850  -0.033053
    27  H   -0.000496   0.003965  -0.016208  -0.050394   0.392436  -0.036126
    28  H   -0.000172  -0.000122   0.001724  -0.008816  -0.063304   0.256734
    29  H    0.000043  -0.000187  -0.000865   0.001566   0.000237   0.000163
    30  H   -0.000107   0.000879  -0.003277  -0.001325  -0.000002  -0.000136
    31  H   -0.004104  -0.038114   0.415824  -0.068808   0.007580  -0.000649
    32  C   -0.000266   0.007605  -0.087930   0.291603  -0.088431  -0.000513
    33  H   -0.000020  -0.000108  -0.015066  -0.035494  -0.011613   0.022144
    34  H    0.000018  -0.000280   0.008115  -0.033566  -0.003314  -0.000674
    35  H   -0.000005   0.000216  -0.003420  -0.044071   0.007777   0.000056
    36  H    0.000788  -0.003511  -0.056740   0.005930   0.000365   0.001588
               7          8          9         10         11         12
     1  C    0.005337  -0.000369   0.000000   0.000000   0.000001   0.000008
     2  C   -0.044662   0.004451   0.000000   0.000000   0.000004  -0.000338
     3  C    0.213578  -0.064335  -0.000001   0.000013  -0.000034   0.011183
     4  C   -0.067959  -0.001198   0.000000   0.000000   0.000052  -0.000645
     5  C    0.002467   0.000288   0.000000   0.000000  -0.000006   0.000138
     6  O   -0.033768   0.001441  -0.000001   0.000000   0.000023   0.000030
     7  N    7.082713   0.253281   0.000057  -0.000230  -0.005243  -0.074144
     8  C    0.253281   5.296974  -0.001259   0.008893  -0.081948   0.296831
     9  C    0.000057  -0.001259   5.068284   0.435751  -0.007928  -0.053683
    10  C   -0.000230   0.008893   0.435751   5.179336   0.478336  -0.037160
    11  C   -0.005243  -0.081948  -0.007928   0.478336   4.777709   0.256093
    12  C   -0.074144   0.296831  -0.053683  -0.037160   0.256093   5.733911
    13  C    0.012437  -0.078219  -0.005793  -0.063010   0.044719   0.274083
    14  C   -0.000004   0.008219   0.440350  -0.042459  -0.056099  -0.034352
    15  H    0.000000   0.000029   0.402763  -0.040818   0.006211  -0.001725
    16  H    0.000010  -0.000255  -0.040135   0.394153  -0.049934   0.012117
    17  H    0.000011  -0.000235  -0.039948   0.006776  -0.001610   0.011757
    18  F   -0.001331   0.001776   0.005429  -0.054699   0.310911  -0.083227
    19  F   -0.000480  -0.005397   0.005199  -0.000419   0.005421  -0.072298
    20  H   -0.000089  -0.000017   0.000000   0.000000   0.000000   0.000000
    21  H   -0.000168   0.000015   0.000000   0.000000   0.000000   0.000000
    22  H   -0.000066   0.000000   0.000000   0.000000   0.000000   0.000000
    23  H   -0.001978   0.000597   0.000000   0.000003   0.000095  -0.000218
    24  H   -0.000525  -0.000200   0.000000  -0.000001  -0.000027   0.000088
    25  H    0.005807  -0.000234   0.000000   0.000000  -0.000002   0.000019
    26  H   -0.000609   0.000024   0.000000   0.000000   0.000000   0.000001
    27  H   -0.000080  -0.000107   0.000000   0.000000   0.000000  -0.000008
    28  H    0.062263  -0.004521   0.000013  -0.000019  -0.000628  -0.003204
    29  H   -0.041045   0.385084  -0.000131   0.000010   0.009632  -0.033564
    30  H   -0.042738   0.392446  -0.000137   0.000170  -0.019004  -0.037838
    31  H   -0.040782  -0.007921   0.000000  -0.000005  -0.000279   0.000772
    32  C    0.001172  -0.001518   0.000001   0.000000  -0.000012   0.000210
    33  H    0.005790  -0.002782  -0.000020   0.000009  -0.000099  -0.001220
    34  H   -0.000464   0.000286   0.000000   0.000000   0.000001  -0.000003
    35  H    0.000198  -0.000251   0.000000   0.000000  -0.000001   0.000079
    36  H    0.329625  -0.040415  -0.000072   0.000199   0.005981  -0.015833
              13         14         15         16         17         18
     1  C    0.000000   0.000000   0.000000   0.000000   0.000000   0.000000
     2  C   -0.000003   0.000000   0.000000   0.000000   0.000000  -0.000038
     3  C   -0.000847   0.000001   0.000000   0.000000   0.000000  -0.000061
     4  C   -0.000004   0.000003   0.000000   0.000000   0.000000  -0.000002
     5  C   -0.000009  -0.000001   0.000000   0.000000   0.000000   0.000000
     6  O    0.000131   0.000013   0.000000   0.000000   0.000002   0.000000
     7  N    0.012437  -0.000004   0.000000   0.000010   0.000011  -0.001331
     8  C   -0.078219   0.008219   0.000029  -0.000255  -0.000235   0.001776
     9  C   -0.005793   0.440350   0.402763  -0.040135  -0.039948   0.005429
    10  C   -0.063010  -0.042459  -0.040818   0.394153   0.006776  -0.054699
    11  C    0.044719  -0.056099   0.006211  -0.049934  -0.001610   0.310911
    12  C    0.274083  -0.034352  -0.001725   0.012117   0.011757  -0.083227
    13  C    4.760455   0.478662   0.006220  -0.001612  -0.049061   0.005394
    14  C    0.478662   5.159295  -0.040128   0.006711   0.393701  -0.000520
    15  H    0.006220  -0.040128   0.444423  -0.006362  -0.006346  -0.000079
    16  H   -0.001612   0.006711  -0.006362   0.444772  -0.000134   0.001445
    17  H   -0.049061   0.393701  -0.006346  -0.000134   0.443068   0.000004
    18  F    0.005394  -0.000520  -0.000079   0.001445   0.000004   9.052335
    19  F    0.300154  -0.051451  -0.000082   0.000004   0.001486  -0.000002
    20  H    0.000000   0.000000   0.000000   0.000000   0.000000   0.000000
    21  H    0.000000   0.000000   0.000000   0.000000   0.000000   0.000000
    22  H    0.000000   0.000000   0.000000   0.000000   0.000000   0.000000
    23  H   -0.000015   0.000000   0.000000   0.000000   0.000000   0.000033
    24  H    0.000009   0.000000   0.000000   0.000000   0.000000  -0.000015
    25  H    0.000007   0.000000   0.000000   0.000000   0.000000   0.000000
    26  H   -0.000004   0.000000   0.000000   0.000000   0.000000   0.000000
    27  H    0.000005   0.000000   0.000000   0.000000   0.000000   0.000000
    28  H    0.002141  -0.000159   0.000000   0.000001  -0.000002  -0.000030
    29  H   -0.018069   0.000460   0.000003   0.000009  -0.000069   0.000145
    30  H    0.009270  -0.000021   0.000002  -0.000016   0.000012   0.006758
    31  H    0.000179   0.000000   0.000000   0.000000   0.000000  -0.000041
    32  C    0.000009  -0.000016   0.000000   0.000000   0.000000   0.000000
    33  H    0.000371   0.000256   0.000000   0.000000   0.000010   0.000001
    34  H   -0.000008  -0.000001   0.000000   0.000000   0.000000   0.000000
    35  H    0.000012  -0.000002   0.000000   0.000000   0.000000   0.000000
    36  H   -0.001014   0.000037   0.000001   0.000001  -0.000001   0.006827
              19         20         21         22         23         24
     1  C    0.000000   0.387147   0.389521   0.386127  -0.033785  -0.040525
     2  C    0.000000  -0.036014  -0.034881  -0.042993   0.401262   0.392468
     3  C   -0.000048  -0.008744   0.007587  -0.002776  -0.051011  -0.040039
     4  C    0.000087   0.002784  -0.000079  -0.001550   0.009958  -0.013496
     5  C   -0.000024   0.000159  -0.000075   0.000195  -0.000420   0.004691
     6  O   -0.000082  -0.000047   0.000002  -0.000002  -0.000016   0.000105
     7  N   -0.000480  -0.000089  -0.000168  -0.000066  -0.001978  -0.000525
     8  C   -0.005397  -0.000017   0.000015   0.000000   0.000597  -0.000200
     9  C    0.005199   0.000000   0.000000   0.000000   0.000000   0.000000
    10  C   -0.000419   0.000000   0.000000   0.000000   0.000003  -0.000001
    11  C    0.005421   0.000000   0.000000   0.000000   0.000095  -0.000027
    12  C   -0.072298   0.000000   0.000000   0.000000  -0.000218   0.000088
    13  C    0.300154   0.000000   0.000000   0.000000  -0.000015   0.000009
    14  C   -0.051451   0.000000   0.000000   0.000000   0.000000   0.000000
    15  H   -0.000082   0.000000   0.000000   0.000000   0.000000   0.000000
    16  H    0.000004   0.000000   0.000000   0.000000   0.000000   0.000000
    17  H    0.001486   0.000000   0.000000   0.000000   0.000000   0.000000
    18  F   -0.000002   0.000000   0.000000   0.000000   0.000033  -0.000015
    19  F    9.042260   0.000000   0.000000   0.000000   0.000000   0.000000
    20  H    0.000000   0.474030  -0.027088  -0.028512   0.006483  -0.006163
    21  H    0.000000  -0.027088   0.467979  -0.026643  -0.006320  -0.003086
    22  H    0.000000  -0.028512  -0.026643   0.481524  -0.004240   0.007158
    23  H    0.000000   0.006483  -0.006320  -0.004240   0.487873  -0.036700
    24  H    0.000000  -0.006163  -0.003086   0.007158  -0.036700   0.489259
    25  H   -0.000001   0.000863   0.000417   0.000009   0.000005   0.000076
    26  H    0.000000  -0.000202  -0.000002   0.000008   0.000014   0.000049
    27  H   -0.000001   0.002184  -0.000028  -0.000099   0.000453  -0.000364
    28  H    0.001674   0.000028   0.000008   0.000002  -0.000258   0.001129
    29  H    0.010269  -0.000006  -0.000001  -0.000009   0.000149  -0.000093
    30  H    0.000155   0.000009   0.000007  -0.000005  -0.000321   0.000126
    31  H   -0.000006  -0.000203  -0.000120   0.005181  -0.009674   0.008355
    32  C   -0.001900   0.000466   0.000008  -0.000203  -0.000241  -0.000257
    33  H    0.008998   0.000012   0.000002  -0.000001   0.000022  -0.000015
    34  H   -0.000048   0.000016  -0.000002   0.000005   0.000020  -0.000003
    35  H   -0.000160   0.000019  -0.000003   0.000016  -0.000039   0.000004
    36  H   -0.000062  -0.000027  -0.000109   0.000032   0.004059   0.000646
              25         26         27         28         29         30
     1  C    0.001186   0.000119  -0.000496  -0.000172   0.000043  -0.000107
     2  C   -0.009705  -0.000503   0.003965  -0.000122  -0.000187   0.000879
     3  C   -0.052920   0.009590  -0.016208   0.001724  -0.000865  -0.003277
     4  C    0.390361  -0.031514  -0.050394  -0.008816   0.001566  -0.001325
     5  C   -0.037244   0.387850   0.392436  -0.063304   0.000237  -0.000002
     6  O    0.004763  -0.033053  -0.036126   0.256734   0.000163  -0.000136
     7  N    0.005807  -0.000609  -0.000080   0.062263  -0.041045  -0.042738
     8  C   -0.000234   0.000024  -0.000107  -0.004521   0.385084   0.392446
     9  C    0.000000   0.000000   0.000000   0.000013  -0.000131  -0.000137
    10  C    0.000000   0.000000   0.000000  -0.000019   0.000010   0.000170
    11  C   -0.000002   0.000000   0.000000  -0.000628   0.009632  -0.019004
    12  C    0.000019   0.000001  -0.000008  -0.003204  -0.033564  -0.037838
    13  C    0.000007  -0.000004   0.000005   0.002141  -0.018069   0.009270
    14  C    0.000000   0.000000   0.000000  -0.000159   0.000460  -0.000021
    15  H    0.000000   0.000000   0.000000   0.000000   0.000003   0.000002
    16  H    0.000000   0.000000   0.000000   0.000001   0.000009  -0.000016
    17  H    0.000000   0.000000   0.000000  -0.000002  -0.000069   0.000012
    18  F    0.000000   0.000000   0.000000  -0.000030   0.000145   0.006758
    19  F   -0.000001   0.000000  -0.000001   0.001674   0.010269   0.000155
    20  H    0.000863  -0.000202   0.002184   0.000028  -0.000006   0.000009
    21  H    0.000417  -0.000002  -0.000028   0.000008  -0.000001   0.000007
    22  H    0.000009   0.000008  -0.000099   0.000002  -0.000009  -0.000005
    23  H    0.000005   0.000014   0.000453  -0.000258   0.000149  -0.000321
    24  H    0.000076   0.000049  -0.000364   0.001129  -0.000093   0.000126
    25  H    0.507558  -0.004514   0.000764  -0.000518  -0.000232   0.000093
    26  H   -0.004514   0.508906  -0.046229   0.005938   0.000088  -0.000006
    27  H    0.000764  -0.046229   0.537859  -0.002006  -0.000091   0.000002
    28  H   -0.000518   0.005938  -0.002006   0.344636  -0.002368   0.001360
    29  H   -0.000232   0.000088  -0.000091  -0.002368   0.453239  -0.038890
    30  H    0.000093  -0.000006   0.000002   0.001360  -0.038890   0.493500
    31  H   -0.002708  -0.000311  -0.000198   0.001650  -0.004285   0.007588
    32  C   -0.036286  -0.011511   0.010103   0.001036   0.000360   0.000367
    33  H    0.008504  -0.003073   0.001558  -0.001045  -0.003573   0.000483
    34  H   -0.006366   0.004718  -0.000258  -0.000128   0.000551  -0.000031
    35  H   -0.003617  -0.000189  -0.000243   0.000031  -0.000401   0.000144
    36  H   -0.000362   0.000118  -0.000596  -0.002788   0.007934  -0.007140
              31         32         33         34         35         36
     1  C   -0.004104  -0.000266  -0.000020   0.000018  -0.000005   0.000788
     2  C   -0.038114   0.007605  -0.000108  -0.000280   0.000216  -0.003511
     3  C    0.415824  -0.087930  -0.015066   0.008115  -0.003420  -0.056740
     4  C   -0.068808   0.291603  -0.035494  -0.033566  -0.044071   0.005930
     5  C    0.007580  -0.088431  -0.011613  -0.003314   0.007777   0.000365
     6  O   -0.000649  -0.000513   0.022144  -0.000674   0.000056   0.001588
     7  N   -0.040782   0.001172   0.005790  -0.000464   0.000198   0.329625
     8  C   -0.007921  -0.001518  -0.002782   0.000286  -0.000251  -0.040415
     9  C    0.000000   0.000001  -0.000020   0.000000   0.000000  -0.000072
    10  C   -0.000005   0.000000   0.000009   0.000000   0.000000   0.000199
    11  C   -0.000279  -0.000012  -0.000099   0.000001  -0.000001   0.005981
    12  C    0.000772   0.000210  -0.001220  -0.000003   0.000079  -0.015833
    13  C    0.000179   0.000009   0.000371  -0.000008   0.000012  -0.001014
    14  C    0.000000  -0.000016   0.000256  -0.000001  -0.000002   0.000037
    15  H    0.000000   0.000000   0.000000   0.000000   0.000000   0.000001
    16  H    0.000000   0.000000   0.000000   0.000000   0.000000   0.000001
    17  H    0.000000   0.000000   0.000010   0.000000   0.000000  -0.000001
    18  F   -0.000041   0.000000   0.000001   0.000000   0.000000   0.006827
    19  F   -0.000006  -0.001900   0.008998  -0.000048  -0.000160  -0.000062
    20  H   -0.000203   0.000466   0.000012   0.000016   0.000019  -0.000027
    21  H   -0.000120   0.000008   0.000002  -0.000002  -0.000003  -0.000109
    22  H    0.005181  -0.000203  -0.000001   0.000005   0.000016   0.000032
    23  H   -0.009674  -0.000241   0.000022   0.000020  -0.000039   0.004059
    24  H    0.008355  -0.000257  -0.000015  -0.000003   0.000004   0.000646
    25  H   -0.002708  -0.036286   0.008504  -0.006366  -0.003617  -0.000362
    26  H   -0.000311  -0.011511  -0.003073   0.004718  -0.000189   0.000118
    27  H   -0.000198   0.010103   0.001558  -0.000258  -0.000243  -0.000596
    28  H    0.001650   0.001036  -0.001045  -0.000128   0.000031  -0.002788
    29  H   -0.004285   0.000360  -0.003573   0.000551  -0.000401   0.007934
    30  H    0.007588   0.000367   0.000483  -0.000031   0.000144  -0.007140
    31  H    0.504776  -0.005623  -0.000516  -0.000167   0.005287   0.002985
    32  C   -0.005623   5.445896   0.371513   0.387828   0.388832  -0.000649
    33  H   -0.000516   0.371513   0.473293  -0.027220  -0.027352  -0.000409
    34  H   -0.000167   0.387828  -0.027220   0.468482  -0.026205   0.000056
    35  H    0.005287   0.388832  -0.027352  -0.026205   0.481205  -0.000080
    36  H    0.002985  -0.000649  -0.000409   0.000056  -0.000080   0.409234
 Mulliken charges:
               1
     1  C   -0.669466
     2  C   -0.485433
     3  C   -0.080710
     4  C   -0.303663
     5  C   -0.191407
     6  O   -0.612057
     7  N   -0.618379
     8  C   -0.359455
     9  C   -0.208739
    10  C   -0.264828
    11  C    0.327668
    12  C   -0.147859
    13  C    0.323411
    14  C   -0.262498
    15  H    0.235889
    16  H    0.239225
    17  H    0.240580
    18  F   -0.251014
    19  F   -0.243244
    20  H    0.232912
    21  H    0.233060
    22  H    0.226842
    23  H    0.234209
    24  H    0.237343
    25  H    0.234278
    26  H    0.214300
    27  H    0.204202
    28  H    0.409722
    29  H    0.273937
    30  H    0.237622
    31  H    0.224335
    32  C   -0.671652
    33  H    0.236661
    34  H    0.228640
    35  H    0.222164
    36  H    0.353404
 Sum of Mulliken charges =   0.00000
 Mulliken charges with hydrogens summed into heavy atoms:
               1
     1  C    0.023348
     2  C   -0.013881
     3  C    0.143625
     4  C   -0.069384
     5  C    0.227095
     6  O   -0.202336
     7  N   -0.264975
     8  C    0.152104
     9  C    0.027149
    10  C   -0.025603
    11  C    0.327668
    12  C   -0.147859
    13  C    0.323411
    14  C   -0.021917
    18  F   -0.251014
    19  F   -0.243244
    32  C    0.015813
 Electronic spatial extent (au):  <R**2>=           4923.5600
 Charge=              0.0000 electrons
 Dipole moment (field-independent basis, Debye):
    X=              1.1066    Y=              3.2318    Z=             -1.6486  Tot=              3.7930
 Quadrupole moment (field-independent basis, Debye-Ang):
   XX=            -82.0695   YY=           -106.9499   ZZ=           -106.5110
   XY=             -4.6929   XZ=              6.7258   YZ=              5.1138
 Traceless Quadrupole moment (field-independent basis, Debye-Ang):
   XX=             16.4406   YY=             -8.4397   ZZ=             -8.0009
   XY=             -4.6929   XZ=              6.7258   YZ=              5.1138
 Octapole moment (field-independent basis, Debye-Ang**2):
  XXX=             69.1145  YYY=              7.9807  ZZZ=            -14.2187  XYY=              9.2964
  XXY=             -4.8799  XXZ=             25.7126  XZZ=              5.1900  YZZ=             13.8394
  YYZ=             -3.4553  XYZ=             -4.9073
 Hexadecapole moment (field-independent basis, Debye-Ang**3):
 XXXX=          -4185.1261 YYYY=          -1396.5307 ZZZZ=           -518.7574 XXXY=             21.6218
 XXXZ=             97.2890 YYYX=            -11.5751 YYYZ=             20.5285 ZZZX=             -6.8840
 ZZZY=             18.9072 XXYY=           -928.0214 XXZZ=           -870.4005 YYZZ=           -332.9109
 XXYZ=             13.3175 YYXZ=             16.6628 ZZXY=             -6.9878
 N-N= 1.284411485094D+03 E-N=-4.526715667619D+03  KE= 8.332631300550D+02
 1\1\GINC-SWANNODE-0-3\SP\RmPW1PW91\6-311G(d)\C13H19F2N1O1\KE291\06-Mar
 -2019\0\\# mPW1PW91/6-311g(d) geom=checkpoint nmr=giao scrf=(solvent=c
 hloroform)\\AT3_1ginp005\\0,1\C,0,-3.2059698479,0.562139726,1.59205303
 71\C,0,-1.9006621937,1.218868415,1.1322189426\C,0,-0.6656162137,0.9091
 367826,2.0010359349\C,0,-0.8136845069,1.3256261843,3.4909996079\C,0,-0
 .9200406386,2.853079659,3.6702494914\O,0,0.2851310141,3.5358536183,3.3
 525652599\N,0,0.5256714753,1.5675076214,1.3855779522\C,0,1.7030109989,
 0.6885186714,1.2447933177\C,0,5.097789108,2.9140661503,-0.2717570197\C
 ,0,4.1576914411,2.3943395945,-1.1632761274\C,0,3.0825398682,1.68540779
 92,-0.6436184745\C,0,2.8917084984,1.454484278,0.7194403902\C,0,3.85769
 83222,2.0071784865,1.5625277593\C,0,4.9556984173,2.7245036409,1.103718
 8541\H,0,5.9465064046,3.4728605305,-0.6517317468\H,0,4.2435775743,2.53
 19426615,-2.2348184648\H,0,5.671303442,3.1209836824,1.8144740392\F,0,2
 .1552982387,1.1873643487,-1.4986770416\F,0,3.7183611641,1.8210302104,2
 .8958760498\H,0,-3.5620975502,0.9696261324,2.5426658171\H,0,-3.9953204
 939,0.7239733507,0.8515311099\H,0,-3.0838925873,-0.5197890678,1.716276
 3119\H,0,-1.6747297366,0.8758960808,0.1137057252\H,0,-2.0373132242,2.3
 057150459,1.0638635613\H,0,-1.7601873365,0.8964270118,3.845398252\H,0,
 -1.153905106,3.0748459792,4.7193946491\H,0,-1.7635168143,3.2409076647,
 3.0741600539\H,0,0.6179957112,3.0725889535,2.5526251378\H,0,1.95052756
 24,0.285216253,2.2264224266\H,0,1.4967815488,-0.1649283765,0.581938288
 3\H,0,-0.5251726143,-0.1843487676,1.9778577965\C,0,0.3075525315,0.7573
 726375,4.3754753691\H,0,1.2686118007,1.2251983731,4.1480992715\H,0,0.0
 939550915,0.9514704534,5.4322040725\H,0,0.4067197045,-0.3264822526,4.2
 492436045\H,0,0.2746969464,1.8882024674,0.4526227914\\Version=EM64L-G0
 9RevD.01\State=1-A\HF=-836.467114\RMSD=7.060e-09\Dipole=0.0697847,-0.8
 969795,-1.1905883\Quadrupole=9.6145823,-6.014067,-3.6005152,6.2168211,
 -3.9584643,-6.213731\PG=C01 [X(C13H19F2N1O1)]\\@


 NEVER LOSE YOUR IGNORANCE, IT CAN'T BE REPLACED.
   -- ANDY CAPP
 Job cpu time:       0 days  0 hours 27 minutes 22.1 seconds.
 File lengths (MBytes):  RWF=    184 Int=      0 D2E=      0 Chk=     15 Scr=      1
 Normal termination of Gaussian 09 at Wed Mar  6 11:33:12 2019.
