 Entering Gaussian System, Link 0=/usr/local/shared/gaussian/em64t/09-D01/g09/g09
 Initial command:
 /usr/local/shared/gaussian/em64t/09-D01/g09/l1.exe "/scratch/ke291/AT3_2ginp012/Gau-988.inp" -scrdir="/scratch/ke291/AT3_2ginp012/"
 Entering Link 1 = /usr/local/shared/gaussian/em64t/09-D01/g09/l1.exe PID=       992.
  
 Copyright (c) 1988,1990,1992,1993,1995,1998,2003,2009,2013,
            Gaussian, Inc.  All Rights Reserved.
  
 This is part of the Gaussian(R) 09 program.  It is based on
 the Gaussian(R) 03 system (copyright 2003, Gaussian, Inc.),
 the Gaussian(R) 98 system (copyright 1998, Gaussian, Inc.),
 the Gaussian(R) 94 system (copyright 1995, Gaussian, Inc.),
 the Gaussian 92(TM) system (copyright 1992, Gaussian, Inc.),
 the Gaussian 90(TM) system (copyright 1990, Gaussian, Inc.),
 the Gaussian 88(TM) system (copyright 1988, Gaussian, Inc.),
 the Gaussian 86(TM) system (copyright 1986, Carnegie Mellon
 University), and the Gaussian 82(TM) system (copyright 1983,
 Carnegie Mellon University). Gaussian is a federally registered
 trademark of Gaussian, Inc.
  
 This software contains proprietary and confidential information,
 including trade secrets, belonging to Gaussian, Inc.
  
 This software is provided under written license and may be
 used, copied, transmitted, or stored only in accord with that
 written license.
  
 The following legend is applicable only to US Government
 contracts under FAR:
  
                    RESTRICTED RIGHTS LEGEND
  
 Use, reproduction and disclosure by the US Government is
 subject to restrictions as set forth in subparagraphs (a)
 and (c) of the Commercial Computer Software - Restricted
 Rights clause in FAR 52.227-19.
  
 Gaussian, Inc.
 340 Quinnipiac St., Bldg. 40, Wallingford CT 06492
  
  
 ---------------------------------------------------------------
 Warning -- This program may not be used in any manner that
 competes with the business of Gaussian, Inc. or will provide
 assistance to any competitor of Gaussian, Inc.  The licensee
 of this program is prohibited from giving any competitor of
 Gaussian, Inc. access to this program.  By using this program,
 the user acknowledges that Gaussian, Inc. is engaged in the
 business of creating and licensing software in the field of
 computational chemistry and represents and warrants to the
 licensee that it is not a competitor of Gaussian, Inc. and that
 it will not use this program in any manner prohibited above.
 ---------------------------------------------------------------
  

 Cite this work as:
 Gaussian 09, Revision D.01,
 M. J. Frisch, G. W. Trucks, H. B. Schlegel, G. E. Scuseria, 
 M. A. Robb, J. R. Cheeseman, G. Scalmani, V. Barone, B. Mennucci, 
 G. A. Petersson, H. Nakatsuji, M. Caricato, X. Li, H. P. Hratchian, 
 A. F. Izmaylov, J. Bloino, G. Zheng, J. L. Sonnenberg, M. Hada, 
 M. Ehara, K. Toyota, R. Fukuda, J. Hasegawa, M. Ishida, T. Nakajima, 
 Y. Honda, O. Kitao, H. Nakai, T. Vreven, J. A. Montgomery, Jr., 
 J. E. Peralta, F. Ogliaro, M. Bearpark, J. J. Heyd, E. Brothers, 
 K. N. Kudin, V. N. Staroverov, T. Keith, R. Kobayashi, J. Normand, 
 K. Raghavachari, A. Rendell, J. C. Burant, S. S. Iyengar, J. Tomasi, 
 M. Cossi, N. Rega, J. M. Millam, M. Klene, J. E. Knox, J. B. Cross, 
 V. Bakken, C. Adamo, J. Jaramillo, R. Gomperts, R. E. Stratmann, 
 O. Yazyev, A. J. Austin, R. Cammi, C. Pomelli, J. W. Ochterski, 
 R. L. Martin, K. Morokuma, V. G. Zakrzewski, G. A. Voth, 
 P. Salvador, J. J. Dannenberg, S. Dapprich, A. D. Daniels, 
 O. Farkas, J. B. Foresman, J. V. Ortiz, J. Cioslowski, 
 and D. J. Fox, Gaussian, Inc., Wallingford CT, 2013.
 
 ******************************************
 Gaussian 09:  EM64L-G09RevD.01 24-Apr-2013
                 6-Mar-2019 
 ******************************************
 %nprocshared=2
 Will use up to    2 processors via shared memory.
 %mem=6000MB
 %chk=AT3_2ginp012.chk
 ----------------------------------------------------------------------
 # mPW1PW91/6-311g(d) geom=checkpoint nmr=giao scrf=(solvent=chloroform
 )
 ----------------------------------------------------------------------
 1/29=2,38=1/1;
 2/12=2,40=1/2;
 3/5=4,6=6,7=1,11=2,14=-4,16=1,25=1,30=1,70=2201,72=7,74=-7/1,2,8,3;
 4//1;
 5/5=2,38=5,53=7/2;
 8/6=1,10=90,11=11/1;
 10/13=100,45=16/2;
 6/7=2,8=2,9=2,10=2,28=1/1;
 99/9=1/99;
 ------------
 AT3_2ginp012
 ------------
 Structure from the checkpoint file:  "AT3_2ginp012.chk"
 Charge =  0 Multiplicity = 1
 Redundant internal coordinates found in file.
 C,0,-2.45934185,-1.6323283222,-0.8079691844
 C,0,-2.1601302746,-0.6730619199,0.3501548014
 C,0,-2.9269018346,-1.0059820653,1.643190547
 C,0,-2.4089693814,-0.2035917748,2.8664141006
 C,0,-3.0632154116,-0.7253567173,4.1485974192
 O,0,-2.4447910521,-0.0955592849,5.2726088174
 N,0,-4.3854931819,-0.8180165937,1.4748807049
 C,0,-5.1881824283,-2.041991819,1.5839504983
 C,0,-9.3804709819,-1.0804687114,1.0541629754
 C,0,-8.8062146541,-0.9910982444,2.3237636571
 C,0,-7.4613613553,-1.3094389942,2.4642893152
 C,0,-6.6533907343,-1.7294597555,1.4056878477
 C,0,-7.2793045966,-1.7874639042,0.1598497652
 C,0,-8.619381646,-1.4813612295,-0.044594025
 H,0,-10.4287879744,-0.8349328573,0.9205399926
 H,0,-9.3772842187,-0.6803145458,3.1909257455
 H,0,-9.0411914474,-1.5542550104,-1.0402624519
 F,0,-6.902002049,-1.2258152937,3.6942751909
 F,0,-6.5308222134,-2.1643580507,-0.9067279124
 H,0,-1.9113266213,-1.3417709455,-1.7097764054
 H,0,-2.1677209678,-2.6580525243,-0.5558149942
 H,0,-3.5250870818,-1.6451342664,-1.061475389
 H,0,-1.0845755994,-0.6852791158,0.5655374817
 H,0,-2.3972891365,0.3548344064,0.0454045608
 H,0,-1.3320497712,-0.4099531598,2.9554050135
 H,0,-2.9368351949,-1.8194823306,4.2053332665
 H,0,-4.1419735415,-0.5170248523,4.1197633695
 H,0,-2.974641899,-0.3046475548,6.0524184448
 H,0,-4.898657216,-2.8193827738,0.8601420249
 H,0,-5.0385635761,-2.4605179772,2.5831233694
 H,0,-2.7415660885,-2.0700255049,1.859453757
 C,0,-2.6104503648,1.3107636769,2.7258413545
 H,0,-3.6650395885,1.5337138758,2.5325793387
 H,0,-2.315508269,1.8164987752,3.6482862466
 H,0,-2.0161680796,1.7274101799,1.9066821015
 H,0,-4.5791267185,-0.3792448147,0.5791526544
 Recover connectivity data from disk.
                          Input orientation:                          
 ---------------------------------------------------------------------
 Center     Atomic      Atomic             Coordinates (Angstroms)
 Number     Number       Type             X           Y           Z
 ---------------------------------------------------------------------
      1          6           0       -2.459342   -1.632328   -0.807969
      2          6           0       -2.160130   -0.673062    0.350155
      3          6           0       -2.926902   -1.005982    1.643191
      4          6           0       -2.408969   -0.203592    2.866414
      5          6           0       -3.063215   -0.725357    4.148597
      6          8           0       -2.444791   -0.095559    5.272609
      7          7           0       -4.385493   -0.818017    1.474881
      8          6           0       -5.188182   -2.041992    1.583950
      9          6           0       -9.380471   -1.080469    1.054163
     10          6           0       -8.806215   -0.991098    2.323764
     11          6           0       -7.461361   -1.309439    2.464289
     12          6           0       -6.653391   -1.729460    1.405688
     13          6           0       -7.279305   -1.787464    0.159850
     14          6           0       -8.619382   -1.481361   -0.044594
     15          1           0      -10.428788   -0.834933    0.920540
     16          1           0       -9.377284   -0.680315    3.190926
     17          1           0       -9.041191   -1.554255   -1.040262
     18          9           0       -6.902002   -1.225815    3.694275
     19          9           0       -6.530822   -2.164358   -0.906728
     20          1           0       -1.911327   -1.341771   -1.709776
     21          1           0       -2.167721   -2.658053   -0.555815
     22          1           0       -3.525087   -1.645134   -1.061475
     23          1           0       -1.084576   -0.685279    0.565537
     24          1           0       -2.397289    0.354834    0.045405
     25          1           0       -1.332050   -0.409953    2.955405
     26          1           0       -2.936835   -1.819482    4.205333
     27          1           0       -4.141974   -0.517025    4.119763
     28          1           0       -2.974642   -0.304648    6.052418
     29          1           0       -4.898657   -2.819383    0.860142
     30          1           0       -5.038564   -2.460518    2.583123
     31          1           0       -2.741566   -2.070026    1.859454
     32          6           0       -2.610450    1.310764    2.725841
     33          1           0       -3.665040    1.533714    2.532579
     34          1           0       -2.315508    1.816499    3.648286
     35          1           0       -2.016168    1.727410    1.906682
     36          1           0       -4.579127   -0.379245    0.579153
 ---------------------------------------------------------------------
                    Distance matrix (angstroms):
                    1          2          3          4          5
     1  C    0.000000
     2  C    1.533288   0.000000
     3  C    2.572762   1.539713   0.000000
     4  C    3.942704   2.571747   1.551889   0.000000
     5  C    5.074920   3.904672   2.524757   1.531101   0.000000
     6  O    6.271786   4.964383   3.772794   2.408885   1.429159
     7  N    3.095895   2.497651   1.480253   2.494099   2.984253
     8  C    3.651804   3.544760   2.488014   3.570498   3.581400
     9  C    7.188471   7.266012   6.480822   7.256377   7.043390
    10  C    7.106456   6.940225   5.918591   6.468337   6.031805
    11  C    5.985995   5.742612   4.618183   5.187607   4.745707
    12  C    4.743391   4.734925   3.803491   4.741003   4.628297
    13  C    4.918616   5.242524   4.664164   5.792608   5.900304
    14  C    6.208995   6.521587   5.956419   6.976810   7.001813
    15  H    8.193635   8.289888   7.538553   8.276624   8.042638
    16  H    8.047075   7.756117   6.641459   6.992137   6.386441
    17  H    6.586410   7.075222   6.699706   7.814908   7.959117
    18  F    6.338193   5.828724   4.478470   4.681628   3.897839
    19  F    4.107281   4.786091   4.564226   5.922067   6.296931
    20  H    1.094532   2.179998   3.519451   4.741795   6.002279
    21  H    1.095780   2.181978   2.853299   4.218321   5.164177
    22  H    1.095556   2.191057   2.842808   4.330367   5.310760
    23  H    2.161806   1.096976   2.158322   2.698161   4.093280
    24  H    2.163542   1.098038   2.164539   2.875773   4.294934
    25  H    4.114362   2.746320   2.149584   1.100118   2.126058
    26  H    5.039467   4.096334   2.688207   2.163897   1.102861
    27  H    5.325195   4.261690   2.801587   2.161580   1.099069
    28  H    7.006653   5.771912   4.464912   3.237410   1.951762
    29  H    3.184643   3.516576   2.790951   4.131106   4.309029
    30  H    4.340252   4.057897   2.730982   3.476886   3.059983
    31  H    2.717789   2.137185   1.101502   2.146664   2.674280
    32  C    4.601352   3.127657   2.576739   1.534154   2.524880
    33  H    4.757814   3.449288   2.790325   2.169652   2.842025
    34  H    5.636782   4.135181   3.515766   2.168139   2.696369
    35  H    4.342071   2.864571   2.893147   2.191836   3.484043
    36  H    2.826272   2.447511   2.062722   3.157848   3.893420
                    6          7          8          9         10
     6  O    0.000000
     7  N    4.325622   0.000000
     8  C    4.992093   1.467761   0.000000
     9  C    8.177346   5.019531   4.333646   0.000000
    10  C    7.068620   4.504813   3.839513   1.396296   0.000000
    11  C    5.875895   3.268240   2.545383   2.392460   1.389143
    12  C    5.944327   2.445174   1.508738   2.825195   2.454117
    13  C    7.237083   3.323143   2.542762   2.390510   2.765534
    14  C    8.265510   4.546938   3.839218   1.395435   2.425775
    15  H    9.123124   6.068689   5.418584   1.084948   2.150853
    16  H    7.261873   5.280317   4.688828   2.173911   1.083825
    17  H    9.246223   5.342613   4.687223   2.173983   3.418923
    18  F    4.861620   3.380063   2.838449   3.624104   2.357842
    19  F    7.691540   3.476655   2.832161   3.624970   4.121896
    20  H    7.112758   4.066677   4.698588   7.968423   7.995742
    21  H    6.372885   3.525333   3.752508   7.556756   7.425652
    22  H    6.609754   2.803128   3.149867   6.251423   6.306974
    23  H    4.935025   3.426453   4.440431   8.319664   7.925187
    24  H    5.246787   2.715131   3.987604   7.200175   6.933742
    25  H    2.589685   3.417892   4.406154   8.297072   7.523287
    26  H    2.086407   3.249141   3.462618   7.210857   6.219014
    27  H    2.094544   2.673070   3.138539   6.095673   5.020509
    28  H    0.965693   4.817458   5.280656   8.162053   6.955668
    29  H    5.736771   2.155622   1.100936   4.811249   4.555636
    30  H    4.421992   2.086268   1.093570   4.805665   4.052364
    31  H    3.954266   2.101885   2.462239   6.760383   6.177348
    32  C    2.913968   3.040951   4.380592   7.371952   6.621762
    33  H    3.413400   2.677390   4.000691   6.456456   5.731489
    34  H    2.512191   3.993645   5.234662   8.064465   7.194875
    35  H    3.851805   3.504191   4.937026   7.927416   7.325911
    36  H    5.163758   1.016043   2.036000   4.875475   4.613708
                   11         12         13         14         15
    11  C    0.000000
    12  C    1.396378   0.000000
    13  C    2.360528   1.395437   0.000000
    14  C    2.768585   2.455604   1.389713   0.000000
    15  H    3.378452   3.910137   3.377160   2.150187   0.000000
    16  H    2.143492   3.421604   3.848989   3.418286   2.506834
    17  H    3.851971   3.422713   2.144505   1.083786   2.507508
    18  F    1.353788   2.356501   3.598607   4.122358   4.503844
    19  F    3.600076   2.356146   1.356416   2.360475   4.505598
    20  H    6.944549   5.687143   5.701696   6.913054   8.928751
    21  H    6.241988   4.983072   5.234347   6.577984   8.587702
    22  H    5.295089   3.985008   3.950448   5.197375   7.228132
    23  H    6.682681   5.727815   6.305082   7.601270   9.352151
    24  H    5.853686   4.930421   5.332599   6.488000   8.166173
    25  H    6.214397   5.697314   6.714351   7.953183   9.331234
    26  H    4.874702   4.653913   5.934981   7.104051   8.239451
    27  H    3.793000   3.891455   5.209393   6.190234   7.061171
    28  H    5.832232   6.095522   7.446558   8.391740   9.065411
    29  H    3.379448   2.136502   2.687517   4.056185   5.875716
    30  H    2.684968   2.128020   3.368409   4.548176   5.870369
    31  H    4.818795   3.952754   4.853820   6.206500   7.842219
    32  C    5.519530   5.227918   6.162915   7.181819   8.305994
    33  H    4.743442   4.566008   5.451878   6.346496   7.345574
    34  H    6.136215   6.034923   7.056700   8.015739   8.960803
    35  H    6.259673   5.805582   6.565544   7.596455   8.849308
    36  H    3.567391   2.609370   3.074062   4.234074   5.877307
                   16         17         18         19         20
    16  H    0.000000
    17  H    4.333553   0.000000
    18  F    2.584174   5.205752   0.000000
    19  F    5.205333   2.586892   4.710400   0.000000
    20  H    8.955162   7.164382   7.356906   4.760386   0.000000
    21  H    8.362255   6.978370   6.521349   4.404943   1.769170
    22  H    7.298082   5.516894   5.847781   3.054175   1.765374
    23  H    8.698374   8.163421   6.627490   5.832396   2.508297
    24  H    7.725682   6.997480   6.008756   4.933455   2.489034
    25  H    8.053221   8.758176   5.677669   6.709787   4.792469
    26  H    6.618618   8.052936   4.041803   6.258502   6.022325
    27  H    5.319575   7.190553   2.881177   5.803957   6.295993
    28  H    7.023040   9.416510   4.672638   8.033347   7.903033
    29  H    5.483271   4.729976   3.819052   2.492960   4.208558
    30  H    4.728958   5.474602   2.496308   3.807047   5.427725
    31  H    6.909187   6.954111   4.624769   4.692454   3.736182
    32  C    7.068998   7.984128   5.078338   6.375057   5.215306
    33  H    6.161581   7.155680   4.409361   5.806658   5.416780
    34  H    7.504128   8.864496   5.503973   7.373211   6.232725
    35  H    7.850634   8.294864   5.982341   6.591148   4.744432
    36  H    5.471226   4.890110   3.976986   3.033741   3.644559
                   21         22         23         24         25
    21  H    0.000000
    22  H    1.767523   0.000000
    23  H    2.514452   3.086193   0.000000
    24  H    3.080853   2.548919   1.753736   0.000000
    25  H    4.252172   4.740297   2.418370   3.191824   0.000000
    26  H    4.895229   5.302425   4.238561   4.724804   2.474758
    27  H    5.508421   5.338391   4.691323   4.517130   3.043496
    28  H    7.061047   7.259985   5.815763   6.070623   3.507234
    29  H    3.080418   2.637834   4.380458   4.122656   4.787083
    30  H    4.258367   4.029710   4.780810   4.619800   4.252253
    31  H    2.551195   3.053893   2.517411   3.047827   2.437968
    32  C    5.168828   4.890569   3.313517   2.853766   2.155893
    33  H    5.417661   4.800197   3.930900   3.030344   3.065855
    34  H    6.141491   5.968906   4.156613   3.888947   2.530684
    35  H    5.031813   4.739288   2.913349   2.343837   2.477127
    36  H    3.506564   2.324895   3.507952   2.363086   4.023808
                   26         27         28         29         30
    26  H    0.000000
    27  H    1.776535   0.000000
    28  H    2.389116   2.267801   0.000000
    29  H    4.004853   4.061841   6.081567   0.000000
    30  H    2.731255   2.634825   4.576413   1.765509   0.000000
    31  H    2.367288   3.079278   4.555418   2.492630   2.439750
    32  C    3.477623   2.762136   3.715953   5.076892   4.487613
    33  H    3.817370   2.636693   4.030569   4.823724   4.224099
    34  H    3.730510   3.000600   3.273159   5.994815   5.180972
    35  H    4.325722   3.801877   4.715407   5.484279   5.208761
    36  H    4.233272   3.570156   5.704084   2.476959   2.925522
                   31         32         33         34         35
    31  H    0.000000
    32  C    3.492500   0.000000
    33  H    3.780587   1.095087   0.000000
    34  H    4.299595   1.092549   1.773698   0.000000
    35  H    3.866387   1.094435   1.774272   1.769386   0.000000
    36  H    2.806161   3.367505   2.882853   4.400550   3.573386
                   36
    36  H    0.000000
 Stoichiometry    C13H19F2NO
 Framework group  C1[X(C13H19F2NO)]
 Deg. of freedom   102
 Full point group                 C1      NOp   1
 Largest Abelian subgroup         C1      NOp   1
 Largest concise Abelian subgroup C1      NOp   1
                         Standard orientation:                         
 ---------------------------------------------------------------------
 Center     Atomic      Atomic             Coordinates (Angstroms)
 Number     Number       Type             X           Y           Z
 ---------------------------------------------------------------------
      1          6           0        1.560061    3.372042   -0.292208
      2          6           0        2.379459    2.221121    0.303559
      3          6           0        1.985347    0.835226   -0.239292
      4          6           0        2.996669   -0.271437    0.161814
      5          6           0        2.666241   -1.572830   -0.574029
      6          8           0        3.706789   -2.520806   -0.326854
      7          7           0        0.612545    0.460978    0.168753
      8          6           0       -0.349474    0.325621   -0.931484
      9          6           0       -4.224246   -0.789009    0.657297
     10          6           0       -3.289932   -1.781638    0.354992
     11          6           0       -2.057752   -1.395058   -0.156875
     12          6           0       -1.706372   -0.065754   -0.400503
     13          6           0       -2.675418    0.881469   -0.067392
     14          6           0       -3.924780    0.557743    0.447972
     15          1           0       -5.192483   -1.067662    1.059766
     16          1           0       -3.499805   -2.833436    0.511039
     17          1           0       -4.631451    1.346389    0.678721
     18          9           0       -1.150369   -2.355122   -0.452973
     19          9           0       -2.373227    2.189684   -0.260048
     20          1           0        1.859019    4.331815    0.140759
     21          1           0        1.701285    3.436453   -1.376939
     22          1           0        0.487639    3.247823   -0.105869
     23          1           0        3.444558    2.388604    0.101398
     24          1           0        2.273680    2.223145    1.396488
     25          1           0        3.986071    0.050428   -0.195605
     26          1           0        2.580998   -1.371052   -1.654918
     27          1           0        1.693567   -1.951109   -0.229409
     28          1           0        3.404563   -3.377801   -0.653630
     29          1           0       -0.453007    1.240340   -1.535332
     30          1           0        0.005571   -0.463333   -1.600356
     31          1           0        2.008986    0.904175   -1.338380
     32          6           0        3.071272   -0.502539    1.676625
     33          1           0        2.074753   -0.724014    2.073000
     34          1           0        3.724753   -1.350217    1.895871
     35          1           0        3.463532    0.372389    2.204281
     36          1           0        0.251560    1.135861    0.837009
 ---------------------------------------------------------------------
 Rotational constants (GHZ):      0.6258630      0.2864371      0.2129351
 Standard basis: 6-311G(d) (5D, 7F)
 There are   380 symmetry adapted cartesian basis functions of A   symmetry.
 There are   363 symmetry adapted basis functions of A   symmetry.
   363 basis functions,   639 primitive gaussians,   380 cartesian basis functions
    65 alpha electrons       65 beta electrons
       nuclear repulsion energy      1267.4199076478 Hartrees.
 NAtoms=   36 NActive=   36 NUniq=   36 SFac= 1.00D+00 NAtFMM=   60 NAOKFM=F Big=F
 Integral buffers will be    131072 words long.
 Raffenetti 2 integral format.
 Two-electron integral symmetry is turned on.
 ------------------------------------------------------------------------------
 Polarizable Continuum Model (PCM)
 =================================
 Model                : PCM (using non-symmetric T matrix).
 Atomic radii         : UFF (Universal Force Field).
 Polarization charges : Total charges.
 Charge compensation  : None.
 Solution method      : On-the-fly selection.
 Cavity type          : Scaled VdW (van der Waals Surface) (Alpha=1.100).
 Cavity algorithm     : GePol (No added spheres)
                        Default sphere list used, NSphG=   36.
                        Lebedev-Laikov grids with approx.  5.0 points / Ang**2.
                        Smoothing algorithm: Karplus/York (Gamma=1.0000).
                        Polarization charges: spherical gaussians, with
                                              point-specific exponents (IZeta= 3).
                        Self-potential: point-specific (ISelfS= 7).
                        Self-field    : sphere-specific E.n sum rule (ISelfD= 2).
 Solvent              : Chloroform, Eps=   4.711300 Eps(inf)=   2.090627
 ------------------------------------------------------------------------------
 One-electron integrals computed using PRISM.
 NBasis=   363 RedAO= T EigKep=  2.31D-04  NBF=   363
 NBsUse=   363 1.00D-06 EigRej= -1.00D+00 NBFU=   363
 ExpMin= 1.03D-01 ExpMax= 1.14D+04 ExpMxC= 1.72D+03 IAcc=1 IRadAn=         1 AccDes= 0.00D+00
 Harris functional with IExCor=  908 and IRadAn=       1 diagonalized for initial guess.
 HarFok:  IExCor=  908 AccDes= 0.00D+00 IRadAn=         1 IDoV= 1 UseB2=F ITyADJ=14
 ICtDFT=  3500011 ScaDFX=  1.000000  1.000000  1.000000  1.000000
 FoFCou: FMM=F IPFlag=           0 FMFlag=      100000 FMFlg1=           0
         NFxFlg=           0 DoJE=T BraDBF=F KetDBF=T FulRan=T
         wScrn=  0.000000 ICntrl=     500 IOpCl=  0 I1Cent=   200000004 NGrid=           0
         NMat0=    1 NMatS0=      1 NMatT0=    0 NMatD0=    1 NMtDS0=    0 NMtDT0=    0
 Petite list used in FoFCou.
 Requested convergence on RMS density matrix=1.00D-08 within 128 cycles.
 Requested convergence on MAX density matrix=1.00D-06.
 Requested convergence on             energy=1.00D-06.
 No special actions if energy rises.
 Inv3:  Mode=1 IEnd=    18885243.
 Iteration    1 A*A^-1 deviation from unit magnitude is 9.33D-15 for    539.
 Iteration    1 A*A^-1 deviation from orthogonality  is 7.57D-15 for   1586    706.
 Iteration    1 A^-1*A deviation from unit magnitude is 7.55D-15 for    216.
 Iteration    1 A^-1*A deviation from orthogonality  is 2.56D-10 for   1827   1824.
 Iteration    2 A*A^-1 deviation from unit magnitude is 1.09D-14 for    216.
 Iteration    2 A*A^-1 deviation from orthogonality  is 7.44D-15 for   2340    472.
 Iteration    2 A^-1*A deviation from unit magnitude is 1.78D-15 for     40.
 Iteration    2 A^-1*A deviation from orthogonality  is 7.77D-16 for   2046    569.
 Error on total polarization charges =  0.00951
 SCF Done:  E(RmPW1PW91) =  -836.460712138     A.U. after   12 cycles
            NFock= 12  Conv=0.73D-08     -V/T= 2.0038
 DoSCS=F DFT=T ScalE2(SS,OS)=  1.000000  1.000000
 Range of M.O.s used for correlation:     1   363
 NBasis=   363 NAE=    65 NBE=    65 NFC=     0 NFV=     0
 NROrb=    363 NOA=    65 NOB=    65 NVA=   298 NVB=   298

 **** Warning!!: The largest alpha MO coefficient is  0.10450419D+02

 NEqPCM:  Using equilibrium solvation (IEInf=0, Eps=   4.7113, EpsInf=   2.0906)
          Differentiating once with respect to magnetic field using GIAOs.
          Electric field/nuclear overlap derivatives assumed to be zero.
 FoFJK:  IHMeth= 1 ICntrl=    6127 DoSepK=F KAlg= 0 I1Cent=   0 FoldK=F
 IRaf=         1 NMat=   1 IRICut=       1 DoRegI=T DoRafI=F ISym2E= 0.
          There are     3 degrees of freedom in the 1st order CPHF.  IDoFFX=0 NUNeed=     3.
      3 vectors produced by pass  0 Test12= 6.46D-13 3.33D-08 XBig12= 5.32D+01 2.45D+00.
 AX will form     3 AO Fock derivatives at one time.
      3 vectors produced by pass  1 Test12= 6.46D-13 3.33D-08 XBig12= 1.74D-01 2.42D-01.
      3 vectors produced by pass  2 Test12= 6.46D-13 3.33D-08 XBig12= 8.54D-04 9.74D-03.
      3 vectors produced by pass  3 Test12= 6.46D-13 3.33D-08 XBig12= 1.73D-06 2.47D-04.
      3 vectors produced by pass  4 Test12= 6.46D-13 3.33D-08 XBig12= 3.32D-09 1.40D-05.
      3 vectors produced by pass  5 Test12= 6.46D-13 3.33D-08 XBig12= 1.20D-11 8.38D-07.
      1 vectors produced by pass  6 Test12= 6.46D-13 3.33D-08 XBig12= 4.14D-14 6.10D-08.
 InvSVY:  IOpt=1 It=  1 EMax= 5.28D-17
 Solved reduced A of dimension    19 with     3 vectors.
 Calculating GIAO nuclear magnetic shielding tensors.
 SCF GIAO Magnetic shielding tensor (ppm):
      1  C    Isotropic =   175.2103   Anisotropy =    21.6323
   XX=   167.6436   YX=   -10.9674   ZX=     5.5715
   XY=    -5.8630   YY=   182.9116   ZY=    -3.6409
   XZ=     7.4828   YZ=    -4.6536   ZZ=   175.0756
   Eigenvalues:   162.2615   173.7376   189.6318
      2  C    Isotropic =   156.3419   Anisotropy =    27.5236
   XX=   161.5591   YX=     3.4361   ZX=     2.5647
   XY=    12.2650   YY=   168.1805   ZY=     5.3155
   XZ=     1.5040   YZ=     8.2225   ZZ=   139.2859
   Eigenvalues:   137.7752   156.5594   174.6910
      3  C    Isotropic =   123.4876   Anisotropy =    19.8944
   XX=   135.7900   YX=     3.5171   ZX=    -4.5024
   XY=     1.7052   YY=   120.9927   ZY=    -8.4334
   XZ=     0.9826   YZ=    -8.2177   ZZ=   113.6800
   Eigenvalues:   108.2432   125.4689   136.7505
      4  C    Isotropic =   142.0863   Anisotropy =    27.3453
   XX=   151.0510   YX=    -5.8799   ZX=     3.9589
   XY=   -13.5164   YY=   150.1481   ZY=     4.5177
   XZ=     2.7330   YZ=     4.0310   ZZ=   125.0598
   Eigenvalues:   123.3851   142.5573   160.3165
      5  C    Isotropic =   117.5178   Anisotropy =    56.6147
   XX=   117.9995   YX=   -26.7207   ZX=     6.2158
   XY=   -30.3457   YY=   132.2235   ZY=     2.4016
   XZ=    12.0039   YZ=    -3.9713   ZZ=   102.3304
   Eigenvalues:    91.3719   105.9206   155.2609
      6  O    Isotropic =   311.9330   Anisotropy =   101.3604
   XX=   290.4313   YX=    23.7976   ZX=    13.0264
   XY=     5.4006   YY=   359.1978   ZY=    31.8589
   XZ=    -2.1283   YZ=    47.9946   ZZ=   286.1699
   Eigenvalues:   268.5371   287.7553   379.5066
      7  N    Isotropic =   205.9027   Anisotropy =    67.1242
   XX=   235.7113   YX=    13.8592   ZX=   -28.8400
   XY=    41.5489   YY=   169.5244   ZY=    26.5439
   XZ=   -14.1217   YZ=    23.6475   ZZ=   212.4724
   Eigenvalues:   145.0001   222.0558   250.6522
      8  C    Isotropic =   143.3862   Anisotropy =    55.8108
   XX=   158.7457   YX=    13.6088   ZX=    19.0197
   XY=    10.8937   YY=   119.2465   ZY=     1.8549
   XZ=    27.1534   YZ=     1.8921   ZZ=   152.1663
   Eigenvalues:   114.9757   134.5895   180.5934
      9  C    Isotropic =    53.9204   Anisotropy =   188.2330
   XX=   -14.0341   YX=   -15.8808   ZX=    78.2118
   XY=   -15.2254   YY=    28.1693   ZY=    16.5037
   XZ=    76.8845   YZ=    16.3909   ZZ=   147.6259
   Eigenvalues:   -50.6140    32.9661   179.4090
     10  C    Isotropic =    72.1197   Anisotropy =   146.6296
   XX=    72.5335   YX=    -4.1783   ZX=    39.3305
   XY=   -11.9959   YY=    -8.9946   ZY=    17.2092
   XZ=    40.0876   YZ=    14.0519   ZZ=   152.8204
   Eigenvalues:   -12.3366    58.8231   169.8728
     11  C    Isotropic =    17.7009   Anisotropy =    98.1171
   XX=    -2.2834   YX=    53.6130   ZX=    31.4502
   XY=    43.9488   YY=   -17.2458   ZY=   -10.0882
   XZ=    26.5617   YZ=    -9.5560   ZZ=    72.6320
   Eigenvalues:   -64.2739    34.2644    83.1123
     12  C    Isotropic =    65.7404   Anisotropy =   138.9876
   XX=    37.5308   YX=     2.0102   ZX=    51.9356
   XY=     0.5551   YY=    23.0535   ZY=     8.5699
   XZ=    49.4471   YZ=     6.8435   ZZ=   136.6368
   Eigenvalues:    15.7239    23.0984   158.3988
     13  C    Isotropic =    18.3932   Anisotropy =    96.4386
   XX=    38.2191   YX=   -23.0498   ZX=    19.7850
   XY=   -16.2640   YY=   -57.2057   ZY=    14.6274
   XZ=    18.7405   YZ=    11.9792   ZZ=    74.1664
   Eigenvalues:   -63.1872    35.6813    82.6856
     14  C    Isotropic =    72.6215   Anisotropy =   146.1077
   XX=    46.3961   YX=    32.0095   ZX=    47.4936
   XY=    39.6174   YY=    20.2818   ZY=    -5.8151
   XZ=    47.4250   YZ=    -3.0699   ZZ=   151.1867
   Eigenvalues:   -11.2770    59.1148   170.0266
     15  H    Isotropic =    24.6412   Anisotropy =     3.1499
   XX=    25.6005   YX=    -0.2382   ZX=    -1.6733
   XY=    -0.2484   YY=    26.6833   ZY=    -0.2307
   XZ=    -1.6535   YZ=    -0.2265   ZZ=    21.6398
   Eigenvalues:    21.0183    26.1643    26.7412
     16  H    Isotropic =    25.1312   Anisotropy =     5.1635
   XX=    27.6638   YX=     0.7272   ZX=    -2.3301
   XY=     0.3234   YY=    25.6328   ZY=    -0.2300
   XZ=    -2.1566   YZ=    -0.3362   ZZ=    22.0970
   Eigenvalues:    21.3035    25.5166    28.5736
     17  H    Isotropic =    25.1663   Anisotropy =     4.9627
   XX=    27.4832   YX=     0.5547   ZX=    -2.1983
   XY=     0.7557   YY=    25.9125   ZY=    -0.6068
   XZ=    -2.0627   YZ=    -0.4861   ZZ=    22.1031
   Eigenvalues:    21.3414    25.6827    28.4747
     18  F    Isotropic =   297.7066   Anisotropy =   123.0424
   XX=   264.4291   YX=   -25.2096   ZX=    44.5773
   XY=   -40.3512   YY=   265.4533   ZY=    25.4301
   XZ=    33.7730   YZ=    33.4275   ZZ=   363.2374
   Eigenvalues:   216.0747   297.3103   379.7349
     19  F    Isotropic =   301.3235   Anisotropy =   113.4205
   XX=   245.9159   YX=    10.7369   ZX=    52.9862
   XY=    20.3083   YY=   301.1747   ZY=    -2.5309
   XZ=    48.1928   YZ=   -21.9014   ZZ=   356.8800
   Eigenvalues:   221.8072   305.2262   376.9372
     20  H    Isotropic =    30.9509   Anisotropy =    11.4072
   XX=    27.4928   YX=     0.4212   ZX=     1.0606
   XY=     1.2729   YY=    38.0123   ZY=     2.1731
   XZ=     1.4889   YZ=     2.2330   ZZ=    27.3475
   Eigenvalues:    26.0420    28.2549    38.5557
     21  H    Isotropic =    31.0534   Anisotropy =     8.4374
   XX=    27.6276   YX=     0.0552   ZX=    -0.1055
   XY=    -0.1418   YY=    30.9392   ZY=    -3.8737
   XZ=    -0.7246   YZ=    -3.0168   ZZ=    34.5935
   Eigenvalues:    27.5668    28.9150    36.6784
     22  H    Isotropic =    30.7326   Anisotropy =     7.5167
   XX=    35.6236   YX=    -0.2720   ZX=    -1.1248
   XY=    -0.9224   YY=    31.7529   ZY=    -0.8767
   XZ=    -0.1252   YZ=     0.2723   ZZ=    24.8214
   Eigenvalues:    24.7691    31.6850    35.7438
     23  H    Isotropic =    30.6152   Anisotropy =     8.5828
   XX=    35.4140   YX=     1.9847   ZX=    -0.2558
   XY=     2.0677   YY=    31.8327   ZY=    -1.1652
   XZ=     0.4765   YZ=    -0.9494   ZZ=    24.5988
   Eigenvalues:    24.4324    31.0760    36.3371
     24  H    Isotropic =    30.6267   Anisotropy =     5.2556
   XX=    26.8390   YX=    -0.8075   ZX=     2.6081
   XY=    -0.9358   YY=    31.9735   ZY=     0.5421
   XZ=     2.9040   YZ=     0.5339   ZZ=    33.0675
   Eigenvalues:    25.6349    32.1146    34.1304
     25  H    Isotropic =    30.3974   Anisotropy =     6.6348
   XX=    33.5824   YX=     0.4259   ZX=    -3.2928
   XY=     0.7455   YY=    29.5744   ZY=    -0.6837
   XZ=    -2.1502   YZ=    -0.7363   ZZ=    28.0352
   Eigenvalues:    26.8511    29.5204    34.8205
     26  H    Isotropic =    28.1684   Anisotropy =     4.7429
   XX=    26.7486   YX=    -4.5179   ZX=     1.3807
   XY=    -3.3583   YY=    27.9453   ZY=     0.1516
   XZ=     0.4550   YZ=     1.4434   ZZ=    29.8112
   Eigenvalues:    23.1420    30.0328    31.3303
     27  H    Isotropic =    28.1139   Anisotropy =     8.2931
   XX=    32.9713   YX=    -0.7278   ZX=     0.1730
   XY=    -2.4945   YY=    29.6002   ZY=     1.3216
   XZ=     1.6021   YZ=     0.1979   ZZ=    21.7701
   Eigenvalues:    21.5999    29.0991    33.6426
     28  H    Isotropic =    31.4885   Anisotropy =    19.8632
   XX=    27.4564   YX=     0.2735   ZX=     2.0245
   XY=     1.3604   YY=    42.8753   ZY=     6.2447
   XZ=     2.9249   YZ=     5.6496   ZZ=    24.1337
   Eigenvalues:    21.6041    28.1307    44.7306
     29  H    Isotropic =    28.1183   Anisotropy =     5.9476
   XX=    28.9831   YX=    -1.0058   ZX=     2.8300
   XY=    -0.3496   YY=    27.9627   ZY=    -1.9074
   XZ=     1.0701   YZ=    -4.6417   ZZ=    27.4091
   Eigenvalues:    24.1785    28.0930    32.0834
     30  H    Isotropic =    28.7668   Anisotropy =     5.0488
   XX=    29.0303   YX=     1.1228   ZX=     1.5562
   XY=     0.3257   YY=    28.9629   ZY=     2.9105
   XZ=    -1.1854   YZ=     3.7693   ZZ=    28.3073
   Eigenvalues:    25.2463    28.9214    32.1327
     31  H    Isotropic =    29.6535   Anisotropy =     2.2761
   XX=    29.7095   YX=    -0.7799   ZX=    -1.7837
   XY=    -0.2394   YY=    29.0611   ZY=    -1.2507
   XZ=    -0.4055   YZ=    -0.6290   ZZ=    30.1897
   Eigenvalues:    27.9277    29.8618    31.1709
     32  C    Isotropic =   178.3281   Anisotropy =    18.4464
   XX=   172.8340   YX=     4.8852   ZX=    -1.4606
   XY=     4.9470   YY=   171.7675   ZY=    -2.4082
   XZ=    -1.0798   YZ=    -0.1540   ZZ=   190.3828
   Eigenvalues:   167.3554   177.0033   190.6257
     33  H    Isotropic =    31.2556   Anisotropy =     5.9907
   XX=    33.6004   YX=     0.1090   ZX=    -1.7690
   XY=     1.0091   YY=    27.9591   ZY=    -2.3898
   XZ=    -1.5388   YZ=    -2.7568   ZZ=    32.2073
   Eigenvalues:    26.7403    31.7771    35.2494
     34  H    Isotropic =    30.7900   Anisotropy =     9.4035
   XX=    29.4285   YX=    -4.6205   ZX=     3.1516
   XY=    -4.7383   YY=    31.7049   ZY=    -1.1441
   XZ=     3.2329   YZ=    -1.6181   ZZ=    31.2366
   Eigenvalues:    25.2132    30.0978    37.0590
     35  H    Isotropic =    31.4867   Anisotropy =     9.2140
   XX=    29.0427   YX=     1.6605   ZX=     4.2668
   XY=     1.8236   YY=    32.2689   ZY=     2.0683
   XZ=     4.4406   YZ=     2.9129   ZZ=    33.1486
   Eigenvalues:    26.2784    30.5523    37.6294
     36  H    Isotropic =    32.2480   Anisotropy =     8.3928
   XX=    36.3609   YX=    -0.9882   ZX=    -2.1955
   XY=    -1.1823   YY=    29.7269   ZY=     4.6109
   XZ=     0.0131   YZ=     7.4646   ZZ=    30.6561
   Eigenvalues:    24.1357    34.7651    37.8431
 End of Minotr F.D. properties file   721 does not exist.
 End of Minotr F.D. properties file   722 does not exist.
 End of Minotr F.D. properties file   788 does not exist.

 **********************************************************************

            Population analysis using the SCF density.

 **********************************************************************

 Orbital symmetries:
       Occupied  (A) (A) (A) (A) (A) (A) (A) (A) (A) (A) (A) (A)
                 (A) (A) (A) (A) (A) (A) (A) (A) (A) (A) (A) (A)
                 (A) (A) (A) (A) (A) (A) (A) (A) (A) (A) (A) (A)
                 (A) (A) (A) (A) (A) (A) (A) (A) (A) (A) (A) (A)
                 (A) (A) (A) (A) (A) (A) (A) (A) (A) (A) (A) (A)
                 (A) (A) (A) (A) (A)
       Virtual   (A) (A) (A) (A) (A) (A) (A) (A) (A) (A) (A) (A)
                 (A) (A) (A) (A) (A) (A) (A) (A) (A) (A) (A) (A)
                 (A) (A) (A) (A) (A) (A) (A) (A) (A) (A) (A) (A)
                 (A) (A) (A) (A) (A) (A) (A) (A) (A) (A) (A) (A)
                 (A) (A) (A) (A) (A) (A) (A) (A) (A) (A) (A) (A)
                 (A) (A) (A) (A) (A) (A) (A) (A) (A) (A) (A) (A)
                 (A) (A) (A) (A) (A) (A) (A) (A) (A) (A) (A) (A)
                 (A) (A) (A) (A) (A) (A) (A) (A) (A) (A) (A) (A)
                 (A) (A) (A) (A) (A) (A) (A) (A) (A) (A) (A) (A)
                 (A) (A) (A) (A) (A) (A) (A) (A) (A) (A) (A) (A)
                 (A) (A) (A) (A) (A) (A) (A) (A) (A) (A) (A) (A)
                 (A) (A) (A) (A) (A) (A) (A) (A) (A) (A) (A) (A)
                 (A) (A) (A) (A) (A) (A) (A) (A) (A) (A) (A) (A)
                 (A) (A) (A) (A) (A) (A) (A) (A) (A) (A) (A) (A)
                 (A) (A) (A) (A) (A) (A) (A) (A) (A) (A) (A) (A)
                 (A) (A) (A) (A) (A) (A) (A) (A) (A) (A) (A) (A)
                 (A) (A) (A) (A) (A) (A) (A) (A) (A) (A) (A) (A)
                 (A) (A) (A) (A) (A) (A) (A) (A) (A) (A) (A) (A)
                 (A) (A) (A) (A) (A) (A) (A) (A) (A) (A) (A) (A)
                 (A) (A) (A) (A) (A) (A) (A) (A) (A) (A) (A) (A)
                 (A) (A) (A) (A) (A) (A) (A) (A) (A) (A) (A) (A)
                 (A) (A) (A) (A) (A) (A) (A) (A) (A) (A) (A) (A)
                 (A) (A) (A) (A) (A) (A) (A) (A) (A) (A) (A) (A)
                 (A) (A) (A) (A) (A) (A) (A) (A) (A) (A) (A) (A)
                 (A) (A) (A) (A) (A) (A) (A) (A) (A) (A)
 The electronic state is 1-A.
 Alpha  occ. eigenvalues --  -24.80025 -24.79864 -19.20250 -14.37796 -10.33809
 Alpha  occ. eigenvalues --  -10.33768 -10.27003 -10.26580 -10.26520 -10.26206
 Alpha  occ. eigenvalues --  -10.26128 -10.25388 -10.25350 -10.22981 -10.22878
 Alpha  occ. eigenvalues --  -10.22019 -10.20627  -1.26882  -1.26748  -1.04249
 Alpha  occ. eigenvalues --   -0.94043  -0.90615  -0.83031  -0.79795  -0.78812
 Alpha  occ. eigenvalues --   -0.78216  -0.71441  -0.69338  -0.67640  -0.65858
 Alpha  occ. eigenvalues --   -0.63818  -0.61359  -0.58680  -0.57279  -0.55507
 Alpha  occ. eigenvalues --   -0.52763  -0.51978  -0.51525  -0.50825  -0.49245
 Alpha  occ. eigenvalues --   -0.49049  -0.48775  -0.46640  -0.46502  -0.45725
 Alpha  occ. eigenvalues --   -0.43919  -0.43578  -0.42788  -0.41572  -0.41354
 Alpha  occ. eigenvalues --   -0.40702  -0.39439  -0.38397  -0.38188  -0.37773
 Alpha  occ. eigenvalues --   -0.37669  -0.35749  -0.35413  -0.33835  -0.33354
 Alpha  occ. eigenvalues --   -0.31954  -0.28067  -0.27665  -0.27015  -0.23803
 Alpha virt. eigenvalues --   -0.02314  -0.00903   0.05128   0.05866   0.06138
 Alpha virt. eigenvalues --    0.07266   0.07648   0.08807   0.10310   0.10814
 Alpha virt. eigenvalues --    0.11430   0.11736   0.12370   0.12911   0.13276
 Alpha virt. eigenvalues --    0.13973   0.14203   0.14998   0.15590   0.15630
 Alpha virt. eigenvalues --    0.16941   0.18025   0.18332   0.18681   0.20536
 Alpha virt. eigenvalues --    0.21258   0.22642   0.23804   0.24674   0.25288
 Alpha virt. eigenvalues --    0.25543   0.26472   0.27353   0.27894   0.28839
 Alpha virt. eigenvalues --    0.31379   0.32917   0.33227   0.34155   0.35069
 Alpha virt. eigenvalues --    0.36179   0.37570   0.37912   0.38938   0.39772
 Alpha virt. eigenvalues --    0.40123   0.40890   0.41638   0.42021   0.42778
 Alpha virt. eigenvalues --    0.43286   0.44120   0.44973   0.45537   0.46766
 Alpha virt. eigenvalues --    0.47279   0.48494   0.48658   0.51518   0.51750
 Alpha virt. eigenvalues --    0.52455   0.53281   0.53906   0.55198   0.56497
 Alpha virt. eigenvalues --    0.56826   0.57724   0.58409   0.58732   0.59445
 Alpha virt. eigenvalues --    0.60059   0.60748   0.61510   0.61731   0.62000
 Alpha virt. eigenvalues --    0.62501   0.63468   0.63671   0.63914   0.65076
 Alpha virt. eigenvalues --    0.65296   0.65809   0.66049   0.66774   0.67586
 Alpha virt. eigenvalues --    0.68058   0.68823   0.70706   0.71834   0.72628
 Alpha virt. eigenvalues --    0.72959   0.73656   0.74596   0.74987   0.75103
 Alpha virt. eigenvalues --    0.76598   0.78812   0.80356   0.82633   0.84100
 Alpha virt. eigenvalues --    0.87252   0.88057   0.90720   0.91430   0.93916
 Alpha virt. eigenvalues --    0.95453   0.96514   0.97602   0.98497   0.99959
 Alpha virt. eigenvalues --    1.01509   1.02826   1.04030   1.06991   1.07242
 Alpha virt. eigenvalues --    1.09454   1.10233   1.11531   1.12338   1.14552
 Alpha virt. eigenvalues --    1.15969   1.17561   1.19120   1.21546   1.25173
 Alpha virt. eigenvalues --    1.26462   1.27167   1.29584   1.30030   1.31366
 Alpha virt. eigenvalues --    1.36022   1.36286   1.37707   1.39755   1.43873
 Alpha virt. eigenvalues --    1.45566   1.46764   1.48153   1.49309   1.49985
 Alpha virt. eigenvalues --    1.51467   1.51912   1.53048   1.53906   1.54992
 Alpha virt. eigenvalues --    1.55499   1.57257   1.59029   1.59753   1.60234
 Alpha virt. eigenvalues --    1.62559   1.63665   1.65514   1.65641   1.67485
 Alpha virt. eigenvalues --    1.68056   1.68592   1.70331   1.72413   1.72768
 Alpha virt. eigenvalues --    1.74538   1.76472   1.78274   1.79892   1.82391
 Alpha virt. eigenvalues --    1.83691   1.84496   1.84985   1.88989   1.89749
 Alpha virt. eigenvalues --    1.90171   1.91848   1.93063   1.94867   1.95817
 Alpha virt. eigenvalues --    1.96207   1.99004   1.99315   2.00749   2.03482
 Alpha virt. eigenvalues --    2.08293   2.10131   2.12732   2.16840   2.17719
 Alpha virt. eigenvalues --    2.21431   2.24313   2.26345   2.27517   2.27717
 Alpha virt. eigenvalues --    2.30703   2.32992   2.34549   2.36924   2.40727
 Alpha virt. eigenvalues --    2.42230   2.43378   2.43632   2.45312   2.46072
 Alpha virt. eigenvalues --    2.47827   2.51523   2.51838   2.53908   2.54381
 Alpha virt. eigenvalues --    2.55020   2.57295   2.58327   2.61297   2.64244
 Alpha virt. eigenvalues --    2.66135   2.66644   2.70114   2.72369   2.73321
 Alpha virt. eigenvalues --    2.76491   2.82614   2.83186   2.86674   2.90114
 Alpha virt. eigenvalues --    2.91632   2.93778   2.97330   3.00035   3.05868
 Alpha virt. eigenvalues --    3.06039   3.06929   3.07435   3.08813   3.10498
 Alpha virt. eigenvalues --    3.13007   3.14443   3.16647   3.19960   3.22431
 Alpha virt. eigenvalues --    3.23146   3.24309   3.26254   3.28360   3.28703
 Alpha virt. eigenvalues --    3.29343   3.30312   3.32698   3.38194   3.39929
 Alpha virt. eigenvalues --    3.46828   3.49347   3.54332   3.57513   3.64012
 Alpha virt. eigenvalues --    3.74676   3.78762   3.80083   3.80366   3.81088
 Alpha virt. eigenvalues --    3.86191   3.86930   3.96660   3.97230   3.98892
 Alpha virt. eigenvalues --    3.99436   4.04834   4.07538   4.11016   4.11717
 Alpha virt. eigenvalues --    4.17858   4.24679   4.48119   4.75735   4.77398
 Alpha virt. eigenvalues --    4.78190   4.79155   4.91597   5.10532   5.40233
 Alpha virt. eigenvalues --    6.13515   6.14581   6.31398   6.33516   6.56125
 Alpha virt. eigenvalues --    6.57996  23.29191  23.46552  23.60117  23.70625
 Alpha virt. eigenvalues --   23.71816  23.77051  23.83135  23.85219  23.86183
 Alpha virt. eigenvalues --   23.90806  24.09980  24.10909  24.19720  35.57815
 Alpha virt. eigenvalues --   49.97073  66.89538  66.89541
          Condensed to atoms (all electrons):
               1          2          3          4          5          6
     1  C    5.356865   0.309784  -0.077738   0.007667  -0.000231   0.000000
     2  C    0.309784   5.315048   0.333527  -0.071956   0.006689  -0.000070
     3  C   -0.077738   0.333527   5.351532   0.273948  -0.058467   0.003270
     4  C    0.007667  -0.071956   0.273948   5.453779   0.288176  -0.053644
     5  C   -0.000231   0.006689  -0.058467   0.288176   5.147101   0.233168
     6  O    0.000000  -0.000070   0.003270  -0.053644   0.233168   8.217807
     7  N   -0.004156  -0.040725   0.224923  -0.066307  -0.007634  -0.000020
     8  C    0.000316   0.002408  -0.068076   0.003816  -0.001749   0.000016
     9  C    0.000000   0.000000  -0.000001   0.000000   0.000000   0.000000
    10  C    0.000000   0.000000   0.000003   0.000002  -0.000011   0.000000
    11  C   -0.000005   0.000004  -0.000746  -0.000027  -0.000118  -0.000001
    12  C   -0.000007  -0.000450   0.010419  -0.000496   0.000381   0.000000
    13  C    0.000021  -0.000003  -0.000111   0.000047   0.000012   0.000000
    14  C   -0.000005   0.000001   0.000016   0.000000   0.000000   0.000000
    15  H    0.000000   0.000000   0.000000   0.000000   0.000000   0.000000
    16  H    0.000000   0.000000   0.000000   0.000000   0.000000   0.000000
    17  H    0.000000   0.000000   0.000000   0.000000   0.000000   0.000000
    18  F    0.000000  -0.000001  -0.000122   0.000074  -0.001384   0.000001
    19  F   -0.000859   0.000018  -0.000070  -0.000001   0.000000   0.000000
    20  H    0.393505  -0.036605   0.007673  -0.000269   0.000012   0.000000
    21  H    0.387431  -0.042242  -0.003412  -0.000371  -0.000041   0.000000
    22  H    0.374783  -0.036047  -0.009634   0.000672  -0.000008   0.000000
    23  H   -0.036078   0.394961  -0.052980   0.005428   0.000085  -0.000017
    24  H   -0.044254   0.394303  -0.040551  -0.009958  -0.000346   0.000001
    25  H   -0.000128  -0.006039  -0.042932   0.391603  -0.044832   0.006352
    26  H   -0.000031   0.000138   0.006798  -0.065106   0.395164  -0.033444
    27  H    0.000006  -0.000425  -0.007627  -0.034908   0.369100  -0.031482
    28  H   -0.000001   0.000027  -0.000795   0.011114  -0.049663   0.258713
    29  H    0.000372   0.000774   0.000322  -0.001731   0.000024   0.000000
    30  H    0.000223  -0.000389  -0.004289   0.001017   0.002832  -0.000087
    31  H   -0.008063  -0.036615   0.412790  -0.061923  -0.007301  -0.000200
    32  C   -0.000186  -0.004997  -0.062039   0.282138  -0.076781  -0.003999
    33  H   -0.000132   0.000337  -0.011449  -0.041904  -0.003863  -0.000833
    34  H    0.000017  -0.000277   0.009520  -0.043189  -0.009460   0.020064
    35  H    0.000166   0.002398  -0.006189  -0.035927   0.007302  -0.000130
    36  H    0.000808  -0.004767  -0.061027   0.003328  -0.000098  -0.000001
               7          8          9         10         11         12
     1  C   -0.004156   0.000316   0.000000   0.000000  -0.000005  -0.000007
     2  C   -0.040725   0.002408   0.000000   0.000000   0.000004  -0.000450
     3  C    0.224923  -0.068076  -0.000001   0.000003  -0.000746   0.010419
     4  C   -0.066307   0.003816   0.000000   0.000002  -0.000027  -0.000496
     5  C   -0.007634  -0.001749   0.000000  -0.000011  -0.000118   0.000381
     6  O   -0.000020   0.000016   0.000000   0.000000  -0.000001   0.000000
     7  N    6.977117   0.298368   0.000042   0.000199   0.022051  -0.090380
     8  C    0.298368   5.249447  -0.001094   0.007676  -0.078129   0.309821
     9  C    0.000042  -0.001094   5.066734   0.443470  -0.010834  -0.053733
    10  C    0.000199   0.007676   0.443470   5.165629   0.486674  -0.041459
    11  C    0.022051  -0.078129  -0.010834   0.486674   4.781356   0.241833
    12  C   -0.090380   0.309821  -0.053733  -0.041459   0.241833   5.802490
    13  C   -0.006198  -0.082956  -0.008032  -0.059103   0.026314   0.238280
    14  C   -0.000201   0.008568   0.441323  -0.046008  -0.058087  -0.041036
    15  H   -0.000001   0.000028   0.402873  -0.040622   0.006294  -0.001789
    16  H    0.000013  -0.000237  -0.039969   0.393423  -0.049261   0.011872
    17  H    0.000010  -0.000251  -0.040488   0.006777  -0.001625   0.012344
    18  F   -0.000635  -0.004041   0.005192  -0.051648   0.304590  -0.073138
    19  F   -0.000635  -0.001959   0.005335  -0.000469   0.005299  -0.078444
    20  H   -0.000081   0.000090   0.000000   0.000000   0.000000   0.000000
    21  H   -0.000619   0.000184   0.000000   0.000000   0.000003   0.000076
    22  H    0.010034  -0.000018  -0.000008   0.000003  -0.000149  -0.001540
    23  H    0.006254  -0.000409   0.000000   0.000000  -0.000004   0.000024
    24  H   -0.004997  -0.000265   0.000000   0.000000   0.000008   0.000118
    25  H    0.006345  -0.000137   0.000000   0.000000   0.000009   0.000008
    26  H   -0.000393  -0.000480   0.000000  -0.000003  -0.000016   0.000087
    27  H    0.014147  -0.000352  -0.000014   0.000181   0.000923  -0.002323
    28  H    0.000036   0.000004   0.000000   0.000000   0.000002   0.000000
    29  H   -0.048966   0.386696  -0.000224   0.000260   0.015085  -0.036203
    30  H   -0.046722   0.376552  -0.000096  -0.000121  -0.027495  -0.017708
    31  H   -0.044807  -0.011337   0.000000   0.000002   0.000262   0.000585
    32  C   -0.011978  -0.000108   0.000000  -0.000001  -0.000058   0.000124
    33  H    0.021296  -0.000250   0.000000   0.000006   0.000416  -0.000088
    34  H   -0.000444  -0.000008   0.000000   0.000000  -0.000004   0.000002
    35  H   -0.000080  -0.000039   0.000000   0.000000   0.000000  -0.000003
    36  H    0.340723  -0.049999  -0.000022  -0.000028  -0.000525  -0.011193
              13         14         15         16         17         18
     1  C    0.000021  -0.000005   0.000000   0.000000   0.000000   0.000000
     2  C   -0.000003   0.000001   0.000000   0.000000   0.000000  -0.000001
     3  C   -0.000111   0.000016   0.000000   0.000000   0.000000  -0.000122
     4  C    0.000047   0.000000   0.000000   0.000000   0.000000   0.000074
     5  C    0.000012   0.000000   0.000000   0.000000   0.000000  -0.001384
     6  O    0.000000   0.000000   0.000000   0.000000   0.000000   0.000001
     7  N   -0.006198  -0.000201  -0.000001   0.000013   0.000010  -0.000635
     8  C   -0.082956   0.008568   0.000028  -0.000237  -0.000251  -0.004041
     9  C   -0.008032   0.441323   0.402873  -0.039969  -0.040488   0.005192
    10  C   -0.059103  -0.046008  -0.040622   0.393423   0.006777  -0.051648
    11  C    0.026314  -0.058087   0.006294  -0.049261  -0.001625   0.304590
    12  C    0.238280  -0.041036  -0.001789   0.011872   0.012344  -0.073138
    13  C    4.835839   0.478494   0.006216  -0.001644  -0.049508   0.005534
    14  C    0.478494   5.177964  -0.040659   0.006774   0.393617  -0.000439
    15  H    0.006216  -0.040659   0.446022  -0.006417  -0.006399  -0.000084
    16  H   -0.001644   0.006774  -0.006417   0.445810  -0.000135   0.001624
    17  H   -0.049508   0.393617  -0.006399  -0.000135   0.445797   0.000004
    18  F    0.005534  -0.000439  -0.000084   0.001624   0.000004   9.041564
    19  F    0.307595  -0.053699  -0.000082   0.000004   0.001483  -0.000001
    20  H   -0.000004   0.000000   0.000000   0.000000   0.000000   0.000000
    21  H   -0.000024  -0.000001   0.000000   0.000000   0.000000   0.000000
    22  H    0.001048   0.000152   0.000000   0.000000   0.000001   0.000001
    23  H    0.000010   0.000000   0.000000   0.000000   0.000000   0.000000
    24  H   -0.000048  -0.000001   0.000000   0.000000   0.000000   0.000000
    25  H   -0.000004   0.000000   0.000000   0.000000   0.000000  -0.000001
    26  H    0.000002   0.000000   0.000000   0.000000   0.000000  -0.000190
    27  H   -0.000180   0.000005   0.000000   0.000006   0.000000   0.008811
    28  H    0.000000   0.000000   0.000000   0.000000   0.000000  -0.000015
    29  H   -0.034208  -0.000187   0.000002   0.000015  -0.000011   0.000042
    30  H    0.013921   0.000067   0.000003  -0.000053   0.000007   0.009087
    31  H   -0.000345  -0.000003   0.000000   0.000000   0.000000  -0.000032
    32  C    0.000009   0.000000   0.000000   0.000000   0.000000  -0.000006
    33  H   -0.000107  -0.000002   0.000000   0.000000   0.000000  -0.000053
    34  H    0.000000   0.000000   0.000000   0.000000   0.000000  -0.000001
    35  H    0.000000   0.000000   0.000000   0.000000   0.000000   0.000000
    36  H    0.005471  -0.000132   0.000000   0.000002   0.000002   0.000018
              19         20         21         22         23         24
     1  C   -0.000859   0.393505   0.387431   0.374783  -0.036078  -0.044254
     2  C    0.000018  -0.036605  -0.042242  -0.036047   0.394961   0.394303
     3  C   -0.000070   0.007673  -0.003412  -0.009634  -0.052980  -0.040551
     4  C   -0.000001  -0.000269  -0.000371   0.000672   0.005428  -0.009958
     5  C    0.000000   0.000012  -0.000041  -0.000008   0.000085  -0.000346
     6  O    0.000000   0.000000   0.000000   0.000000  -0.000017   0.000001
     7  N   -0.000635  -0.000081  -0.000619   0.010034   0.006254  -0.004997
     8  C   -0.001959   0.000090   0.000184  -0.000018  -0.000409  -0.000265
     9  C    0.005335   0.000000   0.000000  -0.000008   0.000000   0.000000
    10  C   -0.000469   0.000000   0.000000   0.000003   0.000000   0.000000
    11  C    0.005299   0.000000   0.000003  -0.000149  -0.000004   0.000008
    12  C   -0.078444   0.000000   0.000076  -0.001540   0.000024   0.000118
    13  C    0.307595  -0.000004  -0.000024   0.001048   0.000010  -0.000048
    14  C   -0.053699   0.000000  -0.000001   0.000152   0.000000  -0.000001
    15  H   -0.000082   0.000000   0.000000   0.000000   0.000000   0.000000
    16  H    0.000004   0.000000   0.000000   0.000000   0.000000   0.000000
    17  H    0.001483   0.000000   0.000000   0.000001   0.000000   0.000000
    18  F   -0.000001   0.000000   0.000000   0.000001   0.000000   0.000000
    19  F    9.049978  -0.000022  -0.000075   0.006292   0.000000  -0.000020
    20  H   -0.000022   0.468549  -0.027339  -0.027148  -0.004200  -0.004479
    21  H   -0.000075  -0.027339   0.485077  -0.030144  -0.005728   0.007517
    22  H    0.006292  -0.027148  -0.030144   0.490164   0.007633  -0.006348
    23  H    0.000000  -0.004200  -0.005728   0.007633   0.490968  -0.031873
    24  H   -0.000020  -0.004479   0.007517  -0.006348  -0.031873   0.495928
    25  H    0.000000  -0.000020   0.000092  -0.000068   0.001174   0.000512
    26  H    0.000000   0.000001  -0.000026  -0.000002   0.000046  -0.000019
    27  H    0.000001   0.000000   0.000006  -0.000027  -0.000097   0.000077
    28  H    0.000000   0.000000   0.000000   0.000000   0.000001  -0.000001
    29  H    0.007701   0.000062   0.000514  -0.005448  -0.000361   0.000259
    30  H    0.000165  -0.000006  -0.000059   0.000682   0.000151  -0.000102
    31  H   -0.000018  -0.000055   0.005462  -0.001740  -0.004813   0.007801
    32  C    0.000000   0.000017  -0.000009  -0.000039  -0.000807   0.002659
    33  H   -0.000001   0.000004   0.000008  -0.000117  -0.000337   0.001115
    34  H    0.000000  -0.000001   0.000001   0.000000  -0.000113   0.000073
    35  H    0.000000   0.000002  -0.000022   0.000022   0.000453  -0.000643
    36  H    0.001773  -0.000203   0.000019   0.004736   0.000752   0.002701
              25         26         27         28         29         30
     1  C   -0.000128  -0.000031   0.000006  -0.000001   0.000372   0.000223
     2  C   -0.006039   0.000138  -0.000425   0.000027   0.000774  -0.000389
     3  C   -0.042932   0.006798  -0.007627  -0.000795   0.000322  -0.004289
     4  C    0.391603  -0.065106  -0.034908   0.011114  -0.001731   0.001017
     5  C   -0.044832   0.395164   0.369100  -0.049663   0.000024   0.002832
     6  O    0.006352  -0.033444  -0.031482   0.258713   0.000000  -0.000087
     7  N    0.006345  -0.000393   0.014147   0.000036  -0.048966  -0.046722
     8  C   -0.000137  -0.000480  -0.000352   0.000004   0.386696   0.376552
     9  C    0.000000   0.000000  -0.000014   0.000000  -0.000224  -0.000096
    10  C    0.000000  -0.000003   0.000181   0.000000   0.000260  -0.000121
    11  C    0.000009  -0.000016   0.000923   0.000002   0.015085  -0.027495
    12  C    0.000008   0.000087  -0.002323   0.000000  -0.036203  -0.017708
    13  C   -0.000004   0.000002  -0.000180   0.000000  -0.034208   0.013921
    14  C    0.000000   0.000000   0.000005   0.000000  -0.000187   0.000067
    15  H    0.000000   0.000000   0.000000   0.000000   0.000002   0.000003
    16  H    0.000000   0.000000   0.000006   0.000000   0.000015  -0.000053
    17  H    0.000000   0.000000   0.000000   0.000000  -0.000011   0.000007
    18  F   -0.000001  -0.000190   0.008811  -0.000015   0.000042   0.009087
    19  F    0.000000   0.000000   0.000001   0.000000   0.007701   0.000165
    20  H   -0.000020   0.000001   0.000000   0.000000   0.000062  -0.000006
    21  H    0.000092  -0.000026   0.000006   0.000000   0.000514  -0.000059
    22  H   -0.000068  -0.000002  -0.000027   0.000000  -0.005448   0.000682
    23  H    0.001174   0.000046  -0.000097   0.000001  -0.000361   0.000151
    24  H    0.000512  -0.000019   0.000077  -0.000001   0.000259  -0.000102
    25  H    0.528232  -0.010074   0.010621  -0.000446   0.000167  -0.000308
    26  H   -0.010074   0.537644  -0.044239  -0.001011   0.000055   0.001245
    27  H    0.010621  -0.044239   0.513557  -0.004829   0.000761  -0.003744
    28  H   -0.000446  -0.001011  -0.004829   0.377841   0.000002  -0.000073
    29  H    0.000167   0.000055   0.000761   0.000002   0.536504  -0.053695
    30  H   -0.000308   0.001245  -0.003744  -0.000073  -0.053695   0.492702
    31  H   -0.003201   0.008073  -0.000411  -0.000006   0.006502  -0.003636
    32  C   -0.051353   0.009409  -0.013835   0.000142  -0.000044   0.000178
    33  H    0.008574  -0.000272   0.005308   0.000038   0.000260  -0.000518
    34  H   -0.003743   0.001182  -0.000233  -0.001170  -0.000003   0.000036
    35  H   -0.006181  -0.000295  -0.000197   0.000045   0.000001  -0.000010
    36  H   -0.000258  -0.000074  -0.000003  -0.000002  -0.003848   0.007221
              31         32         33         34         35         36
     1  C   -0.008063  -0.000186  -0.000132   0.000017   0.000166   0.000808
     2  C   -0.036615  -0.004997   0.000337  -0.000277   0.002398  -0.004767
     3  C    0.412790  -0.062039  -0.011449   0.009520  -0.006189  -0.061027
     4  C   -0.061923   0.282138  -0.041904  -0.043189  -0.035927   0.003328
     5  C   -0.007301  -0.076781  -0.003863  -0.009460   0.007302  -0.000098
     6  O   -0.000200  -0.003999  -0.000833   0.020064  -0.000130  -0.000001
     7  N   -0.044807  -0.011978   0.021296  -0.000444  -0.000080   0.340723
     8  C   -0.011337  -0.000108  -0.000250  -0.000008  -0.000039  -0.049999
     9  C    0.000000   0.000000   0.000000   0.000000   0.000000  -0.000022
    10  C    0.000002  -0.000001   0.000006   0.000000   0.000000  -0.000028
    11  C    0.000262  -0.000058   0.000416  -0.000004   0.000000  -0.000525
    12  C    0.000585   0.000124  -0.000088   0.000002  -0.000003  -0.011193
    13  C   -0.000345   0.000009  -0.000107   0.000000   0.000000   0.005471
    14  C   -0.000003   0.000000  -0.000002   0.000000   0.000000  -0.000132
    15  H    0.000000   0.000000   0.000000   0.000000   0.000000   0.000000
    16  H    0.000000   0.000000   0.000000   0.000000   0.000000   0.000002
    17  H    0.000000   0.000000   0.000000   0.000000   0.000000   0.000002
    18  F   -0.000032  -0.000006  -0.000053  -0.000001   0.000000   0.000018
    19  F   -0.000018   0.000000  -0.000001   0.000000   0.000000   0.001773
    20  H   -0.000055   0.000017   0.000004  -0.000001   0.000002  -0.000203
    21  H    0.005462  -0.000009   0.000008   0.000001  -0.000022   0.000019
    22  H   -0.001740  -0.000039  -0.000117   0.000000   0.000022   0.004736
    23  H   -0.004813  -0.000807  -0.000337  -0.000113   0.000453   0.000752
    24  H    0.007801   0.002659   0.001115   0.000073  -0.000643   0.002701
    25  H   -0.003201  -0.051353   0.008574  -0.003743  -0.006181  -0.000258
    26  H    0.008073   0.009409  -0.000272   0.001182  -0.000295  -0.000074
    27  H   -0.000411  -0.013835   0.005308  -0.000233  -0.000197  -0.000003
    28  H   -0.000006   0.000142   0.000038  -0.001170   0.000045  -0.000002
    29  H    0.006502  -0.000044   0.000260  -0.000003   0.000001  -0.003848
    30  H   -0.003636   0.000178  -0.000518   0.000036  -0.000010   0.007221
    31  H    0.502312   0.008936   0.000510  -0.000203  -0.000146   0.006335
    32  C    0.008936   5.445073   0.373606   0.385712   0.389060   0.000186
    33  H    0.000510   0.373606   0.482200  -0.027293  -0.027670  -0.001177
    34  H   -0.000203   0.385712  -0.027293   0.462035  -0.027594   0.000013
    35  H   -0.000146   0.389060  -0.027670  -0.027594   0.481903  -0.000136
    36  H    0.006335   0.000186  -0.001177   0.000013  -0.000136   0.421963
 Mulliken charges:
               1
     1  C   -0.660091
     2  C   -0.478808
     3  C   -0.126485
     4  C   -0.235092
     5  C   -0.188061
     6  O   -0.615465
     7  N   -0.545581
     8  C   -0.342094
     9  C   -0.210454
    10  C   -0.264831
    11  C    0.335957
    12  C   -0.178471
    13  C    0.323661
    14  C   -0.266519
    15  H    0.234615
    16  H    0.238172
    17  H    0.238377
    18  F   -0.244749
    19  F   -0.249289
    20  H    0.230518
    21  H    0.223723
    22  H    0.222264
    23  H    0.229874
    24  H    0.230830
    25  H    0.216037
    26  H    0.195833
    27  H    0.221416
    28  H    0.410045
    29  H    0.228550
    30  H    0.253024
    31  H    0.225284
    32  C   -0.671011
    33  H    0.222389
    34  H    0.235081
    35  H    0.223908
    36  H    0.337442
 Sum of Mulliken charges =   0.00000
 Mulliken charges with hydrogens summed into heavy atoms:
               1
     1  C    0.016414
     2  C   -0.018104
     3  C    0.098799
     4  C   -0.019055
     5  C    0.229188
     6  O   -0.205420
     7  N   -0.208139
     8  C    0.139480
     9  C    0.024161
    10  C   -0.026659
    11  C    0.335957
    12  C   -0.178471
    13  C    0.323661
    14  C   -0.028143
    18  F   -0.244749
    19  F   -0.249289
    32  C    0.010368
 Electronic spatial extent (au):  <R**2>=           5090.1109
 Charge=              0.0000 electrons
 Dipole moment (field-independent basis, Debye):
    X=             -3.1248    Y=              0.3490    Z=             -0.5955  Tot=              3.2001
 Quadrupole moment (field-independent basis, Debye-Ang):
   XX=            -99.7111   YY=            -96.7813   ZZ=           -101.7928
   XY=              7.4479   XZ=             -7.4484   YZ=              3.0482
 Traceless Quadrupole moment (field-independent basis, Debye-Ang):
   XX=             -0.2827   YY=              2.6471   ZZ=             -2.3644
   XY=              7.4479   XZ=             -7.4484   YZ=              3.0482
 Octapole moment (field-independent basis, Debye-Ang**2):
  XXX=           -130.7873  YYY=            -48.3835  ZZZ=            -13.4326  XYY=              5.8133
  XXY=              7.7218  XXZ=             14.7982  XZZ=              3.6271  YZZ=             -2.3481
  YYZ=             -4.3309  XYZ=             11.3313
 Hexadecapole moment (field-independent basis, Debye-Ang**3):
 XXXX=          -4310.3245 YYYY=          -1676.9778 ZZZZ=           -418.7044 XXXY=            109.3819
 XXXZ=           -139.3879 YYYX=            -91.8129 YYYZ=             48.1456 ZZZX=             -4.0011
 ZZZY=             15.3165 XXYY=           -976.0912 XXZZ=           -814.4040 YYZZ=           -363.2687
 XXYZ=             11.0445 YYXZ=            -46.7508 ZZXY=            -24.6995
 N-N= 1.267419907648D+03 E-N=-4.493136205426D+03  KE= 8.332738416276D+02
 1\1\GINC-SWANNODE-0-11\SP\RmPW1PW91\6-311G(d)\C13H19F2N1O1\KE291\06-Ma
 r-2019\0\\# mPW1PW91/6-311g(d) geom=checkpoint nmr=giao scrf=(solvent=
 chloroform)\\AT3_2ginp012\\0,1\C,0,-2.45934185,-1.6323283222,-0.807969
 1844\C,0,-2.1601302746,-0.6730619199,0.3501548014\C,0,-2.9269018346,-1
 .0059820653,1.643190547\C,0,-2.4089693814,-0.2035917748,2.8664141006\C
 ,0,-3.0632154116,-0.7253567173,4.1485974192\O,0,-2.4447910521,-0.09555
 92849,5.2726088174\N,0,-4.3854931819,-0.8180165937,1.4748807049\C,0,-5
 .1881824283,-2.041991819,1.5839504983\C,0,-9.3804709819,-1.0804687114,
 1.0541629754\C,0,-8.8062146541,-0.9910982444,2.3237636571\C,0,-7.46136
 13553,-1.3094389942,2.4642893152\C,0,-6.6533907343,-1.7294597555,1.405
 6878477\C,0,-7.2793045966,-1.7874639042,0.1598497652\C,0,-8.619381646,
 -1.4813612295,-0.044594025\H,0,-10.4287879744,-0.8349328573,0.92053999
 26\H,0,-9.3772842187,-0.6803145458,3.1909257455\H,0,-9.0411914474,-1.5
 542550104,-1.0402624519\F,0,-6.902002049,-1.2258152937,3.6942751909\F,
 0,-6.5308222134,-2.1643580507,-0.9067279124\H,0,-1.9113266213,-1.34177
 09455,-1.7097764054\H,0,-2.1677209678,-2.6580525243,-0.5558149942\H,0,
 -3.5250870818,-1.6451342664,-1.061475389\H,0,-1.0845755994,-0.68527911
 58,0.5655374817\H,0,-2.3972891365,0.3548344064,0.0454045608\H,0,-1.332
 0497712,-0.4099531598,2.9554050135\H,0,-2.9368351949,-1.8194823306,4.2
 053332665\H,0,-4.1419735415,-0.5170248523,4.1197633695\H,0,-2.97464189
 9,-0.3046475548,6.0524184448\H,0,-4.898657216,-2.8193827738,0.86014202
 49\H,0,-5.0385635761,-2.4605179772,2.5831233694\H,0,-2.7415660885,-2.0
 700255049,1.859453757\C,0,-2.6104503648,1.3107636769,2.7258413545\H,0,
 -3.6650395885,1.5337138758,2.5325793387\H,0,-2.315508269,1.8164987752,
 3.6482862466\H,0,-2.0161680796,1.7274101799,1.9066821015\H,0,-4.579126
 7185,-0.3792448147,0.5791526544\\Version=EM64L-G09RevD.01\State=1-A\HF
 =-836.4607121\RMSD=7.296e-09\Dipole=-1.0701575,-0.4988288,-0.4371318\Q
 uadrupole=4.6241741,-4.9669253,0.3427513,-4.5994765,-3.3532739,-3.8055
 768\PG=C01 [X(C13H19F2N1O1)]\\@


 THE UNDERLYING PHYSICAL LAWS NECESSARY FOR THE 
 MATHEMATICAL THEORY OF A LARGE PART OF PHYSICS AND THE
 WHOLE OF CHEMISTRY ARE THUS COMPLETELY KNOWN, AND THE
 DIFFICULTY IS ONLY THAT THE EXACT APPLICATION OF THESE
 LAWS LEADS TO EQUATIONS MUCH TOO COMPLICATED 
 TO BE SOLUBLE.

                                        -- P. A. M. DIRAC, 1929
 Job cpu time:       0 days  0 hours 27 minutes  5.0 seconds.
 File lengths (MBytes):  RWF=    183 Int=      0 D2E=      0 Chk=     14 Scr=      1
 Normal termination of Gaussian 09 at Wed Mar  6 12:35:49 2019.
