 Entering Gaussian System, Link 0=/usr/local/shared/gaussian/em64t/09-D01/g09/g09
 Initial command:
 /usr/local/shared/gaussian/em64t/09-D01/g09/l1.exe "/scratch/ke291/AT3_1ginp017/Gau-14605.inp" -scrdir="/scratch/ke291/AT3_1ginp017/"
 Entering Link 1 = /usr/local/shared/gaussian/em64t/09-D01/g09/l1.exe PID=     14608.
  
 Copyright (c) 1988,1990,1992,1993,1995,1998,2003,2009,2013,
            Gaussian, Inc.  All Rights Reserved.
  
 This is part of the Gaussian(R) 09 program.  It is based on
 the Gaussian(R) 03 system (copyright 2003, Gaussian, Inc.),
 the Gaussian(R) 98 system (copyright 1998, Gaussian, Inc.),
 the Gaussian(R) 94 system (copyright 1995, Gaussian, Inc.),
 the Gaussian 92(TM) system (copyright 1992, Gaussian, Inc.),
 the Gaussian 90(TM) system (copyright 1990, Gaussian, Inc.),
 the Gaussian 88(TM) system (copyright 1988, Gaussian, Inc.),
 the Gaussian 86(TM) system (copyright 1986, Carnegie Mellon
 University), and the Gaussian 82(TM) system (copyright 1983,
 Carnegie Mellon University). Gaussian is a federally registered
 trademark of Gaussian, Inc.
  
 This software contains proprietary and confidential information,
 including trade secrets, belonging to Gaussian, Inc.
  
 This software is provided under written license and may be
 used, copied, transmitted, or stored only in accord with that
 written license.
  
 The following legend is applicable only to US Government
 contracts under FAR:
  
                    RESTRICTED RIGHTS LEGEND
  
 Use, reproduction and disclosure by the US Government is
 subject to restrictions as set forth in subparagraphs (a)
 and (c) of the Commercial Computer Software - Restricted
 Rights clause in FAR 52.227-19.
  
 Gaussian, Inc.
 340 Quinnipiac St., Bldg. 40, Wallingford CT 06492
  
  
 ---------------------------------------------------------------
 Warning -- This program may not be used in any manner that
 competes with the business of Gaussian, Inc. or will provide
 assistance to any competitor of Gaussian, Inc.  The licensee
 of this program is prohibited from giving any competitor of
 Gaussian, Inc. access to this program.  By using this program,
 the user acknowledges that Gaussian, Inc. is engaged in the
 business of creating and licensing software in the field of
 computational chemistry and represents and warrants to the
 licensee that it is not a competitor of Gaussian, Inc. and that
 it will not use this program in any manner prohibited above.
 ---------------------------------------------------------------
  

 Cite this work as:
 Gaussian 09, Revision D.01,
 M. J. Frisch, G. W. Trucks, H. B. Schlegel, G. E. Scuseria, 
 M. A. Robb, J. R. Cheeseman, G. Scalmani, V. Barone, B. Mennucci, 
 G. A. Petersson, H. Nakatsuji, M. Caricato, X. Li, H. P. Hratchian, 
 A. F. Izmaylov, J. Bloino, G. Zheng, J. L. Sonnenberg, M. Hada, 
 M. Ehara, K. Toyota, R. Fukuda, J. Hasegawa, M. Ishida, T. Nakajima, 
 Y. Honda, O. Kitao, H. Nakai, T. Vreven, J. A. Montgomery, Jr., 
 J. E. Peralta, F. Ogliaro, M. Bearpark, J. J. Heyd, E. Brothers, 
 K. N. Kudin, V. N. Staroverov, T. Keith, R. Kobayashi, J. Normand, 
 K. Raghavachari, A. Rendell, J. C. Burant, S. S. Iyengar, J. Tomasi, 
 M. Cossi, N. Rega, J. M. Millam, M. Klene, J. E. Knox, J. B. Cross, 
 V. Bakken, C. Adamo, J. Jaramillo, R. Gomperts, R. E. Stratmann, 
 O. Yazyev, A. J. Austin, R. Cammi, C. Pomelli, J. W. Ochterski, 
 R. L. Martin, K. Morokuma, V. G. Zakrzewski, G. A. Voth, 
 P. Salvador, J. J. Dannenberg, S. Dapprich, A. D. Daniels, 
 O. Farkas, J. B. Foresman, J. V. Ortiz, J. Cioslowski, 
 and D. J. Fox, Gaussian, Inc., Wallingford CT, 2013.
 
 ******************************************
 Gaussian 09:  EM64L-G09RevD.01 24-Apr-2013
                 6-Mar-2019 
 ******************************************
 %nprocshared=2
 Will use up to    2 processors via shared memory.
 %mem=6000MB
 %chk=AT3_1ginp017.chk
 ----------------------------------------------------------------------
 # mPW1PW91/6-311g(d) geom=checkpoint nmr=giao scrf=(solvent=chloroform
 )
 ----------------------------------------------------------------------
 1/29=2,38=1/1;
 2/12=2,40=1/2;
 3/5=4,6=6,7=1,11=2,14=-4,16=1,25=1,30=1,70=2201,72=7,74=-7/1,2,8,3;
 4//1;
 5/5=2,38=5,53=7/2;
 8/6=1,10=90,11=11/1;
 10/13=100,45=16/2;
 6/7=2,8=2,9=2,10=2,28=1/1;
 99/9=1/99;
 ------------
 AT3_1ginp017
 ------------
 Structure from the checkpoint file:  "AT3_1ginp017.chk"
 Charge =  0 Multiplicity = 1
 Redundant internal coordinates found in file.
 C,0,-1.7072680106,0.5300802971,0.4198326543
 C,0,-1.0506562654,-0.0924908696,1.658021733
 C,0,-0.1865139449,0.8783391111,2.5029969405
 C,0,-0.9956017179,2.0101512231,3.1893667515
 C,0,-0.1014492785,2.7821770035,4.1775717165
 O,0,-0.7509323358,3.9198246249,4.7502595667
 N,0,0.9287783905,1.4935600923,1.7587062119
 C,0,1.924623359,0.552978686,1.2330989175
 C,0,5.0782868979,2.6842713752,-0.8507114621
 C,0,3.8083000987,2.5828242418,-1.4225258997
 C,0,2.8294163643,1.8915325622,-0.7225968225
 C,0,3.0352332594,1.2892105285,0.5197888462
 C,0,4.3212502433,1.4292801174,1.0433138744
 C,0,5.3457053404,2.1060636285,0.390166026
 H,0,5.8631933621,3.2183408031,-1.3757503705
 H,0,3.5725018807,3.0245144794,-2.3837099584
 H,0,6.3229103928,2.1716052484,0.8543816596
 F,0,1.5867408151,1.7948169496,-1.2657243812
 F,0,4.5877712389,0.8673461759,2.2448844532
 H,0,-2.3869950065,1.3482685209,0.681355254
 H,0,-0.9605231023,0.9263828962,-0.277040286
 H,0,-2.2908114165,-0.2193141684,-0.1240353289
 H,0,-1.8177932078,-0.5370695348,2.3008851827
 H,0,-0.4185301894,-0.9303864465,1.3404245011
 H,0,-1.3007230675,2.7245256974,2.4070886592
 H,0,0.8337342869,3.0652597998,3.6830607997
 H,0,0.1514740613,2.1321984799,5.024361202
 H,0,-0.8836038055,4.5607094266,4.0384912386
 H,0,2.348478803,-0.001397558,2.0746398962
 H,0,1.5055486304,-0.1909387687,0.5365756446
 H,0,0.2737898655,0.27801762,3.3030664398
 C,0,-2.2593831841,1.5137072388,3.9045403494
 H,0,-2.0219217179,0.6965738461,4.5970034052
 H,0,-2.6904736379,2.3307875549,4.4885831254
 H,0,-3.0224143947,1.1548181428,3.2087870551
 H,0,0.5505549929,2.0323009748,0.982256405
 Recover connectivity data from disk.
                          Input orientation:                          
 ---------------------------------------------------------------------
 Center     Atomic      Atomic             Coordinates (Angstroms)
 Number     Number       Type             X           Y           Z
 ---------------------------------------------------------------------
      1          6           0       -1.707268    0.530080    0.419833
      2          6           0       -1.050656   -0.092491    1.658022
      3          6           0       -0.186514    0.878339    2.502997
      4          6           0       -0.995602    2.010151    3.189367
      5          6           0       -0.101449    2.782177    4.177572
      6          8           0       -0.750932    3.919825    4.750260
      7          7           0        0.928778    1.493560    1.758706
      8          6           0        1.924623    0.552979    1.233099
      9          6           0        5.078287    2.684271   -0.850711
     10          6           0        3.808300    2.582824   -1.422526
     11          6           0        2.829416    1.891533   -0.722597
     12          6           0        3.035233    1.289211    0.519789
     13          6           0        4.321250    1.429280    1.043314
     14          6           0        5.345705    2.106064    0.390166
     15          1           0        5.863193    3.218341   -1.375750
     16          1           0        3.572502    3.024514   -2.383710
     17          1           0        6.322910    2.171605    0.854382
     18          9           0        1.586741    1.794817   -1.265724
     19          9           0        4.587771    0.867346    2.244884
     20          1           0       -2.386995    1.348269    0.681355
     21          1           0       -0.960523    0.926383   -0.277040
     22          1           0       -2.290811   -0.219314   -0.124035
     23          1           0       -1.817793   -0.537070    2.300885
     24          1           0       -0.418530   -0.930386    1.340425
     25          1           0       -1.300723    2.724526    2.407089
     26          1           0        0.833734    3.065260    3.683061
     27          1           0        0.151474    2.132198    5.024361
     28          1           0       -0.883604    4.560709    4.038491
     29          1           0        2.348479   -0.001398    2.074640
     30          1           0        1.505549   -0.190939    0.536576
     31          1           0        0.273790    0.278018    3.303066
     32          6           0       -2.259383    1.513707    3.904540
     33          1           0       -2.021922    0.696574    4.597003
     34          1           0       -2.690474    2.330788    4.488583
     35          1           0       -3.022414    1.154818    3.208787
     36          1           0        0.550555    2.032301    0.982256
 ---------------------------------------------------------------------
                    Distance matrix (angstroms):
                    1          2          3          4          5
     1  C    0.000000
     2  C    1.533573   0.000000
     3  C    2.602605   1.550237   0.000000
     4  C    3.219844   2.601759   1.551362   0.000000
     5  C    4.665961   3.938634   2.536934   1.540156   0.000000
     6  O    5.581894   5.074490   3.823531   2.478528   1.429700
     7  N    3.109601   2.538475   1.475243   2.452936   2.927937
     8  C    3.721903   3.074001   2.485035   3.805003   4.212388
     9  C    7.231776   7.181093   6.498221   7.325899   7.219618
    10  C    6.166809   6.344804   5.854361   6.683935   6.832787
    11  C    4.872392   4.965748   4.530657   5.472503   5.778830
    12  C    4.803914   4.460848   3.805468   4.888152   5.044512
    13  C    6.127016   5.617031   4.770131   5.762974   5.586965
    14  C    7.226966   6.881464   6.047877   6.932308   6.668813
    15  H    8.231813   8.244192   7.557728   8.327250   8.161286
    16  H    6.477501   6.886575   6.528106   7.277066   7.523766
    17  H    8.207753   7.755092   6.838353   7.683674   7.258704
    18  F    3.910391   4.366473   4.264695   5.153901   5.783973
    19  F    6.562932   5.749570   4.781270   5.776859   5.421314
    20  H    1.095379   2.194417   2.895053   2.943499   4.416259
    21  H    1.095589   2.188765   2.886175   3.632047   4.901586
    22  H    1.094490   2.174809   3.540368   4.198418   5.683844
    23  H    2.165498   1.095182   2.169171   2.820236   4.181529
    24  H    2.154367   1.096595   2.162613   3.521131   4.683276
    25  H    2.988320   2.925614   2.158487   1.102447   2.139203
    26  H    4.851029   4.197988   2.686276   2.168746   1.095101
    27  H    5.217604   4.210297   2.836138   2.167460   1.097039
    28  H    5.478967   5.229418   4.050127   2.690521   1.947893
    29  H    4.412475   3.425783   2.717281   4.058549   4.262952
    30  H    3.294797   2.793120   2.805930   4.258856   4.967767
    31  H    3.507301   2.144203   1.101080   2.150481   2.678876
    32  C    3.662723   3.014588   2.581628   1.534625   2.517983
    33  H    4.192312   3.194306   2.790452   2.181802   2.865986
    34  H    4.556750   4.071039   3.510267   2.159482   2.646418
    35  H    3.146136   2.801514   2.935458   2.199987   3.481218
    36  H    2.769612   2.745046   2.046351   2.694889   3.346261
                    6          7          8          9         10
     6  O    0.000000
     7  N    4.202092   0.000000
     8  C    5.555598   1.467196   0.000000
     9  C    8.177852   5.044331   4.339386   0.000000
    10  C    7.789573   4.427006   3.836777   1.396470   0.000000
    11  C    6.847264   3.150821   2.536754   2.387942   1.387803
    12  C    6.257161   2.452311   1.511391   2.828168   2.458385
    13  C    6.758054   3.467677   2.558856   2.394878   2.770225
    14  C    7.711623   4.664473   3.850508   1.394853   2.424205
    15  H    9.042496   6.094927   5.424259   1.084884   2.151431
    16  H    8.389707   5.147107   4.680310   2.175601   1.083774
    17  H    8.262771   5.511280   4.701947   2.172385   3.417115
    18  F    6.795030   3.109799   2.810773   3.626880   2.362386
    19  F    6.640503   3.743894   2.866164   3.622780   4.123147
    20  H    5.083855   3.489434   4.418932   7.737090   6.658237
    21  H    5.854773   2.834681   3.277807   6.315576   5.176641
    22  H    6.577420   4.104194   4.495346   7.953771   6.836462
    23  H    5.196300   3.458478   4.041541   8.238053   7.433065
    24  H    5.938183   2.804589   2.775294   6.934106   6.151637
    25  H    2.687277   2.627994   4.061616   7.162866   6.386560
    26  H    2.092932   2.486446   3.674766   6.222256   5.928558
    27  H    2.021157   3.417099   4.473440   7.687311   7.425483
    28  H    0.966928   4.229604   5.640769   7.935330   7.466505
    29  H    5.669327   2.085728   1.093242   4.818957   4.586878
    30  H    6.304381   2.159584   1.101899   4.791227   4.102987
    31  H    4.050578   2.071618   2.661883   6.791695   6.335307
    32  C    2.963118   3.843096   5.056235   8.821794   8.144779
    33  H    3.468176   4.171061   5.187648   9.167415   8.589771
    34  H    2.520979   4.610007   5.920971   9.433274   8.788560
    35  H    3.896284   4.222488   5.360852   9.189130   8.375376
    36  H    4.410721   1.017924   2.034547   4.928001   4.086436
                   11         12         13         14         15
    11  C    0.000000
    12  C    1.395949   0.000000
    13  C    2.357475   1.395542   0.000000
    14  C    2.759706   2.454044   1.390736   0.000000
    15  H    3.375031   3.913051   3.380858   2.150213   0.000000
    16  H    2.143623   3.424944   3.853555   3.417922   2.510143
    17  H    3.843150   3.420438   2.143218   1.083846   2.506089
    18  F    1.359626   2.354108   3.597613   4.119304   4.508500
    19  F    3.598154   2.358877   1.352987   2.355603   4.501430
    20  H    5.429288   5.424956   6.718492   7.775198   8.706001
    21  H    3.936201   4.090556   5.467483   6.450219   7.281713
    22  H    5.570519   5.572873   6.913749   7.999261   8.937117
    23  H    6.052777   5.482652   6.567790   7.871005   9.306896
    24  H    4.771629   4.186709   5.303001   6.584029   8.003099
    25  H    5.248510   4.941917   5.928248   6.973197   8.116368
    26  H    4.976967   4.243494   4.669846   5.667548   7.135157
    27  H    6.344826   5.414598   5.807742   6.961069   8.646668
    28  H    6.601438   6.200101   6.772551   7.624950   8.754155
    29  H    3.411601   2.134212   2.646186   4.032643   5.884312
    30  H    2.770348   2.128628   3.287867   4.477104   5.853994
    31  H    5.033947   4.049039   4.776382   6.127893   7.859915
    32  C    6.888326   6.288076   7.176244   8.398755   9.836844
    33  H    7.298051   6.523014   7.307626   8.600353  10.208239
    34  H    7.603849   7.044142   7.864278   9.023730  10.408812
    35  H    7.088191   6.629017   7.661202   8.881155  10.209316
    36  H    2.849482   2.634328   3.819097   4.832130   5.932201
                   16         17         18         19         20
    16  H    0.000000
    17  H    4.333294   0.000000
    18  F    2.589458   5.202703   0.000000
    19  F    5.206538   2.577847   4.710707   0.000000
    20  H    6.907968   8.750444   4.447595   7.164026   0.000000
    21  H    5.421119   7.475232   2.867094   6.094847   1.769557
    22  H    7.071563   8.992775   4.516148   7.355781   1.764999
    23  H    7.980325   8.700595   5.454287   6.557955   2.549778
    24  H    6.740828   7.436774   4.270815   5.395641   3.082449
    25  H    6.840326   7.799770   4.763545   6.176552   2.460127
    26  H    6.656442   6.239479   5.164448   4.581699   4.725610
    27  H    8.208482   7.448282   6.460572   5.385729   5.091176
    28  H    7.966269   8.232874   6.472053   6.840607   4.883679
    29  H    5.525510   4.691170   3.868419   2.407931   5.117378
    30  H    4.810354   5.374904   2.682928   3.679454   4.188319
    31  H    7.124898   6.795115   4.989827   4.480792   3.885689
    32  C    8.708359   9.131925   6.450064   7.075010   3.229950
    33  H    9.243768   9.263863   6.971382   7.017811   3.986262
    34  H    9.323869   9.719766   7.189846   7.755559   3.943657
    35  H    8.846734   9.690829   6.455630   7.676371   2.613253
    36  H    4.631024   5.775452   2.486664   4.387535   3.031112
                   21         22         23         24         25
    21  H    0.000000
    22  H    1.762299   0.000000
    23  H    3.085823   2.490975   0.000000
    24  H    2.521416   2.481069   1.742160   0.000000
    25  H    3.248631   4.006627   3.304035   3.908250   0.000000
    26  H    4.845261   5.919898   4.681643   4.798052   2.510003
    27  H    5.549359   6.164443   4.291891   4.824492   3.051204
    28  H    5.642522   6.492726   5.466199   6.135796   2.491392
    29  H    4.164213   5.138548   4.206656   3.009723   4.567040
    30  H    2.826993   3.853513   3.778518   2.212473   4.458017
    31  H    3.842014   4.309240   2.458344   2.406556   3.044219
    32  C    4.417873   4.385633   2.640530   3.992120   2.151156
    33  H    4.993564   4.816571   2.614518   3.977835   3.070577
    34  H    5.260822   5.285735   3.711091   5.070294   2.533586
    35  H    4.056423   3.678476   2.266690   3.823489   2.463924
    36  H    2.256599   3.790385   3.734906   3.137663   2.436504
                   26         27         28         29         30
    26  H    0.000000
    27  H    1.770641   0.000000
    28  H    2.304767   2.817976   0.000000
    29  H    3.779663   4.252049   5.925866   0.000000
    30  H    4.577612   5.231702   6.367859   1.764114   0.000000
    31  H    2.868214   2.532944   4.496872   2.427229   3.064412
    32  C    3.467527   2.729242   3.345883   5.184252   5.331390
    33  H    3.821091   2.639565   4.066847   5.094103   5.451403
    34  H    3.688951   2.898821   2.905153   6.054523   6.291587
    35  H    4.329504   3.784858   4.106460   5.609779   5.427175
    36  H    2.905433   4.062986   4.217847   2.926049   2.460374
                   31         32         33         34         35
    31  H    0.000000
    32  C    2.881955   0.000000
    33  H    2.668287   1.097087   0.000000
    34  H    3.795546   1.092962   1.769003   0.000000
    35  H    3.412130   1.093202   1.771473   1.769454   0.000000
    36  H    2.922374   4.087106   4.633379   4.784108   4.300410
                   36
    36  H    0.000000
 Stoichiometry    C13H19F2NO
 Framework group  C1[X(C13H19F2NO)]
 Deg. of freedom   102
 Full point group                 C1      NOp   1
 Largest Abelian subgroup         C1      NOp   1
 Largest concise Abelian subgroup C1      NOp   1
                         Standard orientation:                         
 ---------------------------------------------------------------------
 Center     Atomic      Atomic             Coordinates (Angstroms)
 Number     Number       Type             X           Y           Z
 ---------------------------------------------------------------------
      1          6           0        2.091735    2.744660    0.005563
      2          6           0        2.199455    1.702242    1.125209
      3          6           0        1.894464    0.243602    0.697910
      4          6           0        2.923343   -0.350953   -0.299405
      5          6           0        2.672116   -1.858384   -0.490764
      6          8           0        3.505352   -2.442592   -1.494986
      7          7           0        0.543390    0.051186    0.137628
      8          6           0       -0.562608    0.354942    1.052596
      9          6           0       -4.379099   -0.359140   -0.885122
     10          6           0       -3.601041    0.738718   -1.258570
     11          6           0       -2.387825    0.930350   -0.612519
     12          6           0       -1.895538    0.092977    0.390045
     13          6           0       -2.713406   -0.989831    0.715858
     14          6           0       -3.940343   -1.234347    0.108418
     15          1           0       -5.332423   -0.533259   -1.372800
     16          1           0       -3.916461    1.432831   -2.028820
     17          1           0       -4.526007   -2.093206    0.415144
     18          9           0       -1.617891    1.990736   -0.974964
     19          9           0       -2.294942   -1.840147    1.681480
     20          1           0        2.792105    2.544503   -0.812529
     21          1           0        1.082558    2.777755   -0.419623
     22          1           0        2.313507    3.745490    0.389051
     23          1           0        3.198296    1.740257    1.572752
     24          1           0        1.510241    1.976975    1.932691
     25          1           0        2.756321    0.129024   -1.277727
     26          1           0        1.611878   -2.030077   -0.704449
     27          1           0        2.916357   -2.389212    0.437709
     28          1           0        3.230489   -2.071850   -2.344663
     29          1           0       -0.467989   -0.291290    1.929300
     30          1           0       -0.561184    1.394511    1.417940
     31          1           0        1.937070   -0.369544    1.611482
     32          6           0        4.382955   -0.111052    0.109319
     33          1           0        4.561849   -0.447763    1.138019
     34          1           0        5.042581   -0.683165   -0.548058
     35          1           0        4.669825    0.941857    0.044668
     36          1           0        0.444688    0.630579   -0.693474
 ---------------------------------------------------------------------
 Rotational constants (GHZ):      0.6890507      0.2396763      0.2101291
 Standard basis: 6-311G(d) (5D, 7F)
 There are   380 symmetry adapted cartesian basis functions of A   symmetry.
 There are   363 symmetry adapted basis functions of A   symmetry.
   363 basis functions,   639 primitive gaussians,   380 cartesian basis functions
    65 alpha electrons       65 beta electrons
       nuclear repulsion energy      1255.6721191847 Hartrees.
 NAtoms=   36 NActive=   36 NUniq=   36 SFac= 1.00D+00 NAtFMM=   60 NAOKFM=F Big=F
 Integral buffers will be    131072 words long.
 Raffenetti 2 integral format.
 Two-electron integral symmetry is turned on.
 ------------------------------------------------------------------------------
 Polarizable Continuum Model (PCM)
 =================================
 Model                : PCM (using non-symmetric T matrix).
 Atomic radii         : UFF (Universal Force Field).
 Polarization charges : Total charges.
 Charge compensation  : None.
 Solution method      : On-the-fly selection.
 Cavity type          : Scaled VdW (van der Waals Surface) (Alpha=1.100).
 Cavity algorithm     : GePol (No added spheres)
                        Default sphere list used, NSphG=   36.
                        Lebedev-Laikov grids with approx.  5.0 points / Ang**2.
                        Smoothing algorithm: Karplus/York (Gamma=1.0000).
                        Polarization charges: spherical gaussians, with
                                              point-specific exponents (IZeta= 3).
                        Self-potential: point-specific (ISelfS= 7).
                        Self-field    : sphere-specific E.n sum rule (ISelfD= 2).
 Solvent              : Chloroform, Eps=   4.711300 Eps(inf)=   2.090627
 ------------------------------------------------------------------------------
 One-electron integrals computed using PRISM.
 NBasis=   363 RedAO= T EigKep=  2.31D-04  NBF=   363
 NBsUse=   363 1.00D-06 EigRej= -1.00D+00 NBFU=   363
 ExpMin= 1.03D-01 ExpMax= 1.14D+04 ExpMxC= 1.72D+03 IAcc=1 IRadAn=         1 AccDes= 0.00D+00
 Harris functional with IExCor=  908 and IRadAn=       1 diagonalized for initial guess.
 HarFok:  IExCor=  908 AccDes= 0.00D+00 IRadAn=         1 IDoV= 1 UseB2=F ITyADJ=14
 ICtDFT=  3500011 ScaDFX=  1.000000  1.000000  1.000000  1.000000
 FoFCou: FMM=F IPFlag=           0 FMFlag=      100000 FMFlg1=           0
         NFxFlg=           0 DoJE=T BraDBF=F KetDBF=T FulRan=T
         wScrn=  0.000000 ICntrl=     500 IOpCl=  0 I1Cent=   200000004 NGrid=           0
         NMat0=    1 NMatS0=      1 NMatT0=    0 NMatD0=    1 NMtDS0=    0 NMtDT0=    0
 Petite list used in FoFCou.
 Requested convergence on RMS density matrix=1.00D-08 within 128 cycles.
 Requested convergence on MAX density matrix=1.00D-06.
 Requested convergence on             energy=1.00D-06.
 No special actions if energy rises.
 Inv3:  Mode=1 IEnd=    18451200.
 Iteration    1 A*A^-1 deviation from unit magnitude is 7.88D-15 for   2072.
 Iteration    1 A*A^-1 deviation from orthogonality  is 9.77D-15 for   2328    440.
 Iteration    1 A^-1*A deviation from unit magnitude is 7.44D-15 for   2072.
 Iteration    1 A^-1*A deviation from orthogonality  is 3.15D-12 for   2274   2249.
 Error on total polarization charges =  0.00944
 SCF Done:  E(RmPW1PW91) =  -836.461479756     A.U. after   12 cycles
            NFock= 12  Conv=0.71D-08     -V/T= 2.0038
 DoSCS=F DFT=T ScalE2(SS,OS)=  1.000000  1.000000
 Range of M.O.s used for correlation:     1   363
 NBasis=   363 NAE=    65 NBE=    65 NFC=     0 NFV=     0
 NROrb=    363 NOA=    65 NOB=    65 NVA=   298 NVB=   298

 **** Warning!!: The largest alpha MO coefficient is  0.11602220D+02

 NEqPCM:  Using equilibrium solvation (IEInf=0, Eps=   4.7113, EpsInf=   2.0906)
          Differentiating once with respect to magnetic field using GIAOs.
          Electric field/nuclear overlap derivatives assumed to be zero.
 FoFJK:  IHMeth= 1 ICntrl=    6127 DoSepK=F KAlg= 0 I1Cent=   0 FoldK=F
 IRaf=         1 NMat=   1 IRICut=       1 DoRegI=T DoRafI=F ISym2E= 0.
          There are     3 degrees of freedom in the 1st order CPHF.  IDoFFX=0 NUNeed=     3.
      3 vectors produced by pass  0 Test12= 6.46D-13 3.33D-08 XBig12= 3.67D+01 1.52D+00.
 AX will form     3 AO Fock derivatives at one time.
      3 vectors produced by pass  1 Test12= 6.46D-13 3.33D-08 XBig12= 1.00D-01 1.26D-01.
      3 vectors produced by pass  2 Test12= 6.46D-13 3.33D-08 XBig12= 4.97D-04 7.00D-03.
      3 vectors produced by pass  3 Test12= 6.46D-13 3.33D-08 XBig12= 1.32D-06 2.38D-04.
      3 vectors produced by pass  4 Test12= 6.46D-13 3.33D-08 XBig12= 3.17D-09 1.17D-05.
      3 vectors produced by pass  5 Test12= 6.46D-13 3.33D-08 XBig12= 1.25D-11 6.19D-07.
 InvSVY:  IOpt=1 It=  1 EMax= 4.44D-16
 Solved reduced A of dimension    18 with     3 vectors.
 Calculating GIAO nuclear magnetic shielding tensors.
 SCF GIAO Magnetic shielding tensor (ppm):
      1  C    Isotropic =   182.4618   Anisotropy =    11.8166
   XX=   177.4148   YX=     0.1389   ZX=    -1.7091
   XY=    -0.7843   YY=   184.7268   ZY=    -5.0265
   XZ=    -1.4441   YZ=    -5.5369   ZZ=   185.2439
   Eigenvalues:   176.7586   180.2874   190.3396
      2  C    Isotropic =   167.3103   Anisotropy =    23.2453
   XX=   155.0095   YX=     1.6160   ZX=     3.3585
   XY=     0.8862   YY=   179.9019   ZY=    -4.9904
   XZ=     9.2055   YZ=    -8.3711   ZZ=   167.0195
   Eigenvalues:   151.7825   167.3411   182.8072
      3  C    Isotropic =   125.8438   Anisotropy =    37.8682
   XX=   149.9465   YX=    -3.6610   ZX=     5.6175
   XY=    -4.6124   YY=   116.9355   ZY=     0.2916
   XZ=     5.0309   YZ=     3.6265   ZZ=   110.6494
   Eigenvalues:   109.1121   117.3300   151.0892
      4  C    Isotropic =   144.4125   Anisotropy =    20.4349
   XX=   146.3046   YX=     3.6576   ZX=    -2.8654
   XY=   -10.8946   YY=   144.6336   ZY=    10.4370
   XZ=   -11.1701   YZ=     9.0463   ZZ=   142.2995
   Eigenvalues:   132.9005   142.3014   158.0358
      5  C    Isotropic =   117.5913   Anisotropy =    54.6143
   XX=   107.0634   YX=    -4.3214   ZX=   -28.8415
   XY=    -4.4394   YY=   119.9443   ZY=    15.6256
   XZ=   -26.7864   YZ=    18.9550   ZZ=   125.7663
   Eigenvalues:    85.6345   113.1387   154.0009
      6  O    Isotropic =   306.1610   Anisotropy =   103.4575
   XX=   259.0116   YX=   -10.3027   ZX=    19.6790
   XY=    -3.6938   YY=   300.5916   ZY=   -49.3273
   XZ=    -1.0239   YZ=   -17.3460   ZZ=   358.8796
   Eigenvalues:   257.6695   285.6807   375.1326
      7  N    Isotropic =   210.9278   Anisotropy =    43.8603
   XX=   239.3487   YX=    -6.9623   ZX=    12.8359
   XY=    -0.4824   YY=   155.6465   ZY=    -5.9193
   XZ=   -10.7711   YZ=    -1.7816   ZZ=   237.7882
   Eigenvalues:   155.3061   237.3093   240.1680
      8  C    Isotropic =   147.3629   Anisotropy =    47.3611
   XX=   162.6968   YX=    -3.0264   ZX=   -18.2349
   XY=    -8.2052   YY=   127.3960   ZY=     6.5863
   XZ=   -20.7142   YZ=     6.6261   ZZ=   151.9958
   Eigenvalues:   125.7125   137.4392   178.9370
      9  C    Isotropic =    54.1990   Anisotropy =   188.1288
   XX=    -0.7768   YX=   -49.1660   ZX=   -79.5588
   XY=   -48.7287   YY=    76.2205   ZY=    50.8759
   XZ=   -79.2650   YZ=    50.0065   ZZ=    87.1534
   Eigenvalues:   -50.2905    33.2693   179.6182
     10  C    Isotropic =    72.6850   Anisotropy =   145.9208
   XX=    78.3941   YX=   -18.8293   ZX=   -45.5442
   XY=   -13.6818   YY=    63.4577   ZY=    76.7511
   XZ=   -50.7662   YZ=    74.5773   ZZ=    76.2032
   Eigenvalues:   -11.6718    59.7613   169.9655
     11  C    Isotropic =    17.5077   Anisotropy =    94.0111
   XX=    16.3164   YX=   -57.9672   ZX=     3.6638
   XY=   -52.6029   YY=   -11.2832   ZY=    39.3974
   XZ=     0.9555   YZ=    40.0193   ZZ=    47.4898
   Eigenvalues:   -64.3973    36.7386    80.1817
     12  C    Isotropic =    65.1416   Anisotropy =   138.2892
   XX=    46.8064   YX=   -35.4834   ZX=   -48.4287
   XY=   -34.1374   YY=    63.6760   ZY=    50.4137
   XZ=   -46.1197   YZ=    51.1766   ZZ=    84.9423
   Eigenvalues:    14.8831    23.2073   157.3343
     13  C    Isotropic =    19.2630   Anisotropy =    97.5086
   XX=    36.1467   YX=     9.4009   ZX=   -40.3116
   XY=     3.7796   YY=     9.8786   ZY=    62.3771
   XZ=   -32.8029   YZ=    62.3065   ZZ=    11.7638
   Eigenvalues:   -61.3204    34.8407    84.2688
     14  C    Isotropic =    71.9186   Anisotropy =   146.9996
   XX=    62.4551   YX=   -54.9855   ZX=   -26.9213
   XY=   -60.6677   YY=    47.9745   ZY=    58.1454
   XZ=   -22.0872   YZ=    61.8961   ZZ=   105.3262
   Eigenvalues:   -12.2007    58.0382   169.9183
     15  H    Isotropic =    24.6162   Anisotropy =     3.1827
   XX=    25.2488   YX=     1.4384   ZX=     1.4330
   XY=     1.3550   YY=    24.8904   ZY=    -2.2826
   XZ=     1.4449   YZ=    -2.2934   ZZ=    23.7094
   Eigenvalues:    21.0002    26.1105    26.7380
     16  H    Isotropic =    25.1448   Anisotropy =     5.2550
   XX=    27.3519   YX=     1.4787   ZX=     2.4198
   XY=     1.5607   YY=    24.3584   ZY=    -1.3826
   XZ=     2.2536   YZ=    -1.4247   ZZ=    23.7241
   Eigenvalues:    21.3221    25.4641    28.6481
     17  H    Isotropic =    25.1152   Anisotropy =     4.7210
   XX=    26.9743   YX=     1.5099   ZX=     2.2134
   XY=     1.1972   YY=    24.2742   ZY=    -1.7046
   XZ=     2.2981   YZ=    -1.5486   ZZ=    24.0972
   Eigenvalues:    21.3651    25.7181    28.2625
     18  F    Isotropic =   300.1931   Anisotropy =   112.6402
   XX=   270.3959   YX=   -17.5170   ZX=   -50.8500
   XY=     5.7427   YY=   334.5397   ZY=    35.6987
   XZ=   -53.8433   YZ=    51.4421   ZZ=   295.6437
   Eigenvalues:   224.0708   301.2219   375.2865
     19  F    Isotropic =   295.1462   Anisotropy =   116.7318
   XX=   253.3616   YX=   -57.0357   ZX=   -33.2721
   XY=   -56.9400   YY=   298.0611   ZY=    22.1084
   XZ=   -31.9868   YZ=    22.5606   ZZ=   334.0159
   Eigenvalues:   212.6274   299.8438   372.9674
     20  H    Isotropic =    31.4224   Anisotropy =     7.8849
   XX=    30.7570   YX=    -0.0642   ZX=    -4.2813
   XY=    -0.1397   YY=    31.0458   ZY=    -2.1972
   XZ=    -4.8653   YZ=    -1.8823   ZZ=    32.4642
   Eigenvalues:    26.5143    31.0739    36.6790
     21  H    Isotropic =    31.0467   Anisotropy =     8.7797
   XX=    34.7639   YX=    -0.1089   ZX=     3.7313
   XY=    -0.5621   YY=    30.6759   ZY=    -3.0827
   XZ=     4.0450   YZ=    -2.9326   ZZ=    27.7002
   Eigenvalues:    24.7796    31.4606    36.8998
     22  H    Isotropic =    31.2255   Anisotropy =    11.5421
   XX=    27.2863   YX=     1.7810   ZX=     0.6615
   XY=     2.0874   YY=    38.5034   ZY=     1.2466
   XZ=     0.5774   YZ=     0.5943   ZZ=    27.8867
   Eigenvalues:    26.7601    27.9961    38.9202
     23  H    Isotropic =    30.5703   Anisotropy =     7.7531
   XX=    32.5042   YX=    -0.1594   ZX=     3.9327
   XY=    -0.0380   YY=    29.5295   ZY=     1.3205
   XZ=     4.6998   YZ=     1.6844   ZZ=    29.6771
   Eigenvalues:    26.0700    29.9018    35.7390
     24  H    Isotropic =    30.0406   Anisotropy =     6.8469
   XX=    28.5044   YX=     0.8477   ZX=    -2.5628
   XY=     0.4362   YY=    29.1189   ZY=     2.2384
   XZ=    -3.2294   YZ=     2.3539   ZZ=    32.4986
   Eigenvalues:    26.0060    29.5107    34.6052
     25  H    Isotropic =    30.8378   Anisotropy =     2.5289
   XX=    30.5964   YX=    -1.7514   ZX=    -0.0906
   XY=    -1.6813   YY=    30.0657   ZY=    -0.7040
   XZ=     0.2046   YZ=    -0.7738   ZZ=    31.8513
   Eigenvalues:    28.5102    31.4794    32.5237
     26  H    Isotropic =    27.5993   Anisotropy =     8.5262
   XX=    31.5088   YX=    -0.3725   ZX=    -1.2801
   XY=    -1.3550   YY=    28.2876   ZY=     4.0904
   XZ=    -3.9317   YZ=     4.2422   ZZ=    23.0014
   Eigenvalues:    20.3854    29.1290    33.2834
     27  H    Isotropic =    29.0398   Anisotropy =     4.3412
   XX=    26.2078   YX=    -1.1559   ZX=    -2.9626
   XY=    -1.4970   YY=    31.1459   ZY=    -0.6352
   XZ=    -1.9298   YZ=    -1.9678   ZZ=    29.7658
   Eigenvalues:    24.4869    30.6987    31.9339
     28  H    Isotropic =    32.5485   Anisotropy =    16.1334
   XX=    26.9935   YX=    -2.6549   ZX=     0.8913
   XY=    -4.1395   YY=    27.7169   ZY=    -2.0263
   XZ=     1.5945   YZ=    -1.4962   ZZ=    42.9352
   Eigenvalues:    23.9353    30.4062    43.3042
     29  H    Isotropic =    28.7275   Anisotropy =     8.8350
   XX=    29.7661   YX=     3.0551   ZX=    -2.2074
   XY=     3.1301   YY=    26.0934   ZY=    -3.2100
   XZ=    -0.8997   YZ=    -4.7853   ZZ=    30.3231
   Eigenvalues:    23.0952    28.4699    34.6175
     30  H    Isotropic =    28.1336   Anisotropy =     4.6953
   XX=    29.6385   YX=    -1.2624   ZX=    -1.8533
   XY=     1.0557   YY=    28.8474   ZY=     2.6529
   XZ=     0.3687   YZ=     4.2020   ZZ=    25.9149
   Eigenvalues:    23.6005    29.5364    31.2638
     31  H    Isotropic =    29.7012   Anisotropy =     4.0195
   XX=    29.3443   YX=    -0.7443   ZX=     1.0217
   XY=    -0.2399   YY=    30.0204   ZY=    -2.4059
   XZ=    -0.0868   YZ=    -2.2847   ZZ=    29.7389
   Eigenvalues:    27.5301    29.1926    32.3809
     32  C    Isotropic =   173.3280   Anisotropy =    22.4466
   XX=   183.6752   YX=     3.8334   ZX=     9.7016
   XY=     0.2641   YY=   167.3235   ZY=    -3.9099
   XZ=     9.1790   YZ=    -5.1199   ZZ=   168.9852
   Eigenvalues:   160.6746   171.0169   188.2924
     33  H    Isotropic =    31.6947   Anisotropy =     9.2884
   XX=    32.3747   YX=    -1.9659   ZX=     4.2046
   XY=    -1.4495   YY=    28.5882   ZY=    -1.6394
   XZ=     3.7513   YZ=    -1.4993   ZZ=    34.1211
   Eigenvalues:    27.9313    29.2659    37.8870
     34  H    Isotropic =    30.4703   Anisotropy =     9.0688
   XX=    34.7156   YX=    -1.8556   ZX=    -2.5698
   XY=    -1.3043   YY=    28.6791   ZY=     3.6248
   XZ=    -2.6289   YZ=     2.8815   ZZ=    28.0163
   Eigenvalues:    24.9881    29.9067    36.5162
     35  H    Isotropic =    31.2032   Anisotropy =     7.8822
   XX=    33.5955   YX=     2.9703   ZX=    -0.1417
   XY=     2.2108   YY=    34.0871   ZY=    -0.1312
   XZ=    -0.4662   YZ=    -0.3761   ZZ=    25.9271
   Eigenvalues:    25.9120    31.2396    36.4581
     36  H    Isotropic =    31.4553   Anisotropy =     9.1331
   XX=    34.8685   YX=    -1.4130   ZX=     2.2127
   XY=    -1.6114   YY=    26.3023   ZY=    -4.0394
   XZ=     0.5669   YZ=    -6.6654   ZZ=    33.1951
   Eigenvalues:    23.3436    33.4782    37.5440
 End of Minotr F.D. properties file   721 does not exist.
 End of Minotr F.D. properties file   722 does not exist.
 End of Minotr F.D. properties file   788 does not exist.

 **********************************************************************

            Population analysis using the SCF density.

 **********************************************************************

 Orbital symmetries:
       Occupied  (A) (A) (A) (A) (A) (A) (A) (A) (A) (A) (A) (A)
                 (A) (A) (A) (A) (A) (A) (A) (A) (A) (A) (A) (A)
                 (A) (A) (A) (A) (A) (A) (A) (A) (A) (A) (A) (A)
                 (A) (A) (A) (A) (A) (A) (A) (A) (A) (A) (A) (A)
                 (A) (A) (A) (A) (A) (A) (A) (A) (A) (A) (A) (A)
                 (A) (A) (A) (A) (A)
       Virtual   (A) (A) (A) (A) (A) (A) (A) (A) (A) (A) (A) (A)
                 (A) (A) (A) (A) (A) (A) (A) (A) (A) (A) (A) (A)
                 (A) (A) (A) (A) (A) (A) (A) (A) (A) (A) (A) (A)
                 (A) (A) (A) (A) (A) (A) (A) (A) (A) (A) (A) (A)
                 (A) (A) (A) (A) (A) (A) (A) (A) (A) (A) (A) (A)
                 (A) (A) (A) (A) (A) (A) (A) (A) (A) (A) (A) (A)
                 (A) (A) (A) (A) (A) (A) (A) (A) (A) (A) (A) (A)
                 (A) (A) (A) (A) (A) (A) (A) (A) (A) (A) (A) (A)
                 (A) (A) (A) (A) (A) (A) (A) (A) (A) (A) (A) (A)
                 (A) (A) (A) (A) (A) (A) (A) (A) (A) (A) (A) (A)
                 (A) (A) (A) (A) (A) (A) (A) (A) (A) (A) (A) (A)
                 (A) (A) (A) (A) (A) (A) (A) (A) (A) (A) (A) (A)
                 (A) (A) (A) (A) (A) (A) (A) (A) (A) (A) (A) (A)
                 (A) (A) (A) (A) (A) (A) (A) (A) (A) (A) (A) (A)
                 (A) (A) (A) (A) (A) (A) (A) (A) (A) (A) (A) (A)
                 (A) (A) (A) (A) (A) (A) (A) (A) (A) (A) (A) (A)
                 (A) (A) (A) (A) (A) (A) (A) (A) (A) (A) (A) (A)
                 (A) (A) (A) (A) (A) (A) (A) (A) (A) (A) (A) (A)
                 (A) (A) (A) (A) (A) (A) (A) (A) (A) (A) (A) (A)
                 (A) (A) (A) (A) (A) (A) (A) (A) (A) (A) (A) (A)
                 (A) (A) (A) (A) (A) (A) (A) (A) (A) (A) (A) (A)
                 (A) (A) (A) (A) (A) (A) (A) (A) (A) (A) (A) (A)
                 (A) (A) (A) (A) (A) (A) (A) (A) (A) (A) (A) (A)
                 (A) (A) (A) (A) (A) (A) (A) (A) (A) (A) (A) (A)
                 (A) (A) (A) (A) (A) (A) (A) (A) (A) (A)
 The electronic state is 1-A.
 Alpha  occ. eigenvalues --  -24.80273 -24.79806 -19.20415 -14.37966 -10.33815
 Alpha  occ. eigenvalues --  -10.33809 -10.27063 -10.26649 -10.26448 -10.26354
 Alpha  occ. eigenvalues --  -10.26205 -10.25455 -10.25374 -10.23568 -10.22648
 Alpha  occ. eigenvalues --  -10.21993 -10.21472  -1.27016  -1.26784  -1.04350
 Alpha  occ. eigenvalues --   -0.94258  -0.90700  -0.83160  -0.80017  -0.78850
 Alpha  occ. eigenvalues --   -0.77862  -0.71891  -0.69201  -0.67931  -0.65902
 Alpha  occ. eigenvalues --   -0.64319  -0.61855  -0.58771  -0.57928  -0.55335
 Alpha  occ. eigenvalues --   -0.52355  -0.51570  -0.51343  -0.50868  -0.49404
 Alpha  occ. eigenvalues --   -0.49002  -0.48932  -0.47654  -0.46659  -0.45073
 Alpha  occ. eigenvalues --   -0.44345  -0.43416  -0.42777  -0.42054  -0.41494
 Alpha  occ. eigenvalues --   -0.40898  -0.39542  -0.38492  -0.38030  -0.37754
 Alpha  occ. eigenvalues --   -0.37462  -0.36423  -0.35771  -0.35011  -0.32918
 Alpha  occ. eigenvalues --   -0.32473  -0.28356  -0.27622  -0.27059  -0.23850
 Alpha virt. eigenvalues --   -0.02237  -0.00966   0.04791   0.05481   0.06186
 Alpha virt. eigenvalues --    0.07102   0.08249   0.09318   0.10285   0.10525
 Alpha virt. eigenvalues --    0.11577   0.11834   0.12265   0.12873   0.13334
 Alpha virt. eigenvalues --    0.13746   0.14635   0.14958   0.15511   0.15931
 Alpha virt. eigenvalues --    0.17651   0.17787   0.18359   0.19021   0.20414
 Alpha virt. eigenvalues --    0.22072   0.22111   0.23373   0.23730   0.24800
 Alpha virt. eigenvalues --    0.25257   0.25708   0.26281   0.28750   0.29693
 Alpha virt. eigenvalues --    0.32679   0.32957   0.33814   0.34520   0.34933
 Alpha virt. eigenvalues --    0.35759   0.37165   0.38102   0.38512   0.39473
 Alpha virt. eigenvalues --    0.39735   0.40387   0.41070   0.41149   0.42022
 Alpha virt. eigenvalues --    0.42625   0.43768   0.44750   0.45261   0.46348
 Alpha virt. eigenvalues --    0.47169   0.48255   0.50081   0.50451   0.50869
 Alpha virt. eigenvalues --    0.52256   0.52863   0.53936   0.54871   0.56022
 Alpha virt. eigenvalues --    0.56803   0.57252   0.57663   0.58105   0.59608
 Alpha virt. eigenvalues --    0.60116   0.60242   0.61006   0.61580   0.62323
 Alpha virt. eigenvalues --    0.62684   0.62900   0.63546   0.63840   0.64429
 Alpha virt. eigenvalues --    0.65181   0.65364   0.66238   0.66455   0.67127
 Alpha virt. eigenvalues --    0.67406   0.68031   0.69463   0.70343   0.70991
 Alpha virt. eigenvalues --    0.72226   0.73150   0.73861   0.75414   0.77584
 Alpha virt. eigenvalues --    0.78303   0.78997   0.82347   0.83717   0.86314
 Alpha virt. eigenvalues --    0.87569   0.89290   0.90208   0.92656   0.94399
 Alpha virt. eigenvalues --    0.95723   0.96822   0.97233   0.98280   0.99747
 Alpha virt. eigenvalues --    1.00122   1.00981   1.05459   1.05891   1.07389
 Alpha virt. eigenvalues --    1.08791   1.09074   1.11365   1.14235   1.15093
 Alpha virt. eigenvalues --    1.16229   1.18605   1.19127   1.21728   1.23933
 Alpha virt. eigenvalues --    1.25506   1.27273   1.28268   1.30031   1.31411
 Alpha virt. eigenvalues --    1.33010   1.33855   1.36127   1.38252   1.42635
 Alpha virt. eigenvalues --    1.44442   1.45897   1.48271   1.48938   1.49242
 Alpha virt. eigenvalues --    1.50951   1.51884   1.53377   1.54150   1.54372
 Alpha virt. eigenvalues --    1.55385   1.57305   1.57814   1.58668   1.59180
 Alpha virt. eigenvalues --    1.60692   1.62690   1.64162   1.65681   1.66599
 Alpha virt. eigenvalues --    1.66964   1.67898   1.68785   1.71418   1.73517
 Alpha virt. eigenvalues --    1.74940   1.77407   1.78803   1.81220   1.82179
 Alpha virt. eigenvalues --    1.84134   1.84872   1.85100   1.87424   1.89662
 Alpha virt. eigenvalues --    1.90148   1.90527   1.91890   1.93788   1.94852
 Alpha virt. eigenvalues --    1.96631   1.98908   1.99138   2.00014   2.02983
 Alpha virt. eigenvalues --    2.08596   2.10088   2.14661   2.16189   2.17893
 Alpha virt. eigenvalues --    2.19706   2.20675   2.25801   2.27422   2.27617
 Alpha virt. eigenvalues --    2.29431   2.31212   2.34917   2.39534   2.39891
 Alpha virt. eigenvalues --    2.40468   2.42428   2.43883   2.45404   2.46847
 Alpha virt. eigenvalues --    2.48440   2.50039   2.52179   2.53477   2.54428
 Alpha virt. eigenvalues --    2.54671   2.57012   2.59606   2.61563   2.66078
 Alpha virt. eigenvalues --    2.66257   2.67699   2.69441   2.71264   2.73722
 Alpha virt. eigenvalues --    2.77387   2.83120   2.83635   2.84598   2.88366
 Alpha virt. eigenvalues --    2.90583   2.93912   2.95744   2.99638   3.04453
 Alpha virt. eigenvalues --    3.05738   3.06096   3.07475   3.08634   3.09907
 Alpha virt. eigenvalues --    3.13971   3.14642   3.16260   3.21146   3.22383
 Alpha virt. eigenvalues --    3.22947   3.24460   3.26350   3.28636   3.29075
 Alpha virt. eigenvalues --    3.30107   3.32526   3.34533   3.36109   3.39856
 Alpha virt. eigenvalues --    3.46662   3.47728   3.52248   3.60150   3.64222
 Alpha virt. eigenvalues --    3.74623   3.78213   3.79875   3.80202   3.81132
 Alpha virt. eigenvalues --    3.85145   3.86710   3.95817   3.97247   3.98467
 Alpha virt. eigenvalues --    3.99441   4.04595   4.05930   4.10260   4.12103
 Alpha virt. eigenvalues --    4.17744   4.20027   4.47047   4.75245   4.77473
 Alpha virt. eigenvalues --    4.78540   4.80864   4.93802   5.05670   5.39735
 Alpha virt. eigenvalues --    6.13053   6.14521   6.29596   6.32881   6.55599
 Alpha virt. eigenvalues --    6.57521  23.28795  23.47486  23.58602  23.70194
 Alpha virt. eigenvalues --   23.72682  23.78423  23.79939  23.83739  23.86140
 Alpha virt. eigenvalues --   23.90559  24.10006  24.10662  24.19693  35.58060
 Alpha virt. eigenvalues --   49.96558  66.89097  66.89441
          Condensed to atoms (all electrons):
               1          2          3          4          5          6
     1  C    5.393995   0.272858  -0.077299   0.000080  -0.000367   0.000000
     2  C    0.272858   5.435642   0.311709  -0.071655   0.007023  -0.000099
     3  C   -0.077299   0.311709   5.271679   0.282209  -0.071463   0.005143
     4  C    0.000080  -0.071655   0.282209   5.450706   0.325929  -0.049495
     5  C   -0.000367   0.007023  -0.071463   0.325929   5.139572   0.241223
     6  O    0.000000  -0.000099   0.005143  -0.049495   0.241223   8.180001
     7  N    0.002727  -0.075656   0.296676  -0.069497  -0.015950   0.000026
     8  C   -0.000773  -0.011272  -0.076967   0.008410   0.000143   0.000002
     9  C    0.000000   0.000000  -0.000001   0.000000   0.000000   0.000000
    10  C   -0.000009  -0.000003   0.000022   0.000000   0.000000   0.000000
    11  C    0.000020  -0.000345   0.000164   0.000009   0.000025   0.000000
    12  C   -0.000143   0.000532   0.008467  -0.000232  -0.000043   0.000000
    13  C   -0.000004   0.000077  -0.000366  -0.000015  -0.000048   0.000000
    14  C    0.000000   0.000000   0.000004   0.000000   0.000000   0.000000
    15  H    0.000000   0.000000   0.000000   0.000000   0.000000   0.000000
    16  H   -0.000001   0.000000  -0.000001   0.000000   0.000000   0.000000
    17  H    0.000000   0.000000   0.000000   0.000000   0.000000   0.000000
    18  F   -0.001176  -0.000100   0.000091   0.000000   0.000000   0.000000
    19  F    0.000000   0.000001  -0.000028   0.000000   0.000001   0.000000
    20  H    0.385332  -0.036913  -0.007253   0.004548   0.000174  -0.000024
    21  H    0.378551  -0.045669  -0.002372  -0.000662  -0.000071   0.000001
    22  H    0.392373  -0.034588   0.006952  -0.000214   0.000011   0.000000
    23  H   -0.036626   0.386471  -0.034123  -0.007518  -0.000390  -0.000007
    24  H   -0.045120   0.408282  -0.043905   0.006968  -0.000116   0.000003
    25  H    0.004191  -0.010989  -0.035761   0.387201  -0.049746   0.002844
    26  H   -0.000164   0.001820  -0.002757  -0.057477   0.385562  -0.027701
    27  H    0.000000  -0.000452  -0.003676  -0.043742   0.375592  -0.029587
    28  H   -0.000006   0.000011  -0.000595  -0.001286  -0.055319   0.259342
    29  H    0.000241  -0.002610  -0.003106   0.000451   0.000281  -0.000002
    30  H   -0.000001   0.008919  -0.005623  -0.000699  -0.000094   0.000000
    31  H    0.008499  -0.066225   0.403911  -0.036029  -0.008995   0.000024
    32  C   -0.003182  -0.001544  -0.061452   0.293997  -0.074276  -0.011788
    33  H    0.000451  -0.002784  -0.003945  -0.042860  -0.003268  -0.000596
    34  H   -0.000098  -0.000029   0.009305  -0.039232  -0.016151   0.026776
    35  H    0.000161  -0.000217  -0.006405  -0.032355   0.007220  -0.000245
    36  H    0.005632  -0.005322  -0.047846  -0.006132   0.000505  -0.000119
               7          8          9         10         11         12
     1  C    0.002727  -0.000773   0.000000  -0.000009   0.000020  -0.000143
     2  C   -0.075656  -0.011272   0.000000  -0.000003  -0.000345   0.000532
     3  C    0.296676  -0.076967  -0.000001   0.000022   0.000164   0.008467
     4  C   -0.069497   0.008410   0.000000   0.000000   0.000009  -0.000232
     5  C   -0.015950   0.000143   0.000000   0.000000   0.000025  -0.000043
     6  O    0.000026   0.000002   0.000000   0.000000   0.000000   0.000000
     7  N    6.934440   0.290069   0.000040  -0.000232  -0.007706  -0.061926
     8  C    0.290069   5.273978  -0.001241   0.008313  -0.085007   0.293875
     9  C    0.000040  -0.001241   5.072073   0.440659  -0.009881  -0.053425
    10  C   -0.000232   0.008313   0.440659   5.168512   0.486966  -0.043334
    11  C   -0.007706  -0.085007  -0.009881   0.486966   4.813215   0.230543
    12  C   -0.061926   0.293875  -0.053425  -0.043334   0.230543   5.725928
    13  C    0.011254  -0.067899  -0.005589  -0.059680   0.042183   0.299028
    14  C   -0.000082   0.009547   0.435346  -0.043717  -0.057531  -0.034324
    15  H    0.000000   0.000027   0.402727  -0.040871   0.006241  -0.001663
    16  H    0.000014  -0.000257  -0.039852   0.393858  -0.050244   0.012054
    17  H    0.000008  -0.000230  -0.040686   0.006795  -0.001592   0.012019
    18  F   -0.002685   0.002338   0.005231  -0.053608   0.307151  -0.084568
    19  F   -0.000278  -0.005834   0.005584  -0.000451   0.005744  -0.074768
    20  H    0.000083   0.000083   0.000000   0.000000   0.000009   0.000006
    21  H    0.005604   0.003116  -0.000008   0.000169   0.000383  -0.000949
    22  H    0.000057  -0.000098   0.000000   0.000000   0.000002   0.000000
    23  H    0.005332   0.000553   0.000000   0.000000   0.000009   0.000009
    24  H   -0.003581   0.002256   0.000000   0.000000   0.000066   0.000380
    25  H   -0.003241  -0.000392   0.000000   0.000000  -0.000022   0.000130
    26  H    0.032776  -0.001228  -0.000002  -0.000011  -0.000163   0.000018
    27  H    0.000415  -0.000007   0.000000   0.000000  -0.000003  -0.000011
    28  H   -0.000038  -0.000003   0.000000   0.000000   0.000000   0.000000
    29  H   -0.039261   0.389790  -0.000295   0.000151   0.009575  -0.033918
    30  H   -0.048601   0.372075  -0.000025  -0.000785  -0.023576  -0.040684
    31  H   -0.040432  -0.006245   0.000000   0.000002   0.000048   0.000081
    32  C    0.004445  -0.000265   0.000000   0.000000   0.000000   0.000004
    33  H    0.000001  -0.000017   0.000000   0.000000   0.000000   0.000001
    34  H   -0.000213   0.000022   0.000000   0.000000   0.000000   0.000000
    35  H   -0.000104  -0.000014   0.000000   0.000000   0.000000   0.000000
    36  H    0.330200  -0.047949  -0.000024  -0.000117   0.003690  -0.015697
              13         14         15         16         17         18
     1  C   -0.000004   0.000000   0.000000  -0.000001   0.000000  -0.001176
     2  C    0.000077   0.000000   0.000000   0.000000   0.000000  -0.000100
     3  C   -0.000366   0.000004   0.000000  -0.000001   0.000000   0.000091
     4  C   -0.000015   0.000000   0.000000   0.000000   0.000000   0.000000
     5  C   -0.000048   0.000000   0.000000   0.000000   0.000000   0.000000
     6  O    0.000000   0.000000   0.000000   0.000000   0.000000   0.000000
     7  N    0.011254  -0.000082   0.000000   0.000014   0.000008  -0.002685
     8  C   -0.067899   0.009547   0.000027  -0.000257  -0.000230   0.002338
     9  C   -0.005589   0.435346   0.402727  -0.039852  -0.040686   0.005231
    10  C   -0.059680  -0.043717  -0.040871   0.393858   0.006795  -0.053608
    11  C    0.042183  -0.057531   0.006241  -0.050244  -0.001592   0.307151
    12  C    0.299028  -0.034324  -0.001663   0.012054   0.012019  -0.084568
    13  C    4.735733   0.471809   0.005963  -0.001505  -0.048438   0.004810
    14  C    0.471809   5.180981  -0.039843   0.006635   0.393252  -0.000476
    15  H    0.005963  -0.039843   0.445506  -0.006351  -0.006354  -0.000081
    16  H   -0.001505   0.006635  -0.006351   0.445514  -0.000140   0.001521
    17  H   -0.048438   0.393252  -0.006354  -0.000140   0.445598   0.000004
    18  F    0.004810  -0.000476  -0.000081   0.001521   0.000004   9.052681
    19  F    0.311245  -0.053133  -0.000081   0.000004   0.001365  -0.000002
    20  H    0.000000   0.000000   0.000000   0.000000   0.000000  -0.000016
    21  H   -0.000087   0.000003   0.000000   0.000005   0.000000   0.007051
    22  H    0.000000   0.000000   0.000000   0.000000   0.000000  -0.000023
    23  H   -0.000003   0.000000   0.000000   0.000000   0.000000  -0.000003
    24  H   -0.000022   0.000000   0.000000   0.000000   0.000000  -0.000102
    25  H    0.000006   0.000000   0.000000   0.000000   0.000000  -0.000058
    26  H    0.000436  -0.000004   0.000000   0.000000   0.000000  -0.000006
    27  H    0.000006   0.000000   0.000000   0.000000   0.000000   0.000000
    28  H    0.000000   0.000000   0.000000   0.000000   0.000000   0.000000
    29  H   -0.017865   0.001379   0.000005   0.000007  -0.000048   0.000219
    30  H    0.010524  -0.000199   0.000001  -0.000017   0.000017   0.004716
    31  H   -0.000045  -0.000004   0.000000   0.000000   0.000000  -0.000009
    32  C    0.000000   0.000000   0.000000   0.000000   0.000000   0.000000
    33  H    0.000000   0.000000   0.000000   0.000000   0.000000   0.000000
    34  H    0.000000   0.000000   0.000000   0.000000   0.000000   0.000000
    35  H    0.000000   0.000000   0.000000   0.000000   0.000000   0.000000
    36  H    0.000023   0.000024   0.000001   0.000011   0.000000   0.008295
              19         20         21         22         23         24
     1  C    0.000000   0.385332   0.378551   0.392373  -0.036626  -0.045120
     2  C    0.000001  -0.036913  -0.045669  -0.034588   0.386471   0.408282
     3  C   -0.000028  -0.007253  -0.002372   0.006952  -0.034123  -0.043905
     4  C    0.000000   0.004548  -0.000662  -0.000214  -0.007518   0.006968
     5  C    0.000001   0.000174  -0.000071   0.000011  -0.000390  -0.000116
     6  O    0.000000  -0.000024   0.000001   0.000000  -0.000007   0.000003
     7  N   -0.000278   0.000083   0.005604   0.000057   0.005332  -0.003581
     8  C   -0.005834   0.000083   0.003116  -0.000098   0.000553   0.002256
     9  C    0.005584   0.000000  -0.000008   0.000000   0.000000   0.000000
    10  C   -0.000451   0.000000   0.000169   0.000000   0.000000   0.000000
    11  C    0.005744   0.000009   0.000383   0.000002   0.000009   0.000066
    12  C   -0.074768   0.000006  -0.000949   0.000000   0.000009   0.000380
    13  C    0.311245   0.000000  -0.000087   0.000000  -0.000003  -0.000022
    14  C   -0.053133   0.000000   0.000003   0.000000   0.000000   0.000000
    15  H   -0.000081   0.000000   0.000000   0.000000   0.000000   0.000000
    16  H    0.000004   0.000000   0.000005   0.000000   0.000000   0.000000
    17  H    0.001365   0.000000   0.000000   0.000000   0.000000   0.000000
    18  F   -0.000002  -0.000016   0.007051  -0.000023  -0.000003  -0.000102
    19  F    9.043227   0.000000   0.000000   0.000000   0.000000   0.000000
    20  H    0.000000   0.477878  -0.028292  -0.027451  -0.004996   0.006733
    21  H    0.000000  -0.028292   0.486347  -0.026990   0.007480  -0.005334
    22  H    0.000000  -0.027451  -0.026990   0.467282  -0.004376  -0.004683
    23  H    0.000000  -0.004996   0.007480  -0.004376   0.483007  -0.032634
    24  H    0.000000   0.006733  -0.005334  -0.004683  -0.032634   0.487647
    25  H    0.000000  -0.000856  -0.000085   0.000031   0.000119  -0.000274
    26  H    0.000026  -0.000009  -0.000112   0.000001  -0.000128  -0.000015
    27  H    0.000002  -0.000023   0.000001   0.000001  -0.000049  -0.000011
    28  H    0.000000  -0.000019   0.000001   0.000000   0.000001  -0.000001
    29  H    0.013782  -0.000002   0.000300   0.000004   0.000118   0.000236
    30  H   -0.000023  -0.000125  -0.003016  -0.000018  -0.000626  -0.001064
    31  H   -0.000124  -0.000261   0.000127  -0.000194  -0.000369  -0.006199
    32  C    0.000000   0.000048   0.000099   0.000007   0.001411  -0.000011
    33  H    0.000000  -0.000110  -0.000010   0.000009   0.000507  -0.000256
    34  H    0.000000   0.000016   0.000023  -0.000004   0.000482   0.000016
    35  H    0.000000   0.002351  -0.000085   0.000030  -0.002385   0.000386
    36  H   -0.000018  -0.000481   0.002111   0.000107  -0.000189  -0.000568
              25         26         27         28         29         30
     1  C    0.004191  -0.000164   0.000000  -0.000006   0.000241  -0.000001
     2  C   -0.010989   0.001820  -0.000452   0.000011  -0.002610   0.008919
     3  C   -0.035761  -0.002757  -0.003676  -0.000595  -0.003106  -0.005623
     4  C    0.387201  -0.057477  -0.043742  -0.001286   0.000451  -0.000699
     5  C   -0.049746   0.385562   0.375592  -0.055319   0.000281  -0.000094
     6  O    0.002844  -0.027701  -0.029587   0.259342  -0.000002   0.000000
     7  N   -0.003241   0.032776   0.000415  -0.000038  -0.039261  -0.048601
     8  C   -0.000392  -0.001228  -0.000007  -0.000003   0.389790   0.372075
     9  C    0.000000  -0.000002   0.000000   0.000000  -0.000295  -0.000025
    10  C    0.000000  -0.000011   0.000000   0.000000   0.000151  -0.000785
    11  C   -0.000022  -0.000163  -0.000003   0.000000   0.009575  -0.023576
    12  C    0.000130   0.000018  -0.000011   0.000000  -0.033918  -0.040684
    13  C    0.000006   0.000436   0.000006   0.000000  -0.017865   0.010524
    14  C    0.000000  -0.000004   0.000000   0.000000   0.001379  -0.000199
    15  H    0.000000   0.000000   0.000000   0.000000   0.000005   0.000001
    16  H    0.000000   0.000000   0.000000   0.000000   0.000007  -0.000017
    17  H    0.000000   0.000000   0.000000   0.000000  -0.000048   0.000017
    18  F   -0.000058  -0.000006   0.000000   0.000000   0.000219   0.004716
    19  F    0.000000   0.000026   0.000002   0.000000   0.013782  -0.000023
    20  H   -0.000856  -0.000009  -0.000023  -0.000019  -0.000002  -0.000125
    21  H   -0.000085  -0.000112   0.000001   0.000001   0.000300  -0.003016
    22  H    0.000031   0.000001   0.000001   0.000000   0.000004  -0.000018
    23  H    0.000119  -0.000128  -0.000049   0.000001   0.000118  -0.000626
    24  H   -0.000274  -0.000015  -0.000011  -0.000001   0.000236  -0.001064
    25  H    0.531107  -0.007385   0.009155   0.007454  -0.000016   0.000041
    26  H   -0.007385   0.484093  -0.034691  -0.005839  -0.000594   0.000519
    27  H    0.009155  -0.034691   0.504799   0.008432  -0.000075   0.000017
    28  H    0.007454  -0.005839   0.008432   0.388498   0.000000   0.000000
    29  H   -0.000016  -0.000594  -0.000075   0.000000   0.462542  -0.044708
    30  H    0.000041   0.000519   0.000017   0.000000  -0.044708   0.549309
    31  H    0.008439  -0.002799   0.005960   0.000065   0.005973  -0.002380
    32  C   -0.051295   0.008380  -0.008059   0.000129  -0.000016   0.000046
    33  H    0.008121  -0.000358   0.004584   0.000085  -0.000010   0.000002
    34  H   -0.004467   0.001302  -0.002029  -0.001358   0.000004  -0.000003
    35  H   -0.006539  -0.000320  -0.000036   0.000000   0.000001  -0.000002
    36  H    0.003839  -0.000477  -0.000026  -0.000026   0.006481  -0.004433
              31         32         33         34         35         36
     1  C    0.008499  -0.003182   0.000451  -0.000098   0.000161   0.005632
     2  C   -0.066225  -0.001544  -0.002784  -0.000029  -0.000217  -0.005322
     3  C    0.403911  -0.061452  -0.003945   0.009305  -0.006405  -0.047846
     4  C   -0.036029   0.293997  -0.042860  -0.039232  -0.032355  -0.006132
     5  C   -0.008995  -0.074276  -0.003268  -0.016151   0.007220   0.000505
     6  O    0.000024  -0.011788  -0.000596   0.026776  -0.000245  -0.000119
     7  N   -0.040432   0.004445   0.000001  -0.000213  -0.000104   0.330200
     8  C   -0.006245  -0.000265  -0.000017   0.000022  -0.000014  -0.047949
     9  C    0.000000   0.000000   0.000000   0.000000   0.000000  -0.000024
    10  C    0.000002   0.000000   0.000000   0.000000   0.000000  -0.000117
    11  C    0.000048   0.000000   0.000000   0.000000   0.000000   0.003690
    12  C    0.000081   0.000004   0.000001   0.000000   0.000000  -0.015697
    13  C   -0.000045   0.000000   0.000000   0.000000   0.000000   0.000023
    14  C   -0.000004   0.000000   0.000000   0.000000   0.000000   0.000024
    15  H    0.000000   0.000000   0.000000   0.000000   0.000000   0.000001
    16  H    0.000000   0.000000   0.000000   0.000000   0.000000   0.000011
    17  H    0.000000   0.000000   0.000000   0.000000   0.000000   0.000000
    18  F   -0.000009   0.000000   0.000000   0.000000   0.000000   0.008295
    19  F   -0.000124   0.000000   0.000000   0.000000   0.000000  -0.000018
    20  H   -0.000261   0.000048  -0.000110   0.000016   0.002351  -0.000481
    21  H    0.000127   0.000099  -0.000010   0.000023  -0.000085   0.002111
    22  H   -0.000194   0.000007   0.000009  -0.000004   0.000030   0.000107
    23  H   -0.000369   0.001411   0.000507   0.000482  -0.002385  -0.000189
    24  H   -0.006199  -0.000011  -0.000256   0.000016   0.000386  -0.000568
    25  H    0.008439  -0.051295   0.008121  -0.004467  -0.006539   0.003839
    26  H   -0.002799   0.008380  -0.000358   0.001302  -0.000320  -0.000477
    27  H    0.005960  -0.008059   0.004584  -0.002029  -0.000036  -0.000026
    28  H    0.000065   0.000129   0.000085  -0.001358   0.000000  -0.000026
    29  H    0.005973  -0.000016  -0.000010   0.000004   0.000001   0.006481
    30  H   -0.002380   0.000046   0.000002  -0.000003  -0.000002  -0.004433
    31  H    0.497740  -0.002854   0.004590  -0.000255  -0.000416   0.007776
    32  C   -0.002854   5.428095   0.382957   0.379666   0.388912   0.000223
    33  H    0.004590   0.382957   0.484976  -0.026441  -0.028146   0.000018
    34  H   -0.000255   0.379666  -0.026441   0.463388  -0.027309  -0.000013
    35  H   -0.000416   0.388912  -0.028146  -0.027309   0.471794   0.000004
    36  H    0.007776   0.000223   0.000018  -0.000013   0.000004   0.431655
 Mulliken charges:
               1
     1  C   -0.680141
     2  C   -0.466872
     3  C   -0.111388
     4  C   -0.301408
     5  C   -0.186965
     6  O   -0.595721
     7  N   -0.544686
     8  C   -0.348899
     9  C   -0.210632
    10  C   -0.262631
    11  C    0.330026
    12  C   -0.137391
    13  C    0.308470
    14  C   -0.269669
    15  H    0.234772
    16  H    0.238746
    17  H    0.238430
    18  F   -0.251194
    19  F   -0.246241
    20  H    0.229569
    21  H    0.222366
    22  H    0.231774
    23  H    0.238924
    24  H    0.230924
    25  H    0.208448
    26  H    0.227304
    27  H    0.213514
    28  H    0.400472
    29  H    0.250991
    30  H    0.230519
    31  H    0.230602
    32  C   -0.673676
    33  H    0.222500
    34  H    0.236602
    35  H    0.233718
    36  H    0.328844
 Sum of Mulliken charges =   0.00000
 Mulliken charges with hydrogens summed into heavy atoms:
               1
     1  C    0.003569
     2  C    0.002975
     3  C    0.119214
     4  C   -0.092960
     5  C    0.253852
     6  O   -0.195249
     7  N   -0.215841
     8  C    0.132611
     9  C    0.024140
    10  C   -0.023886
    11  C    0.330026
    12  C   -0.137391
    13  C    0.308470
    14  C   -0.031239
    18  F   -0.251194
    19  F   -0.246241
    32  C    0.019144
 Electronic spatial extent (au):  <R**2>=           5386.7455
 Charge=              0.0000 electrons
 Dipole moment (field-independent basis, Debye):
    X=             -2.7261    Y=              2.3392    Z=             -0.8368  Tot=              3.6884
 Quadrupole moment (field-independent basis, Debye-Ang):
   XX=            -97.2667   YY=           -110.7313   ZZ=            -96.5014
   XY=             10.4001   XZ=              6.2600   YZ=             -0.6255
 Traceless Quadrupole moment (field-independent basis, Debye-Ang):
   XX=              4.2331   YY=             -9.2315   ZZ=              4.9984
   XY=             10.4001   XZ=              6.2600   YZ=             -0.6255
 Octapole moment (field-independent basis, Debye-Ang**2):
  XXX=           -126.9420  YYY=             12.5786  ZZZ=            -19.3815  XYY=            -31.2155
  XXY=             18.8978  XXZ=            -20.9325  XZZ=              7.5117  YZZ=             -2.3826
  YYZ=              8.4937  XYZ=             -5.7024
 Hexadecapole moment (field-independent basis, Debye-Ang**3):
 XXXX=          -4919.1600 YYYY=          -1429.2167 ZZZZ=           -574.8497 XXXY=            222.2421
 XXXZ=            144.4530 YYYX=             85.1704 YYYZ=            -42.6241 ZZZX=            -63.3321
 ZZZY=             -0.8974 XXYY=          -1147.7543 XXZZ=           -890.9281 YYZZ=           -330.4069
 XXYZ=            -67.6734 YYXZ=             32.9902 ZZXY=            -44.4431
 N-N= 1.255672119185D+03 E-N=-4.469288719164D+03  KE= 8.332681075921D+02
 1\1\GINC-SWANNODE-0-13\SP\RmPW1PW91\6-311G(d)\C13H19F2N1O1\KE291\06-Ma
 r-2019\0\\# mPW1PW91/6-311g(d) geom=checkpoint nmr=giao scrf=(solvent=
 chloroform)\\AT3_1ginp017\\0,1\C,0,-1.7072680106,0.5300802971,0.419832
 6543\C,0,-1.0506562654,-0.0924908696,1.658021733\C,0,-0.1865139449,0.8
 783391111,2.5029969405\C,0,-0.9956017179,2.0101512231,3.1893667515\C,0
 ,-0.1014492785,2.7821770035,4.1775717165\O,0,-0.7509323358,3.919824624
 9,4.7502595667\N,0,0.9287783905,1.4935600923,1.7587062119\C,0,1.924623
 359,0.552978686,1.2330989175\C,0,5.0782868979,2.6842713752,-0.85071146
 21\C,0,3.8083000987,2.5828242418,-1.4225258997\C,0,2.8294163643,1.8915
 325622,-0.7225968225\C,0,3.0352332594,1.2892105285,0.5197888462\C,0,4.
 3212502433,1.4292801174,1.0433138744\C,0,5.3457053404,2.1060636285,0.3
 90166026\H,0,5.8631933621,3.2183408031,-1.3757503705\H,0,3.5725018807,
 3.0245144794,-2.3837099584\H,0,6.3229103928,2.1716052484,0.8543816596\
 F,0,1.5867408151,1.7948169496,-1.2657243812\F,0,4.5877712389,0.8673461
 759,2.2448844532\H,0,-2.3869950065,1.3482685209,0.681355254\H,0,-0.960
 5231023,0.9263828962,-0.277040286\H,0,-2.2908114165,-0.2193141684,-0.1
 240353289\H,0,-1.8177932078,-0.5370695348,2.3008851827\H,0,-0.41853018
 94,-0.9303864465,1.3404245011\H,0,-1.3007230675,2.7245256974,2.4070886
 592\H,0,0.8337342869,3.0652597998,3.6830607997\H,0,0.1514740613,2.1321
 984799,5.024361202\H,0,-0.8836038055,4.5607094266,4.0384912386\H,0,2.3
 48478803,-0.001397558,2.0746398962\H,0,1.5055486304,-0.1909387687,0.53
 65756446\H,0,0.2737898655,0.27801762,3.3030664398\C,0,-2.2593831841,1.
 5137072388,3.9045403494\H,0,-2.0219217179,0.6965738461,4.5970034052\H,
 0,-2.6904736379,2.3307875549,4.4885831254\H,0,-3.0224143947,1.15481814
 28,3.2087870551\H,0,0.5505549929,2.0323009748,0.982256405\\Version=EM6
 4L-G09RevD.01\State=1-A\HF=-836.4614798\RMSD=7.135e-09\Dipole=0.396119
 5,-0.0389344,-1.3954638\Quadrupole=5.5187165,2.0163981,-7.5351147,4.09
 28175,-1.1203461,-7.3087899\PG=C01 [X(C13H19F2N1O1)]\\@


 REALITY IS FOR PEOPLE WHO CAN'T FACE SCIENCE FICTION.
 Job cpu time:       0 days  0 hours 25 minutes 38.7 seconds.
 File lengths (MBytes):  RWF=    180 Int=      0 D2E=      0 Chk=     14 Scr=      1
 Normal termination of Gaussian 09 at Wed Mar  6 11:31:07 2019.
