 Entering Gaussian System, Link 0=/usr/local/shared/gaussian/em64t/09-D01/g09/g09
 Initial command:
 /usr/local/shared/gaussian/em64t/09-D01/g09/l1.exe "/scratch/ke291/AT3_2ginp005/Gau-18556.inp" -scrdir="/scratch/ke291/AT3_2ginp005/"
 Entering Link 1 = /usr/local/shared/gaussian/em64t/09-D01/g09/l1.exe PID=     18560.
  
 Copyright (c) 1988,1990,1992,1993,1995,1998,2003,2009,2013,
            Gaussian, Inc.  All Rights Reserved.
  
 This is part of the Gaussian(R) 09 program.  It is based on
 the Gaussian(R) 03 system (copyright 2003, Gaussian, Inc.),
 the Gaussian(R) 98 system (copyright 1998, Gaussian, Inc.),
 the Gaussian(R) 94 system (copyright 1995, Gaussian, Inc.),
 the Gaussian 92(TM) system (copyright 1992, Gaussian, Inc.),
 the Gaussian 90(TM) system (copyright 1990, Gaussian, Inc.),
 the Gaussian 88(TM) system (copyright 1988, Gaussian, Inc.),
 the Gaussian 86(TM) system (copyright 1986, Carnegie Mellon
 University), and the Gaussian 82(TM) system (copyright 1983,
 Carnegie Mellon University). Gaussian is a federally registered
 trademark of Gaussian, Inc.
  
 This software contains proprietary and confidential information,
 including trade secrets, belonging to Gaussian, Inc.
  
 This software is provided under written license and may be
 used, copied, transmitted, or stored only in accord with that
 written license.
  
 The following legend is applicable only to US Government
 contracts under FAR:
  
                    RESTRICTED RIGHTS LEGEND
  
 Use, reproduction and disclosure by the US Government is
 subject to restrictions as set forth in subparagraphs (a)
 and (c) of the Commercial Computer Software - Restricted
 Rights clause in FAR 52.227-19.
  
 Gaussian, Inc.
 340 Quinnipiac St., Bldg. 40, Wallingford CT 06492
  
  
 ---------------------------------------------------------------
 Warning -- This program may not be used in any manner that
 competes with the business of Gaussian, Inc. or will provide
 assistance to any competitor of Gaussian, Inc.  The licensee
 of this program is prohibited from giving any competitor of
 Gaussian, Inc. access to this program.  By using this program,
 the user acknowledges that Gaussian, Inc. is engaged in the
 business of creating and licensing software in the field of
 computational chemistry and represents and warrants to the
 licensee that it is not a competitor of Gaussian, Inc. and that
 it will not use this program in any manner prohibited above.
 ---------------------------------------------------------------
  

 Cite this work as:
 Gaussian 09, Revision D.01,
 M. J. Frisch, G. W. Trucks, H. B. Schlegel, G. E. Scuseria, 
 M. A. Robb, J. R. Cheeseman, G. Scalmani, V. Barone, B. Mennucci, 
 G. A. Petersson, H. Nakatsuji, M. Caricato, X. Li, H. P. Hratchian, 
 A. F. Izmaylov, J. Bloino, G. Zheng, J. L. Sonnenberg, M. Hada, 
 M. Ehara, K. Toyota, R. Fukuda, J. Hasegawa, M. Ishida, T. Nakajima, 
 Y. Honda, O. Kitao, H. Nakai, T. Vreven, J. A. Montgomery, Jr., 
 J. E. Peralta, F. Ogliaro, M. Bearpark, J. J. Heyd, E. Brothers, 
 K. N. Kudin, V. N. Staroverov, T. Keith, R. Kobayashi, J. Normand, 
 K. Raghavachari, A. Rendell, J. C. Burant, S. S. Iyengar, J. Tomasi, 
 M. Cossi, N. Rega, J. M. Millam, M. Klene, J. E. Knox, J. B. Cross, 
 V. Bakken, C. Adamo, J. Jaramillo, R. Gomperts, R. E. Stratmann, 
 O. Yazyev, A. J. Austin, R. Cammi, C. Pomelli, J. W. Ochterski, 
 R. L. Martin, K. Morokuma, V. G. Zakrzewski, G. A. Voth, 
 P. Salvador, J. J. Dannenberg, S. Dapprich, A. D. Daniels, 
 O. Farkas, J. B. Foresman, J. V. Ortiz, J. Cioslowski, 
 and D. J. Fox, Gaussian, Inc., Wallingford CT, 2013.
 
 ******************************************
 Gaussian 09:  EM64L-G09RevD.01 24-Apr-2013
                 6-Mar-2019 
 ******************************************
 %nprocshared=2
 Will use up to    2 processors via shared memory.
 %mem=6000MB
 %chk=AT3_2ginp005.chk
 ----------------------------------------------------------------------
 # mPW1PW91/6-311g(d) geom=checkpoint nmr=giao scrf=(solvent=chloroform
 )
 ----------------------------------------------------------------------
 1/29=2,38=1/1;
 2/12=2,40=1/2;
 3/5=4,6=6,7=1,11=2,14=-4,16=1,25=1,30=1,70=2201,72=7,74=-7/1,2,8,3;
 4//1;
 5/5=2,38=5,53=7/2;
 8/6=1,10=90,11=11/1;
 10/13=100,45=16/2;
 6/7=2,8=2,9=2,10=2,28=1/1;
 99/9=1/99;
 ------------
 AT3_2ginp005
 ------------
 Structure from the checkpoint file:  "AT3_2ginp005.chk"
 Charge =  0 Multiplicity = 1
 Redundant internal coordinates found in file.
 C,0,-2.6133896095,-1.6791049847,-0.6692615678
 C,0,-2.1320958188,-0.7746844289,0.4715204545
 C,0,-2.7427131269,-1.0656952528,1.8569487712
 C,0,-2.0413939925,-0.2636755416,2.9886813828
 C,0,-2.5890035016,-0.6680211727,4.3713492452
 O,0,-3.9048461554,-0.1939118209,4.6156495877
 N,0,-4.2179994931,-0.8598525776,1.9095033946
 C,0,-5.029792508,-2.074585466,1.6889813228
 C,0,-9.2162388507,-1.0266583986,1.2917733855
 C,0,-8.6553391522,-1.1622108296,2.5629730103
 C,0,-7.311770151,-1.5008991493,2.6584432102
 C,0,-6.4899725624,-1.7223732781,1.5507357238
 C,0,-7.1044446482,-1.5626863143,0.3072399038
 C,0,-8.4431191983,-1.2263508549,0.1474146161
 H,0,-10.2637241736,-0.7622488222,1.1925274633
 H,0,-9.2351128144,-1.0103689801,3.4658957995
 H,0,-8.8553188121,-1.1248549182,-0.8497061531
 F,0,-6.7614885007,-1.6335297336,3.8861892205
 F,0,-6.3498801953,-1.7503602682,-0.8040481563
 H,0,-2.0828977577,-1.4390610797,-1.596384581
 H,0,-2.4288862221,-2.7363329434,-0.447330915
 H,0,-3.6826005946,-1.5583285287,-0.8672483915
 H,0,-1.0412148326,-0.8581086582,0.5602823505
 H,0,-2.3326431984,0.271267846,0.2055273238
 H,0,-0.9846977079,-0.5688071511,2.9706752358
 H,0,-1.9456705505,-0.2471894481,5.1543132364
 H,0,-2.5352465902,-1.7672194152,4.471020898
 H,0,-4.3809743554,-0.3695677675,3.7763518384
 H,0,-4.7199363206,-2.6431389881,0.8048981049
 H,0,-4.8988431252,-2.7249436303,2.5591559914
 H,0,-2.5747222134,-2.1281164187,2.0825036508
 C,0,-2.1060417107,1.2604570453,2.8058824268
 H,0,-3.1415837465,1.6114265567,2.7929216501
 H,0,-1.6039308888,1.7623740414,3.6397328717
 H,0,-1.6178508624,1.586339405,1.8833934367
 H,0,-4.4898430583,-0.1499900732,1.2331342577
 Recover connectivity data from disk.
                          Input orientation:                          
 ---------------------------------------------------------------------
 Center     Atomic      Atomic             Coordinates (Angstroms)
 Number     Number       Type             X           Y           Z
 ---------------------------------------------------------------------
      1          6           0       -2.613390   -1.679105   -0.669262
      2          6           0       -2.132096   -0.774684    0.471520
      3          6           0       -2.742713   -1.065695    1.856949
      4          6           0       -2.041394   -0.263676    2.988681
      5          6           0       -2.589004   -0.668021    4.371349
      6          8           0       -3.904846   -0.193912    4.615650
      7          7           0       -4.217999   -0.859853    1.909503
      8          6           0       -5.029793   -2.074585    1.688981
      9          6           0       -9.216239   -1.026658    1.291773
     10          6           0       -8.655339   -1.162211    2.562973
     11          6           0       -7.311770   -1.500899    2.658443
     12          6           0       -6.489973   -1.722373    1.550736
     13          6           0       -7.104445   -1.562686    0.307240
     14          6           0       -8.443119   -1.226351    0.147415
     15          1           0      -10.263724   -0.762249    1.192527
     16          1           0       -9.235113   -1.010369    3.465896
     17          1           0       -8.855319   -1.124855   -0.849706
     18          9           0       -6.761489   -1.633530    3.886189
     19          9           0       -6.349880   -1.750360   -0.804048
     20          1           0       -2.082898   -1.439061   -1.596385
     21          1           0       -2.428886   -2.736333   -0.447331
     22          1           0       -3.682601   -1.558329   -0.867248
     23          1           0       -1.041215   -0.858109    0.560282
     24          1           0       -2.332643    0.271268    0.205527
     25          1           0       -0.984698   -0.568807    2.970675
     26          1           0       -1.945671   -0.247189    5.154313
     27          1           0       -2.535247   -1.767219    4.471021
     28          1           0       -4.380974   -0.369568    3.776352
     29          1           0       -4.719936   -2.643139    0.804898
     30          1           0       -4.898843   -2.724944    2.559156
     31          1           0       -2.574722   -2.128116    2.082504
     32          6           0       -2.106042    1.260457    2.805882
     33          1           0       -3.141584    1.611427    2.792922
     34          1           0       -1.603931    1.762374    3.639733
     35          1           0       -1.617851    1.586339    1.883393
     36          1           0       -4.489843   -0.149990    1.233134
 ---------------------------------------------------------------------
                    Distance matrix (angstroms):
                    1          2          3          4          5
     1  C    0.000000
     2  C    1.533298   0.000000
     3  C    2.602832   1.541737   0.000000
     4  C    3.963731   2.570108   1.554317   0.000000
     5  C    5.141074   3.927952   2.550290   1.541150   0.000000
     6  O    5.639499   4.544639   3.117850   2.474742   1.419825
     7  N    3.145787   2.534964   1.490504   2.501532   2.958228
     8  C    3.399517   3.401264   2.505355   3.728155   3.889855
     9  C    6.918740   7.135922   6.498268   7.412155   7.316601
    10  C    6.871657   6.861272   5.955412   6.688263   6.349400
    11  C    5.760222   5.669131   4.659193   5.423711   5.092372
    12  C    4.467455   4.588454   3.816667   4.897483   4.927989
    13  C    4.597465   5.037081   4.655459   5.874695   6.140572
    14  C    5.904040   6.335461   5.953398   7.069768   7.240444
    15  H    7.926822   8.163540   7.556397   8.430982   8.307534
    16  H    7.835429   7.711983   6.689023   7.248095   6.716235
    17  H    6.269086   6.860757   6.685314   7.867936   8.169139
    18  F    6.161244   5.816258   4.537710   4.996130   4.310130
    19  F    3.739600   4.513172   4.534460   5.929425   6.488481
    20  H    1.094806   2.172567   3.535572   4.733506   6.038584
    21  H    1.095913   2.186421   2.863428   4.250925   5.246259
    22  H    1.094074   2.193277   2.923581   4.386101   5.425081
    23  H    2.158135   1.097661   2.149310   2.692737   4.117768
    24  H    2.155929   1.097719   2.163983   2.849024   4.278090
    25  H    4.139389   2.757659   2.139603   1.100017   2.132024
    26  H    6.034091   4.716095   3.489676   2.167809   1.097274
    27  H    5.141631   4.140490   2.714508   2.168378   1.105016
    28  H    4.960113   4.017896   2.617747   2.470885   1.911611
    29  H    2.745915   3.209234   2.739444   4.195872   4.600167
    30  H    4.091425   3.977012   2.809821   3.795701   3.584736
    31  H    2.788426   2.150108   1.099015   2.140499   2.714939
    32  C    4.579853   3.097051   2.591681   1.536416   2.530408
    33  H    4.805549   3.478720   2.863935   2.182830   2.827129
    34  H    5.606266   4.093067   3.531730   2.172583   2.722582
    35  H    4.262660   2.798619   2.880851   2.196271   3.495025
    36  H    3.078698   2.555244   2.068846   3.014925   3.705393
                    6          7          8          9         10
     6  O    0.000000
     7  N    2.804420   0.000000
     8  C    3.656204   1.477570   0.000000
     9  C    6.320800   5.039029   4.333850   0.000000
    10  C    5.264814   4.495378   3.839385   1.396041   0.000000
    11  C    4.140773   3.247040   2.544876   2.391588   1.388885
    12  C    4.291010   2.456526   1.508407   2.825528   2.455039
    13  C    5.538354   3.375321   2.544687   2.390880   2.766584
    14  C    6.451897   4.592485   3.840147   1.395402   2.425711
    15  H    7.244039   6.088872   5.418739   1.084891   2.150580
    16  H    5.513645   5.255134   4.687718   2.174265   1.083726
    17  H    7.432627   5.402610   4.688451   2.173900   3.418738
    18  F    3.281009   3.312884   2.832141   3.622856   2.357904
    19  F    6.146043   3.563886   2.839533   3.623841   4.122850
    20  H    6.592364   4.145527   4.458891   7.706886   7.782923
    21  H    5.854582   3.503823   3.430226   7.212186   7.092849
    22  H    5.654485   2.912880   2.935261   5.963657   6.054045
    23  H    5.008747   3.451429   4.320015   8.209416   7.878968
    24  H    4.705039   2.781643   3.870178   7.088613   6.898471
    25  H    3.372500   3.415411   4.502544   8.413478   7.704355
    26  H    2.032576   4.008444   4.985951   8.269701   7.250652
    27  H    2.090937   3.196302   3.749264   7.435839   6.439116
    28  H    0.980803   1.937024   2.772213   5.475827   4.513398
    29  H    4.602707   2.156897   1.095841   4.802790   4.557562
    30  H    3.409299   2.089057   1.094220   4.809401   4.068588
    31  H    3.453579   2.082974   2.486985   6.778511   6.175575
    32  C    2.937030   3.124032   4.573652   7.620914   6.987247
    33  H    2.676594   2.836603   4.286106   6.790756   6.176361
    34  H    3.173906   4.086945   5.501292   8.440311   7.709408
    35  H    3.983072   3.570057   5.008145   8.056877   7.585684
    36  H    3.433010   1.017487   2.050222   4.807370   4.488254
                   11         12         13         14         15
    11  C    0.000000
    12  C    1.396932   0.000000
    13  C    2.361135   1.396194   0.000000
    14  C    2.767777   2.455632   1.389502   0.000000
    15  H    3.377654   3.910416   3.377200   2.149943   0.000000
    16  H    2.142859   3.422073   3.849923   3.418511   2.507550
    17  H    3.851112   3.422574   2.143777   1.083725   2.507151
    18  F    1.351947   2.352861   3.596042   4.119722   4.503399
    19  F    3.602265   2.359113   1.356300   2.358287   4.503427
    20  H    6.741550   5.422817   5.371685   6.598371   8.669604
    21  H    5.917321   4.638190   4.879310   6.229347   8.244442
    22  H    5.060106   3.708759   3.617797   4.878759   6.941729
    23  H    6.643442   5.605079   6.109273   7.422550   9.244653
    24  H    5.826584   4.802872   5.113103   6.291594   8.058807
    25  H    6.402978   5.801292   6.747813   8.001951   9.449845
    26  H    6.049478   5.984365   7.199833   8.261031   9.227733
    27  H    5.115813   4.916293   6.185182   7.340917   8.455049
    28  H    3.334546   3.351317   4.568978   5.514008   6.437165
    29  H    3.384958   2.130050   2.664755   4.037532   5.866991
    30  H    2.707464   2.133952   3.359560   4.541384   5.873823
    31  H    4.812975   3.971976   4.897924   6.244664   7.859924
    32  C    5.894611   5.448993   6.260781   7.308229   8.558156
    33  H    5.205296   4.885586   5.653129   6.569472   7.675968
    34  H    6.647655   6.354587   7.239972   8.240343   9.346366
    35  H    6.523225   5.898797   6.519458   7.583478   8.985783
    36  H    3.437984   2.563938   3.112737   4.238600   5.806394
                   16         17         18         19         20
    16  H    0.000000
    17  H    4.333794   0.000000
    18  F    2.585303   5.203036   0.000000
    19  F    5.206206   2.582744   4.709713   0.000000
    20  H    8.772949   6.820699   7.210107   4.351074   0.000000
    21  H    8.038471   6.637605   6.226316   4.058766   1.767186
    22  H    7.064474   5.190879   5.663954   2.674930   1.762076
    23  H    8.695156   7.944775   6.662167   5.553327   2.464512
    24  H    7.740587   6.753368   6.065492   4.609167   2.496895
    25  H    8.277051   8.766480   5.945007   6.665567   4.777177
    26  H    7.521248   9.195748   5.169350   7.560334   6.856479
    27  H    6.816987   8.286500   4.268609   6.509844   6.093088
    28  H    4.906085   6.480018   2.697501   5.173320   5.940645
    29  H    5.489414   4.705772   3.831658   2.458145   3.764297
    30  H    4.750282   5.462081   2.534097   3.790312   5.181849
    31  H    6.893761   7.003591   4.585511   4.767253   3.775037
    32  C    7.511053   8.037772   5.587075   6.332992   5.164096
    33  H    6.667668   7.307718   4.982839   5.876476   5.449064
    34  H    8.121161   9.004098   6.180073   7.389894   6.155934
    35  H    8.201822   8.197643   6.390286   6.383417   4.634455
    36  H    5.314420   4.934163   3.794728   3.189206   3.932082
                   21         22         23         24         25
    21  H    0.000000
    22  H    1.770826   0.000000
    23  H    2.543353   3.083029   0.000000
    24  H    3.079147   2.514091   1.751893   0.000000
    25  H    4.297280   4.794527   2.428350   3.188844   0.000000
    26  H    6.148801   6.402751   4.721905   4.990894   2.407318
    27  H    5.014048   5.464172   4.283981   4.731904   2.468082
    28  H    5.220318   4.843955   4.662164   4.166188   3.496213
    29  H    2.612599   2.246988   4.096238   3.814732   4.790141
    30  H    3.890987   3.818440   4.728833   4.593717   4.487628
    31  H    2.606004   3.202045   2.506336   3.055927   2.397597
    32  C    5.163522   4.891112   3.265715   2.791360   2.151924
    33  H    5.469021   4.872052   3.936348   3.024073   3.071998
    34  H    6.133760   5.971668   4.082474   3.814209   2.503097
    35  H    4.977504   4.660274   2.838742   2.248461   2.495540
    36  H    3.709538   2.654555   3.584299   2.426303   3.934527
                   26         27         28         29         30
    26  H    0.000000
    27  H    1.767761   0.000000
    28  H    2.800796   2.417169   0.000000
    29  H    5.688105   4.356669   3.756802   0.000000
    30  H    4.647078   3.187327   2.701398   1.765254   0.000000
    31  H    3.656447   2.415951   3.037131   2.549405   2.446413
    32  C    2.795325   3.481914   2.962112   5.106314   4.872785
    33  H    3.234321   3.820852   2.535264   4.954267   4.684732
    34  H    2.539505   3.743851   3.503685   6.095435   5.670989
    35  H    3.764068   4.334027   3.878623   5.354865   5.459737
    36  H    4.675244   4.113367   2.554999   2.540102   2.925064
                   31         32         33         34         35
    31  H    0.000000
    32  C    3.496479   0.000000
    33  H    3.848403   1.093478   0.000000
    34  H    4.301548   1.095145   1.761888   0.000000
    35  H    3.840889   1.093396   1.774720   1.765194   0.000000
    36  H    2.881337   3.185186   2.711702   4.216319   3.418482
                   36
    36  H    0.000000
 Stoichiometry    C13H19F2NO
 Framework group  C1[X(C13H19F2NO)]
 Deg. of freedom   102
 Full point group                 C1      NOp   1
 Largest Abelian subgroup         C1      NOp   1
 Largest concise Abelian subgroup C1      NOp   1
                         Standard orientation:                         
 ---------------------------------------------------------------------
 Center     Atomic      Atomic             Coordinates (Angstroms)
 Number     Number       Type             X           Y           Z
 ---------------------------------------------------------------------
      1          6           0        1.633559    3.116731   -0.454897
      2          6           0        2.504403    1.995063    0.123459
      3          6           0        2.159514    0.569663   -0.352186
      4          6           0        3.220745   -0.473063    0.097718
      5          6           0        2.914887   -1.861938   -0.496100
      6          8           0        1.791298   -2.493217    0.099668
      7          7           0        0.792790    0.126847    0.044780
      8          6           0       -0.256600    0.339133   -0.973517
      9          6           0       -4.165846   -0.471080    0.712784
     10          6           0       -3.382178   -1.527761    0.245642
     11          6           0       -2.134815   -1.236748   -0.291386
     12          6           0       -1.622478    0.058435   -0.398298
     13          6           0       -2.447226    1.071646    0.094198
     14          6           0       -3.704010    0.843735    0.641249
     15          1           0       -5.143537   -0.674297    1.136825
     16          1           0       -3.718614   -2.556886    0.292277
     17          1           0       -4.292957    1.680134    0.999075
     18          9           0       -1.370040   -2.254946   -0.745426
     19          9           0       -1.993954    2.348363    0.030251
     20          1           0        1.989643    4.092829   -0.109881
     21          1           0        1.663335    3.122570   -1.550390
     22          1           0        0.587599    3.026151   -0.147066
     23          1           0        3.554803    2.189221   -0.129175
     24          1           0        2.447786    2.029294    1.219182
     25          1           0        4.174850   -0.148839   -0.343416
     26          1           0        3.776182   -2.522908   -0.337047
     27          1           0        2.785471   -1.764145   -1.589145
     28          1           0        1.123582   -1.777867    0.166031
     29          1           0       -0.251841    1.352832   -1.389763
     30          1           0       -0.065518   -0.354431   -1.798001
     31          1           0        2.173259    0.568871   -1.451115
     32          6           0        3.400199   -0.563620    1.620929
     33          1           0        2.468242   -0.860599    2.109757
     34          1           0        4.151707   -1.320870    1.868213
     35          1           0        3.732465    0.383702    2.054170
     36          1           0        0.518658    0.591109    0.907677
 ---------------------------------------------------------------------
 Rotational constants (GHZ):      0.6582097      0.3080810      0.2299348
 Standard basis: 6-311G(d) (5D, 7F)
 There are   380 symmetry adapted cartesian basis functions of A   symmetry.
 There are   363 symmetry adapted basis functions of A   symmetry.
   363 basis functions,   639 primitive gaussians,   380 cartesian basis functions
    65 alpha electrons       65 beta electrons
       nuclear repulsion energy      1289.1411227616 Hartrees.
 NAtoms=   36 NActive=   36 NUniq=   36 SFac= 1.00D+00 NAtFMM=   60 NAOKFM=F Big=F
 Integral buffers will be    131072 words long.
 Raffenetti 2 integral format.
 Two-electron integral symmetry is turned on.
 ------------------------------------------------------------------------------
 Polarizable Continuum Model (PCM)
 =================================
 Model                : PCM (using non-symmetric T matrix).
 Atomic radii         : UFF (Universal Force Field).
 Polarization charges : Total charges.
 Charge compensation  : None.
 Solution method      : On-the-fly selection.
 Cavity type          : Scaled VdW (van der Waals Surface) (Alpha=1.100).
 Cavity algorithm     : GePol (No added spheres)
                        Default sphere list used, NSphG=   36.
                        Lebedev-Laikov grids with approx.  5.0 points / Ang**2.
                        Smoothing algorithm: Karplus/York (Gamma=1.0000).
                        Polarization charges: spherical gaussians, with
                                              point-specific exponents (IZeta= 3).
                        Self-potential: point-specific (ISelfS= 7).
                        Self-field    : sphere-specific E.n sum rule (ISelfD= 2).
 Solvent              : Chloroform, Eps=   4.711300 Eps(inf)=   2.090627
 ------------------------------------------------------------------------------
 One-electron integrals computed using PRISM.
 NBasis=   363 RedAO= T EigKep=  2.29D-04  NBF=   363
 NBsUse=   363 1.00D-06 EigRej= -1.00D+00 NBFU=   363
 ExpMin= 1.03D-01 ExpMax= 1.14D+04 ExpMxC= 1.72D+03 IAcc=1 IRadAn=         1 AccDes= 0.00D+00
 Harris functional with IExCor=  908 and IRadAn=       1 diagonalized for initial guess.
 HarFok:  IExCor=  908 AccDes= 0.00D+00 IRadAn=         1 IDoV= 1 UseB2=F ITyADJ=14
 ICtDFT=  3500011 ScaDFX=  1.000000  1.000000  1.000000  1.000000
 FoFCou: FMM=F IPFlag=           0 FMFlag=      100000 FMFlg1=           0
         NFxFlg=           0 DoJE=T BraDBF=F KetDBF=T FulRan=T
         wScrn=  0.000000 ICntrl=     500 IOpCl=  0 I1Cent=   200000004 NGrid=           0
         NMat0=    1 NMatS0=      1 NMatT0=    0 NMatD0=    1 NMtDS0=    0 NMtDT0=    0
 Petite list used in FoFCou.
 Requested convergence on RMS density matrix=1.00D-08 within 128 cycles.
 Requested convergence on MAX density matrix=1.00D-06.
 Requested convergence on             energy=1.00D-06.
 No special actions if energy rises.
 Inv3:  Mode=1 IEnd=    18169563.
 Iteration    1 A*A^-1 deviation from unit magnitude is 7.33D-15 for   1125.
 Iteration    1 A*A^-1 deviation from orthogonality  is 5.11D-15 for   2075    644.
 Iteration    1 A^-1*A deviation from unit magnitude is 7.77D-15 for   2123.
 Iteration    1 A^-1*A deviation from orthogonality  is 5.40D-12 for   2089   2054.
 Error on total polarization charges =  0.00974
 SCF Done:  E(RmPW1PW91) =  -836.467464503     A.U. after   12 cycles
            NFock= 12  Conv=0.72D-08     -V/T= 2.0039
 DoSCS=F DFT=T ScalE2(SS,OS)=  1.000000  1.000000
 Range of M.O.s used for correlation:     1   363
 NBasis=   363 NAE=    65 NBE=    65 NFC=     0 NFV=     0
 NROrb=    363 NOA=    65 NOB=    65 NVA=   298 NVB=   298

 **** Warning!!: The largest alpha MO coefficient is  0.10210832D+02

 NEqPCM:  Using equilibrium solvation (IEInf=0, Eps=   4.7113, EpsInf=   2.0906)
          Differentiating once with respect to magnetic field using GIAOs.
          Electric field/nuclear overlap derivatives assumed to be zero.
 FoFJK:  IHMeth= 1 ICntrl=    6127 DoSepK=F KAlg= 0 I1Cent=   0 FoldK=F
 IRaf=         1 NMat=   1 IRICut=       1 DoRegI=T DoRafI=F ISym2E= 0.
          There are     3 degrees of freedom in the 1st order CPHF.  IDoFFX=0 NUNeed=     3.
      3 vectors produced by pass  0 Test12= 6.46D-13 3.33D-08 XBig12= 5.24D+01 2.29D+00.
 AX will form     3 AO Fock derivatives at one time.
      3 vectors produced by pass  1 Test12= 6.46D-13 3.33D-08 XBig12= 1.57D-01 2.24D-01.
      3 vectors produced by pass  2 Test12= 6.46D-13 3.33D-08 XBig12= 7.89D-04 9.21D-03.
      3 vectors produced by pass  3 Test12= 6.46D-13 3.33D-08 XBig12= 1.58D-06 2.72D-04.
      3 vectors produced by pass  4 Test12= 6.46D-13 3.33D-08 XBig12= 3.19D-09 1.60D-05.
      3 vectors produced by pass  5 Test12= 6.46D-13 3.33D-08 XBig12= 1.29D-11 7.95D-07.
 InvSVY:  IOpt=1 It=  1 EMax= 8.88D-16
 Solved reduced A of dimension    18 with     3 vectors.
 Calculating GIAO nuclear magnetic shielding tensors.
 SCF GIAO Magnetic shielding tensor (ppm):
      1  C    Isotropic =   174.4021   Anisotropy =    18.0340
   XX=   169.0561   YX=    -8.1974   ZX=     6.3517
   XY=    -5.3713   YY=   180.5586   ZY=    -3.0764
   XZ=     7.4061   YZ=    -2.9532   ZZ=   173.5916
   Eigenvalues:   163.1374   173.6442   186.4248
      2  C    Isotropic =   154.5237   Anisotropy =    28.3559
   XX=   156.7990   YX=     5.0451   ZX=     2.9399
   XY=    12.5216   YY=   167.8627   ZY=     2.8217
   XZ=     1.2035   YZ=     6.2513   ZZ=   138.9093
   Eigenvalues:   138.1827   151.9608   173.4276
      3  C    Isotropic =   120.0695   Anisotropy =    16.1838
   XX=   130.5497   YX=    -2.4906   ZX=    -6.5403
   XY=    -0.9059   YY=   121.5161   ZY=    -7.3313
   XZ=     3.9203   YZ=    -6.3937   ZZ=   108.1426
   Eigenvalues:   105.1105   124.2393   130.8587
      4  C    Isotropic =   145.0314   Anisotropy =     8.5367
   XX=   147.0724   YX=    -4.1946   ZX=    -0.5617
   XY=     2.5963   YY=   150.4552   ZY=     3.6852
   XZ=    -6.5017   YZ=    -7.1284   ZZ=   137.5665
   Eigenvalues:   136.1495   148.2221   150.7225
      5  C    Isotropic =   115.3379   Anisotropy =    38.9145
   XX=   124.3215   YX=    21.5795   ZX=   -10.0346
   XY=    15.5143   YY=   115.7293   ZY=     3.1780
   XZ=   -13.2374   YZ=    -1.7290   ZZ=   105.9630
   Eigenvalues:    94.6526   110.0803   141.2809
      6  O    Isotropic =   315.4470   Anisotropy =    82.5809
   XX=   314.9154   YX=   -26.3545   ZX=    -6.0034
   XY=   -51.2999   YY=   341.8389   ZY=    13.3264
   XZ=    13.5468   YZ=    14.2380   ZZ=   289.5866
   Eigenvalues:   276.9058   298.9342   370.5009
      7  N    Isotropic =   199.9507   Anisotropy =    65.5985
   XX=   231.1540   YX=    15.4941   ZX=   -24.1751
   XY=    27.5116   YY=   159.1268   ZY=     5.7771
   XZ=    -9.5976   YZ=     5.6672   ZZ=   209.5713
   Eigenvalues:   151.3961   204.7730   243.6831
      8  C    Isotropic =   144.4407   Anisotropy =    54.1680
   XX=   163.0250   YX=     3.1208   ZX=    19.8521
   XY=    -0.4227   YY=   120.1444   ZY=    -4.9571
   XZ=    26.1012   YZ=    -6.8069   ZZ=   150.1526
   Eigenvalues:   117.9918   134.7775   180.5527
      9  C    Isotropic =    53.0882   Anisotropy =   189.6461
   XX=   -11.0658   YX=   -20.1801   ZX=    85.2088
   XY=   -19.4590   YY=    29.8935   ZY=    -6.7240
   XZ=    83.7551   YZ=    -6.7509   ZZ=   140.4371
   Eigenvalues:   -51.7041    31.4498   179.5190
     10  C    Isotropic =    71.8769   Anisotropy =   147.4320
   XX=    72.3174   YX=   -19.2147   ZX=    43.1593
   XY=   -26.6942   YY=    -6.2144   ZY=    -6.0948
   XZ=    42.5900   YZ=    -9.3654   ZZ=   149.5276
   Eigenvalues:   -12.5310    57.9967   170.1649
     11  C    Isotropic =    17.4927   Anisotropy =    99.2313
   XX=    12.6216   YX=    44.7751   ZX=    38.6880
   XY=    36.3452   YY=   -25.1731   ZY=   -27.7003
   XZ=    32.8965   YZ=   -27.2792   ZZ=    65.0296
   Eigenvalues:   -65.0975    33.9287    83.6469
     12  C    Isotropic =    67.3977   Anisotropy =   136.6786
   XX=    43.4286   YX=    -6.3998   ZX=    55.7640
   XY=    -7.6006   YY=    27.5512   ZY=   -10.8856
   XZ=    53.1489   YZ=   -10.8118   ZZ=   131.2134
   Eigenvalues:    17.0907    26.5856   158.5168
     13  C    Isotropic =    18.4959   Anisotropy =    96.1634
   XX=    33.9026   YX=   -36.4372   ZX=    18.9968
   XY=   -28.1474   YY=   -51.8625   ZY=    -1.7111
   XZ=    18.3753   YZ=    -3.4917   ZZ=    73.4475
   Eigenvalues:   -62.7514    35.6342    82.6048
     14  C    Isotropic =    72.4778   Anisotropy =   146.3295
   XX=    59.1726   YX=    20.7909   ZX=    53.2486
   XY=    28.2362   YY=    15.9620   ZY=   -29.1813
   XZ=    54.2274   YZ=   -26.2155   ZZ=   142.2988
   Eigenvalues:   -11.5332    58.9358   170.0308
     15  H    Isotropic =    24.6093   Anisotropy =     3.1073
   XX=    25.3749   YX=     0.1415   ZX=    -1.7897
   XY=     0.1287   YY=    26.6046   ZY=     0.5643
   XZ=    -1.8354   YZ=     0.5701   ZZ=    21.8484
   Eigenvalues:    21.0237    26.1234    26.6808
     16  H    Isotropic =    25.1088   Anisotropy =     5.2115
   XX=    27.5906   YX=     0.7832   ZX=    -2.4282
   XY=     0.3979   YY=    25.4421   ZY=     0.4119
   XZ=    -2.4016   YZ=     0.3137   ZZ=    22.2936
   Eigenvalues:    21.2843    25.4589    28.5831
     17  H    Isotropic =    25.1362   Anisotropy =     5.0846
   XX=    27.4777   YX=     0.6282   ZX=    -2.4314
   XY=     0.8350   YY=    25.6975   ZY=     0.0531
   XZ=    -2.2704   YZ=     0.1530   ZZ=    22.2335
   Eigenvalues:    21.3044    25.5783    28.5259
     18  F    Isotropic =   294.5756   Anisotropy =   126.4039
   XX=   256.8026   YX=   -30.8515   ZX=    50.0854
   XY=   -43.6415   YY=   263.7336   ZY=     9.4010
   XZ=    37.3208   YZ=    18.6016   ZZ=   363.1906
   Eigenvalues:   211.0847   293.7973   378.8449
     19  F    Isotropic =   301.1794   Anisotropy =   112.5522
   XX=   255.6303   YX=     8.5217   ZX=    57.6461
   XY=    17.4518   YY=   301.4209   ZY=   -15.6484
   XZ=    53.6052   YZ=   -30.8874   ZZ=   346.4869
   Eigenvalues:   223.0988   304.2251   376.2142
     20  H    Isotropic =    30.9020   Anisotropy =    11.2055
   XX=    27.9616   YX=     1.0347   ZX=     1.1545
   XY=     1.5989   YY=    37.9480   ZY=     1.5185
   XZ=     1.4366   YZ=     1.5843   ZZ=    26.7963
   Eigenvalues:    25.9261    28.4075    38.3723
     21  H    Isotropic =    30.9826   Anisotropy =     7.7644
   XX=    27.7514   YX=     0.0600   ZX=     0.6995
   XY=    -0.3166   YY=    30.6290   ZY=    -3.4436
   XZ=    -0.0395   YZ=    -2.4544   ZZ=    34.5672
   Eigenvalues:    27.7353    29.0535    36.1588
     22  H    Isotropic =    30.4884   Anisotropy =     8.5162
   XX=    35.9561   YX=    -0.1583   ZX=    -1.8614
   XY=    -0.8200   YY=    30.8681   ZY=    -0.4141
   XZ=    -0.8986   YZ=     0.3529   ZZ=    24.6410
   Eigenvalues:    24.4738    30.8255    36.1659
     23  H    Isotropic =    30.5918   Anisotropy =     8.4144
   XX=    35.1641   YX=     2.0860   ZX=    -0.5133
   XY=     2.0206   YY=    31.8588   ZY=    -1.4723
   XZ=     0.1626   YZ=    -1.3952   ZZ=    24.7524
   Eigenvalues:    24.4693    31.1047    36.2014
     24  H    Isotropic =    30.5250   Anisotropy =     5.2330
   XX=    27.4335   YX=    -1.3544   ZX=     3.1795
   XY=    -1.5177   YY=    31.7513   ZY=     0.3333
   XZ=     3.1352   YZ=     0.1252   ZZ=    32.3902
   Eigenvalues:    25.5829    31.9784    34.0136
     25  H    Isotropic =    30.7720   Anisotropy =     7.7663
   XX=    34.7777   YX=     0.8009   ZX=    -2.7478
   XY=     0.3943   YY=    28.9059   ZY=    -0.8054
   XZ=    -2.7532   YZ=    -1.2081   ZZ=    28.6324
   Eigenvalues:    27.2433    29.1232    35.9495
     26  H    Isotropic =    28.3844   Anisotropy =     8.2769
   XX=    31.2558   YX=    -3.5395   ZX=    -1.9123
   XY=    -1.7786   YY=    29.6976   ZY=     1.3903
   XZ=    -2.3313   YZ=     1.3511   ZZ=    24.1999
   Eigenvalues:    23.5385    27.7124    33.9024
     27  H    Isotropic =    27.8289   Anisotropy =     5.9136
   XX=    26.7734   YX=     0.6323   ZX=    -3.7902
   XY=     0.8752   YY=    26.6516   ZY=     1.3597
   XZ=    -1.6936   YZ=     1.4956   ZZ=    30.0616
   Eigenvalues:    24.3711    27.3442    31.7713
     28  H    Isotropic =    27.7319   Anisotropy =    24.2068
   XX=    33.9591   YX=    -9.4017   ZX=    -1.7650
   XY=    -8.5374   YY=    35.7446   ZY=    -0.2623
   XZ=    -0.5842   YZ=    -0.9087   ZZ=    13.4921
   Eigenvalues:    13.3600    25.9659    43.8698
     29  H    Isotropic =    27.9374   Anisotropy =     5.0768
   XX=    29.1119   YX=    -0.9019   ZX=     2.1181
   XY=     0.3770   YY=    29.7016   ZY=    -1.8064
   XZ=     0.3657   YZ=    -3.8784   ZZ=    24.9987
   Eigenvalues:    23.4769    29.0134    31.3219
     30  H    Isotropic =    28.3202   Anisotropy =     5.6053
   XX=    27.8134   YX=     1.0886   ZX=     2.2003
   XY=     0.8929   YY=    27.2765   ZY=     2.3295
   XZ=    -0.9593   YZ=     3.5560   ZZ=    29.8707
   Eigenvalues:    25.2565    27.6470    32.0570
     31  H    Isotropic =    29.1610   Anisotropy =     2.7789
   XX=    29.6497   YX=     0.2383   ZX=    -2.2485
   XY=    -0.6130   YY=    28.2147   ZY=    -0.9313
   XZ=    -0.4612   YZ=    -0.1784   ZZ=    29.6188
   Eigenvalues:    27.7089    28.7606    31.0136
     32  C    Isotropic =   177.1112   Anisotropy =    16.8505
   XX=   169.7970   YX=    -7.7413   ZX=     4.5779
   XY=    -6.5122   YY=   175.7720   ZY=    -1.7691
   XZ=     6.5369   YZ=     0.0399   ZZ=   185.7646
   Eigenvalues:   164.2237   178.7650   188.3449
     33  H    Isotropic =    30.9003   Anisotropy =     4.8353
   XX=    32.0175   YX=     0.8820   ZX=    -1.1903
   XY=     1.3461   YY=    27.7814   ZY=    -1.3570
   XZ=    -0.7277   YZ=    -1.8794   ZZ=    32.9020
   Eigenvalues:    27.1726    31.4045    34.1238
     34  H    Isotropic =    31.3656   Anisotropy =    11.3505
   XX=    32.6339   YX=    -4.5672   ZX=     4.0040
   XY=    -4.4527   YY=    31.0939   ZY=    -1.8301
   XZ=     4.2809   YZ=    -2.6138   ZZ=    30.3690
   Eigenvalues:    26.6710    28.4933    38.9326
     35  H    Isotropic =    31.2512   Anisotropy =     7.9868
   XX=    28.8225   YX=     0.6921   ZX=     4.2171
   XY=     1.1068   YY=    33.1119   ZY=     1.8915
   XZ=     4.4747   YZ=     2.6846   ZZ=    31.8191
   Eigenvalues:    25.6719    31.5059    36.5757
     36  H    Isotropic =    31.9089   Anisotropy =     6.8817
   XX=    35.6142   YX=    -1.0087   ZX=    -2.3523
   XY=    -1.2409   YY=    26.5204   ZY=     2.5270
   XZ=     1.0149   YZ=     4.8208   ZZ=    33.5921
   Eigenvalues:    24.9009    34.3291    36.4967
 End of Minotr F.D. properties file   721 does not exist.
 End of Minotr F.D. properties file   722 does not exist.
 End of Minotr F.D. properties file   788 does not exist.

 **********************************************************************

            Population analysis using the SCF density.

 **********************************************************************

 Orbital symmetries:
       Occupied  (A) (A) (A) (A) (A) (A) (A) (A) (A) (A) (A) (A)
                 (A) (A) (A) (A) (A) (A) (A) (A) (A) (A) (A) (A)
                 (A) (A) (A) (A) (A) (A) (A) (A) (A) (A) (A) (A)
                 (A) (A) (A) (A) (A) (A) (A) (A) (A) (A) (A) (A)
                 (A) (A) (A) (A) (A) (A) (A) (A) (A) (A) (A) (A)
                 (A) (A) (A) (A) (A)
       Virtual   (A) (A) (A) (A) (A) (A) (A) (A) (A) (A) (A) (A)
                 (A) (A) (A) (A) (A) (A) (A) (A) (A) (A) (A) (A)
                 (A) (A) (A) (A) (A) (A) (A) (A) (A) (A) (A) (A)
                 (A) (A) (A) (A) (A) (A) (A) (A) (A) (A) (A) (A)
                 (A) (A) (A) (A) (A) (A) (A) (A) (A) (A) (A) (A)
                 (A) (A) (A) (A) (A) (A) (A) (A) (A) (A) (A) (A)
                 (A) (A) (A) (A) (A) (A) (A) (A) (A) (A) (A) (A)
                 (A) (A) (A) (A) (A) (A) (A) (A) (A) (A) (A) (A)
                 (A) (A) (A) (A) (A) (A) (A) (A) (A) (A) (A) (A)
                 (A) (A) (A) (A) (A) (A) (A) (A) (A) (A) (A) (A)
                 (A) (A) (A) (A) (A) (A) (A) (A) (A) (A) (A) (A)
                 (A) (A) (A) (A) (A) (A) (A) (A) (A) (A) (A) (A)
                 (A) (A) (A) (A) (A) (A) (A) (A) (A) (A) (A) (A)
                 (A) (A) (A) (A) (A) (A) (A) (A) (A) (A) (A) (A)
                 (A) (A) (A) (A) (A) (A) (A) (A) (A) (A) (A) (A)
                 (A) (A) (A) (A) (A) (A) (A) (A) (A) (A) (A) (A)
                 (A) (A) (A) (A) (A) (A) (A) (A) (A) (A) (A) (A)
                 (A) (A) (A) (A) (A) (A) (A) (A) (A) (A) (A) (A)
                 (A) (A) (A) (A) (A) (A) (A) (A) (A) (A) (A) (A)
                 (A) (A) (A) (A) (A) (A) (A) (A) (A) (A) (A) (A)
                 (A) (A) (A) (A) (A) (A) (A) (A) (A) (A) (A) (A)
                 (A) (A) (A) (A) (A) (A) (A) (A) (A) (A) (A) (A)
                 (A) (A) (A) (A) (A) (A) (A) (A) (A) (A) (A) (A)
                 (A) (A) (A) (A) (A) (A) (A) (A) (A) (A) (A) (A)
                 (A) (A) (A) (A) (A) (A) (A) (A) (A) (A)
 The electronic state is 1-A.
 Alpha  occ. eigenvalues --  -24.80338 -24.80012 -19.18001 -14.39511 -10.34130
 Alpha  occ. eigenvalues --  -10.33999 -10.27631 -10.26903 -10.26812 -10.26413
 Alpha  occ. eigenvalues --  -10.26280 -10.25582 -10.25512 -10.23480 -10.23234
 Alpha  occ. eigenvalues --  -10.22164 -10.21457  -1.27181  -1.26959  -1.02652
 Alpha  occ. eigenvalues --   -0.94719  -0.90886  -0.83329  -0.80176  -0.79024
 Alpha  occ. eigenvalues --   -0.78231  -0.72098  -0.69475  -0.67880  -0.66091
 Alpha  occ. eigenvalues --   -0.64224  -0.62150  -0.58941  -0.57910  -0.55936
 Alpha  occ. eigenvalues --   -0.52500  -0.51736  -0.51217  -0.50493  -0.49632
 Alpha  occ. eigenvalues --   -0.49127  -0.48013  -0.47379  -0.46713  -0.46360
 Alpha  occ. eigenvalues --   -0.44194  -0.43908  -0.42840  -0.41799  -0.41364
 Alpha  occ. eigenvalues --   -0.41166  -0.39723  -0.38748  -0.38301  -0.37998
 Alpha  occ. eigenvalues --   -0.37814  -0.36946  -0.36036  -0.34274  -0.33432
 Alpha  occ. eigenvalues --   -0.32476  -0.27987  -0.27215  -0.26579  -0.24864
 Alpha virt. eigenvalues --   -0.02648  -0.01116   0.04802   0.05704   0.06637
 Alpha virt. eigenvalues --    0.07366   0.07983   0.10160   0.10329   0.10705
 Alpha virt. eigenvalues --    0.11110   0.11148   0.11997   0.13061   0.13481
 Alpha virt. eigenvalues --    0.13669   0.14614   0.15121   0.15460   0.16244
 Alpha virt. eigenvalues --    0.16734   0.17526   0.17650   0.19319   0.20000
 Alpha virt. eigenvalues --    0.21193   0.22005   0.23524   0.24182   0.25087
 Alpha virt. eigenvalues --    0.25510   0.26005   0.27352   0.27738   0.29249
 Alpha virt. eigenvalues --    0.30939   0.32630   0.32768   0.34271   0.34497
 Alpha virt. eigenvalues --    0.35775   0.37697   0.38226   0.39018   0.39442
 Alpha virt. eigenvalues --    0.39875   0.40742   0.41068   0.41545   0.42444
 Alpha virt. eigenvalues --    0.42933   0.43442   0.45058   0.45700   0.46574
 Alpha virt. eigenvalues --    0.47246   0.48116   0.49816   0.50617   0.51360
 Alpha virt. eigenvalues --    0.52289   0.52903   0.54113   0.54644   0.56389
 Alpha virt. eigenvalues --    0.56777   0.56859   0.57732   0.59198   0.59519
 Alpha virt. eigenvalues --    0.60123   0.60351   0.60579   0.61320   0.61642
 Alpha virt. eigenvalues --    0.62239   0.62633   0.62930   0.63535   0.63931
 Alpha virt. eigenvalues --    0.64407   0.65414   0.65984   0.66683   0.67354
 Alpha virt. eigenvalues --    0.67628   0.68227   0.70542   0.71044   0.72575
 Alpha virt. eigenvalues --    0.73199   0.73686   0.74850   0.75328   0.75728
 Alpha virt. eigenvalues --    0.78269   0.79341   0.80756   0.81900   0.85088
 Alpha virt. eigenvalues --    0.87266   0.90209   0.92432   0.93393   0.94664
 Alpha virt. eigenvalues --    0.95554   0.96672   0.97817   0.99636   1.00890
 Alpha virt. eigenvalues --    1.02697   1.04301   1.04881   1.06700   1.08698
 Alpha virt. eigenvalues --    1.09116   1.10105   1.11303   1.11934   1.14705
 Alpha virt. eigenvalues --    1.15173   1.18209   1.18887   1.19459   1.25793
 Alpha virt. eigenvalues --    1.26778   1.26917   1.29484   1.30899   1.31776
 Alpha virt. eigenvalues --    1.34374   1.36284   1.37462   1.39828   1.41425
 Alpha virt. eigenvalues --    1.44031   1.46538   1.47401   1.48283   1.49095
 Alpha virt. eigenvalues --    1.50931   1.52531   1.53787   1.54583   1.55456
 Alpha virt. eigenvalues --    1.55540   1.56563   1.58082   1.58930   1.61411
 Alpha virt. eigenvalues --    1.62567   1.63866   1.65227   1.66700   1.67500
 Alpha virt. eigenvalues --    1.67922   1.68296   1.70041   1.71483   1.73366
 Alpha virt. eigenvalues --    1.74404   1.76559   1.78027   1.80680   1.81734
 Alpha virt. eigenvalues --    1.82566   1.83780   1.84827   1.86226   1.88856
 Alpha virt. eigenvalues --    1.89699   1.89999   1.91452   1.96083   1.96429
 Alpha virt. eigenvalues --    1.98052   1.98845   1.99655   2.00640   2.03550
 Alpha virt. eigenvalues --    2.07638   2.09957   2.16230   2.17419   2.21524
 Alpha virt. eigenvalues --    2.22054   2.23078   2.26032   2.27283   2.29222
 Alpha virt. eigenvalues --    2.30270   2.32792   2.34402   2.37420   2.41437
 Alpha virt. eigenvalues --    2.41985   2.43592   2.44056   2.45038   2.47641
 Alpha virt. eigenvalues --    2.47867   2.49388   2.51969   2.53815   2.54657
 Alpha virt. eigenvalues --    2.55567   2.56698   2.59387   2.61724   2.63917
 Alpha virt. eigenvalues --    2.65580   2.66727   2.69342   2.70985   2.73037
 Alpha virt. eigenvalues --    2.75419   2.83436   2.84403   2.85770   2.86302
 Alpha virt. eigenvalues --    2.90464   2.93857   2.97509   2.99802   3.05666
 Alpha virt. eigenvalues --    3.05938   3.06906   3.08414   3.10567   3.12803
 Alpha virt. eigenvalues --    3.14030   3.15640   3.17186   3.20960   3.21634
 Alpha virt. eigenvalues --    3.24234   3.25188   3.25901   3.28390   3.28772
 Alpha virt. eigenvalues --    3.29526   3.31512   3.33200   3.38057   3.38458
 Alpha virt. eigenvalues --    3.46642   3.48306   3.51512   3.58069   3.63815
 Alpha virt. eigenvalues --    3.74699   3.78283   3.79867   3.80226   3.80778
 Alpha virt. eigenvalues --    3.86419   3.87970   3.95850   3.96996   3.98628
 Alpha virt. eigenvalues --    3.99490   4.07803   4.08747   4.10788   4.11890
 Alpha virt. eigenvalues --    4.17651   4.26231   4.47193   4.74716   4.76576
 Alpha virt. eigenvalues --    4.77353   4.78385   4.96149   5.08589   5.47109
 Alpha virt. eigenvalues --    6.13523   6.15085   6.31624   6.33238   6.56764
 Alpha virt. eigenvalues --    6.58047  23.28901  23.45923  23.60111  23.69551
 Alpha virt. eigenvalues --   23.71607  23.76546  23.81469  23.83039  23.85865
 Alpha virt. eigenvalues --   23.90654  24.09823  24.10382  24.19475  35.56550
 Alpha virt. eigenvalues --   50.00649  66.89193  66.89792
          Condensed to atoms (all electrons):
               1          2          3          4          5          6
     1  C    5.371344   0.305697  -0.068645   0.007034  -0.000229   0.000003
     2  C    0.305697   5.319616   0.326057  -0.077525   0.007307  -0.000018
     3  C   -0.068645   0.326057   5.359509   0.326688  -0.080755  -0.004026
     4  C    0.007034  -0.077525   0.326688   5.433444   0.338233  -0.056997
     5  C   -0.000229   0.007307  -0.080755   0.338233   5.084262   0.256279
     6  O    0.000003  -0.000018  -0.004026  -0.056997   0.256279   8.224552
     7  N    0.000193  -0.051121   0.205692  -0.066616   0.003653  -0.031020
     8  C   -0.000411  -0.001858  -0.067930   0.005468   0.000378   0.003468
     9  C    0.000001   0.000000  -0.000001   0.000000   0.000000   0.000000
    10  C    0.000000   0.000000   0.000010   0.000000   0.000001   0.000003
    11  C   -0.000019   0.000015  -0.000355  -0.000086   0.000189   0.000319
    12  C   -0.000196  -0.000319   0.009048  -0.000166  -0.000252  -0.000598
    13  C    0.000289  -0.000027  -0.000275   0.000050  -0.000011   0.000000
    14  C   -0.000016   0.000001   0.000016   0.000000   0.000000   0.000000
    15  H    0.000000   0.000000   0.000000   0.000000   0.000000   0.000000
    16  H    0.000000   0.000000   0.000000   0.000000   0.000000   0.000002
    17  H    0.000001   0.000000   0.000000   0.000000   0.000000   0.000000
    18  F    0.000000  -0.000001  -0.000014   0.000006  -0.000149  -0.000305
    19  F   -0.002779   0.000071  -0.000072   0.000000   0.000000   0.000000
    20  H    0.393817  -0.035948   0.007579  -0.000309   0.000010   0.000000
    21  H    0.388145  -0.044772  -0.003226  -0.000302  -0.000030   0.000000
    22  H    0.373308  -0.035249  -0.009203   0.000295  -0.000004   0.000004
    23  H   -0.037097   0.392865  -0.052006   0.002827   0.000230   0.000031
    24  H   -0.043324   0.391418  -0.037770  -0.010115  -0.000305  -0.000022
    25  H   -0.000172  -0.002757  -0.052861   0.386848  -0.032537   0.004665
    26  H    0.000014  -0.000464   0.009689  -0.031004   0.388248  -0.034100
    27  H   -0.000063   0.000688  -0.011542  -0.060667   0.388742  -0.036070
    28  H   -0.000016   0.000812   0.000394  -0.005984  -0.064178   0.258527
    29  H   -0.001274   0.001690   0.003698  -0.001360   0.000153  -0.000151
    30  H    0.000502  -0.000819  -0.005029   0.000520   0.000196   0.002726
    31  H   -0.005923  -0.038630   0.406680  -0.048847  -0.006012  -0.000708
    32  C   -0.000119  -0.003651  -0.086816   0.265661  -0.085713   0.005529
    33  H   -0.000130   0.001434  -0.013424  -0.038986  -0.008315   0.015114
    34  H    0.000010  -0.000128   0.008331  -0.034140  -0.004181  -0.000424
    35  H    0.000287   0.002649  -0.007470  -0.036126   0.006488   0.000113
    36  H    0.000632  -0.005555  -0.053151  -0.000354   0.000272   0.000969
               7          8          9         10         11         12
     1  C    0.000193  -0.000411   0.000001   0.000000  -0.000019  -0.000196
     2  C   -0.051121  -0.001858   0.000000   0.000000   0.000015  -0.000319
     3  C    0.205692  -0.067930  -0.000001   0.000010  -0.000355   0.009048
     4  C   -0.066616   0.005468   0.000000   0.000000  -0.000086  -0.000166
     5  C    0.003653   0.000378   0.000000   0.000001   0.000189  -0.000252
     6  O   -0.031020   0.003468   0.000000   0.000003   0.000319  -0.000598
     7  N    7.093604   0.248509   0.000058  -0.000113   0.010731  -0.065940
     8  C    0.248509   5.269682  -0.001103   0.008289  -0.078729   0.307704
     9  C    0.000058  -0.001103   5.061549   0.441391  -0.010533  -0.051904
    10  C   -0.000113   0.008289   0.441391   5.164770   0.483661  -0.038650
    11  C    0.010731  -0.078729  -0.010533   0.483661   4.754150   0.252100
    12  C   -0.065940   0.307704  -0.051904  -0.038650   0.252100   5.777043
    13  C   -0.002123  -0.085101  -0.009321  -0.059896   0.043308   0.256542
    14  C   -0.000166   0.007624   0.445295  -0.045431  -0.054475  -0.038792
    15  H    0.000000   0.000027   0.403141  -0.040840   0.006372  -0.001840
    16  H    0.000010  -0.000243  -0.040094   0.392973  -0.048586   0.012124
    17  H    0.000010  -0.000243  -0.039745   0.006760  -0.001635   0.011983
    18  F   -0.000948  -0.000431   0.005288  -0.052941   0.308253  -0.078997
    19  F   -0.000461  -0.003674   0.005147  -0.000421   0.004997  -0.076838
    20  H   -0.000353   0.000262   0.000000   0.000000   0.000001   0.000001
    21  H   -0.000469  -0.000245   0.000000   0.000000   0.000004   0.000198
    22  H    0.008269  -0.002477  -0.000021   0.000007  -0.000166  -0.001826
    23  H    0.006516  -0.000303   0.000000   0.000000  -0.000003   0.000019
    24  H   -0.004999  -0.000293   0.000000   0.000000   0.000001   0.000143
    25  H    0.006310  -0.000184   0.000000   0.000000   0.000002   0.000023
    26  H   -0.000453   0.000094   0.000000   0.000000   0.000004  -0.000012
    27  H    0.000377  -0.000781   0.000000  -0.000001  -0.000065   0.000205
    28  H    0.052426  -0.002613  -0.000028   0.000094   0.001314  -0.005375
    29  H   -0.046104   0.388439  -0.000136   0.000017   0.010839  -0.040088
    30  H   -0.044505   0.396547  -0.000171   0.000581  -0.016408  -0.031945
    31  H   -0.040898  -0.009809   0.000000  -0.000001   0.000041   0.001121
    32  C   -0.002647  -0.000425   0.000000   0.000000  -0.000008   0.000046
    33  H    0.008788  -0.000314   0.000000  -0.000002   0.000030   0.000245
    34  H   -0.000362   0.000019   0.000000   0.000000   0.000000  -0.000002
    35  H   -0.000015  -0.000058   0.000000   0.000000   0.000000  -0.000001
    36  H    0.332010  -0.046598  -0.000035  -0.000025   0.000363  -0.008056
              13         14         15         16         17         18
     1  C    0.000289  -0.000016   0.000000   0.000000   0.000001   0.000000
     2  C   -0.000027   0.000001   0.000000   0.000000   0.000000  -0.000001
     3  C   -0.000275   0.000016   0.000000   0.000000   0.000000  -0.000014
     4  C    0.000050   0.000000   0.000000   0.000000   0.000000   0.000006
     5  C   -0.000011   0.000000   0.000000   0.000000   0.000000  -0.000149
     6  O    0.000000   0.000000   0.000000   0.000002   0.000000  -0.000305
     7  N   -0.002123  -0.000166   0.000000   0.000010   0.000010  -0.000948
     8  C   -0.085101   0.007624   0.000027  -0.000243  -0.000243  -0.000431
     9  C   -0.009321   0.445295   0.403141  -0.040094  -0.039745   0.005288
    10  C   -0.059896  -0.045431  -0.040840   0.392973   0.006760  -0.052941
    11  C    0.043308  -0.054475   0.006372  -0.048586  -0.001635   0.308253
    12  C    0.256542  -0.038792  -0.001840   0.012124   0.011983  -0.078997
    13  C    4.802119   0.482317   0.006362  -0.001617  -0.049484   0.005539
    14  C    0.482317   5.157160  -0.040790   0.006694   0.393647  -0.000482
    15  H    0.006362  -0.040790   0.444228  -0.006373  -0.006382  -0.000080
    16  H   -0.001617   0.006694  -0.006373   0.442480  -0.000132   0.001573
    17  H   -0.049484   0.393647  -0.006382  -0.000132   0.443539   0.000004
    18  F    0.005539  -0.000482  -0.000080   0.001573   0.000004   9.037068
    19  F    0.301507  -0.050866  -0.000083   0.000004   0.001508  -0.000001
    20  H   -0.000016  -0.000001   0.000000   0.000000   0.000000   0.000000
    21  H   -0.000037  -0.000003   0.000000   0.000000   0.000000   0.000000
    22  H    0.000506   0.000305   0.000000   0.000000   0.000005   0.000001
    23  H    0.000011   0.000000   0.000000   0.000000   0.000000   0.000000
    24  H   -0.000028   0.000000   0.000000   0.000000   0.000000   0.000000
    25  H   -0.000001   0.000000   0.000000   0.000000   0.000000   0.000000
    26  H    0.000000   0.000000   0.000000   0.000000   0.000000  -0.000008
    27  H    0.000009   0.000000   0.000000   0.000000   0.000000   0.000037
    28  H   -0.000368   0.000020   0.000001   0.000004   0.000000   0.008821
    29  H   -0.023158   0.000066   0.000002   0.000012  -0.000045   0.000080
    30  H    0.008243   0.000099   0.000002  -0.000028   0.000009   0.007314
    31  H   -0.000103  -0.000001   0.000000   0.000000   0.000000  -0.000044
    32  C   -0.000002   0.000000   0.000000   0.000000   0.000000   0.000000
    33  H    0.000003  -0.000001   0.000000   0.000000   0.000000  -0.000030
    34  H    0.000000   0.000000   0.000000   0.000000   0.000000   0.000000
    35  H    0.000000   0.000000   0.000000   0.000000   0.000000   0.000000
    36  H    0.003024  -0.000171  -0.000001   0.000003   0.000007  -0.000054
              19         20         21         22         23         24
     1  C   -0.002779   0.393817   0.388145   0.373308  -0.037097  -0.043324
     2  C    0.000071  -0.035948  -0.044772  -0.035249   0.392865   0.391418
     3  C   -0.000072   0.007579  -0.003226  -0.009203  -0.052006  -0.037770
     4  C    0.000000  -0.000309  -0.000302   0.000295   0.002827  -0.010115
     5  C    0.000000   0.000010  -0.000030  -0.000004   0.000230  -0.000305
     6  O    0.000000   0.000000   0.000000   0.000004   0.000031  -0.000022
     7  N   -0.000461  -0.000353  -0.000469   0.008269   0.006516  -0.004999
     8  C   -0.003674   0.000262  -0.000245  -0.002477  -0.000303  -0.000293
     9  C    0.005147   0.000000   0.000000  -0.000021   0.000000   0.000000
    10  C   -0.000421   0.000000   0.000000   0.000007   0.000000   0.000000
    11  C    0.004997   0.000001   0.000004  -0.000166  -0.000003   0.000001
    12  C   -0.076838   0.000001   0.000198  -0.001826   0.000019   0.000143
    13  C    0.301507  -0.000016  -0.000037   0.000506   0.000011  -0.000028
    14  C   -0.050866  -0.000001  -0.000003   0.000305   0.000000   0.000000
    15  H   -0.000083   0.000000   0.000000   0.000000   0.000000   0.000000
    16  H    0.000004   0.000000   0.000000   0.000000   0.000000   0.000000
    17  H    0.001508   0.000000   0.000000   0.000005   0.000000   0.000000
    18  F   -0.000001   0.000000   0.000000   0.000001   0.000000   0.000000
    19  F    9.046725  -0.000052  -0.000177   0.012022  -0.000001  -0.000038
    20  H   -0.000052   0.467034  -0.026958  -0.027787  -0.005821  -0.004003
    21  H   -0.000177  -0.026958   0.484233  -0.029746  -0.004880   0.007532
    22  H    0.012022  -0.027787  -0.029746   0.481969   0.007444  -0.006078
    23  H   -0.000001  -0.005821  -0.004880   0.007444   0.494909  -0.031103
    24  H   -0.000038  -0.004003   0.007532  -0.006078  -0.031103   0.497196
    25  H    0.000000  -0.000016   0.000017  -0.000036   0.002485  -0.000248
    26  H    0.000000   0.000000   0.000001   0.000000   0.000012   0.000010
    27  H    0.000000   0.000000  -0.000014   0.000001  -0.000016  -0.000033
    28  H    0.000000   0.000003  -0.000008  -0.000070  -0.000134  -0.000027
    29  H    0.008549   0.000597   0.000606  -0.007939  -0.000578   0.000110
    30  H    0.000212  -0.000027  -0.000063   0.000847   0.000160  -0.000041
    31  H   -0.000004  -0.000113   0.005162  -0.000547  -0.004148   0.007061
    32  C    0.000000   0.000022   0.000002  -0.000041  -0.001470   0.003181
    33  H   -0.000001   0.000003   0.000004  -0.000050  -0.000151   0.000165
    34  H    0.000000  -0.000002   0.000002  -0.000001  -0.000118   0.000193
    35  H    0.000000   0.000007  -0.000026   0.000022   0.000288  -0.000690
    36  H    0.001306  -0.000141   0.000103   0.002675   0.000641   0.003736
              25         26         27         28         29         30
     1  C   -0.000172   0.000014  -0.000063  -0.000016  -0.001274   0.000502
     2  C   -0.002757  -0.000464   0.000688   0.000812   0.001690  -0.000819
     3  C   -0.052861   0.009689  -0.011542   0.000394   0.003698  -0.005029
     4  C    0.386848  -0.031004  -0.060667  -0.005984  -0.001360   0.000520
     5  C   -0.032537   0.388248   0.388742  -0.064178   0.000153   0.000196
     6  O    0.004665  -0.034100  -0.036070   0.258527  -0.000151   0.002726
     7  N    0.006310  -0.000453   0.000377   0.052426  -0.046104  -0.044505
     8  C   -0.000184   0.000094  -0.000781  -0.002613   0.388439   0.396547
     9  C    0.000000   0.000000   0.000000  -0.000028  -0.000136  -0.000171
    10  C    0.000000   0.000000  -0.000001   0.000094   0.000017   0.000581
    11  C    0.000002   0.000004  -0.000065   0.001314   0.010839  -0.016408
    12  C    0.000023  -0.000012   0.000205  -0.005375  -0.040088  -0.031945
    13  C   -0.000001   0.000000   0.000009  -0.000368  -0.023158   0.008243
    14  C    0.000000   0.000000   0.000000   0.000020   0.000066   0.000099
    15  H    0.000000   0.000000   0.000000   0.000001   0.000002   0.000002
    16  H    0.000000   0.000000   0.000000   0.000004   0.000012  -0.000028
    17  H    0.000000   0.000000   0.000000   0.000000  -0.000045   0.000009
    18  F    0.000000  -0.000008   0.000037   0.008821   0.000080   0.007314
    19  F    0.000000   0.000000   0.000000   0.000000   0.008549   0.000212
    20  H   -0.000016   0.000000   0.000000   0.000003   0.000597  -0.000027
    21  H    0.000017   0.000001  -0.000014  -0.000008   0.000606  -0.000063
    22  H   -0.000036   0.000000   0.000001  -0.000070  -0.007939   0.000847
    23  H    0.002485   0.000012  -0.000016  -0.000134  -0.000578   0.000160
    24  H   -0.000248   0.000010  -0.000033  -0.000027   0.000110  -0.000041
    25  H    0.514454  -0.003936   0.000995  -0.000322   0.000075  -0.000126
    26  H   -0.003936   0.509792  -0.046817   0.005047  -0.000006   0.000126
    27  H    0.000995  -0.046817   0.553179   0.000757  -0.000025  -0.001001
    28  H   -0.000322   0.005047   0.000757   0.339844   0.001581  -0.004756
    29  H    0.000075  -0.000006  -0.000025   0.001581   0.500279  -0.043255
    30  H   -0.000126   0.000126  -0.001001  -0.004756  -0.043255   0.463538
    31  H   -0.004179  -0.000469   0.006602   0.000291   0.001155   0.000409
    32  C   -0.039309  -0.013044   0.011758   0.000540   0.000021  -0.000084
    33  H    0.008323  -0.001771   0.001025   0.000719   0.000060  -0.000134
    34  H   -0.004859   0.004400  -0.000097  -0.000155  -0.000002   0.000006
    35  H   -0.004645  -0.000184  -0.000228   0.000022   0.000004  -0.000005
    36  H   -0.000273   0.000081  -0.000187  -0.002679  -0.003320   0.007065
              31         32         33         34         35         36
     1  C   -0.005923  -0.000119  -0.000130   0.000010   0.000287   0.000632
     2  C   -0.038630  -0.003651   0.001434  -0.000128   0.002649  -0.005555
     3  C    0.406680  -0.086816  -0.013424   0.008331  -0.007470  -0.053151
     4  C   -0.048847   0.265661  -0.038986  -0.034140  -0.036126  -0.000354
     5  C   -0.006012  -0.085713  -0.008315  -0.004181   0.006488   0.000272
     6  O   -0.000708   0.005529   0.015114  -0.000424   0.000113   0.000969
     7  N   -0.040898  -0.002647   0.008788  -0.000362  -0.000015   0.332010
     8  C   -0.009809  -0.000425  -0.000314   0.000019  -0.000058  -0.046598
     9  C    0.000000   0.000000   0.000000   0.000000   0.000000  -0.000035
    10  C   -0.000001   0.000000  -0.000002   0.000000   0.000000  -0.000025
    11  C    0.000041  -0.000008   0.000030   0.000000   0.000000   0.000363
    12  C    0.001121   0.000046   0.000245  -0.000002  -0.000001  -0.008056
    13  C   -0.000103  -0.000002   0.000003   0.000000   0.000000   0.003024
    14  C   -0.000001   0.000000  -0.000001   0.000000   0.000000  -0.000171
    15  H    0.000000   0.000000   0.000000   0.000000   0.000000  -0.000001
    16  H    0.000000   0.000000   0.000000   0.000000   0.000000   0.000003
    17  H    0.000000   0.000000   0.000000   0.000000   0.000000   0.000007
    18  F   -0.000044   0.000000  -0.000030   0.000000   0.000000  -0.000054
    19  F   -0.000004   0.000000  -0.000001   0.000000   0.000000   0.001306
    20  H   -0.000113   0.000022   0.000003  -0.000002   0.000007  -0.000141
    21  H    0.005162   0.000002   0.000004   0.000002  -0.000026   0.000103
    22  H   -0.000547  -0.000041  -0.000050  -0.000001   0.000022   0.002675
    23  H   -0.004148  -0.001470  -0.000151  -0.000118   0.000288   0.000641
    24  H    0.007061   0.003181   0.000165   0.000193  -0.000690   0.003736
    25  H   -0.004179  -0.039309   0.008323  -0.004859  -0.004645  -0.000273
    26  H   -0.000469  -0.013044  -0.001771   0.004400  -0.000184   0.000081
    27  H    0.006602   0.011758   0.001025  -0.000097  -0.000228  -0.000187
    28  H    0.000291   0.000540   0.000719  -0.000155   0.000022  -0.002679
    29  H    0.001155   0.000021   0.000060  -0.000002   0.000004  -0.003320
    30  H    0.000409  -0.000084  -0.000134   0.000006  -0.000005   0.007065
    31  H    0.480177   0.008286   0.000115  -0.000227  -0.000101   0.006715
    32  C    0.008286   5.437176   0.380830   0.386753   0.389288   0.001332
    33  H    0.000115   0.380830   0.474927  -0.027028  -0.026470  -0.000907
    34  H   -0.000227   0.386753  -0.027028   0.471189  -0.027506   0.000034
    35  H   -0.000101   0.389288  -0.026470  -0.027506   0.474237  -0.000256
    36  H    0.006715   0.001332  -0.000907   0.000034  -0.000256   0.409037
 Mulliken charges:
               1
     1  C   -0.680863
     2  C   -0.451477
     3  C   -0.108820
     4  C   -0.297486
     5  C   -0.191971
     6  O   -0.607865
     7  N   -0.617840
     8  C   -0.332684
     9  C   -0.208777
    10  C   -0.260234
    11  C    0.334373
    12  C   -0.186749
    13  C    0.321740
    14  C   -0.262048
    15  H    0.236253
    16  H    0.241195
    17  H    0.240194
    18  F   -0.239500
    19  F   -0.246579
    20  H    0.232208
    21  H    0.224946
    22  H    0.233558
    23  H    0.229393
    24  H    0.228370
    25  H    0.222264
    26  H    0.214749
    27  H    0.193231
    28  H    0.415498
    29  H    0.249409
    30  H    0.259296
    31  H    0.236948
    32  C   -0.657095
    33  H    0.225932
    34  H    0.228295
    35  H    0.230378
    36  H    0.351758
 Sum of Mulliken charges =   0.00000
 Mulliken charges with hydrogens summed into heavy atoms:
               1
     1  C    0.009849
     2  C    0.006286
     3  C    0.128128
     4  C   -0.075223
     5  C    0.216009
     6  O   -0.192367
     7  N   -0.266082
     8  C    0.176021
     9  C    0.027475
    10  C   -0.019039
    11  C    0.334373
    12  C   -0.186749
    13  C    0.321740
    14  C   -0.021854
    18  F   -0.239500
    19  F   -0.246579
    32  C    0.027510
 Electronic spatial extent (au):  <R**2>=           4786.0810
 Charge=              0.0000 electrons
 Dipole moment (field-independent basis, Debye):
    X=             -1.8286    Y=              3.6633    Z=              0.0891  Tot=              4.0953
 Quadrupole moment (field-independent basis, Debye-Ang):
   XX=            -84.6630   YY=           -113.5574   ZZ=           -100.9637
   XY=              8.8191   XZ=             -6.6076   YZ=              1.0009
 Traceless Quadrupole moment (field-independent basis, Debye-Ang):
   XX=             15.0650   YY=            -13.8294   ZZ=             -1.2357
   XY=              8.8191   XZ=             -6.6076   YZ=              1.0009
 Octapole moment (field-independent basis, Debye-Ang**2):
  XXX=            -61.2289  YYY=             20.3434  ZZZ=            -10.6075  XYY=            -22.4622
  XXY=             -7.2592  XXZ=             18.1531  XZZ=             -0.9606  YZZ=              1.6828
  YYZ=              1.6151  XYZ=              3.1633
 Hexadecapole moment (field-independent basis, Debye-Ang**3):
 XXXX=          -3768.4747 YYYY=          -1794.4500 ZZZZ=           -423.3955 XXXY=             -4.0133
 XXXZ=           -141.5430 YYYX=             63.9603 YYYZ=             18.9415 ZZZX=              1.7842
 ZZZY=             16.9155 XXYY=           -929.3432 XXZZ=           -777.1908 YYZZ=           -354.0471
 XXYZ=             10.2182 YYXZ=            -16.2705 ZZXY=            -11.1102
 N-N= 1.289141122762D+03 E-N=-4.536128691458D+03  KE= 8.332576893406D+02
 1\1\GINC-SWANNODE-0-13\SP\RmPW1PW91\6-311G(d)\C13H19F2N1O1\KE291\06-Ma
 r-2019\0\\# mPW1PW91/6-311g(d) geom=checkpoint nmr=giao scrf=(solvent=
 chloroform)\\AT3_2ginp005\\0,1\C,0,-2.6133896095,-1.6791049847,-0.6692
 615678\C,0,-2.1320958188,-0.7746844289,0.4715204545\C,0,-2.7427131269,
 -1.0656952528,1.8569487712\C,0,-2.0413939925,-0.2636755416,2.988681382
 8\C,0,-2.5890035016,-0.6680211727,4.3713492452\O,0,-3.9048461554,-0.19
 39118209,4.6156495877\N,0,-4.2179994931,-0.8598525776,1.9095033946\C,0
 ,-5.029792508,-2.074585466,1.6889813228\C,0,-9.2162388507,-1.026658398
 6,1.2917733855\C,0,-8.6553391522,-1.1622108296,2.5629730103\C,0,-7.311
 770151,-1.5008991493,2.6584432102\C,0,-6.4899725624,-1.7223732781,1.55
 07357238\C,0,-7.1044446482,-1.5626863143,0.3072399038\C,0,-8.443119198
 3,-1.2263508549,0.1474146161\H,0,-10.2637241736,-0.7622488222,1.192527
 4633\H,0,-9.2351128144,-1.0103689801,3.4658957995\H,0,-8.8553188121,-1
 .1248549182,-0.8497061531\F,0,-6.7614885007,-1.6335297336,3.8861892205
 \F,0,-6.3498801953,-1.7503602682,-0.8040481563\H,0,-2.0828977577,-1.43
 90610797,-1.596384581\H,0,-2.4288862221,-2.7363329434,-0.447330915\H,0
 ,-3.6826005946,-1.5583285287,-0.8672483915\H,0,-1.0412148326,-0.858108
 6582,0.5602823505\H,0,-2.3326431984,0.271267846,0.2055273238\H,0,-0.98
 46977079,-0.5688071511,2.9706752358\H,0,-1.9456705505,-0.2471894481,5.
 1543132364\H,0,-2.5352465902,-1.7672194152,4.471020898\H,0,-4.38097435
 54,-0.3695677675,3.7763518384\H,0,-4.7199363206,-2.6431389881,0.804898
 1049\H,0,-4.8988431252,-2.7249436303,2.5591559914\H,0,-2.5747222134,-2
 .1281164187,2.0825036508\C,0,-2.1060417107,1.2604570453,2.8058824268\H
 ,0,-3.1415837465,1.6114265567,2.7929216501\H,0,-1.6039308888,1.7623740
 414,3.6397328717\H,0,-1.6178508624,1.586339405,1.8833934367\H,0,-4.489
 8430583,-0.1499900732,1.2331342577\\Version=EM64L-G09RevD.01\State=1-A
 \HF=-836.4674645\RMSD=7.228e-09\Dipole=-0.3447559,-0.3343802,-1.537984
 \Quadrupole=14.0282226,-3.142626,-10.8855966,-2.4737404,0.1372394,-3.8
 682569\PG=C01 [X(C13H19F2N1O1)]\\@


 Spring appears, and we are once more children.
                                  -- Anonymous
 Job cpu time:       0 days  0 hours 26 minutes 28.3 seconds.
 File lengths (MBytes):  RWF=    179 Int=      0 D2E=      0 Chk=     15 Scr=      1
 Normal termination of Gaussian 09 at Wed Mar  6 13:06:10 2019.
