 Entering Gaussian System, Link 0=/usr/local/Cluster-Apps/gaussian/g09/g09
 Initial command:
 /usr/local/Cluster-Apps/gaussian/g09/l1.exe "/home/ke291/rds/hpc-work/06Feb0927IP1/Gau-313877.inp" -scrdir="/home/ke291/rds/hpc-work/06Feb0927IP1/"
 Entering Link 1 = /usr/local/Cluster-Apps/gaussian/g09/l1.exe PID=    313894.
  
 Copyright (c) 1988,1990,1992,1993,1995,1998,2003,2009,2013,
            Gaussian, Inc.  All Rights Reserved.
  
 This is part of the Gaussian(R) 09 program.  It is based on
 the Gaussian(R) 03 system (copyright 2003, Gaussian, Inc.),
 the Gaussian(R) 98 system (copyright 1998, Gaussian, Inc.),
 the Gaussian(R) 94 system (copyright 1995, Gaussian, Inc.),
 the Gaussian 92(TM) system (copyright 1992, Gaussian, Inc.),
 the Gaussian 90(TM) system (copyright 1990, Gaussian, Inc.),
 the Gaussian 88(TM) system (copyright 1988, Gaussian, Inc.),
 the Gaussian 86(TM) system (copyright 1986, Carnegie Mellon
 University), and the Gaussian 82(TM) system (copyright 1983,
 Carnegie Mellon University). Gaussian is a federally registered
 trademark of Gaussian, Inc.
  
 This software contains proprietary and confidential information,
 including trade secrets, belonging to Gaussian, Inc.
  
 This software is provided under written license and may be
 used, copied, transmitted, or stored only in accord with that
 written license.
  
 The following legend is applicable only to US Government
 contracts under FAR:
  
                    RESTRICTED RIGHTS LEGEND
  
 Use, reproduction and disclosure by the US Government is
 subject to restrictions as set forth in subparagraphs (a)
 and (c) of the Commercial Computer Software - Restricted
 Rights clause in FAR 52.227-19.
  
 Gaussian, Inc.
 340 Quinnipiac St., Bldg. 40, Wallingford CT 06492
  
  
 ---------------------------------------------------------------
 Warning -- This program may not be used in any manner that
 competes with the business of Gaussian, Inc. or will provide
 assistance to any competitor of Gaussian, Inc.  The licensee
 of this program is prohibited from giving any competitor of
 Gaussian, Inc. access to this program.  By using this program,
 the user acknowledges that Gaussian, Inc. is engaged in the
 business of creating and licensing software in the field of
 computational chemistry and represents and warrants to the
 licensee that it is not a competitor of Gaussian, Inc. and that
 it will not use this program in any manner prohibited above.
 ---------------------------------------------------------------
  

 Cite this work as:
 Gaussian 09, Revision D.01,
 M. J. Frisch, G. W. Trucks, H. B. Schlegel, G. E. Scuseria, 
 M. A. Robb, J. R. Cheeseman, G. Scalmani, V. Barone, B. Mennucci, 
 G. A. Petersson, H. Nakatsuji, M. Caricato, X. Li, H. P. Hratchian, 
 A. F. Izmaylov, J. Bloino, G. Zheng, J. L. Sonnenberg, M. Hada, 
 M. Ehara, K. Toyota, R. Fukuda, J. Hasegawa, M. Ishida, T. Nakajima, 
 Y. Honda, O. Kitao, H. Nakai, T. Vreven, J. A. Montgomery, Jr., 
 J. E. Peralta, F. Ogliaro, M. Bearpark, J. J. Heyd, E. Brothers, 
 K. N. Kudin, V. N. Staroverov, T. Keith, R. Kobayashi, J. Normand, 
 K. Raghavachari, A. Rendell, J. C. Burant, S. S. Iyengar, J. Tomasi, 
 M. Cossi, N. Rega, J. M. Millam, M. Klene, J. E. Knox, J. B. Cross, 
 V. Bakken, C. Adamo, J. Jaramillo, R. Gomperts, R. E. Stratmann, 
 O. Yazyev, A. J. Austin, R. Cammi, C. Pomelli, J. W. Ochterski, 
 R. L. Martin, K. Morokuma, V. G. Zakrzewski, G. A. Voth, 
 P. Salvador, J. J. Dannenberg, S. Dapprich, A. D. Daniels, 
 O. Farkas, J. B. Foresman, J. V. Ortiz, J. Cioslowski, 
 and D. J. Fox, Gaussian, Inc., Wallingford CT, 2013.
 
 ******************************************
 Gaussian 09:  ES64L-G09RevD.01 24-Apr-2013
                 6-Feb-2019 
 ******************************************
 %nprocshared=2
 Will use up to    2 processors via shared memory.
 %mem=6000MB
 %chk=/home/ke291/rds/hpc-work/06Feb0927IP1/P_ng_3ginp003.chk
 ---------------------------------------------------------------
 # b3lyp/6-31g(d,p) Opt=(maxcycles=25) scrf=(solvent=chloroform)
 ---------------------------------------------------------------
 1/6=25,14=-1,18=20,19=15,26=3,38=1/1,3;
 2/9=110,12=2,17=6,18=5,40=1/2;
 3/5=1,6=6,7=101,11=2,16=1,25=1,30=1,70=2201,71=1,72=7,74=-5/1,2,3;
 4//1;
 5/5=2,38=5,53=7/2;
 6/7=2,8=2,9=2,10=2,28=1/1;
 7//1,2,3,16;
 1/6=25,14=-1,18=20,19=15,26=3/3(2);
 2/9=110/2;
 99//99;
 2/9=110/2;
 3/5=1,6=6,7=101,11=2,16=1,25=1,30=1,70=2205,71=1,72=7,74=-5/1,2,3;
 4/5=5,16=3,69=1/1;
 5/5=2,38=5,53=7/2;
 7//1,2,3,16;
 1/6=25,14=-1,18=20,19=15,26=3/3(-5);
 2/9=110/2;
 6/7=2,8=2,9=2,10=2,19=2,28=1/1;
 99/9=1/99;
 -------------
 P_ng_3ginp003
 -------------
 Symbolic Z-matrix:
 Charge =  0 Multiplicity = 1
 C                    -0.26319   0.33187  -0.16528 
 C                    -1.6724    0.05962   0.37322 
 C                    -1.892     0.89983   1.67482 
 C                    -1.68792   2.37581   1.30885 
 C                    -0.47957   2.67933   0.4629 
 H                     0.48576   0.01513   0.56822 
 H                    -1.76271  -1.00705   0.61674 
 H                    -2.564     2.77147   0.78107 
 H                    -1.57787   2.96981   2.22233 
 O                    -0.04631   1.73632  -0.39779 
 O                     0.0356    3.79431   0.48023 
 C                     0.05169  -0.41738  -1.47017 
 C                     1.52493  -0.31431  -1.84951 
 C                    -2.75963   0.32429  -0.69134 
 O                    -3.26083   0.63176   2.05379 
 Si                   -4.14313   1.21377   3.35007 
 C                    -3.96622   0.08547   4.84769 
 C                    -3.7145    2.95809   3.8815 
 C                    -5.97507   1.2147    2.87238 
 H                    -4.39027   3.28904   4.67637 
 H                    -2.69395   3.01436   4.2702 
 H                    -3.81232   3.65849   3.04713 
 H                    -6.29728   0.2049    2.60243 
 H                    -6.58795   1.56489   3.70791 
 H                    -6.14271   1.87417   2.01598 
 H                    -4.65213   0.39557   5.64169 
 H                    -4.19869  -0.94871   4.57755 
 H                    -2.94866   0.11955   5.24596 
 H                    -3.76646   0.18706  -0.28509 
 H                    -2.69562   1.33475  -1.10603 
 H                    -2.66751  -0.3819   -1.5231 
 H                    -0.52974   0.00043  -2.29999 
 H                    -0.21303  -1.47581  -1.36689 
 H                     1.71569  -0.87091  -2.77258 
 H                     1.82189   0.72581  -2.01607 
 H                     2.16195  -0.73326  -1.06404 
 C                    -0.89203   0.49866   2.81429 
 C                    -0.84546  -0.97559   3.12568 
 C                     0.27623  -1.7069    3.14241 
 H                    -1.16214   1.01413   3.74307 
 H                     0.11687   0.85612   2.5738 
 H                    -1.79141  -1.46307   3.35493 
 H                     0.24254  -2.76652   3.37958 
 H                     1.24952  -1.27449   2.93147 
 

 GradGradGradGradGradGradGradGradGradGradGradGradGradGradGradGradGradGrad
 Berny optimization.
 Initialization pass.
                           ----------------------------
                           !    Initial Parameters    !
                           ! (Angstroms and Degrees)  !
 --------------------------                            --------------------------
 ! Name  Definition              Value          Derivative Info.                !
 --------------------------------------------------------------------------------
 ! R1    R(1,2)                  1.533          estimate D2E/DX2                !
 ! R2    R(1,6)                  1.0951         estimate D2E/DX2                !
 ! R3    R(1,10)                 1.44           estimate D2E/DX2                !
 ! R4    R(1,12)                 1.5373         estimate D2E/DX2                !
 ! R5    R(2,3)                  1.5647         estimate D2E/DX2                !
 ! R6    R(2,7)                  1.0978         estimate D2E/DX2                !
 ! R7    R(2,14)                 1.5445         estimate D2E/DX2                !
 ! R8    R(3,4)                  1.5343         estimate D2E/DX2                !
 ! R9    R(3,15)                 1.4454         estimate D2E/DX2                !
 ! R10   R(3,37)                 1.5682         estimate D2E/DX2                !
 ! R11   R(4,5)                  1.5059         estimate D2E/DX2                !
 ! R12   R(4,8)                  1.0966         estimate D2E/DX2                !
 ! R13   R(4,9)                  1.0952         estimate D2E/DX2                !
 ! R14   R(5,10)                 1.3482         estimate D2E/DX2                !
 ! R15   R(5,11)                 1.2284         estimate D2E/DX2                !
 ! R16   R(12,13)                1.5248         estimate D2E/DX2                !
 ! R17   R(12,32)                1.096          estimate D2E/DX2                !
 ! R18   R(12,33)                1.0959         estimate D2E/DX2                !
 ! R19   R(13,34)                1.0946         estimate D2E/DX2                !
 ! R20   R(13,35)                1.0944         estimate D2E/DX2                !
 ! R21   R(13,36)                1.0947         estimate D2E/DX2                !
 ! R22   R(14,29)                1.0943         estimate D2E/DX2                !
 ! R23   R(14,30)                1.0941         estimate D2E/DX2                !
 ! R24   R(14,31)                1.095          estimate D2E/DX2                !
 ! R25   R(15,16)                1.6726         estimate D2E/DX2                !
 ! R26   R(16,17)                1.8834         estimate D2E/DX2                !
 ! R27   R(16,18)                1.8732         estimate D2E/DX2                !
 ! R28   R(16,19)                1.8932         estimate D2E/DX2                !
 ! R29   R(17,26)                1.0941         estimate D2E/DX2                !
 ! R30   R(17,27)                1.0939         estimate D2E/DX2                !
 ! R31   R(17,28)                1.0933         estimate D2E/DX2                !
 ! R32   R(18,20)                1.0945         estimate D2E/DX2                !
 ! R33   R(18,21)                1.0935         estimate D2E/DX2                !
 ! R34   R(18,22)                1.0938         estimate D2E/DX2                !
 ! R35   R(19,23)                1.0938         estimate D2E/DX2                !
 ! R36   R(19,24)                1.0938         estimate D2E/DX2                !
 ! R37   R(19,25)                1.0938         estimate D2E/DX2                !
 ! R38   R(37,38)                1.5075         estimate D2E/DX2                !
 ! R39   R(37,40)                1.096          estimate D2E/DX2                !
 ! R40   R(37,41)                1.097          estimate D2E/DX2                !
 ! R41   R(38,39)                1.3391         estimate D2E/DX2                !
 ! R42   R(38,42)                1.0886         estimate D2E/DX2                !
 ! R43   R(39,43)                1.0864         estimate D2E/DX2                !
 ! R44   R(39,44)                1.0857         estimate D2E/DX2                !
 ! A1    A(2,1,6)              110.0011         estimate D2E/DX2                !
 ! A2    A(2,1,10)             111.6158         estimate D2E/DX2                !
 ! A3    A(2,1,12)             113.5729         estimate D2E/DX2                !
 ! A4    A(6,1,10)             106.6925         estimate D2E/DX2                !
 ! A5    A(6,1,12)             106.708          estimate D2E/DX2                !
 ! A6    A(10,1,12)            107.9055         estimate D2E/DX2                !
 ! A7    A(1,2,3)              109.0178         estimate D2E/DX2                !
 ! A8    A(1,2,7)              109.0317         estimate D2E/DX2                !
 ! A9    A(1,2,14)             111.9968         estimate D2E/DX2                !
 ! A10   A(3,2,7)              109.0062         estimate D2E/DX2                !
 ! A11   A(3,2,14)             112.492          estimate D2E/DX2                !
 ! A12   A(7,2,14)             105.1581         estimate D2E/DX2                !
 ! A13   A(2,3,4)              107.4263         estimate D2E/DX2                !
 ! A14   A(2,3,15)             104.5616         estimate D2E/DX2                !
 ! A15   A(2,3,37)             112.1833         estimate D2E/DX2                !
 ! A16   A(4,3,15)             111.5257         estimate D2E/DX2                !
 ! A17   A(4,3,37)             109.5475         estimate D2E/DX2                !
 ! A18   A(15,3,37)            111.464          estimate D2E/DX2                !
 ! A19   A(3,4,5)              115.76           estimate D2E/DX2                !
 ! A20   A(3,4,8)              110.831          estimate D2E/DX2                !
 ! A21   A(3,4,9)              109.6439         estimate D2E/DX2                !
 ! A22   A(5,4,8)              107.3343         estimate D2E/DX2                !
 ! A23   A(5,4,9)              106.1773         estimate D2E/DX2                !
 ! A24   A(8,4,9)              106.6192         estimate D2E/DX2                !
 ! A25   A(4,5,10)             118.3909         estimate D2E/DX2                !
 ! A26   A(4,5,11)             120.7662         estimate D2E/DX2                !
 ! A27   A(10,5,11)            120.6041         estimate D2E/DX2                !
 ! A28   A(1,10,5)             122.0526         estimate D2E/DX2                !
 ! A29   A(1,12,13)            112.0943         estimate D2E/DX2                !
 ! A30   A(1,12,32)            110.3783         estimate D2E/DX2                !
 ! A31   A(1,12,33)            109.9522         estimate D2E/DX2                !
 ! A32   A(13,12,32)           107.3642         estimate D2E/DX2                !
 ! A33   A(13,12,33)           108.791          estimate D2E/DX2                !
 ! A34   A(32,12,33)           108.1427         estimate D2E/DX2                !
 ! A35   A(12,13,34)           110.108          estimate D2E/DX2                !
 ! A36   A(12,13,35)           111.3623         estimate D2E/DX2                !
 ! A37   A(12,13,36)           110.9701         estimate D2E/DX2                !
 ! A38   A(34,13,35)           107.9157         estimate D2E/DX2                !
 ! A39   A(34,13,36)           108.0035         estimate D2E/DX2                !
 ! A40   A(35,13,36)           108.3628         estimate D2E/DX2                !
 ! A41   A(2,14,29)            111.7332         estimate D2E/DX2                !
 ! A42   A(2,14,30)            112.2302         estimate D2E/DX2                !
 ! A43   A(2,14,31)            110.7221         estimate D2E/DX2                !
 ! A44   A(29,14,30)           108.0796         estimate D2E/DX2                !
 ! A45   A(29,14,31)           106.1709         estimate D2E/DX2                !
 ! A46   A(30,14,31)           107.6255         estimate D2E/DX2                !
 ! A47   A(3,15,16)            129.6598         estimate D2E/DX2                !
 ! A48   A(15,16,17)           110.9934         estimate D2E/DX2                !
 ! A49   A(15,16,18)           115.0371         estimate D2E/DX2                !
 ! A50   A(15,16,19)           108.3641         estimate D2E/DX2                !
 ! A51   A(17,16,18)           108.1061         estimate D2E/DX2                !
 ! A52   A(17,16,19)           106.9669         estimate D2E/DX2                !
 ! A53   A(18,16,19)           107.0105         estimate D2E/DX2                !
 ! A54   A(16,17,26)           110.3877         estimate D2E/DX2                !
 ! A55   A(16,17,27)           110.4901         estimate D2E/DX2                !
 ! A56   A(16,17,28)           111.0032         estimate D2E/DX2                !
 ! A57   A(26,17,27)           108.2975         estimate D2E/DX2                !
 ! A58   A(26,17,28)           108.0781         estimate D2E/DX2                !
 ! A59   A(27,17,28)           108.4965         estimate D2E/DX2                !
 ! A60   A(16,18,20)           110.2621         estimate D2E/DX2                !
 ! A61   A(16,18,21)           111.2422         estimate D2E/DX2                !
 ! A62   A(16,18,22)           111.0647         estimate D2E/DX2                !
 ! A63   A(20,18,21)           107.6084         estimate D2E/DX2                !
 ! A64   A(20,18,22)           107.7675         estimate D2E/DX2                !
 ! A65   A(21,18,22)           108.7648         estimate D2E/DX2                !
 ! A66   A(16,19,23)           110.2964         estimate D2E/DX2                !
 ! A67   A(16,19,24)           110.4639         estimate D2E/DX2                !
 ! A68   A(16,19,25)           110.2523         estimate D2E/DX2                !
 ! A69   A(23,19,24)           108.6052         estimate D2E/DX2                !
 ! A70   A(23,19,25)           108.5552         estimate D2E/DX2                !
 ! A71   A(24,19,25)           108.613          estimate D2E/DX2                !
 ! A72   A(3,37,38)            114.8323         estimate D2E/DX2                !
 ! A73   A(3,37,40)            109.772          estimate D2E/DX2                !
 ! A74   A(3,37,41)            110.1076         estimate D2E/DX2                !
 ! A75   A(38,37,40)           107.0077         estimate D2E/DX2                !
 ! A76   A(38,37,41)           109.6042         estimate D2E/DX2                !
 ! A77   A(40,37,41)           105.0202         estimate D2E/DX2                !
 ! A78   A(37,38,39)           124.2303         estimate D2E/DX2                !
 ! A79   A(37,38,42)           117.0387         estimate D2E/DX2                !
 ! A80   A(39,38,42)           118.7302         estimate D2E/DX2                !
 ! A81   A(38,39,43)           120.6245         estimate D2E/DX2                !
 ! A82   A(38,39,44)           122.0708         estimate D2E/DX2                !
 ! A83   A(43,39,44)           117.3026         estimate D2E/DX2                !
 ! D1    D(6,1,2,3)             61.9812         estimate D2E/DX2                !
 ! D2    D(6,1,2,7)            -56.919          estimate D2E/DX2                !
 ! D3    D(6,1,2,14)          -172.874          estimate D2E/DX2                !
 ! D4    D(10,1,2,3)           -56.2496         estimate D2E/DX2                !
 ! D5    D(10,1,2,7)          -175.1498         estimate D2E/DX2                !
 ! D6    D(10,1,2,14)           68.8951         estimate D2E/DX2                !
 ! D7    D(12,1,2,3)          -178.5058         estimate D2E/DX2                !
 ! D8    D(12,1,2,7)            62.594          estimate D2E/DX2                !
 ! D9    D(12,1,2,14)          -53.361          estimate D2E/DX2                !
 ! D10   D(2,1,10,5)            41.4119         estimate D2E/DX2                !
 ! D11   D(6,1,10,5)           -78.7815         estimate D2E/DX2                !
 ! D12   D(12,1,10,5)          166.8686         estimate D2E/DX2                !
 ! D13   D(2,1,12,13)         -170.328          estimate D2E/DX2                !
 ! D14   D(2,1,12,32)           70.0421         estimate D2E/DX2                !
 ! D15   D(2,1,12,33)          -49.1826         estimate D2E/DX2                !
 ! D16   D(6,1,12,13)          -48.9556         estimate D2E/DX2                !
 ! D17   D(6,1,12,32)         -168.5855         estimate D2E/DX2                !
 ! D18   D(6,1,12,33)           72.1898         estimate D2E/DX2                !
 ! D19   D(10,1,12,13)          65.384          estimate D2E/DX2                !
 ! D20   D(10,1,12,32)         -54.2459         estimate D2E/DX2                !
 ! D21   D(10,1,12,33)        -173.4706         estimate D2E/DX2                !
 ! D22   D(1,2,3,4)             58.2623         estimate D2E/DX2                !
 ! D23   D(1,2,3,15)           176.8738         estimate D2E/DX2                !
 ! D24   D(1,2,3,37)           -62.1822         estimate D2E/DX2                !
 ! D25   D(7,2,3,4)            177.1785         estimate D2E/DX2                !
 ! D26   D(7,2,3,15)           -64.2101         estimate D2E/DX2                !
 ! D27   D(7,2,3,37)            56.734          estimate D2E/DX2                !
 ! D28   D(14,2,3,4)           -66.5933         estimate D2E/DX2                !
 ! D29   D(14,2,3,15)           52.0182         estimate D2E/DX2                !
 ! D30   D(14,2,3,37)          172.9622         estimate D2E/DX2                !
 ! D31   D(1,2,14,29)         -176.5617         estimate D2E/DX2                !
 ! D32   D(1,2,14,30)          -54.9721         estimate D2E/DX2                !
 ! D33   D(1,2,14,31)           65.3161         estimate D2E/DX2                !
 ! D34   D(3,2,14,29)          -53.3564         estimate D2E/DX2                !
 ! D35   D(3,2,14,30)           68.2331         estimate D2E/DX2                !
 ! D36   D(3,2,14,31)         -171.4786         estimate D2E/DX2                !
 ! D37   D(7,2,14,29)           65.1565         estimate D2E/DX2                !
 ! D38   D(7,2,14,30)         -173.2539         estimate D2E/DX2                !
 ! D39   D(7,2,14,31)          -52.9657         estimate D2E/DX2                !
 ! D40   D(2,3,4,5)            -45.5432         estimate D2E/DX2                !
 ! D41   D(2,3,4,8)             76.9748         estimate D2E/DX2                !
 ! D42   D(2,3,4,9)           -165.5907         estimate D2E/DX2                !
 ! D43   D(15,3,4,5)          -159.5645         estimate D2E/DX2                !
 ! D44   D(15,3,4,8)           -37.0466         estimate D2E/DX2                !
 ! D45   D(15,3,4,9)            80.3879         estimate D2E/DX2                !
 ! D46   D(37,3,4,5)            76.5557         estimate D2E/DX2                !
 ! D47   D(37,3,4,8)          -160.9263         estimate D2E/DX2                !
 ! D48   D(37,3,4,9)           -43.4918         estimate D2E/DX2                !
 ! D49   D(2,3,15,16)         -179.7942         estimate D2E/DX2                !
 ! D50   D(4,3,15,16)          -64.0042         estimate D2E/DX2                !
 ! D51   D(37,3,15,16)          58.7858         estimate D2E/DX2                !
 ! D52   D(2,3,37,38)          -52.1016         estimate D2E/DX2                !
 ! D53   D(2,3,37,40)         -172.6879         estimate D2E/DX2                !
 ! D54   D(2,3,37,41)           72.1696         estimate D2E/DX2                !
 ! D55   D(4,3,37,38)         -171.3089         estimate D2E/DX2                !
 ! D56   D(4,3,37,40)           68.1048         estimate D2E/DX2                !
 ! D57   D(4,3,37,41)          -47.0377         estimate D2E/DX2                !
 ! D58   D(15,3,37,38)          64.7752         estimate D2E/DX2                !
 ! D59   D(15,3,37,40)         -55.811          estimate D2E/DX2                !
 ! D60   D(15,3,37,41)        -170.9535         estimate D2E/DX2                !
 ! D61   D(3,4,5,10)            30.2409         estimate D2E/DX2                !
 ! D62   D(3,4,5,11)          -155.3398         estimate D2E/DX2                !
 ! D63   D(8,4,5,10)           -94.1096         estimate D2E/DX2                !
 ! D64   D(8,4,5,11)            80.3097         estimate D2E/DX2                !
 ! D65   D(9,4,5,10)           152.1549         estimate D2E/DX2                !
 ! D66   D(9,4,5,11)           -33.4258         estimate D2E/DX2                !
 ! D67   D(4,5,10,1)           -27.6515         estimate D2E/DX2                !
 ! D68   D(11,5,10,1)          157.9198         estimate D2E/DX2                !
 ! D69   D(1,12,13,34)         179.1136         estimate D2E/DX2                !
 ! D70   D(1,12,13,35)         -61.22           estimate D2E/DX2                !
 ! D71   D(1,12,13,36)          59.5889         estimate D2E/DX2                !
 ! D72   D(32,12,13,34)        -59.5075         estimate D2E/DX2                !
 ! D73   D(32,12,13,35)         60.1589         estimate D2E/DX2                !
 ! D74   D(32,12,13,36)       -179.0322         estimate D2E/DX2                !
 ! D75   D(33,12,13,34)         57.3014         estimate D2E/DX2                !
 ! D76   D(33,12,13,35)        176.9678         estimate D2E/DX2                !
 ! D77   D(33,12,13,36)        -62.2233         estimate D2E/DX2                !
 ! D78   D(3,15,16,17)         -90.1583         estimate D2E/DX2                !
 ! D79   D(3,15,16,18)          32.9783         estimate D2E/DX2                !
 ! D80   D(3,15,16,19)         152.6659         estimate D2E/DX2                !
 ! D81   D(15,16,17,26)       -172.1578         estimate D2E/DX2                !
 ! D82   D(15,16,17,27)        -52.3933         estimate D2E/DX2                !
 ! D83   D(15,16,17,28)         68.0207         estimate D2E/DX2                !
 ! D84   D(18,16,17,26)         60.8019         estimate D2E/DX2                !
 ! D85   D(18,16,17,27)       -179.4336         estimate D2E/DX2                !
 ! D86   D(18,16,17,28)        -59.0196         estimate D2E/DX2                !
 ! D87   D(19,16,17,26)        -54.1308         estimate D2E/DX2                !
 ! D88   D(19,16,17,27)         65.6337         estimate D2E/DX2                !
 ! D89   D(19,16,17,28)       -173.9523         estimate D2E/DX2                !
 ! D90   D(15,16,18,20)        175.347          estimate D2E/DX2                !
 ! D91   D(15,16,18,21)        -65.3472         estimate D2E/DX2                !
 ! D92   D(15,16,18,22)         55.9562         estimate D2E/DX2                !
 ! D93   D(17,16,18,20)        -59.9905         estimate D2E/DX2                !
 ! D94   D(17,16,18,21)         59.3154         estimate D2E/DX2                !
 ! D95   D(17,16,18,22)       -179.3813         estimate D2E/DX2                !
 ! D96   D(19,16,18,20)         54.9135         estimate D2E/DX2                !
 ! D97   D(19,16,18,21)        174.2194         estimate D2E/DX2                !
 ! D98   D(19,16,18,22)        -64.4773         estimate D2E/DX2                !
 ! D99   D(15,16,19,23)         58.4005         estimate D2E/DX2                !
 ! D100  D(15,16,19,24)        178.4727         estimate D2E/DX2                !
 ! D101  D(15,16,19,25)        -61.4739         estimate D2E/DX2                !
 ! D102  D(17,16,19,23)        -61.3316         estimate D2E/DX2                !
 ! D103  D(17,16,19,24)         58.7406         estimate D2E/DX2                !
 ! D104  D(17,16,19,25)        178.7941         estimate D2E/DX2                !
 ! D105  D(18,16,19,23)       -176.9976         estimate D2E/DX2                !
 ! D106  D(18,16,19,24)        -56.9255         estimate D2E/DX2                !
 ! D107  D(18,16,19,25)         63.128          estimate D2E/DX2                !
 ! D108  D(3,37,38,39)         126.5317         estimate D2E/DX2                !
 ! D109  D(3,37,38,42)         -53.7983         estimate D2E/DX2                !
 ! D110  D(40,37,38,39)       -111.3728         estimate D2E/DX2                !
 ! D111  D(40,37,38,42)         68.2972         estimate D2E/DX2                !
 ! D112  D(41,37,38,39)          1.995          estimate D2E/DX2                !
 ! D113  D(41,37,38,42)       -178.335          estimate D2E/DX2                !
 ! D114  D(37,38,39,43)        179.7066         estimate D2E/DX2                !
 ! D115  D(37,38,39,44)          0.2495         estimate D2E/DX2                !
 ! D116  D(42,38,39,43)          0.0418         estimate D2E/DX2                !
 ! D117  D(42,38,39,44)       -179.4153         estimate D2E/DX2                !
 --------------------------------------------------------------------------------
 Trust Radius=3.00D-01 FncErr=1.00D-07 GrdErr=1.00D-06
 Number of steps in this run=     25 maximum allowed number of steps=    264.
 GradGradGradGradGradGradGradGradGradGradGradGradGradGradGradGradGradGrad

                          Input orientation:                          
 ---------------------------------------------------------------------
 Center     Atomic      Atomic             Coordinates (Angstroms)
 Number     Number       Type             X           Y           Z
 ---------------------------------------------------------------------
      1          6           0       -0.263187    0.331868   -0.165280
      2          6           0       -1.672400    0.059624    0.373223
      3          6           0       -1.891996    0.899831    1.674816
      4          6           0       -1.687915    2.375810    1.308847
      5          6           0       -0.479573    2.679328    0.462896
      6          1           0        0.485759    0.015130    0.568221
      7          1           0       -1.762710   -1.007054    0.616741
      8          1           0       -2.563999    2.771473    0.781074
      9          1           0       -1.577870    2.969805    2.222326
     10          8           0       -0.046309    1.736323   -0.397786
     11          8           0        0.035601    3.794313    0.480226
     12          6           0        0.051694   -0.417377   -1.470174
     13          6           0        1.524931   -0.314312   -1.849508
     14          6           0       -2.759625    0.324293   -0.691339
     15          8           0       -3.260832    0.631761    2.053787
     16         14           0       -4.143128    1.213771    3.350074
     17          6           0       -3.966220    0.085471    4.847695
     18          6           0       -3.714500    2.958094    3.881503
     19          6           0       -5.975066    1.214699    2.872384
     20          1           0       -4.390268    3.289037    4.676370
     21          1           0       -2.693951    3.014355    4.270203
     22          1           0       -3.812321    3.658490    3.047135
     23          1           0       -6.297284    0.204902    2.602426
     24          1           0       -6.587951    1.564893    3.707911
     25          1           0       -6.142709    1.874168    2.015981
     26          1           0       -4.652132    0.395571    5.641686
     27          1           0       -4.198689   -0.948706    4.577550
     28          1           0       -2.948656    0.119553    5.245955
     29          1           0       -3.766457    0.187055   -0.285087
     30          1           0       -2.695624    1.334749   -1.106025
     31          1           0       -2.667511   -0.381896   -1.523095
     32          1           0       -0.529735    0.000428   -2.299987
     33          1           0       -0.213026   -1.475806   -1.366889
     34          1           0        1.715689   -0.870907   -2.772583
     35          1           0        1.821888    0.725812   -2.016071
     36          1           0        2.161946   -0.733255   -1.064036
     37          6           0       -0.892033    0.498662    2.814287
     38          6           0       -0.845458   -0.975590    3.125679
     39          6           0        0.276233   -1.706898    3.142412
     40          1           0       -1.162140    1.014126    3.743067
     41          1           0        0.116870    0.856121    2.573803
     42          1           0       -1.791405   -1.463073    3.354929
     43          1           0        0.242537   -2.766518    3.379581
     44          1           0        1.249521   -1.274492    2.931470
 ---------------------------------------------------------------------
                    Distance matrix (angstroms):
                    1          2          3          4          5
     1  C    0.000000
     2  C    1.532966   0.000000
     3  C    2.522212   1.564709   0.000000
     4  C    2.894926   2.498069   1.534306   0.000000
     5  C    2.439671   2.879883   2.574937   1.505937   0.000000
     6  H    1.095110   2.167407   2.767845   3.293356   2.835650
     7  H    2.157044   1.097843   2.184593   3.453748   3.906344
     8  H    3.484393   2.883646   2.180231   1.096639   2.110583
     9  H    3.793121   3.449242   2.164078   1.095164   2.094332
    10  O    1.439996   2.459664   2.898613   2.452837   1.348239
    11  O    3.534753   4.108116   3.677051   2.381023   1.228371
    12  C    1.537292   2.568685   3.924784   4.307098   3.688982
    13  C    2.539988   3.911942   5.056718   5.247318   4.281020
    14  C    2.551274   1.544474   2.585094   3.059089   3.475210
    15  O    3.741667   2.382174   1.445404   2.463881   3.802482
    16  Si   5.309370   4.037102   2.823587   3.397795   4.889304
    17  C    6.237234   5.028238   3.877209   4.791636   6.173432
    18  C    5.931701   4.987918   3.525257   3.326358   4.714800
    19  C    6.529346   5.108125   4.266705   4.708767   6.176667
    20  H    7.015641   6.027685   4.578099   4.413265   5.780886
    21  H    5.725195   4.996044   3.442438   3.192096   4.417160
    22  H    5.829440   4.967988   3.630579   3.029854   4.329464
    23  H    6.639777   5.136147   4.555211   5.256660   6.674289
    24  H    7.518284   6.127693   5.160211   5.515745   7.006024
    25  H    6.457969   5.096556   4.374276   4.538378   5.927180
    26  H    7.279269   6.062043   4.858877   5.610831   7.031761
    27  H    6.294639   5.007517   4.142920   5.295358   6.627581
    28  H    6.044691   5.037454   3.805049   4.709669   5.960409
    29  H    3.508308   2.198792   2.804082   3.413446   4.192196
    30  H    2.794194   2.204792   2.927123   2.816184   3.029899
    31  H    2.851998   2.186597   3.531414   4.072401   4.254683
    32  H    2.176666   2.907789   4.296945   4.472975   3.848707
    33  H    2.171190   2.741406   4.208867   4.916280   4.547999
    34  H    3.487212   4.716050   5.994186   6.227661   5.281256
    35  H    2.815698   4.285158   5.238880   5.108453   3.906178
    36  H    2.797055   4.170921   5.157783   5.488013   4.577649
    37  C    3.049768   2.600100   1.568202   2.534455   3.233337
    38  C    3.588718   3.054753   2.591804   3.904164   4.536817
    39  C    3.922801   3.819186   3.694603   4.887570   5.195193
    40  H    4.068018   3.539391   2.196228   2.838318   3.741433
    41  H    2.814580   2.945920   2.201279   2.677091   2.852325
    42  H    4.236642   3.350125   2.901071   4.351343   5.219602
    43  H    4.735165   4.548874   4.572152   5.870104   6.219786
    44  H    3.802438   4.106351   4.021938   4.958441   4.971551
                    6          7          8          9         10
     6  H    0.000000
     7  H    2.470390   0.000000
     8  H    4.116280   3.866049   0.000000
     9  H    3.965442   4.292724   1.757553   0.000000
    10  O    2.044204   3.391374   2.966481   3.275995   0.000000
    11  O    3.806916   5.128907   2.809739   2.513566   2.238959
    12  C    2.128504   2.827542   4.698801   5.269064   2.407913
    13  C    2.652136   4.167836   5.758592   6.082157   2.963342
    14  C    3.494938   2.115986   2.862684   4.109102   3.072798
    15  O    4.077264   2.644841   2.585293   2.885692   4.190874
    16  Si   5.531911   4.250831   3.394090   3.306965   5.577046
    17  C    6.175675   4.893878   5.071315   4.573419   6.753228
    18  C    6.105821   5.494593   3.312271   2.705216   5.767206
    19  C    6.963504   5.269540   4.293309   4.778944   6.790896
    20  H    7.167356   6.468466   4.333181   3.746175   6.857693
    21  H    5.728052   5.512416   3.499986   2.332686   5.516656
    22  H    6.155695   5.645797   2.734984   2.479389   5.453903
    23  H    7.084044   5.096483   4.882830   5.482885   7.100789
    24  H    7.892832   6.281178   5.120000   5.411252   7.725232
    25  H    7.034815   5.426205   3.890670   4.699016   6.558305
    26  H    7.230678   5.963739   5.799203   5.269705   7.712746
    27  H    6.240813   4.650312   5.561041   5.269772   7.014671
    28  H    5.804077   4.909718   5.207284   4.375537   6.548998
    29  H    4.340396   2.500838   3.043324   4.338287   4.031431
    30  H    3.829581   3.053243   2.375425   3.873074   2.771594
    31  H    3.804516   2.405906   3.906872   5.142898   3.553009
    32  H    3.042706   3.323033   4.616260   5.510635   2.620191
    33  H    2.540835   2.560476   5.308502   5.874412   3.359275
    34  H    3.668618   4.858530   6.649146   7.109692   3.942327
    35  H    2.994808   4.773245   5.589701   5.878594   2.670232
    36  H    2.456409   4.278189   6.166207   6.204760   3.379215
    37  C    2.678979   2.802582   3.477800   2.631984   3.544639
    38  C    3.048648   2.671537   4.742472   4.113224   4.517512
    39  C    3.104149   3.320555   5.805053   5.114275   4.949021
    40  H    3.713921   3.770911   3.718451   2.512004   4.348944
    41  H    2.205834   3.291555   3.750934   2.731911   3.103502
    42  H    3.890540   2.776049   5.015278   4.580261   5.231096
    43  H    3.962382   3.840575   6.730396   6.128501   5.884514
    44  H    2.798464   3.808284   5.961289   5.148891   4.672058
                   11         12         13         14         15
    11  O    0.000000
    12  C    4.641406   0.000000
    13  C    4.952430   1.524777   0.000000
    14  C    4.607265   3.010012   4.484037   0.000000
    15  O    4.831594   4.948921   6.247743   2.807394   0.000000
    16  Si   5.688321   6.594844   7.842039   4.363287   1.672585
    17  C    6.988910   7.504129   8.669780   5.673959   2.932904
    18  C    5.131394   7.363319   8.426433   5.362796   2.993023
    19  C    6.964549   7.605479   8.993558   4.881803   2.894302
    20  H    6.119742   8.440885   9.516343   6.345156   3.900600
    21  H    4.735263   7.229611   8.144314   5.644258   3.303121
    22  H    4.627523   7.207592   8.261146   5.118713   3.232950
    23  H    7.582416   7.568542   9.015340   4.835098   3.115005
    24  H    7.698033   8.650251  10.011752   5.962262   3.831003
    25  H    6.649588   7.468272   8.861386   4.601842   3.138506
    26  H    7.756736   8.565361   9.735401   6.610134   3.855453
    27  H    7.563961   7.411007   8.629563   5.608264   3.121992
    28  H    6.717278   7.375417   8.399215   5.943830   3.248037
    29  H    5.296571   4.043272   5.540539   1.094343   2.433876
    30  H    4.003153   3.278766   4.591868   1.094112   3.286041
    31  H    5.362913   2.719951   4.205673   1.094991   3.764786
    32  H    4.737378   1.095997   2.126886   2.768582   5.178110
    33  H    5.589973   1.095909   2.145340   3.190908   5.043013
    34  H    5.930239   2.161212   1.094648   5.078239   7.093491
    35  H    4.340279   2.176803   1.094433   4.786062   6.512037
    36  H    5.234975   2.172071   1.094654   5.047690   6.402391
    37  C    4.143629   4.481780   5.315414   3.975892   2.491442
    38  C    5.525094   4.715755   5.550542   4.463559   3.092986
    39  C    6.116246   4.794709   5.330836   5.295264   4.377814
    40  H    4.450860   5.540801   6.345234   4.763589   2.721099
    41  H    3.608690   4.240259   4.787299   4.383859   3.424854
    42  H    6.264342   5.269925   6.277253   4.528180   2.870630
    43  H    7.175903   5.392125   5.916183   5.927772   5.057630
    44  H    5.759773   4.641541   4.884214   5.635079   4.974677
                   16         17         18         19         20
    16  Si   0.000000
    17  C    1.883408   0.000000
    18  C    1.873180   3.041193   0.000000
    19  C    1.893195   3.035205   3.027855   0.000000
    20  H    2.475251   3.236048   1.094532   3.173142   0.000000
    21  H    2.487741   3.245077   1.093514   3.994794   1.765761
    22  H    2.485529   4.004019   1.093752   3.268045   1.767746
    23  H    2.493428   3.238728   3.985835   1.093797   4.177301
    24  H    2.495695   3.218893   3.198103   1.093787   2.956416
    25  H    2.492840   3.994389   3.248271   1.093814   3.485767
    26  H    2.485965   1.094102   3.247141   3.176501   3.061463
    27  H    2.487185   1.093866   3.997750   3.277717   4.243222
    28  H    2.493680   1.093256   3.241228   3.999043   3.528215
    29  H    3.796106   5.137672   5.004181   3.987935   5.884513
    30  H    4.686867   6.214651   5.343107   5.157217   6.334600
    31  H    5.335857   6.518592   6.439053   5.727938   7.407902
    32  H    6.815570   7.931332   7.556543   7.607858   8.624861
    33  H    6.702930   7.425975   7.711382   7.642732   8.756372
    34  H    8.726886   9.553397   9.403460   9.765404  10.491651
    35  H    8.038348   9.001306   8.391427   9.215666   9.484185
    36  H    7.939095   8.554139   8.521563   9.246669   9.594926
    37  C    3.371656   3.708922   3.892824   5.133547   4.846771
    38  C    3.964629   3.718917   4.927123   5.583404   5.758243
    39  C    5.301338   4.911108   6.183394   6.905605   7.006328
    40  H    3.013402   3.153644   3.211342   4.895158   4.057966
    41  H    4.344893   4.736677   4.561553   6.109780   5.536620
    42  H    3.563161   3.058784   4.849979   4.990624   5.575199
    43  H    5.922637   5.291771   6.977195   7.400400   7.733970
    44  H    5.953767   5.720609   6.592333   7.641611   7.461749
                   21         22         23         24         25
    21  H    0.000000
    22  H    1.778077   0.000000
    23  H    4.864002   4.277859   0.000000
    24  H    4.192893   3.538912   1.776558   0.000000
    25  H    4.274982   3.110915   1.776024   1.776659   0.000000
    26  H    3.545909   4.252484   3.461211   2.975600   4.189726
    27  H    4.250241   4.870083   3.104195   3.575336   4.278956
    28  H    3.065427   4.254974   4.267182   4.207025   4.869639
    29  H    5.467592   4.812138   3.839679   5.079695   3.713198
    30  H    5.632487   4.888305   5.291608   6.194930   4.681911
    31  H    6.715469   6.206634   5.526256   6.820796   5.449026
    32  H    7.545527   7.262816   7.572324   8.674351   7.324204
    33  H    7.621899   7.668085   7.456436   8.697075   7.604425
    34  H    9.172841   9.216477   9.708544  10.811122   9.603135
    35  H    8.071398   8.122867   9.355363  10.207518   9.000609
    36  H    8.128864   8.478267   9.267236  10.228082   9.233226
    37  C    3.419841   4.308923   5.417372   5.863352   5.486247
    38  C    4.543844   5.503012   5.602657   6.306288   6.116651
    39  C    5.690706   6.746313   6.867146   7.625053   7.436108
    40  H    2.573953   3.807945   5.322181   5.453806   5.341214
    41  H    3.928926   4.849315   6.447191   6.836899   6.366311
    42  H    4.658291   5.514458   4.863265   5.683311   5.644803
    43  H    6.544819   7.604809   7.225134   8.094720   8.010414
    44  H    5.978075   7.068942   7.697476   8.372033   8.086856
                   26         27         28         29         30
    26  H    0.000000
    27  H    1.773436   0.000000
    28  H    1.770486   1.774972   0.000000
    29  H    5.996210   5.012187   5.591581   0.000000
    30  H    7.088130   6.306853   6.472123   1.771390   0.000000
    31  H    7.475110   6.315350   6.793418   1.750443   1.766807
    32  H    8.956588   7.852553   7.925062   3.817201   2.810166
    33  H    8.504577   7.176329   7.332022   4.069677   3.759064
    34  H   10.627936   9.434531   9.329206   6.112352   5.205960
    35  H   10.033107   9.084448   8.709917   5.875046   4.648323
    36  H    9.626662   8.504798   8.164651   6.049768   5.279620
    37  C    4.705652   4.017206   3.207247   4.238577   4.395546
    38  C    4.764571   3.654150   3.180935   4.638675   5.164117
    39  C    5.912320   4.760189   4.261540   5.628335   6.011054
    40  H    4.020872   3.710755   2.500115   4.867498   5.095887
    41  H    5.689235   5.088856   4.132841   4.868381   4.656215
    42  H    4.107015   2.748525   2.723952   4.457967   5.342802
    43  H    6.250897   4.946116   4.690039   6.182671   6.750840
    44  H    6.705512   5.700764   4.992484   6.135340   6.218816
                   31         32         33         34         35
    31  H    0.000000
    32  H    2.306473   0.000000
    33  H    2.691753   1.774892   0.000000
    34  H    4.583971   2.454486   2.462076   0.000000
    35  H    4.650241   2.477281   3.067480   1.770057   0.000000
    36  H    4.863933   3.051395   2.506710   1.771222   1.775074
    37  C    4.768709   5.151242   4.673522   6.315778   5.545207
    38  C    5.028265   5.521788   4.564357   6.431168   6.037143
    39  C    5.673466   5.760578   4.541649   6.144760   5.909067
    40  H    5.652210   6.160034   5.763005   7.368103   6.492705
    41  H    5.105883   4.990405   4.590835   5.841463   4.898062
    42  H    5.072635   5.975928   4.978655   7.084968   6.833355
    43  H    6.179889   6.364738   4.939884   6.603987   6.618442
    44  H    5.998585   5.670918   4.544828   5.737283   5.367214
                   36         37         38         39         40
    36  H    0.000000
    37  C    5.087809   0.000000
    38  C    5.163034   1.507499   0.000000
    39  C    4.711486   2.517341   1.339135   0.000000
    40  H    6.100092   1.096035   2.107232   3.135869   0.000000
    41  H    4.465683   1.097039   2.141450   2.630167   1.740118
    42  H    5.974016   2.224762   1.088582   2.092783   2.585177
    43  H    5.250145   3.502600   2.110835   1.086360   4.049507
    44  H    4.133948   2.782815   2.125087   1.085708   3.422363
                   41         42         43         44
    41  H    0.000000
    42  H    3.103278   0.000000
    43  H    3.713298   2.415884   0.000000
    44  H    2.439331   3.076054   1.854983   0.000000
 Stoichiometry    C14H26O3Si
 Framework group  C1[X(C14H26O3Si)]
 Deg. of freedom   126
 Full point group                 C1      NOp   1
 Largest Abelian subgroup         C1      NOp   1
 Largest concise Abelian subgroup C1      NOp   1
                         Standard orientation:                         
 ---------------------------------------------------------------------
 Center     Atomic      Atomic             Coordinates (Angstroms)
 Number     Number       Type             X           Y           Z
 ---------------------------------------------------------------------
      1          6           0        2.360986    0.150383    0.277876
      2          6           0        1.006539    0.246808    0.989325
      3          6           0       -0.135103    0.001709   -0.052257
      4          6           0        0.096239   -1.383502   -0.670130
      5          6           0        1.512071   -1.687652   -1.083361
      6          1           0        2.436462    0.926774   -0.490751
      7          1           0        0.894944    1.253966    1.411746
      8          1           0       -0.220357   -2.175691    0.018943
      9          1           0       -0.514762   -1.490764   -1.572658
     10          8           0        2.518480   -1.113491   -0.393992
     11          8           0        1.746865   -2.517746   -1.957839
     12          6           0        3.563451    0.339607    1.216780
     13          6           0        4.874455    0.473581    0.449797
     14          6           0        0.918737   -0.710232    2.198360
     15          8           0       -1.351946    0.038354    0.726938
     16         14           0       -2.939380   -0.156009    0.237226
     17          6           0       -3.707399    1.497824   -0.234162
     18          6           0       -3.188800   -1.341912   -1.191139
     19          6           0       -3.935881   -0.831470    1.698364
     20          1           0       -4.256565   -1.473459   -1.392565
     21          1           0       -2.723740   -0.963875   -2.105786
     22          1           0       -2.768448   -2.325633   -0.963345
     23          1           0       -3.870707   -0.148423    2.550180
     24          1           0       -4.988173   -0.946491    1.423008
     25          1           0       -3.546291   -1.806863    2.003746
     26          1           0       -4.779547    1.381431   -0.418581
     27          1           0       -3.574564    2.225304    0.571859
     28          1           0       -3.248529    1.898393   -1.142012
     29          1           0       -0.070090   -0.682229    2.666360
     30          1           0        1.134525   -1.746732    1.922343
     31          1           0        1.632494   -0.418705    2.975900
     32          1           0        3.663314   -0.521564    1.887318
     33          1           0        3.420761    1.235781    1.831212
     34          1           0        5.704966    0.622289    1.147214
     35          1           0        5.085679   -0.424716   -0.138618
     36          1           0        4.845124    1.331644   -0.229272
     37          6           0       -0.146104    1.086264   -1.184898
     38          6           0       -0.159418    2.512196   -0.695927
     39          6           0        0.721132    3.446973   -1.075540
     40          1           0       -1.033174    0.955174   -1.815149
     41          1           0        0.706288    0.936247   -1.859003
     42          1           0       -0.944079    2.787080    0.006752
     43          1           0        0.653949    4.460018   -0.689008
     44          1           0        1.519220    3.234789   -1.780376
 ---------------------------------------------------------------------
 Rotational constants (GHZ):      0.5630093      0.2465204      0.2222988
 Standard basis: 6-31G(d,p) (6D, 7F)
 There are   404 symmetry adapted cartesian basis functions of A   symmetry.
 There are   404 symmetry adapted basis functions of A   symmetry.
   404 basis functions,   710 primitive gaussians,   404 cartesian basis functions
    74 alpha electrons       74 beta electrons
       nuclear repulsion energy      1624.7307463405 Hartrees.
 NAtoms=   44 NActive=   44 NUniq=   44 SFac= 1.00D+00 NAtFMM=   60 NAOKFM=F Big=F
 Integral buffers will be    131072 words long.
 Raffenetti 2 integral format.
 Two-electron integral symmetry is turned on.
 ------------------------------------------------------------------------------
 Polarizable Continuum Model (PCM)
 =================================
 Model                : PCM (using non-symmetric T matrix).
 Atomic radii         : UFF (Universal Force Field).
 Polarization charges : Total charges.
 Charge compensation  : None.
 Solution method      : On-the-fly selection.
 Cavity type          : Scaled VdW (van der Waals Surface) (Alpha=1.100).
 Cavity algorithm     : GePol (No added spheres)
                        Default sphere list used, NSphG=   44.
                        Lebedev-Laikov grids with approx.  5.0 points / Ang**2.
                        Smoothing algorithm: Karplus/York (Gamma=1.0000).
                        Polarization charges: spherical gaussians, with
                                              point-specific exponents (IZeta= 3).
                        Self-potential: point-specific (ISelfS= 7).
                        Self-field    : sphere-specific E.n sum rule (ISelfD= 2).
 1st derivatives      : Analytical E(r).r(x)/FMM algorithm (CHGder, D1EAlg=3).
                        Cavity 1st derivative terms included.
 Solvent              : Chloroform, Eps=   4.711300 Eps(inf)=   2.090627
 ------------------------------------------------------------------------------
 One-electron integrals computed using PRISM.
 NBasis=   404 RedAO= T EigKep=  1.79D-03  NBF=   404
 NBsUse=   404 1.00D-06 EigRej= -1.00D+00 NBFU=   404
 ExpMin= 7.78D-02 ExpMax= 1.61D+04 ExpMxC= 2.43D+03 IAcc=2 IRadAn=         4 AccDes= 0.00D+00
 Harris functional with IExCor=  402 and IRadAn=       4 diagonalized for initial guess.
 HarFok:  IExCor=  402 AccDes= 0.00D+00 IRadAn=         4 IDoV= 1 UseB2=F ITyADJ=14
 ICtDFT=  3500011 ScaDFX=  1.000000  1.000000  1.000000  1.000000
 FoFCou: FMM=F IPFlag=           0 FMFlag=      100000 FMFlg1=           0
         NFxFlg=           0 DoJE=T BraDBF=F KetDBF=T FulRan=T
         wScrn=  0.000000 ICntrl=     500 IOpCl=  0 I1Cent=   200000004 NGrid=           0
         NMat0=    1 NMatS0=      1 NMatT0=    0 NMatD0=    1 NMtDS0=    0 NMtDT0=    0
 Petite list used in FoFCou.
 Requested convergence on RMS density matrix=1.00D-08 within 128 cycles.
 Requested convergence on MAX density matrix=1.00D-06.
 Requested convergence on             energy=1.00D-06.
 No special actions if energy rises.
 Inv3:  Mode=1 IEnd=    24555963.
 Iteration    1 A*A^-1 deviation from unit magnitude is 5.33D-15 for   2846.
 Iteration    1 A*A^-1 deviation from orthogonality  is 4.81D-15 for   2847   1640.
 Iteration    1 A^-1*A deviation from unit magnitude is 5.33D-15 for   2846.
 Iteration    1 A^-1*A deviation from orthogonality  is 1.59D-11 for   2849   2491.
 Error on total polarization charges =  0.00923
 SCF Done:  E(RB3LYP) =  -1064.41682727     A.U. after   13 cycles
            NFock= 13  Conv=0.38D-08     -V/T= 2.0081

 **********************************************************************

            Population analysis using the SCF density.

 **********************************************************************

 Orbital symmetries:
       Occupied  (A) (A) (A) (A) (A) (A) (A) (A) (A) (A) (A) (A)
                 (A) (A) (A) (A) (A) (A) (A) (A) (A) (A) (A) (A)
                 (A) (A) (A) (A) (A) (A) (A) (A) (A) (A) (A) (A)
                 (A) (A) (A) (A) (A) (A) (A) (A) (A) (A) (A) (A)
                 (A) (A) (A) (A) (A) (A) (A) (A) (A) (A) (A) (A)
                 (A) (A) (A) (A) (A) (A) (A) (A) (A) (A) (A) (A)
                 (A) (A)
       Virtual   (A) (A) (A) (A) (A) (A) (A) (A) (A) (A) (A) (A)
                 (A) (A) (A) (A) (A) (A) (A) (A) (A) (A) (A) (A)
                 (A) (A) (A) (A) (A) (A) (A) (A) (A) (A) (A) (A)
                 (A) (A) (A) (A) (A) (A) (A) (A) (A) (A) (A) (A)
                 (A) (A) (A) (A) (A) (A) (A) (A) (A) (A) (A) (A)
                 (A) (A) (A) (A) (A) (A) (A) (A) (A) (A) (A) (A)
                 (A) (A) (A) (A) (A) (A) (A) (A) (A) (A) (A) (A)
                 (A) (A) (A) (A) (A) (A) (A) (A) (A) (A) (A) (A)
                 (A) (A) (A) (A) (A) (A) (A) (A) (A) (A) (A) (A)
                 (A) (A) (A) (A) (A) (A) (A) (A) (A) (A) (A) (A)
                 (A) (A) (A) (A) (A) (A) (A) (A) (A) (A) (A) (A)
                 (A) (A) (A) (A) (A) (A) (A) (A) (A) (A) (A) (A)
                 (A) (A) (A) (A) (A) (A) (A) (A) (A) (A) (A) (A)
                 (A) (A) (A) (A) (A) (A) (A) (A) (A) (A) (A) (A)
                 (A) (A) (A) (A) (A) (A) (A) (A) (A) (A) (A) (A)
                 (A) (A) (A) (A) (A) (A) (A) (A) (A) (A) (A) (A)
                 (A) (A) (A) (A) (A) (A) (A) (A) (A) (A) (A) (A)
                 (A) (A) (A) (A) (A) (A) (A) (A) (A) (A) (A) (A)
                 (A) (A) (A) (A) (A) (A) (A) (A) (A) (A) (A) (A)
                 (A) (A) (A) (A) (A) (A) (A) (A) (A) (A) (A) (A)
                 (A) (A) (A) (A) (A) (A) (A) (A) (A) (A) (A) (A)
                 (A) (A) (A) (A) (A) (A) (A) (A) (A) (A) (A) (A)
                 (A) (A) (A) (A) (A) (A) (A) (A) (A) (A) (A) (A)
                 (A) (A) (A) (A) (A) (A) (A) (A) (A) (A) (A) (A)
                 (A) (A) (A) (A) (A) (A) (A) (A) (A) (A) (A) (A)
                 (A) (A) (A) (A) (A) (A) (A) (A) (A) (A) (A) (A)
                 (A) (A) (A) (A) (A) (A) (A) (A) (A) (A) (A) (A)
                 (A) (A) (A) (A) (A) (A)
 The electronic state is 1-A.
 Alpha  occ. eigenvalues --  -66.13961 -19.19304 -19.14431 -19.13502 -10.32353
 Alpha  occ. eigenvalues --  -10.26617 -10.25187 -10.20061 -10.19965 -10.19770
 Alpha  occ. eigenvalues --  -10.19550 -10.18838 -10.18416 -10.17476 -10.17351
 Alpha  occ. eigenvalues --  -10.16016 -10.15699 -10.15651  -5.28113  -3.64168
 Alpha  occ. eigenvalues --   -3.63938  -3.63905  -1.10028  -1.01445  -1.00688
 Alpha  occ. eigenvalues --   -0.82904  -0.80273  -0.78160  -0.74814  -0.71292
 Alpha  occ. eigenvalues --   -0.70621  -0.68847  -0.67725  -0.67319  -0.64117
 Alpha  occ. eigenvalues --   -0.61556  -0.59833  -0.56607  -0.52729  -0.50853
 Alpha  occ. eigenvalues --   -0.50754  -0.49223  -0.48102  -0.45885  -0.45236
 Alpha  occ. eigenvalues --   -0.44579  -0.43310  -0.43121  -0.42729  -0.42049
 Alpha  occ. eigenvalues --   -0.41040  -0.40792  -0.40035  -0.39800  -0.39064
 Alpha  occ. eigenvalues --   -0.38766  -0.38435  -0.37897  -0.37708  -0.36883
 Alpha  occ. eigenvalues --   -0.36576  -0.36209  -0.35235  -0.34980  -0.34682
 Alpha  occ. eigenvalues --   -0.33892  -0.32648  -0.31517  -0.29963  -0.29248
 Alpha  occ. eigenvalues --   -0.28536  -0.27699  -0.26497  -0.25638
 Alpha virt. eigenvalues --   -0.00506   0.00991   0.06397   0.07123   0.08661
 Alpha virt. eigenvalues --    0.09181   0.09895   0.10393   0.11625   0.12114
 Alpha virt. eigenvalues --    0.12583   0.12878   0.13114   0.13803   0.14628
 Alpha virt. eigenvalues --    0.15040   0.15252   0.16265   0.16732   0.16821
 Alpha virt. eigenvalues --    0.17185   0.17675   0.18181   0.18223   0.18588
 Alpha virt. eigenvalues --    0.19044   0.19525   0.19934   0.20517   0.20863
 Alpha virt. eigenvalues --    0.21393   0.22004   0.22604   0.23029   0.23311
 Alpha virt. eigenvalues --    0.24734   0.25182   0.26021   0.27142   0.27504
 Alpha virt. eigenvalues --    0.29136   0.31212   0.32149   0.35361   0.35944
 Alpha virt. eigenvalues --    0.37069   0.38182   0.39358   0.40758   0.42343
 Alpha virt. eigenvalues --    0.46062   0.47601   0.48388   0.50028   0.51106
 Alpha virt. eigenvalues --    0.51975   0.52472   0.54537   0.54927   0.55931
 Alpha virt. eigenvalues --    0.56888   0.57592   0.58200   0.60250   0.61118
 Alpha virt. eigenvalues --    0.61854   0.62605   0.63407   0.63610   0.64714
 Alpha virt. eigenvalues --    0.65702   0.65795   0.66279   0.67759   0.68629
 Alpha virt. eigenvalues --    0.69980   0.70678   0.71168   0.71691   0.72911
 Alpha virt. eigenvalues --    0.74103   0.75379   0.75877   0.77143   0.78097
 Alpha virt. eigenvalues --    0.79464   0.80338   0.81294   0.82209   0.82916
 Alpha virt. eigenvalues --    0.84288   0.84638   0.85596   0.86198   0.86706
 Alpha virt. eigenvalues --    0.87100   0.87627   0.87696   0.88364   0.88958
 Alpha virt. eigenvalues --    0.89355   0.89863   0.90288   0.91256   0.91669
 Alpha virt. eigenvalues --    0.91798   0.92010   0.93008   0.93744   0.94467
 Alpha virt. eigenvalues --    0.95150   0.95449   0.96092   0.96199   0.96989
 Alpha virt. eigenvalues --    0.97281   0.98132   0.99895   1.00075   1.00848
 Alpha virt. eigenvalues --    1.02177   1.02893   1.03778   1.05425   1.07694
 Alpha virt. eigenvalues --    1.09335   1.10710   1.12257   1.12484   1.17966
 Alpha virt. eigenvalues --    1.18303   1.20126   1.22186   1.27095   1.27610
 Alpha virt. eigenvalues --    1.29747   1.29947   1.30634   1.31922   1.32538
 Alpha virt. eigenvalues --    1.34295   1.36430   1.38296   1.39348   1.42527
 Alpha virt. eigenvalues --    1.44359   1.44972   1.45719   1.46558   1.48202
 Alpha virt. eigenvalues --    1.48897   1.50528   1.54063   1.55460   1.56873
 Alpha virt. eigenvalues --    1.57206   1.59097   1.61458   1.62225   1.64270
 Alpha virt. eigenvalues --    1.65536   1.66838   1.69237   1.70870   1.72080
 Alpha virt. eigenvalues --    1.73330   1.74853   1.76358   1.77443   1.78829
 Alpha virt. eigenvalues --    1.81287   1.81680   1.83805   1.84623   1.85388
 Alpha virt. eigenvalues --    1.87055   1.87851   1.88580   1.89193   1.90788
 Alpha virt. eigenvalues --    1.92631   1.93540   1.94121   1.94781   1.95581
 Alpha virt. eigenvalues --    1.97912   1.98518   2.00525   2.00859   2.02819
 Alpha virt. eigenvalues --    2.02959   2.04767   2.04885   2.05104   2.05382
 Alpha virt. eigenvalues --    2.06313   2.07007   2.07928   2.08563   2.08735
 Alpha virt. eigenvalues --    2.09510   2.10234   2.11401   2.11738   2.12360
 Alpha virt. eigenvalues --    2.12657   2.13420   2.13770   2.14015   2.14672
 Alpha virt. eigenvalues --    2.15254   2.16543   2.16750   2.17007   2.17700
 Alpha virt. eigenvalues --    2.19074   2.22450   2.23239   2.23958   2.26583
 Alpha virt. eigenvalues --    2.27987   2.28905   2.29897   2.32248   2.33063
 Alpha virt. eigenvalues --    2.33699   2.34439   2.35022   2.35937   2.36563
 Alpha virt. eigenvalues --    2.38039   2.39084   2.39549   2.40435   2.41426
 Alpha virt. eigenvalues --    2.42561   2.44228   2.48222   2.49161   2.50702
 Alpha virt. eigenvalues --    2.52156   2.53788   2.54546   2.57568   2.57903
 Alpha virt. eigenvalues --    2.59867   2.62027   2.62612   2.63585   2.64239
 Alpha virt. eigenvalues --    2.67832   2.68206   2.68514   2.69082   2.69591
 Alpha virt. eigenvalues --    2.70585   2.71738   2.72959   2.74102   2.75547
 Alpha virt. eigenvalues --    2.77005   2.77553   2.79674   2.81248   2.81663
 Alpha virt. eigenvalues --    2.82408   2.82731   2.84240   2.84957   2.85073
 Alpha virt. eigenvalues --    2.85255   2.86060   2.87052   2.87282   2.88277
 Alpha virt. eigenvalues --    2.90921   2.91616   2.92387   2.92925   2.94283
 Alpha virt. eigenvalues --    2.96206   2.97298   3.01655   3.09612   3.10513
 Alpha virt. eigenvalues --    3.16533   3.17788   3.20257   3.20778   3.21014
 Alpha virt. eigenvalues --    3.21947   3.22157   3.26680   3.30023   3.33353
 Alpha virt. eigenvalues --    3.34875   3.35485   3.39343   3.43325   3.43701
 Alpha virt. eigenvalues --    3.44465   3.44546   3.44866   3.45681   3.46011
 Alpha virt. eigenvalues --    3.46697   3.47881   3.48534   3.49358   3.50635
 Alpha virt. eigenvalues --    3.52588   3.56657   3.66275   3.98898   4.12886
 Alpha virt. eigenvalues --    4.20846   4.23750   4.34758   4.37765   4.45208
 Alpha virt. eigenvalues --    4.45378   4.48782   4.50804   4.52139   4.59005
 Alpha virt. eigenvalues --    4.64043   4.66356   4.70222   4.79065   4.81452
          Condensed to atoms (all electrons):
               1          2          3          4          5          6
     1  C    4.828034   0.312970  -0.028881  -0.010632  -0.009366   0.381515
     2  C    0.312970   5.113133   0.350172  -0.053212  -0.014836  -0.046403
     3  C   -0.028881   0.350172   4.846634   0.274319  -0.015341  -0.014399
     4  C   -0.010632  -0.053212   0.274319   5.339494   0.293585   0.001349
     5  C   -0.009366  -0.014836  -0.015341   0.293585   4.361123  -0.002517
     6  H    0.381515  -0.046403  -0.014399   0.001349  -0.002517   0.640536
     7  H   -0.028909   0.365251  -0.030924   0.006262   0.000490  -0.001019
     8  H    0.000716  -0.005959  -0.022126   0.367655  -0.023748  -0.000060
     9  H   -0.000020   0.005927  -0.033982   0.360184  -0.022082   0.000096
    10  O    0.162814  -0.033748   0.000322  -0.093691   0.262602  -0.041731
    11  O    0.001917  -0.000130   0.002749  -0.085692   0.568909   0.000184
    12  C    0.380874  -0.032940   0.004590  -0.000498   0.001452  -0.052318
    13  C   -0.037610   0.004365  -0.000092  -0.000002   0.000029  -0.007375
    14  C   -0.042850   0.352836  -0.042013  -0.007522  -0.000312   0.005930
    15  O    0.002783  -0.048570   0.180508  -0.030052   0.001330  -0.000005
    16  Si   0.000205  -0.001526  -0.012040  -0.004191   0.000448  -0.000009
    17  C    0.000000  -0.000050  -0.001246  -0.000143   0.000000   0.000000
    18  C    0.000003  -0.000021  -0.001634  -0.000434   0.000094   0.000000
    19  C    0.000000   0.000003   0.001068  -0.000188  -0.000002   0.000000
    20  H    0.000000   0.000001   0.000006   0.000143  -0.000002   0.000000
    21  H    0.000000  -0.000002   0.000474  -0.002096  -0.000047   0.000000
    22  H    0.000000  -0.000003  -0.000270  -0.000423  -0.000007   0.000000
    23  H    0.000000   0.000006  -0.000037   0.000007   0.000000   0.000000
    24  H    0.000000   0.000000  -0.000013   0.000002   0.000000   0.000000
    25  H    0.000000  -0.000004  -0.000027  -0.000038   0.000000   0.000000
    26  H    0.000000   0.000001   0.000020   0.000001   0.000000   0.000000
    27  H    0.000000   0.000008  -0.000025   0.000003   0.000000   0.000000
    28  H    0.000000  -0.000001  -0.000086  -0.000027   0.000000   0.000000
    29  H    0.004564  -0.027042  -0.006985  -0.000224  -0.000073  -0.000124
    30  H   -0.007467  -0.034274  -0.007090   0.003879   0.000073   0.000199
    31  H   -0.005303  -0.028204   0.004169  -0.000114   0.000006  -0.000024
    32  H   -0.028992  -0.008304  -0.000121   0.000000   0.000084   0.005948
    33  H   -0.033981  -0.001450   0.000068   0.000037  -0.000036   0.000230
    34  H    0.004105  -0.000125   0.000002   0.000000   0.000000  -0.000012
    35  H   -0.007855   0.000281  -0.000001   0.000031   0.000191   0.000025
    36  H   -0.006010  -0.000039  -0.000006   0.000001  -0.000015   0.006509
    37  C    0.001723  -0.062059   0.342217  -0.061186  -0.000378   0.004538
    38  C   -0.002901  -0.008204  -0.035398   0.004886   0.000002   0.001378
    39  C   -0.001068   0.000210  -0.001450  -0.000085  -0.000012   0.003637
    40  H   -0.000116   0.005071  -0.030264  -0.005643  -0.000183   0.000169
    41  H    0.001192  -0.003416  -0.025259  -0.003990   0.003450  -0.000609
    42  H    0.000068  -0.001023  -0.002978   0.000097  -0.000002   0.000013
    43  H    0.000023  -0.000046  -0.000073   0.000003   0.000000  -0.000027
    44  H   -0.000245  -0.000090   0.000203  -0.000005  -0.000006   0.001163
               7          8          9         10         11         12
     1  C   -0.028909   0.000716  -0.000020   0.162814   0.001917   0.380874
     2  C    0.365251  -0.005959   0.005927  -0.033748  -0.000130  -0.032940
     3  C   -0.030924  -0.022126  -0.033982   0.000322   0.002749   0.004590
     4  C    0.006262   0.367655   0.360184  -0.093691  -0.085692  -0.000498
     5  C    0.000490  -0.023748  -0.022082   0.262602   0.568909   0.001452
     6  H   -0.001019  -0.000060   0.000096  -0.041731   0.000184  -0.052318
     7  H    0.616248  -0.000091  -0.000125   0.002918   0.000004  -0.003862
     8  H   -0.000091   0.535155  -0.024297  -0.000112  -0.001078   0.000000
     9  H   -0.000125  -0.024297   0.568911   0.003183   0.002687   0.000008
    10  O    0.002918  -0.000112   0.003183   8.323341  -0.075217  -0.042523
    11  O    0.000004  -0.001078   0.002687  -0.075217   8.089204  -0.000078
    12  C   -0.003862   0.000000   0.000008  -0.042523  -0.000078   4.926826
    13  C   -0.000057   0.000001   0.000000  -0.002239  -0.000005   0.361115
    14  C   -0.041547   0.001860   0.000077  -0.003868  -0.000010  -0.010422
    15  O    0.000120  -0.001477   0.000010  -0.000010  -0.000013  -0.000042
    16  Si   0.000600   0.002576  -0.001434   0.000004  -0.000081  -0.000005
    17  C   -0.000021   0.000013  -0.000018   0.000000   0.000000   0.000000
    18  C    0.000003  -0.000568  -0.000199  -0.000001  -0.000003   0.000000
    19  C   -0.000003  -0.000127   0.000015   0.000000   0.000000   0.000000
    20  H    0.000000   0.000000   0.000123   0.000000   0.000000   0.000000
    21  H    0.000000  -0.000077   0.002914   0.000000  -0.000003   0.000000
    22  H    0.000000   0.000859   0.000632   0.000000   0.000004   0.000000
    23  H    0.000000  -0.000002   0.000000   0.000000   0.000000   0.000000
    24  H    0.000000   0.000002   0.000000   0.000000   0.000000   0.000000
    25  H    0.000000   0.000013  -0.000003   0.000000   0.000000   0.000000
    26  H    0.000000   0.000000   0.000001   0.000000   0.000000   0.000000
    27  H   -0.000002   0.000000   0.000000   0.000000   0.000000   0.000000
    28  H   -0.000002   0.000000  -0.000010   0.000000   0.000000   0.000000
    29  H   -0.002550   0.000619  -0.000041   0.000036   0.000000   0.000149
    30  H    0.005412   0.001148   0.000028   0.006146  -0.000086  -0.001488
    31  H   -0.004925  -0.000037   0.000000   0.000073   0.000000   0.002933
    32  H    0.000089  -0.000008   0.000000  -0.000820  -0.000009   0.379057
    33  H    0.003034  -0.000001   0.000000   0.002885   0.000001   0.379670
    34  H   -0.000006   0.000000   0.000000   0.000051   0.000000  -0.028267
    35  H   -0.000004   0.000000   0.000000   0.007387   0.000012  -0.033505
    36  H   -0.000003   0.000000   0.000000  -0.000219   0.000000  -0.036624
    37  C   -0.011415   0.004445  -0.007622  -0.001816  -0.000034  -0.000123
    38  C    0.010911  -0.000119   0.000118   0.000123   0.000000   0.000004
    39  C    0.001848   0.000001   0.000001   0.000005   0.000000  -0.000044
    40  H    0.000179  -0.000083   0.003801  -0.000002   0.000002  -0.000002
    41  H    0.000067   0.000100   0.000214   0.000507  -0.000157   0.000094
    42  H    0.000837   0.000004   0.000000   0.000000   0.000000   0.000003
    43  H    0.000045   0.000000   0.000000   0.000000   0.000000  -0.000001
    44  H    0.000029   0.000000   0.000001  -0.000002   0.000000   0.000008
              13         14         15         16         17         18
     1  C   -0.037610  -0.042850   0.002783   0.000205   0.000000   0.000003
     2  C    0.004365   0.352836  -0.048570  -0.001526  -0.000050  -0.000021
     3  C   -0.000092  -0.042013   0.180508  -0.012040  -0.001246  -0.001634
     4  C   -0.000002  -0.007522  -0.030052  -0.004191  -0.000143  -0.000434
     5  C    0.000029  -0.000312   0.001330   0.000448   0.000000   0.000094
     6  H   -0.007375   0.005930  -0.000005  -0.000009   0.000000   0.000000
     7  H   -0.000057  -0.041547   0.000120   0.000600  -0.000021   0.000003
     8  H    0.000001   0.001860  -0.001477   0.002576   0.000013  -0.000568
     9  H    0.000000   0.000077   0.000010  -0.001434  -0.000018  -0.000199
    10  O   -0.002239  -0.003868  -0.000010   0.000004   0.000000  -0.000001
    11  O   -0.000005  -0.000010  -0.000013  -0.000081   0.000000  -0.000003
    12  C    0.361115  -0.010422  -0.000042  -0.000005   0.000000   0.000000
    13  C    4.937746   0.000237   0.000000   0.000000   0.000000   0.000000
    14  C    0.000237   4.977177  -0.008360   0.000307   0.000003  -0.000016
    15  O    0.000000  -0.008360   8.293349   0.337076  -0.018505  -0.013896
    16  Si   0.000000   0.000307   0.337076  11.855508   0.369994   0.366530
    17  C    0.000000   0.000003  -0.018505   0.369994   5.141674  -0.035336
    18  C    0.000000  -0.000016  -0.013896   0.366530  -0.035336   5.150692
    19  C    0.000000  -0.000032  -0.020155   0.377747  -0.034747  -0.031295
    20  H    0.000000   0.000000   0.000446  -0.013323  -0.000575   0.372193
    21  H    0.000000  -0.000001  -0.000376  -0.027734  -0.001589   0.375672
    22  H    0.000000  -0.000002  -0.000415  -0.026302   0.001362   0.377683
    23  H    0.000000  -0.000006  -0.000461  -0.024674  -0.001421   0.001417
    24  H    0.000000   0.000000   0.000510  -0.014124  -0.000307  -0.000808
    25  H    0.000000   0.000001  -0.000413  -0.025073   0.001385  -0.001228
    26  H    0.000000   0.000000   0.000565  -0.013392   0.369692  -0.000357
    27  H    0.000000   0.000000  -0.000773  -0.026781   0.379056   0.001346
    28  H    0.000000   0.000000  -0.000562  -0.028671   0.375874  -0.001487
    29  H   -0.000004   0.381426   0.008615   0.001669  -0.000004   0.000004
    30  H   -0.000038   0.382834  -0.000048  -0.000055   0.000000   0.000001
    31  H   -0.000022   0.379705   0.000298  -0.000032   0.000000   0.000000
    32  H   -0.040879   0.002964   0.000000   0.000000   0.000000   0.000000
    33  H   -0.037937  -0.001212   0.000000   0.000000   0.000000   0.000000
    34  H    0.380966   0.000005   0.000000   0.000000   0.000000   0.000000
    35  H    0.388523  -0.000022   0.000000   0.000000   0.000000   0.000000
    36  H    0.385053   0.000006   0.000000   0.000000   0.000000   0.000000
    37  C    0.000000   0.005375  -0.046457   0.000431  -0.000249  -0.001467
    38  C    0.000000   0.000058   0.001036   0.000049  -0.001031   0.000044
    39  C   -0.000004   0.000021   0.000228  -0.000014   0.000008   0.000000
    40  H    0.000000  -0.000103  -0.004109   0.006418  -0.000693  -0.000643
    41  H   -0.000003  -0.000103   0.003053  -0.000466   0.000026   0.000007
    42  H    0.000000  -0.000039   0.003347   0.000629   0.000710   0.000008
    43  H    0.000000   0.000000   0.000003   0.000006   0.000001   0.000000
    44  H   -0.000002   0.000000  -0.000002   0.000014  -0.000001   0.000000
              19         20         21         22         23         24
     1  C    0.000000   0.000000   0.000000   0.000000   0.000000   0.000000
     2  C    0.000003   0.000001  -0.000002  -0.000003   0.000006   0.000000
     3  C    0.001068   0.000006   0.000474  -0.000270  -0.000037  -0.000013
     4  C   -0.000188   0.000143  -0.002096  -0.000423   0.000007   0.000002
     5  C   -0.000002  -0.000002  -0.000047  -0.000007   0.000000   0.000000
     6  H    0.000000   0.000000   0.000000   0.000000   0.000000   0.000000
     7  H   -0.000003   0.000000   0.000000   0.000000   0.000000   0.000000
     8  H   -0.000127   0.000000  -0.000077   0.000859  -0.000002   0.000002
     9  H    0.000015   0.000123   0.002914   0.000632   0.000000   0.000000
    10  O    0.000000   0.000000   0.000000   0.000000   0.000000   0.000000
    11  O    0.000000   0.000000  -0.000003   0.000004   0.000000   0.000000
    12  C    0.000000   0.000000   0.000000   0.000000   0.000000   0.000000
    13  C    0.000000   0.000000   0.000000   0.000000   0.000000   0.000000
    14  C   -0.000032   0.000000  -0.000001  -0.000002  -0.000006   0.000000
    15  O   -0.020155   0.000446  -0.000376  -0.000415  -0.000461   0.000510
    16  Si   0.377747  -0.013323  -0.027734  -0.026302  -0.024674  -0.014124
    17  C   -0.034747  -0.000575  -0.001589   0.001362  -0.001421  -0.000307
    18  C   -0.031295   0.372193   0.375672   0.377683   0.001417  -0.000808
    19  C    5.120025  -0.001076   0.001476  -0.001107   0.376461   0.372405
    20  H   -0.001076   0.561357  -0.022786  -0.022594   0.000016   0.000094
    21  H    0.001476  -0.022786   0.577990  -0.023795  -0.000027  -0.000001
    22  H   -0.001107  -0.022594  -0.023795   0.571477   0.000004  -0.000052
    23  H    0.376461   0.000016  -0.000027   0.000004   0.575921  -0.023829
    24  H    0.372405   0.000094  -0.000001  -0.000052  -0.023829   0.568918
    25  H    0.375439  -0.000043   0.000000   0.000609  -0.021967  -0.023593
    26  H   -0.000591   0.000094  -0.000015   0.000006  -0.000043  -0.000044
    27  H   -0.001164   0.000014   0.000011  -0.000025   0.000587  -0.000034
    28  H    0.001412  -0.000018   0.000608   0.000006   0.000005   0.000003
    29  H    0.000040   0.000000   0.000000  -0.000003   0.000044   0.000000
    30  H   -0.000001   0.000000   0.000000  -0.000002   0.000000   0.000000
    31  H    0.000000   0.000000   0.000000   0.000000   0.000000   0.000000
    32  H    0.000000   0.000000   0.000000   0.000000   0.000000   0.000000
    33  H    0.000000   0.000000   0.000000   0.000000   0.000000   0.000000
    34  H    0.000000   0.000000   0.000000   0.000000   0.000000   0.000000
    35  H    0.000000   0.000000   0.000000   0.000000   0.000000   0.000000
    36  H    0.000000   0.000000   0.000000   0.000000   0.000000   0.000000
    37  C   -0.000060   0.000021  -0.000551   0.000079  -0.000002   0.000001
    38  C   -0.000005   0.000000  -0.000014   0.000000   0.000000   0.000000
    39  C    0.000000   0.000000  -0.000001   0.000000   0.000000   0.000000
    40  H    0.000000   0.000006   0.001850  -0.000042   0.000001   0.000001
    41  H    0.000001   0.000000   0.000003   0.000001   0.000000   0.000000
    42  H   -0.000009   0.000000   0.000000   0.000000  -0.000004   0.000000
    43  H    0.000000   0.000000   0.000000   0.000000   0.000000   0.000000
    44  H    0.000000   0.000000   0.000000   0.000000   0.000000   0.000000
              25         26         27         28         29         30
     1  C    0.000000   0.000000   0.000000   0.000000   0.004564  -0.007467
     2  C   -0.000004   0.000001   0.000008  -0.000001  -0.027042  -0.034274
     3  C   -0.000027   0.000020  -0.000025  -0.000086  -0.006985  -0.007090
     4  C   -0.000038   0.000001   0.000003  -0.000027  -0.000224   0.003879
     5  C    0.000000   0.000000   0.000000   0.000000  -0.000073   0.000073
     6  H    0.000000   0.000000   0.000000   0.000000  -0.000124   0.000199
     7  H    0.000000   0.000000  -0.000002  -0.000002  -0.002550   0.005412
     8  H    0.000013   0.000000   0.000000   0.000000   0.000619   0.001148
     9  H   -0.000003   0.000001   0.000000  -0.000010  -0.000041   0.000028
    10  O    0.000000   0.000000   0.000000   0.000000   0.000036   0.006146
    11  O    0.000000   0.000000   0.000000   0.000000   0.000000  -0.000086
    12  C    0.000000   0.000000   0.000000   0.000000   0.000149  -0.001488
    13  C    0.000000   0.000000   0.000000   0.000000  -0.000004  -0.000038
    14  C    0.000001   0.000000   0.000000   0.000000   0.381426   0.382834
    15  O   -0.000413   0.000565  -0.000773  -0.000562   0.008615  -0.000048
    16  Si  -0.025073  -0.013392  -0.026781  -0.028671   0.001669  -0.000055
    17  C    0.001385   0.369692   0.379056   0.375874  -0.000004   0.000000
    18  C   -0.001228  -0.000357   0.001346  -0.001487   0.000004   0.000001
    19  C    0.375439  -0.000591  -0.001164   0.001412   0.000040  -0.000001
    20  H   -0.000043   0.000094   0.000014  -0.000018   0.000000   0.000000
    21  H    0.000000  -0.000015   0.000011   0.000608   0.000000   0.000000
    22  H    0.000609   0.000006  -0.000025   0.000006  -0.000003  -0.000002
    23  H   -0.021967  -0.000043   0.000587   0.000005   0.000044   0.000000
    24  H   -0.023593  -0.000044  -0.000034   0.000003   0.000000   0.000000
    25  H    0.578935   0.000017   0.000003  -0.000027   0.000076  -0.000001
    26  H    0.000017   0.571176  -0.023658  -0.023469   0.000000   0.000000
    27  H    0.000003  -0.023658   0.574851  -0.022884  -0.000002   0.000000
    28  H   -0.000027  -0.023469  -0.022884   0.583868   0.000000   0.000000
    29  H    0.000076   0.000000  -0.000002   0.000000   0.571281  -0.029630
    30  H   -0.000001   0.000000   0.000000   0.000000  -0.029630   0.604141
    31  H    0.000000   0.000000   0.000000   0.000000  -0.030231  -0.031273
    32  H    0.000000   0.000000   0.000000   0.000000  -0.000019   0.001433
    33  H    0.000000   0.000000   0.000000   0.000000  -0.000038   0.000164
    34  H    0.000000   0.000000   0.000000   0.000000   0.000000  -0.000001
    35  H    0.000000   0.000000   0.000000   0.000000   0.000000   0.000003
    36  H    0.000000   0.000000   0.000000   0.000000   0.000000   0.000000
    37  C    0.000001   0.000010   0.000007  -0.000375   0.000204  -0.000057
    38  C    0.000000   0.000042  -0.000399   0.000948  -0.000003  -0.000001
    39  C    0.000000   0.000000   0.000001   0.000034   0.000000  -0.000001
    40  H    0.000000   0.000002   0.000051   0.001147  -0.000003   0.000002
    41  H    0.000000   0.000000  -0.000002   0.000005  -0.000007  -0.000006
    42  H    0.000000   0.000011   0.001321   0.000131  -0.000002   0.000000
    43  H    0.000000   0.000000  -0.000002   0.000001   0.000000   0.000000
    44  H    0.000000   0.000000   0.000000  -0.000001   0.000000   0.000000
              31         32         33         34         35         36
     1  C   -0.005303  -0.028992  -0.033981   0.004105  -0.007855  -0.006010
     2  C   -0.028204  -0.008304  -0.001450  -0.000125   0.000281  -0.000039
     3  C    0.004169  -0.000121   0.000068   0.000002  -0.000001  -0.000006
     4  C   -0.000114   0.000000   0.000037   0.000000   0.000031   0.000001
     5  C    0.000006   0.000084  -0.000036   0.000000   0.000191  -0.000015
     6  H   -0.000024   0.005948   0.000230  -0.000012   0.000025   0.006509
     7  H   -0.004925   0.000089   0.003034  -0.000006  -0.000004  -0.000003
     8  H   -0.000037  -0.000008  -0.000001   0.000000   0.000000   0.000000
     9  H    0.000000   0.000000   0.000000   0.000000   0.000000   0.000000
    10  O    0.000073  -0.000820   0.002885   0.000051   0.007387  -0.000219
    11  O    0.000000  -0.000009   0.000001   0.000000   0.000012   0.000000
    12  C    0.002933   0.379057   0.379670  -0.028267  -0.033505  -0.036624
    13  C   -0.000022  -0.040879  -0.037937   0.380966   0.388523   0.385053
    14  C    0.379705   0.002964  -0.001212   0.000005  -0.000022   0.000006
[...]
    18  C   -0.027507   0.369245   0.377001   0.378265   0.001202  -0.000473
    19  C    5.113147  -0.000708   0.001189  -0.001135   0.377238   0.367962
    20  H   -0.000708   0.568831  -0.023548  -0.023248   0.000009   0.000046
    21  H    0.001189  -0.023548   0.573278  -0.024119  -0.000020  -0.000002
    22  H   -0.001135  -0.023248  -0.024119   0.568987   0.000000  -0.000050
    23  H    0.377238   0.000009  -0.000020   0.000000   0.570824  -0.024165
    24  H    0.367962   0.000046  -0.000002  -0.000050  -0.024165   0.576382
    25  H    0.376887  -0.000039   0.000005   0.000478  -0.022431  -0.024123
    26  H   -0.000386   0.000131  -0.000036   0.000007  -0.000017  -0.000041
    27  H   -0.001120   0.000007   0.000005  -0.000021   0.000479  -0.000055
    28  H    0.001190  -0.000021   0.000433   0.000002   0.000001   0.000005
    29  H    0.000168   0.000000   0.000000  -0.000004   0.000124   0.000001
    30  H   -0.000001   0.000000   0.000000  -0.000001   0.000000   0.000000
    31  H    0.000000   0.000000   0.000000   0.000000   0.000000   0.000000
    32  H    0.000000   0.000000   0.000000   0.000000   0.000000   0.000000
    33  H    0.000000   0.000000   0.000000   0.000000   0.000000   0.000000
    34  H    0.000000   0.000000   0.000000   0.000000   0.000000   0.000000
    35  H    0.000000   0.000000   0.000000   0.000000   0.000000   0.000000
    36  H    0.000000   0.000000   0.000000   0.000000   0.000000   0.000000
    37  C   -0.000062   0.000013  -0.000334   0.000046  -0.000005   0.000002
    38  C   -0.000009   0.000000  -0.000003   0.000001   0.000000   0.000000
    39  C    0.000000   0.000000   0.000000   0.000000   0.000000   0.000000
    40  H    0.000002   0.000007   0.001017  -0.000019   0.000001   0.000001
    41  H    0.000001   0.000000  -0.000002   0.000001   0.000000   0.000000
    42  H   -0.000032   0.000000  -0.000001   0.000000  -0.000008   0.000000
    43  H    0.000000   0.000000   0.000000   0.000000   0.000000   0.000000
    44  H    0.000000   0.000000   0.000000   0.000000   0.000000   0.000000
              25         26         27         28         29         30
     1  C    0.000000   0.000000   0.000000   0.000000   0.004786  -0.007263
     2  C   -0.000003   0.000001   0.000006   0.000000  -0.030240  -0.034121
     3  C   -0.000021   0.000016  -0.000028  -0.000069  -0.007691  -0.006602
     4  C   -0.000033   0.000001   0.000002  -0.000028  -0.000568   0.003458
     5  C    0.000000   0.000000   0.000000   0.000000  -0.000082   0.000462
     6  H    0.000000   0.000000   0.000000   0.000000  -0.000141   0.000192
     7  H    0.000000   0.000000  -0.000004  -0.000002  -0.002048   0.005212
     8  H    0.000009   0.000000   0.000000   0.000000   0.000863   0.000844
     9  H   -0.000002   0.000001   0.000000  -0.000011  -0.000052   0.000034
    10  O    0.000000   0.000000   0.000000   0.000000   0.000007   0.005175
    11  O    0.000000   0.000000   0.000000   0.000000   0.000000  -0.000130
    12  C    0.000000   0.000000   0.000000   0.000000   0.000171  -0.001871
    13  C    0.000000   0.000000   0.000000   0.000000  -0.000003  -0.000044
    14  C   -0.000004   0.000000   0.000000   0.000000   0.381614   0.383527
    15  O   -0.000550   0.000529  -0.000866  -0.000651   0.010318   0.000003
    16  Si  -0.023231  -0.013366  -0.025633  -0.026170   0.001551  -0.000047
    17  C    0.001208   0.367615   0.379089   0.377393  -0.000001   0.000000
    18  C   -0.001344  -0.000445   0.001198  -0.001200   0.000002   0.000001
    19  C    0.376887  -0.000386  -0.001120   0.001190   0.000168  -0.000001
    20  H   -0.000039   0.000131   0.000007  -0.000021   0.000000   0.000000
    21  H    0.000005  -0.000036   0.000005   0.000433   0.000000   0.000000
    22  H    0.000478   0.000007  -0.000021   0.000002  -0.000004  -0.000001
    23  H   -0.022431  -0.000017   0.000479   0.000001   0.000124   0.000000
    24  H   -0.024123  -0.000041  -0.000055   0.000005   0.000001   0.000000
    25  H    0.572540   0.000008   0.000003  -0.000021   0.000218  -0.000001
    26  H    0.000008   0.573056  -0.024255  -0.023589   0.000000   0.000000
    27  H    0.000003  -0.024255   0.572523  -0.023383  -0.000002   0.000000
    28  H   -0.000021  -0.023589  -0.023383   0.575095   0.000000   0.000000
    29  H    0.000218   0.000000  -0.000002   0.000000   0.567855  -0.029616
    30  H   -0.000001   0.000000   0.000000   0.000000  -0.029616   0.603080
    31  H    0.000000   0.000000   0.000000   0.000000  -0.027945  -0.031990
    32  H    0.000000   0.000000   0.000000   0.000000  -0.000036   0.001687
    33  H    0.000000   0.000000   0.000000   0.000000  -0.000040   0.000209
    34  H    0.000000   0.000000   0.000000   0.000000   0.000000  -0.000001
    35  H    0.000000   0.000000   0.000000   0.000000   0.000000   0.000003
    36  H    0.000000   0.000000   0.000000   0.000000   0.000000   0.000000
    37  C    0.000001   0.000010   0.000012  -0.000228   0.000286  -0.000078
    38  C    0.000000   0.000051  -0.000430   0.001019   0.000000  -0.000001
    39  C    0.000000   0.000000   0.000000   0.000040   0.000000  -0.000001
    40  H    0.000000  -0.000001   0.000048   0.001063  -0.000005   0.000002
    41  H    0.000000   0.000000  -0.000002   0.000001  -0.000011  -0.000008
    42  H    0.000000   0.000015   0.001401  -0.000179  -0.000003   0.000000
    43  H    0.000000   0.000000  -0.000003   0.000001   0.000000   0.000000
    44  H    0.000000   0.000000   0.000000  -0.000001   0.000000   0.000000
              31         32         33         34         35         36
     1  C   -0.004821  -0.030408  -0.036954   0.003832  -0.008226  -0.005163
     2  C   -0.026788  -0.009232  -0.001316  -0.000110   0.000253  -0.000041
     3  C    0.004071  -0.000129   0.000046   0.000001  -0.000001  -0.000006
     4  C   -0.000029   0.000002   0.000044   0.000000   0.000034   0.000001
     5  C   -0.000022   0.000140  -0.000047   0.000000   0.000218  -0.000014
     6  H   -0.000052   0.006158  -0.000068  -0.000025   0.000083   0.005949
     7  H   -0.005434   0.000052   0.003076  -0.000004  -0.000004  -0.000006
     8  H   -0.000044  -0.000012  -0.000002   0.000000  -0.000001   0.000000
     9  H    0.000000   0.000000   0.000000   0.000000   0.000000   0.000000
    10  O    0.000073  -0.000816   0.003315   0.000075   0.008452  -0.000206
    11  O    0.000000  -0.000020   0.000001   0.000000   0.000016   0.000000
    12  C    0.002698   0.378181   0.375729  -0.027416  -0.033739  -0.035384
    13  C   -0.000009  -0.037846  -0.035967   0.381273   0.388062   0.384821
    14  C    0.380060   0.004335  -0.001390   0.000004  -0.000020   0.000008
    15  O    0.000246   0.000000   0.000000   0.000000   0.000000   0.000000
    16  Si  -0.000027   0.000000   0.000000   0.000000   0.000000   0.000000
    17  C    0.000000   0.000000   0.000000   0.000000   0.000000   0.000000
    18  C    0.000000   0.000000   0.000000   0.000000   0.000000   0.000000
    19  C    0.000000   0.000000   0.000000   0.000000   0.000000   0.000000
    20  H    0.000000   0.000000   0.000000   0.000000   0.000000   0.000000
    21  H    0.000000   0.000000   0.000000   0.000000   0.000000   0.000000
    22  H    0.000000   0.000000   0.000000   0.000000   0.000000   0.000000
    23  H    0.000000   0.000000   0.000000   0.000000   0.000000   0.000000
    24  H    0.000000   0.000000   0.000000   0.000000   0.000000   0.000000
    25  H    0.000000   0.000000   0.000000   0.000000   0.000000   0.000000
    26  H    0.000000   0.000000   0.000000   0.000000   0.000000   0.000000
    27  H    0.000000   0.000000   0.000000   0.000000   0.000000   0.000000
    28  H    0.000000   0.000000   0.000000   0.000000   0.000000   0.000000
    29  H   -0.027945  -0.000036  -0.000040   0.000000   0.000000   0.000000
    30  H   -0.031990   0.001687   0.000209  -0.000001   0.000003   0.000000
    31  H    0.596794   0.000409   0.001166   0.000003   0.000005  -0.000002
    32  H    0.000409   0.605718  -0.032299  -0.003130  -0.003784   0.005054
    33  H    0.001166  -0.032299   0.617751  -0.003389   0.005089  -0.004430
    34  H    0.000003  -0.003130  -0.003389   0.602818  -0.030079  -0.031176
    35  H    0.000005  -0.003784   0.005089  -0.030079   0.579899  -0.030858
    36  H   -0.000002   0.005054  -0.004430  -0.031176  -0.030858   0.605246
    37  C   -0.000103   0.000004  -0.000007   0.000000   0.000000  -0.000005
    38  C   -0.000002  -0.000003   0.000012   0.000000   0.000000  -0.000001
    39  C    0.000001   0.000000   0.000029   0.000000   0.000000  -0.000004
    40  H    0.000002   0.000000   0.000000   0.000000   0.000000   0.000000
    41  H   -0.000002  -0.000003  -0.000001   0.000000   0.000000  -0.000004
    42  H    0.000000   0.000000  -0.000001   0.000000   0.000000   0.000000
    43  H    0.000000   0.000000   0.000000   0.000000   0.000000   0.000000
    44  H    0.000000   0.000000   0.000000   0.000000   0.000000   0.000019
              37         38         39         40         41         42
     1  C    0.001841  -0.003263  -0.001030  -0.000124   0.001288   0.000093
     2  C   -0.063885  -0.009701   0.000055   0.005825  -0.003838  -0.001413
     3  C    0.345631  -0.033512  -0.001008  -0.032580  -0.025610  -0.003351
     4  C   -0.061233   0.005041  -0.000101  -0.006913  -0.003706   0.000142
     5  C   -0.000168  -0.000024  -0.000009  -0.000217   0.002600  -0.000003
     6  H    0.005588   0.001400   0.003888   0.000209  -0.001999   0.000004
     7  H   -0.013362   0.012495   0.001866   0.000230   0.000087   0.001057
     8  H    0.004764  -0.000131   0.000001  -0.000099   0.000080   0.000004
     9  H   -0.007421   0.000101   0.000001   0.004377   0.000158   0.000000
    10  O   -0.002302   0.000148   0.000002   0.000001   0.001357  -0.000001
    11  O    0.000003   0.000000   0.000000  -0.000002  -0.000221   0.000000
    12  C   -0.000119   0.000017  -0.000036  -0.000003   0.000141   0.000004
    13  C   -0.000002   0.000001  -0.000001   0.000000   0.000000   0.000000
    14  C    0.005747   0.000029   0.000016  -0.000127  -0.000129  -0.000047
    15  O   -0.052590   0.000609   0.000309  -0.004379   0.003539   0.004172
    16  Si  -0.001023   0.000065  -0.000043   0.006046  -0.000252   0.001227
    17  C   -0.000051  -0.001175  -0.000001  -0.000581   0.000019   0.000689
    18  C   -0.000939   0.000032   0.000000  -0.000435  -0.000001   0.000008
    19  C   -0.000062  -0.000009   0.000000   0.000002   0.000001  -0.000032
    20  H    0.000013   0.000000   0.000000   0.000007   0.000000   0.000000
    21  H   -0.000334  -0.000003   0.000000   0.001017  -0.000002  -0.000001
    22  H    0.000046   0.000001   0.000000  -0.000019   0.000001   0.000000
    23  H   -0.000005   0.000000   0.000000   0.000001   0.000000  -0.000008
    24  H    0.000002   0.000000   0.000000   0.000001   0.000000   0.000000
    25  H    0.000001   0.000000   0.000000   0.000000   0.000000   0.000000
    26  H    0.000010   0.000051   0.000000  -0.000001   0.000000   0.000015
    27  H    0.000012  -0.000430   0.000000   0.000048  -0.000002   0.001401
    28  H   -0.000228   0.001019   0.000040   0.001063   0.000001  -0.000179
    29  H    0.000286   0.000000   0.000000  -0.000005  -0.000011  -0.000003
    30  H   -0.000078  -0.000001  -0.000001   0.000002  -0.000008   0.000000
    31  H   -0.000103  -0.000002   0.000001   0.000002  -0.000002   0.000000
    32  H    0.000004  -0.000003   0.000000   0.000000  -0.000003   0.000000
    33  H   -0.000007   0.000012   0.000029   0.000000  -0.000001  -0.000001
    34  H    0.000000   0.000000   0.000000   0.000000   0.000000   0.000000
    35  H    0.000000   0.000000   0.000000   0.000000   0.000000   0.000000
    36  H   -0.000005  -0.000001  -0.000004   0.000000  -0.000004   0.000000
    37  C    5.069115   0.379892  -0.039398   0.369119   0.361910  -0.054002
    38  C    0.379892   4.767896   0.654284  -0.036710  -0.038540   0.384880
    39  C   -0.039398   0.654284   4.937680  -0.000408  -0.006385  -0.043286
    40  H    0.369119  -0.036710  -0.000408   0.604616  -0.030263  -0.001398
    41  H    0.361910  -0.038540  -0.006385  -0.030263   0.621241   0.005222
    42  H   -0.054002   0.384880  -0.043286  -0.001398   0.005222   0.600872
    43  H    0.004647  -0.024723   0.376376  -0.000202   0.000095  -0.007983
    44  H   -0.012108  -0.035265   0.382198   0.000164   0.005811   0.005601
              43         44
     1  C    0.000020  -0.000210
     2  C   -0.000041  -0.000085
     3  C   -0.000080   0.000221
     4  C    0.000003  -0.000004
     5  C    0.000000  -0.000004
     6  H   -0.000024   0.000982
     7  H    0.000050   0.000028
     8  H    0.000000   0.000000
     9  H    0.000000   0.000000
    10  O    0.000000  -0.000003
    11  O    0.000000   0.000000
    12  C   -0.000001   0.000007
    13  C    0.000000  -0.000001
    14  C    0.000000   0.000000
    15  O    0.000003  -0.000002
    16  Si   0.000013   0.000011
    17  C    0.000002  -0.000001
    18  C    0.000000   0.000000
    19  C    0.000000   0.000000
    20  H    0.000000   0.000000
    21  H    0.000000   0.000000
    22  H    0.000000   0.000000
    23  H    0.000000   0.000000
    24  H    0.000000   0.000000
    25  H    0.000000   0.000000
    26  H    0.000000   0.000000
    27  H   -0.000003   0.000000
    28  H    0.000001  -0.000001
    29  H    0.000000   0.000000
    30  H    0.000000   0.000000
    31  H    0.000000   0.000000
    32  H    0.000000   0.000000
    33  H    0.000000   0.000000
    34  H    0.000000   0.000000
    35  H    0.000000   0.000000
    36  H    0.000000   0.000019
    37  C    0.004647  -0.012108
    38  C   -0.024723  -0.035265
    39  C    0.376376   0.382198
    40  H   -0.000202   0.000164
    41  H    0.000095   0.005811
    42  H   -0.007983   0.005601
    43  H    0.586917  -0.043123
    44  H   -0.043123   0.592012
 Mulliken charges:
               1
     1  C    0.168792
     2  C   -0.099697
     3  C    0.313178
     4  C   -0.298573
     5  C    0.594281
     6  H    0.113498
     7  H    0.110561
     8  H    0.160485
     9  H    0.140198
    10  O   -0.485239
    11  O   -0.500549
    12  C   -0.191663
    13  C   -0.330920
    14  C   -0.335903
    15  O   -0.645296
    16  Si   0.904446
    17  C   -0.549517
    18  C   -0.556552
    19  C   -0.532485
    20  H    0.123192
    21  H    0.120069
    22  H    0.123419
    23  H    0.121948
    24  H    0.118578
    25  H    0.120448
    26  H    0.120696
    27  H    0.121027
    28  H    0.119308
    29  H    0.130523
    30  H    0.107885
    31  H    0.111742
    32  H    0.115979
    33  H    0.109444
    34  H    0.107323
    35  H    0.124598
    36  H    0.106203
    37  C   -0.239207
    38  C   -0.024475
    39  C   -0.265034
    40  H    0.121735
    41  H    0.107429
    42  H    0.106318
    43  H    0.108053
    44  H    0.103753
 Sum of Mulliken charges =   0.00000
 Mulliken charges with hydrogens summed into heavy atoms:
               1
     1  C    0.282291
     2  C    0.010863
     3  C    0.313178
     4  C    0.002111
     5  C    0.594281
    10  O   -0.485239
    11  O   -0.500549
    12  C    0.033760
    13  C    0.007204
    14  C    0.014247
    15  O   -0.645296
    16  Si   0.904446
    17  C   -0.188486
    18  C   -0.189872
    19  C   -0.171512
    37  C   -0.010043
    38  C    0.081843
    39  C   -0.053228
 Electronic spatial extent (au):  <R**2>=           5682.1909
 Charge=              0.0000 electrons
 Dipole moment (field-independent basis, Debye):
    X=             -2.7166    Y=              3.5724    Z=              2.1233  Tot=              4.9649
 Quadrupole moment (field-independent basis, Debye-Ang):
   XX=           -116.2762   YY=           -125.1814   ZZ=           -121.5913
   XY=             11.4606   XZ=              8.4812   YZ=             -7.5758
 Traceless Quadrupole moment (field-independent basis, Debye-Ang):
   XX=              4.7401   YY=             -4.1651   ZZ=             -0.5750
   XY=             11.4606   XZ=              8.4812   YZ=             -7.5758
 Octapole moment (field-independent basis, Debye-Ang**2):
  XXX=            -22.9780  YYY=             21.1760  ZZZ=              5.9885  XYY=            -16.3584
  XXY=             17.9181  XXZ=             17.5308  XZZ=             -1.2674  YZZ=             12.5093
  YYZ=             26.4246  XYZ=            -21.2306
 Hexadecapole moment (field-independent basis, Debye-Ang**3):
 XXXX=          -4762.8338 YYYY=          -1687.8181 ZZZZ=          -1087.8190 XXXY=             48.2952
 XXXZ=             49.5500 YYYX=             51.8811 YYYZ=            -41.7517 ZZZX=             12.5875
 ZZZY=             -4.8620 XXYY=          -1146.5109 XXZZ=          -1008.3713 YYZZ=           -511.0883
 XXYZ=            -25.7243 YYXZ=             22.6528 ZZXY=             27.6057
 N-N= 1.620724138426D+03 E-N=-5.731786373065D+03  KE= 1.055907880142D+03
 1\1\GINC-CPU-E-611\FOpt\RB3LYP\6-31G(d,p)\C14H26O3Si1\KE291\06-Feb-201
 9\0\\# b3lyp/6-31g(d,p) Opt=(maxcycles=25) scrf=(solvent=chloroform)\\
 P_ng_3ginp003\\0,1\C,-0.2612660622,0.2922832389,-0.1604097481\C,-1.686
 4749707,0.0961740254,0.3747422269\C,-1.8550779281,0.9212744925,1.68074
 23475\C,-1.6095229049,2.4009887857,1.3374283765\C,-0.4172184691,2.6919
 270719,0.438818329\H,0.450424229,-0.0968236474,0.5760578015\H,-1.76403
 78548,-0.961693623,0.6519572391\H,-2.4858086779,2.7895933702,0.8062733
 672\H,-1.4913298112,3.0153742077,2.2326333312\O,0.0787519966,1.7059580
 651,-0.3378068295\O,0.0580099401,3.8046756857,0.3440592539\C,0.0302285
 233,-0.3828351838,-1.4994989479\C,1.5096679791,-0.3319282064,-1.893523
 0174\C,-2.7735018,0.4008015231,-0.6690093068\O,-3.1970329114,0.7287869
 889,2.1205433908\Si,-4.1457851212,1.237967988,3.4153184834\C,-3.885845
 9825,0.1332756773,4.9234978776\C,-3.8266081719,3.0339536963,3.90162139
 31\C,-5.9072634679,1.0423646019,2.7845072396\H,-4.5381831684,3.3268029
 924,4.6827667344\H,-2.8207061853,3.1893879442,4.3053614215\H,-3.962771
 0148,3.7175241476,3.0576247483\H,-6.1001728604,0.0125955141,2.46602894
 62\H,-6.6323787267,1.2920259609,3.5671249221\H,-6.0973898368,1.6989160
 238,1.9290523215\H,-4.5798928727,0.4254617807,5.7204041624\H,-4.079082
 6005,-0.9185125243,4.6871891473\H,-2.8712063727,0.2064722878,5.3277600
 966\H,-3.7586599484,0.3726662875,-0.2017838655\H,-2.6402663626,1.38413
 7642,-1.1313803128\H,-2.7576553844,-0.3419672734,-1.4705135968\H,-0.57
 98641365,0.0864644839,-2.2782035075\H,-0.2996888997,-1.4262018138,-1.4
 214806274\H,1.6714529605,-0.8263170387,-2.8560345155\H,1.8566069678,0.
 7011325383,-1.979975057\H,2.1352998711,-0.836707962,-1.1488414207\C,-0
 .8657677084,0.4742643538,2.7940055124\C,-0.8943274136,-0.9956962326,3.
 1111285723\C,0.1834170978,-1.7791862506,3.181491962\H,-1.1291583318,1.
 0513873888,3.6909592933\H,0.1558334312,0.7777918142,2.539625609\H,-1.8
 766174723,-1.4238242836,3.3024221483\H,0.1058775685,-2.833389607,3.430
 8307947\H,1.1849818649,-1.3937149323,3.0028817032\\Version=ES64L-G09Re
 vD.01\State=1-A\HF=-1064.4239617\RMSD=4.168e-09\RMSF=4.899e-06\Dipole=
 -0.9500353,-1.512151,0.791448\Quadrupole=0.5198737,-4.855803,4.3359292
 ,-9.5130752,1.1274234,6.4875105\PG=C01 [X(C14H26O3Si1)]\\@


 SATCHEL PAIGE'S GUIDE TO LONGEVITY

    1.  AVOID FRIED MEATS, WHICH ANGRY UP THE BLOOD.

    2.  IF YOUR STOMACH DISPUTES YOU, LIE DOWN AND PACIFY IT WITH COOL
        THOUGHTS.

    3.  KEEP THE JUICES FLOWING BY JANGLING AROUND GENTLY AS YOU MOVE.

    4.  GO VERY LIGHT ON THE VICES, SUCH AS CARRYING ON IN SOCIETY.
        THE SOCIAL RUMBLE AIN'T RESTFUL.

    5.  AVOID RUNNING AT ALL TIMES.

    6.  DON'T LOOK BACK.  SOMETHING MAY BE GAINING ON YOU.
 Job cpu time:       0 days  2 hours 20 minutes 39.0 seconds.
 File lengths (MBytes):  RWF=    368 Int=      0 D2E=      0 Chk=     17 Scr=      1
 Normal termination of Gaussian 09 at Wed Feb  6 11:21:14 2019.
