 Entering Gaussian System, Link 0=/usr/local/Cluster-Apps/gaussian/g09/g09
 Initial command:
 /usr/local/Cluster-Apps/gaussian/g09/l1.exe "/home/ke291/rds/hpc-work/06Feb0927IP1/Gau-371632.inp" -scrdir="/home/ke291/rds/hpc-work/06Feb0927IP1/"
 Entering Link 1 = /usr/local/Cluster-Apps/gaussian/g09/l1.exe PID=    371637.
  
 Copyright (c) 1988,1990,1992,1993,1995,1998,2003,2009,2013,
            Gaussian, Inc.  All Rights Reserved.
  
 This is part of the Gaussian(R) 09 program.  It is based on
 the Gaussian(R) 03 system (copyright 2003, Gaussian, Inc.),
 the Gaussian(R) 98 system (copyright 1998, Gaussian, Inc.),
 the Gaussian(R) 94 system (copyright 1995, Gaussian, Inc.),
 the Gaussian 92(TM) system (copyright 1992, Gaussian, Inc.),
 the Gaussian 90(TM) system (copyright 1990, Gaussian, Inc.),
 the Gaussian 88(TM) system (copyright 1988, Gaussian, Inc.),
 the Gaussian 86(TM) system (copyright 1986, Carnegie Mellon
 University), and the Gaussian 82(TM) system (copyright 1983,
 Carnegie Mellon University). Gaussian is a federally registered
 trademark of Gaussian, Inc.
  
 This software contains proprietary and confidential information,
 including trade secrets, belonging to Gaussian, Inc.
  
 This software is provided under written license and may be
 used, copied, transmitted, or stored only in accord with that
 written license.
  
 The following legend is applicable only to US Government
 contracts under FAR:
  
                    RESTRICTED RIGHTS LEGEND
  
 Use, reproduction and disclosure by the US Government is
 subject to restrictions as set forth in subparagraphs (a)
 and (c) of the Commercial Computer Software - Restricted
 Rights clause in FAR 52.227-19.
  
 Gaussian, Inc.
 340 Quinnipiac St., Bldg. 40, Wallingford CT 06492
  
  
 ---------------------------------------------------------------
 Warning -- This program may not be used in any manner that
 competes with the business of Gaussian, Inc. or will provide
 assistance to any competitor of Gaussian, Inc.  The licensee
 of this program is prohibited from giving any competitor of
 Gaussian, Inc. access to this program.  By using this program,
 the user acknowledges that Gaussian, Inc. is engaged in the
 business of creating and licensing software in the field of
 computational chemistry and represents and warrants to the
 licensee that it is not a competitor of Gaussian, Inc. and that
 it will not use this program in any manner prohibited above.
 ---------------------------------------------------------------
  

 Cite this work as:
 Gaussian 09, Revision D.01,
 M. J. Frisch, G. W. Trucks, H. B. Schlegel, G. E. Scuseria, 
 M. A. Robb, J. R. Cheeseman, G. Scalmani, V. Barone, B. Mennucci, 
 G. A. Petersson, H. Nakatsuji, M. Caricato, X. Li, H. P. Hratchian, 
 A. F. Izmaylov, J. Bloino, G. Zheng, J. L. Sonnenberg, M. Hada, 
 M. Ehara, K. Toyota, R. Fukuda, J. Hasegawa, M. Ishida, T. Nakajima, 
 Y. Honda, O. Kitao, H. Nakai, T. Vreven, J. A. Montgomery, Jr., 
 J. E. Peralta, F. Ogliaro, M. Bearpark, J. J. Heyd, E. Brothers, 
 K. N. Kudin, V. N. Staroverov, T. Keith, R. Kobayashi, J. Normand, 
 K. Raghavachari, A. Rendell, J. C. Burant, S. S. Iyengar, J. Tomasi, 
 M. Cossi, N. Rega, J. M. Millam, M. Klene, J. E. Knox, J. B. Cross, 
 V. Bakken, C. Adamo, J. Jaramillo, R. Gomperts, R. E. Stratmann, 
 O. Yazyev, A. J. Austin, R. Cammi, C. Pomelli, J. W. Ochterski, 
 R. L. Martin, K. Morokuma, V. G. Zakrzewski, G. A. Voth, 
 P. Salvador, J. J. Dannenberg, S. Dapprich, A. D. Daniels, 
 O. Farkas, J. B. Foresman, J. V. Ortiz, J. Cioslowski, 
 and D. J. Fox, Gaussian, Inc., Wallingford CT, 2013.
 
 ******************************************
 Gaussian 09:  ES64L-G09RevD.01 24-Apr-2013
                 6-Feb-2019 
 ******************************************
 %nprocshared=2
 Will use up to    2 processors via shared memory.
 %mem=6000MB
 %chk=/home/ke291/rds/hpc-work/06Feb0927IP1/P_ng_correct1ginp002.chk
 ---------------------------------------------------------------
 # b3lyp/6-31g(d,p) Opt=(maxcycles=25) scrf=(solvent=chloroform)
 ---------------------------------------------------------------
 1/6=25,14=-1,18=20,19=15,26=3,38=1/1,3;
 2/9=110,12=2,17=6,18=5,40=1/2;
 3/5=1,6=6,7=101,11=2,16=1,25=1,30=1,70=2201,71=1,72=7,74=-5/1,2,3;
 4//1;
 5/5=2,38=5,53=7/2;
 6/7=2,8=2,9=2,10=2,28=1/1;
 7//1,2,3,16;
 1/6=25,14=-1,18=20,19=15,26=3/3(2);
 2/9=110/2;
 99//99;
 2/9=110/2;
 3/5=1,6=6,7=101,11=2,16=1,25=1,30=1,70=2205,71=1,72=7,74=-5/1,2,3;
 4/5=5,16=3,69=1/1;
 5/5=2,38=5,53=7/2;
 7//1,2,3,16;
 1/6=25,14=-1,18=20,19=15,26=3/3(-5);
 2/9=110/2;
 6/7=2,8=2,9=2,10=2,19=2,28=1/1;
 99/9=1/99;
 --------------------
 P_ng_correct1ginp002
 --------------------
 Symbolic Z-matrix:
 Charge =  0 Multiplicity = 1
 C                     0.98061  -0.41291   0.59528 
 C                    -0.5561   -0.48864   0.63579 
 C                    -1.13131   0.5932    1.59593 
 C                    -0.61113   1.95039   1.11032 
 C                     0.88428   2.00647   1.03642 
 H                     1.38959  -0.81858   1.52878 
 H                    -0.93643  -0.25137  -0.3632 
 H                    -0.96975   2.18709   0.10274 
 H                    -0.96419   2.76235   1.75554 
 O                     1.49906   0.93304   0.49552 
 O                     1.51245   3.01978   1.32366 
 C                     1.63493  -1.22561  -0.53818 
 C                     1.23935  -0.78199  -1.94107 
 C                    -1.04065  -1.91083   0.95101 
 O                    -2.57171   0.47901   1.63991 
 Si                   -3.71929   1.1239    0.61037 
 C                    -3.90684   2.97775   0.85248 
 C                    -3.3679    0.77415  -1.19887 
 C                    -5.39403   0.33929   1.01158 
 H                    -2.45427   1.27384  -1.53174 
 H                    -3.25589  -0.30062  -1.36974 
 H                    -4.19216   1.13204  -1.82335 
 H                    -6.17286   0.74608   0.36018 
 H                    -5.34942  -0.74407   0.86733 
 H                    -5.66838   0.54085   2.05106 
 H                    -4.04911   3.21317   1.91132 
 H                    -3.02601   3.51745   0.49519 
 H                    -4.77531   3.34875   0.29985 
 H                    -0.77095  -2.6018    0.14601 
 H                    -0.59798  -2.29228   1.87645 
 H                    -2.12921  -1.95481   1.0514 
 H                     1.41871  -2.29265  -0.42057 
 H                     2.72403  -1.11536  -0.45577 
 H                     1.83111  -1.32634  -2.68436 
 H                     0.18554  -0.99088  -2.14589 
 H                     1.41714   0.28751  -2.08878 
 C                    -0.68403   0.33657   3.07782 
 C                    -1.16461   1.37874   4.05772 
 C                    -0.35682   2.17962   4.76409 
 H                     0.40505   0.25197   3.15374 
 H                    -1.09745  -0.61958   3.4229 
 H                    -2.24214   1.46106   4.19091 
 H                    -0.76644   2.90841   5.45734 
 H                     0.72416   2.13847   4.66712 
 

 GradGradGradGradGradGradGradGradGradGradGradGradGradGradGradGradGradGrad
 Berny optimization.
 Initialization pass.
                           ----------------------------
                           !    Initial Parameters    !
                           ! (Angstroms and Degrees)  !
 --------------------------                            --------------------------
 ! Name  Definition              Value          Derivative Info.                !
 --------------------------------------------------------------------------------
 ! R1    R(1,2)                  1.5391         estimate D2E/DX2                !
 ! R2    R(1,6)                  1.0969         estimate D2E/DX2                !
 ! R3    R(1,10)                 1.4458         estimate D2E/DX2                !
 ! R4    R(1,12)                 1.5406         estimate D2E/DX2                !
 ! R5    R(2,3)                  1.5566         estimate D2E/DX2                !
 ! R6    R(2,7)                  1.095          estimate D2E/DX2                !
 ! R7    R(2,14)                 1.5352         estimate D2E/DX2                !
 ! R8    R(3,4)                  1.5324         estimate D2E/DX2                !
 ! R9    R(3,15)                 1.4456         estimate D2E/DX2                !
 ! R10   R(3,37)                 1.5691         estimate D2E/DX2                !
 ! R11   R(4,5)                  1.4983         estimate D2E/DX2                !
 ! R12   R(4,8)                  1.0954         estimate D2E/DX2                !
 ! R13   R(4,9)                  1.0956         estimate D2E/DX2                !
 ! R14   R(5,10)                 1.3501         estimate D2E/DX2                !
 ! R15   R(5,11)                 1.2263         estimate D2E/DX2                !
 ! R16   R(12,13)                1.5236         estimate D2E/DX2                !
 ! R17   R(12,32)                1.0951         estimate D2E/DX2                !
 ! R18   R(12,33)                1.0978         estimate D2E/DX2                !
 ! R19   R(13,34)                1.095          estimate D2E/DX2                !
 ! R20   R(13,35)                1.0937         estimate D2E/DX2                !
 ! R21   R(13,36)                1.0942         estimate D2E/DX2                !
 ! R22   R(14,29)                1.0946         estimate D2E/DX2                !
 ! R23   R(14,30)                1.0945         estimate D2E/DX2                !
 ! R24   R(14,31)                1.0941         estimate D2E/DX2                !
 ! R25   R(15,16)                1.6712         estimate D2E/DX2                !
 ! R26   R(16,17)                1.879          estimate D2E/DX2                !
 ! R27   R(16,18)                1.8759         estimate D2E/DX2                !
 ! R28   R(16,19)                1.8924         estimate D2E/DX2                !
 ! R29   R(17,26)                1.094          estimate D2E/DX2                !
 ! R30   R(17,27)                1.0931         estimate D2E/DX2                !
 ! R31   R(17,28)                1.0942         estimate D2E/DX2                !
 ! R32   R(18,20)                1.0933         estimate D2E/DX2                !
 ! R33   R(18,21)                1.094          estimate D2E/DX2                !
 ! R34   R(18,22)                1.0943         estimate D2E/DX2                !
 ! R35   R(19,23)                1.0938         estimate D2E/DX2                !
 ! R36   R(19,24)                1.0938         estimate D2E/DX2                !
 ! R37   R(19,25)                1.0938         estimate D2E/DX2                !
 ! R38   R(37,38)                1.5091         estimate D2E/DX2                !
 ! R39   R(37,40)                1.095          estimate D2E/DX2                !
 ! R40   R(37,41)                1.0974         estimate D2E/DX2                !
 ! R41   R(38,39)                1.339          estimate D2E/DX2                !
 ! R42   R(38,42)                1.0888         estimate D2E/DX2                !
 ! R43   R(39,43)                1.0861         estimate D2E/DX2                !
 ! R44   R(39,44)                1.0861         estimate D2E/DX2                !
 ! A1    A(2,1,6)              109.3697         estimate D2E/DX2                !
 ! A2    A(2,1,10)             113.9318         estimate D2E/DX2                !
 ! A3    A(2,1,12)             114.6755         estimate D2E/DX2                !
 ! A4    A(6,1,10)             105.6229         estimate D2E/DX2                !
 ! A5    A(6,1,12)             105.8237         estimate D2E/DX2                !
 ! A6    A(10,1,12)            106.7402         estimate D2E/DX2                !
 ! A7    A(1,2,3)              110.5481         estimate D2E/DX2                !
 ! A8    A(1,2,7)              108.1881         estimate D2E/DX2                !
 ! A9    A(1,2,14)             111.477          estimate D2E/DX2                !
 ! A10   A(3,2,7)              106.4867         estimate D2E/DX2                !
 ! A11   A(3,2,14)             113.6124         estimate D2E/DX2                !
 ! A12   A(7,2,14)             106.1669         estimate D2E/DX2                !
 ! A13   A(2,3,4)              107.1341         estimate D2E/DX2                !
 ! A14   A(2,3,15)             109.3944         estimate D2E/DX2                !
 ! A15   A(2,3,37)             111.3174         estimate D2E/DX2                !
 ! A16   A(4,3,15)             114.6979         estimate D2E/DX2                !
 ! A17   A(4,3,37)             110.3263         estimate D2E/DX2                !
 ! A18   A(15,3,37)            104.0277         estimate D2E/DX2                !
 ! A19   A(3,4,5)              112.8042         estimate D2E/DX2                !
 ! A20   A(3,4,8)              111.8227         estimate D2E/DX2                !
 ! A21   A(3,4,9)              111.1224         estimate D2E/DX2                !
 ! A22   A(5,4,8)              105.8609         estimate D2E/DX2                !
 ! A23   A(5,4,9)              108.8416         estimate D2E/DX2                !
 ! A24   A(8,4,9)              106.0259         estimate D2E/DX2                !
 ! A25   A(4,5,10)             116.39           estimate D2E/DX2                !
 ! A26   A(4,5,11)             122.0479         estimate D2E/DX2                !
 ! A27   A(10,5,11)            121.1684         estimate D2E/DX2                !
 ! A28   A(1,10,5)             123.3152         estimate D2E/DX2                !
 ! A29   A(1,12,13)            114.4298         estimate D2E/DX2                !
 ! A30   A(1,12,32)            110.5577         estimate D2E/DX2                !
 ! A31   A(1,12,33)            108.2501         estimate D2E/DX2                !
 ! A32   A(13,12,32)           109.3495         estimate D2E/DX2                !
 ! A33   A(13,12,33)           107.3054         estimate D2E/DX2                !
 ! A34   A(32,12,33)           106.6006         estimate D2E/DX2                !
 ! A35   A(12,13,34)           109.8753         estimate D2E/DX2                !
 ! A36   A(12,13,35)           111.531          estimate D2E/DX2                !
 ! A37   A(12,13,36)           111.5123         estimate D2E/DX2                !
 ! A38   A(34,13,35)           107.377          estimate D2E/DX2                !
 ! A39   A(34,13,36)           107.8466         estimate D2E/DX2                !
 ! A40   A(35,13,36)           108.54           estimate D2E/DX2                !
 ! A41   A(2,14,29)            110.8552         estimate D2E/DX2                !
 ! A42   A(2,14,30)            111.6429         estimate D2E/DX2                !
 ! A43   A(2,14,31)            111.7236         estimate D2E/DX2                !
 ! A44   A(29,14,30)           107.5882         estimate D2E/DX2                !
 ! A45   A(29,14,31)           106.6934         estimate D2E/DX2                !
 ! A46   A(30,14,31)           108.1092         estimate D2E/DX2                !
 ! A47   A(3,15,16)            129.4204         estimate D2E/DX2                !
 ! A48   A(15,16,17)           111.7093         estimate D2E/DX2                !
 ! A49   A(15,16,18)           113.1778         estimate D2E/DX2                !
 ! A50   A(15,16,19)           108.4876         estimate D2E/DX2                !
 ! A51   A(17,16,18)           109.0815         estimate D2E/DX2                !
 ! A52   A(17,16,19)           107.0621         estimate D2E/DX2                !
 ! A53   A(18,16,19)           107.0337         estimate D2E/DX2                !
 ! A54   A(16,17,26)           110.4883         estimate D2E/DX2                !
 ! A55   A(16,17,27)           111.3824         estimate D2E/DX2                !
 ! A56   A(16,17,28)           110.4065         estimate D2E/DX2                !
 ! A57   A(26,17,27)           108.3556         estimate D2E/DX2                !
 ! A58   A(26,17,28)           108.2185         estimate D2E/DX2                !
 ! A59   A(27,17,28)           107.8837         estimate D2E/DX2                !
 ! A60   A(16,18,20)           111.4056         estimate D2E/DX2                !
 ! A61   A(16,18,21)           110.6691         estimate D2E/DX2                !
 ! A62   A(16,18,22)           110.3843         estimate D2E/DX2                !
 ! A63   A(20,18,21)           108.4155         estimate D2E/DX2                !
 ! A64   A(20,18,22)           107.833          estimate D2E/DX2                !
 ! A65   A(21,18,22)           108.0162         estimate D2E/DX2                !
 ! A66   A(16,19,23)           110.4678         estimate D2E/DX2                !
 ! A67   A(16,19,24)           110.2789         estimate D2E/DX2                !
 ! A68   A(16,19,25)           110.3068         estimate D2E/DX2                !
 ! A69   A(23,19,24)           108.593          estimate D2E/DX2                !
 ! A70   A(23,19,25)           108.592          estimate D2E/DX2                !
 ! A71   A(24,19,25)           108.5461         estimate D2E/DX2                !
 ! A72   A(3,37,38)            114.1756         estimate D2E/DX2                !
 ! A73   A(3,37,40)            111.2012         estimate D2E/DX2                !
 ! A74   A(3,37,41)            109.3964         estimate D2E/DX2                !
 ! A75   A(38,37,40)           108.9709         estimate D2E/DX2                !
 ! A76   A(38,37,41)           106.1146         estimate D2E/DX2                !
 ! A77   A(40,37,41)           106.5934         estimate D2E/DX2                !
 ! A78   A(37,38,39)           124.2978         estimate D2E/DX2                !
 ! A79   A(37,38,42)           116.5384         estimate D2E/DX2                !
 ! A80   A(39,38,42)           119.1609         estimate D2E/DX2                !
 ! A81   A(38,39,43)           120.7021         estimate D2E/DX2                !
 ! A82   A(38,39,44)           122.0514         estimate D2E/DX2                !
 ! A83   A(43,39,44)           117.2446         estimate D2E/DX2                !
 ! D1    D(6,1,2,3)             73.7951         estimate D2E/DX2                !
 ! D2    D(6,1,2,7)           -169.9625         estimate D2E/DX2                !
 ! D3    D(6,1,2,14)           -53.5894         estimate D2E/DX2                !
 ! D4    D(10,1,2,3)           -44.1312         estimate D2E/DX2                !
 ! D5    D(10,1,2,7)            72.1111         estimate D2E/DX2                !
 ! D6    D(10,1,2,14)         -171.5157         estimate D2E/DX2                !
 ! D7    D(12,1,2,3)          -167.5455         estimate D2E/DX2                !
 ! D8    D(12,1,2,7)           -51.3031         estimate D2E/DX2                !
 ! D9    D(12,1,2,14)           65.07           estimate D2E/DX2                !
 ! D10   D(2,1,10,5)            31.8416         estimate D2E/DX2                !
 ! D11   D(6,1,10,5)           -88.2167         estimate D2E/DX2                !
 ! D12   D(12,1,10,5)          159.4634         estimate D2E/DX2                !
 ! D13   D(2,1,12,13)           61.6133         estimate D2E/DX2                !
 ! D14   D(2,1,12,32)          -62.3746         estimate D2E/DX2                !
 ! D15   D(2,1,12,33)         -178.7953         estimate D2E/DX2                !
 ! D16   D(6,1,12,13)         -177.7509         estimate D2E/DX2                !
 ! D17   D(6,1,12,32)           58.2611         estimate D2E/DX2                !
 ! D18   D(6,1,12,33)          -58.1596         estimate D2E/DX2                !
 ! D19   D(10,1,12,13)         -65.5692         estimate D2E/DX2                !
 ! D20   D(10,1,12,32)         170.4428         estimate D2E/DX2                !
 ! D21   D(10,1,12,33)          54.0221         estimate D2E/DX2                !
 ! D22   D(1,2,3,4)             56.4724         estimate D2E/DX2                !
 ! D23   D(1,2,3,15)          -178.6325         estimate D2E/DX2                !
 ! D24   D(1,2,3,37)           -64.2248         estimate D2E/DX2                !
 ! D25   D(7,2,3,4)            -60.8229         estimate D2E/DX2                !
 ! D26   D(7,2,3,15)            64.0722         estimate D2E/DX2                !
 ! D27   D(7,2,3,37)           178.4799         estimate D2E/DX2                !
 ! D28   D(14,2,3,4)          -177.3285         estimate D2E/DX2                !
 ! D29   D(14,2,3,15)          -52.4334         estimate D2E/DX2                !
 ! D30   D(14,2,3,37)           61.9743         estimate D2E/DX2                !
 ! D31   D(1,2,14,29)          -65.2078         estimate D2E/DX2                !
 ! D32   D(1,2,14,30)           54.7294         estimate D2E/DX2                !
 ! D33   D(1,2,14,31)          175.9319         estimate D2E/DX2                !
 ! D34   D(3,2,14,29)          169.085          estimate D2E/DX2                !
 ! D35   D(3,2,14,30)          -70.9777         estimate D2E/DX2                !
 ! D36   D(3,2,14,31)           50.2247         estimate D2E/DX2                !
 ! D37   D(7,2,14,29)           52.3923         estimate D2E/DX2                !
 ! D38   D(7,2,14,30)          172.3296         estimate D2E/DX2                !
 ! D39   D(7,2,14,31)          -66.468          estimate D2E/DX2                !
 ! D40   D(2,3,4,5)            -56.4064         estimate D2E/DX2                !
 ! D41   D(2,3,4,8)             62.7847         estimate D2E/DX2                !
 ! D42   D(2,3,4,9)           -178.9539         estimate D2E/DX2                !
 ! D43   D(15,3,4,5)          -178.0251         estimate D2E/DX2                !
 ! D44   D(15,3,4,8)           -58.834          estimate D2E/DX2                !
 ! D45   D(15,3,4,9)            59.4274         estimate D2E/DX2                !
 ! D46   D(37,3,4,5)            64.9179         estimate D2E/DX2                !
 ! D47   D(37,3,4,8)          -175.891          estimate D2E/DX2                !
 ! D48   D(37,3,4,9)           -57.6296         estimate D2E/DX2                !
 ! D49   D(2,3,15,16)          -84.5733         estimate D2E/DX2                !
 ! D50   D(4,3,15,16)           35.8037         estimate D2E/DX2                !
 ! D51   D(37,3,15,16)         156.4007         estimate D2E/DX2                !
 ! D52   D(2,3,37,38)          177.8497         estimate D2E/DX2                !
 ! D53   D(2,3,37,40)           54.0465         estimate D2E/DX2                !
 ! D54   D(2,3,37,41)          -63.4255         estimate D2E/DX2                !
 ! D55   D(4,3,37,38)           59.0465         estimate D2E/DX2                !
 ! D56   D(4,3,37,40)          -64.7567         estimate D2E/DX2                !
 ! D57   D(4,3,37,41)          177.7713         estimate D2E/DX2                !
 ! D58   D(15,3,37,38)         -64.4459         estimate D2E/DX2                !
 ! D59   D(15,3,37,40)         171.751          estimate D2E/DX2                !
 ! D60   D(15,3,37,41)          54.279          estimate D2E/DX2                !
 ! D61   D(3,4,5,10)            43.9111         estimate D2E/DX2                !
 ! D62   D(3,4,5,11)          -143.2161         estimate D2E/DX2                !
 ! D63   D(8,4,5,10)           -78.6824         estimate D2E/DX2                !
 ! D64   D(8,4,5,11)            94.1904         estimate D2E/DX2                !
 ! D65   D(9,4,5,10)           167.7269         estimate D2E/DX2                !
 ! D66   D(9,4,5,11)           -19.4003         estimate D2E/DX2                !
 ! D67   D(4,5,10,1)           -31.2039         estimate D2E/DX2                !
 ! D68   D(11,5,10,1)          155.856          estimate D2E/DX2                !
 ! D69   D(1,12,13,34)         173.4333         estimate D2E/DX2                !
 ! D70   D(1,12,13,35)         -67.6182         estimate D2E/DX2                !
 ! D71   D(1,12,13,36)          53.9103         estimate D2E/DX2                !
 ! D72   D(32,12,13,34)        -61.9359         estimate D2E/DX2                !
 ! D73   D(32,12,13,35)         57.0126         estimate D2E/DX2                !
 ! D74   D(32,12,13,36)        178.5411         estimate D2E/DX2                !
 ! D75   D(33,12,13,34)         53.3142         estimate D2E/DX2                !
 ! D76   D(33,12,13,35)        172.2627         estimate D2E/DX2                !
 ! D77   D(33,12,13,36)        -66.2088         estimate D2E/DX2                !
 ! D78   D(3,15,16,17)         -73.0329         estimate D2E/DX2                !
 ! D79   D(3,15,16,18)          50.5554         estimate D2E/DX2                !
 ! D80   D(3,15,16,19)         169.1849         estimate D2E/DX2                !
 ! D81   D(15,16,17,26)        -50.5163         estimate D2E/DX2                !
 ! D82   D(15,16,17,27)         69.9698         estimate D2E/DX2                !
 ! D83   D(15,16,17,28)       -170.1933         estimate D2E/DX2                !
 ! D84   D(18,16,17,26)       -176.3889         estimate D2E/DX2                !
 ! D85   D(18,16,17,27)        -55.9028         estimate D2E/DX2                !
 ! D86   D(18,16,17,28)         63.9341         estimate D2E/DX2                !
 ! D87   D(19,16,17,26)         68.1179         estimate D2E/DX2                !
 ! D88   D(19,16,17,27)       -171.396          estimate D2E/DX2                !
 ! D89   D(19,16,17,28)        -51.5591         estimate D2E/DX2                !
 ! D90   D(15,16,18,20)        -65.5999         estimate D2E/DX2                !
 ! D91   D(15,16,18,21)         55.1            estimate D2E/DX2                !
 ! D92   D(15,16,18,22)        174.6266         estimate D2E/DX2                !
 ! D93   D(17,16,18,20)         59.4206         estimate D2E/DX2                !
 ! D94   D(17,16,18,21)       -179.8795         estimate D2E/DX2                !
 ! D95   D(17,16,18,22)        -60.3529         estimate D2E/DX2                !
 ! D96   D(19,16,18,20)        174.9321         estimate D2E/DX2                !
 ! D97   D(19,16,18,21)        -64.368          estimate D2E/DX2                !
 ! D98   D(19,16,18,22)         55.1586         estimate D2E/DX2                !
 ! D99   D(15,16,19,23)        179.5105         estimate D2E/DX2                !
 ! D100  D(15,16,19,24)        -60.4412         estimate D2E/DX2                !
 ! D101  D(15,16,19,25)         59.4455         estimate D2E/DX2                !
 ! D102  D(17,16,19,23)         58.8066         estimate D2E/DX2                !
 ! D103  D(17,16,19,24)        178.8549         estimate D2E/DX2                !
 ! D104  D(17,16,19,25)        -61.2584         estimate D2E/DX2                !
 ! D105  D(18,16,19,23)        -58.0451         estimate D2E/DX2                !
 ! D106  D(18,16,19,24)         62.0032         estimate D2E/DX2                !
 ! D107  D(18,16,19,25)       -178.1102         estimate D2E/DX2                !
 ! D108  D(3,37,38,39)        -116.9544         estimate D2E/DX2                !
 ! D109  D(3,37,38,42)          63.6763         estimate D2E/DX2                !
 ! D110  D(40,37,38,39)          8.04           estimate D2E/DX2                !
 ! D111  D(40,37,38,42)       -171.3292         estimate D2E/DX2                !
 ! D112  D(41,37,38,39)        122.4741         estimate D2E/DX2                !
 ! D113  D(41,37,38,42)        -56.8951         estimate D2E/DX2                !
 ! D114  D(37,38,39,43)       -179.7705         estimate D2E/DX2                !
 ! D115  D(37,38,39,44)          0.7411         estimate D2E/DX2                !
 ! D116  D(42,38,39,43)         -0.4167         estimate D2E/DX2                !
 ! D117  D(42,38,39,44)       -179.9051         estimate D2E/DX2                !
 --------------------------------------------------------------------------------
 Trust Radius=3.00D-01 FncErr=1.00D-07 GrdErr=1.00D-06
 Number of steps in this run=     25 maximum allowed number of steps=    264.
 GradGradGradGradGradGradGradGradGradGradGradGradGradGradGradGradGradGrad

                          Input orientation:                          
 ---------------------------------------------------------------------
 Center     Atomic      Atomic             Coordinates (Angstroms)
 Number     Number       Type             X           Y           Z
 ---------------------------------------------------------------------
      1          6           0        0.980612   -0.412911    0.595280
      2          6           0       -0.556095   -0.488637    0.635792
      3          6           0       -1.131314    0.593196    1.595931
      4          6           0       -0.611125    1.950386    1.110319
      5          6           0        0.884282    2.006473    1.036415
      6          1           0        1.389589   -0.818577    1.528777
      7          1           0       -0.936433   -0.251372   -0.363196
      8          1           0       -0.969745    2.187092    0.102737
      9          1           0       -0.964186    2.762350    1.755539
     10          8           0        1.499056    0.933038    0.495524
     11          8           0        1.512450    3.019778    1.323658
     12          6           0        1.634934   -1.225605   -0.538178
     13          6           0        1.239350   -0.781991   -1.941072
     14          6           0       -1.040653   -1.910831    0.951009
     15          8           0       -2.571708    0.479005    1.639913
     16         14           0       -3.719290    1.123897    0.610374
     17          6           0       -3.906842    2.977746    0.852482
     18          6           0       -3.367901    0.774148   -1.198873
     19          6           0       -5.394025    0.339286    1.011581
     20          1           0       -2.454265    1.273836   -1.531738
     21          1           0       -3.255894   -0.300618   -1.369744
     22          1           0       -4.192160    1.132039   -1.823352
     23          1           0       -6.172862    0.746081    0.360177
     24          1           0       -5.349424   -0.744071    0.867328
     25          1           0       -5.668382    0.540847    2.051059
     26          1           0       -4.049114    3.213173    1.911322
     27          1           0       -3.026005    3.517448    0.495186
     28          1           0       -4.775306    3.348753    0.299850
     29          1           0       -0.770952   -2.601800    0.146005
     30          1           0       -0.597978   -2.292281    1.876446
     31          1           0       -2.129211   -1.954814    1.051397
     32          1           0        1.418707   -2.292645   -0.420573
     33          1           0        2.724032   -1.115355   -0.455772
     34          1           0        1.831107   -1.326344   -2.684363
     35          1           0        0.185538   -0.990875   -2.145891
     36          1           0        1.417139    0.287508   -2.088782
     37          6           0       -0.684026    0.336574    3.077822
     38          6           0       -1.164613    1.378740    4.057717
     39          6           0       -0.356823    2.179616    4.764094
     40          1           0        0.405049    0.251968    3.153738
     41          1           0       -1.097448   -0.619578    3.422904
     42          1           0       -2.242143    1.461060    4.190906
     43          1           0       -0.766435    2.908406    5.457341
     44          1           0        0.724161    2.138473    4.667123
 ---------------------------------------------------------------------
                    Distance matrix (angstroms):
                    1          2          3          4          5
     1  C    0.000000
     2  C    1.539105   0.000000
     3  C    2.544363   1.556633   0.000000
     4  C    2.895525   2.485365   1.532443   0.000000
     5  C    2.461158   2.908738   2.524488   1.498282   0.000000
     6  H    1.096925   2.166095   2.890080   3.441674   2.911814
     7  H    2.149380   1.094956   2.142301   2.669234   3.220525
     8  H    3.287325   2.759489   2.190031   1.095381   2.083697
     9  H    3.900093   3.462555   2.181430   1.095558   2.122575
    10  O    1.445792   2.502894   2.871452   2.421948   1.350101
    11  O    3.549189   4.130498   3.598878   2.387192   1.226332
    12  C    1.540563   2.592670   3.938856   4.224836   3.672758
    13  C    2.576091   3.154347   4.474548   4.494567   4.094757
    14  C    2.540831   1.535185   2.587334   3.888299   4.365540
    15  O    3.808641   2.450976   1.445583   2.507851   3.826387
    16  Si   4.944804   3.550594   2.819678   3.254799   4.706732
    17  C    5.953983   4.825999   3.733946   3.461748   4.892042
    18  C    4.851563   3.587043   3.584131   3.783612   4.959455
    19  C    6.432348   4.922625   4.310063   5.047923   6.495942
    20  H    4.378093   3.377506   3.463493   3.291709   4.275285
    21  H    4.671393   3.368448   3.756058   4.267615   5.315386
    22  H    5.915591   4.679204   4.620674   4.701056   5.891788
    23  H    7.250567   5.757479   5.193040   5.739859   7.200637
    24  H    6.344528   4.805711   4.484596   5.456246   6.815656
    25  H    6.872996   5.403545   4.560139   5.333633   6.790800
    26  H    6.338659   5.247052   3.934121   3.749134   5.153638
    27  H    5.613441   4.708391   3.654141   2.943759   4.226857
    28  H    6.882440   5.713157   4.748852   4.466844   5.863035
    29  H    2.839201   2.179796   3.527059   4.655947   4.976827
    30  H    2.768639   2.189545   2.947730   4.311305   4.624071
    31  H    3.500929   2.190227   2.790102   4.190304   4.977264
    32  H    2.181120   2.875795   4.347065   4.946429   4.570650
    33  H    2.153521   3.513335   4.689597   4.793191   3.918815
    34  H    3.509097   4.174196   5.548107   5.576833   5.084126
    35  H    2.912079   2.922332   4.271371   4.459663   4.427122
    36  H    2.808083   3.452442   4.490564   4.136818   3.606332
    37  C    3.081519   2.580862   1.569051   2.545736   3.068468
    38  C    4.449772   3.945499   2.584295   3.052914   3.704090
    39  C    5.088117   4.919569   3.626820   3.669780   3.932672
    40  H    2.705373   2.795057   2.214410   2.844784   2.791238
    41  H    3.515182   2.842218   2.193125   3.491314   4.064324
    42  H    5.179425   4.391231   2.953138   3.519897   4.474687
    43  H    6.141902   5.901820   4.517059   4.454046   4.804470
    44  H    4.811988   4.979196   3.906775   3.803843   3.636634
                    6          7          8          9         10
     6  H    0.000000
     7  H    3.051502   0.000000
     8  H    4.078492   2.482803   0.000000
     9  H    4.291237   3.684064   1.750059   0.000000
    10  O    2.036603   2.841097   2.796768   3.316863   0.000000
    11  O    3.845795   4.420738   2.888824   2.527156   2.245099
    12  C    2.120889   2.755300   4.340694   5.283971   2.397236
    13  C    3.473293   2.739577   4.227613   5.575200   2.990948
    14  C    2.726337   2.119387   4.185399   4.742545   3.839945
    15  O    4.169885   2.687010   2.801206   2.794845   4.252869
    16  Si   5.542320   3.253229   2.991334   3.403899   5.223098
    17  C    6.551460   4.552846   3.132697   3.085633   5.790681
    18  C    5.710566   2.768047   3.072743   4.296434   5.155919
    19  C    6.901127   4.702022   4.880024   5.103742   6.937825
    20  H    5.340427   2.448584   2.389424   3.904126   4.455859
    21  H    5.500020   2.528925   3.685564   4.939746   5.254587
    22  H    6.796881   3.826962   3.899604   5.087847   6.148717
    23  H    7.810534   5.379440   5.405110   5.756968   7.675389
    24  H    6.771806   4.607758   5.325214   5.684560   7.060638
    25  H    7.206647   5.370994   5.346332   5.210745   7.344772
    26  H    6.780917   5.183173   3.715688   3.121585   6.163253
    27  H    6.274304   4.393989   2.480336   2.531750   5.211080
    28  H    7.542071   5.304477   3.983793   4.121594   6.726187
    29  H    3.124081   2.410639   4.793212   5.603753   4.215469
    30  H    2.498620   3.048911   4.832084   5.069322   4.087442
    31  H    3.728388   2.515056   4.404509   4.909657   4.670440
    32  H    2.444113   3.117174   5.103587   5.997217   3.354209
    33  H    2.409824   3.762186   4.986189   5.790462   2.569328
    34  H    4.266534   3.768641   5.287431   6.651602   3.914939
    35  H    3.870738   2.232417   4.060847   5.534412   3.521909
    36  H    3.782977   2.967716   3.756114   5.155032   2.664968
    37  C    2.834395   3.499999   3.515279   2.776925   3.433639
    38  C    4.212800   4.717394   4.041444   2.693431   4.470235
    39  C    4.744090   5.703924   4.701487   3.124079   4.818603
    40  H    2.180799   3.797598   3.865666   3.183046   2.954117
    41  H    3.132518   3.807368   4.349392   3.772970   4.209751
    42  H    5.047094   5.037574   4.342723   3.042621   5.285000
    43  H    5.828590   6.625085   5.406793   3.709956   5.801220
    44  H    4.363044   5.811458   4.868809   3.423019   4.410870
                   11         12         13         14         15
    11  O    0.000000
    12  C    4.637317   0.000000
    13  C    5.018615   1.523611   0.000000
    14  C    5.564900   3.137830   3.851860   0.000000
    15  O    4.820362   5.034443   5.379380   2.920622   0.000000
    16  Si   5.610191   5.958779   5.893250   4.062106   1.671161
    17  C    5.439899   7.093192   6.958653   5.667710   2.940465
    18  C    5.934968   5.428065   4.919267   4.152973   2.963062
    19  C    7.414973   7.365928   7.346910   4.900872   2.894788
    20  H    5.190032   4.894478   4.246972   4.278368   3.271837
    21  H    6.404416   5.046514   4.556902   3.589704   3.183388
    22  H    6.783053   6.416010   5.760093   5.185377   3.878985
    23  H    8.072299   8.102855   7.910224   5.809289   3.831105
    24  H    7.839650   7.140629   7.162436   4.464733   3.131854
    25  H    7.631419   7.947511   8.087260   5.351328   3.124461
    26  H    5.595869   7.616509   7.666168   6.019008   3.119626
    27  H    4.640217   6.729691   6.527923   5.797897   3.278555
    28  H    6.379050   7.919483   7.632880   6.483430   3.858376
    29  H    6.180852   2.854874   3.421828   1.094627   3.868571
    30  H    5.742600   3.457471   4.497799   1.094486   3.410511
    31  H    6.171093   4.150576   4.655920   1.094062   2.542760
    32  H    5.592224   1.095061   2.150851   2.841737   5.277410
    33  H    4.661934   1.097761   2.126389   4.096910   5.914283
    34  H    5.920688   2.157485   1.094979   4.669535   6.429886
    35  H    5.466608   2.177289   1.093665   3.455525   4.908693
    36  H    4.372543   2.177457   1.094192   4.484837   5.463583
    37  C    3.886024   4.570934   5.489978   3.114698   2.377228
    38  C    4.163502   5.978489   6.814196   4.526398   2.938574
    39  C    4.004579   6.608836   7.501875   5.633737   4.190263
    40  H    3.498043   4.162461   5.265189   3.408778   3.347282
    41  H    4.946040   4.850088   5.853139   2.789413   2.561129
    42  H    4.974704   6.679381   7.399542   4.828060   2.753291
    43  H    4.721552   7.668303   8.507568   6.603580   4.871730
    44  H    3.546386   6.264319   7.243119   5.772429   4.772901
                   16         17         18         19         20
    16  Si   0.000000
    17  C    1.878975   0.000000
    18  C    1.875946   3.058490   0.000000
    19  C    1.892437   3.032902   3.029916   0.000000
    20  H    2.492271   3.270748   1.093260   3.998005   0.000000
    21  H    2.482911   4.013688   1.094013   3.263708   1.774192
    22  H    2.479253   3.263147   1.094286   3.179588   1.767887
    23  H    2.495067   3.218313   3.209241   1.093799   4.205453
    24  H    2.492522   3.991639   3.240464   1.093828   4.267249
    25  H    2.492886   3.236987   3.988571   1.093807   4.868702
    26  H    2.483208   1.093988   4.010761   3.298112   4.261365
    27  H    2.494594   1.093075   3.242287   3.996861   3.077191
    28  H    2.482253   1.094202   3.294776   3.153770   3.612094
    29  H    4.773799   6.439274   4.466527   5.547253   4.546308
    30  H    4.797478   6.306367   5.151024   5.538520   5.270551
    31  H    3.493038   5.246874   3.747706   3.990425   4.147581
    32  H    6.255767   7.599945   5.737821   7.442543   5.380928
    33  H    6.904152   7.901487   6.421376   8.376870   5.803507
    34  H    6.904048   7.997407   5.800727   8.284736   5.143335
    35  H    5.226561   6.441100   4.079103   6.547555   3.531948
    36  H    5.862414   6.650804   4.891356   7.483775   4.033722
    37  C    3.990113   4.723819   5.068015   5.143292   5.025958
    38  C    4.298313   4.511116   5.731644   5.314822   5.737265
    39  C    5.447395   5.342317   6.826339   6.545347   6.697552
    40  H    4.923325   5.596253   5.783861   6.182695   5.583330
    41  H    4.221858   5.238368   5.334628   5.019410   5.474892
    42  H    3.887911   4.026988   5.548774   4.615284   5.729634
    43  H    5.949531   5.574199   7.458409   6.912290   7.373453
    44  H    6.101707   6.058222   7.281227   7.350664   7.019677
                   21         22         23         24         25
    21  H    0.000000
    22  H    1.770554   0.000000
    23  H    3.549212   2.973204   0.000000
    24  H    3.095805   3.478334   1.776459   0.000000
    25  H    4.269667   4.188054   1.776430   1.775941   0.000000
    26  H    4.872506   4.277776   3.605953   4.294241   3.127760
    27  H    4.255401   3.525012   4.195404   4.867988   4.273529
    28  H    4.291161   3.124399   2.954776   4.171672   3.427631
    29  H    3.710508   5.433653   6.358837   4.993383   6.122931
    30  H    4.644243   6.191334   6.527637   5.098187   5.810861
    31  H    3.141290   4.695594   4.911592   3.445222   4.444477
    32  H    5.169235   6.721464   8.214338   7.061471   8.022747
    33  H    6.103987   7.399646   9.126086   8.189575   8.914024
    34  H    5.353309   6.562372   8.810658   8.032034   9.063827
    35  H    3.594762   4.875965   7.051712   6.306838   7.364030
    36  H    4.764467   5.678725   7.988479   7.455811   8.210181
    37  C    5.177003   6.079579   6.138453   5.274468   5.093110
    38  C    6.054010   6.619205   6.257365   5.674289   5.001267
    39  C    7.223582   7.694262   7.434771   6.975586   6.185368
    40  H    5.845489   6.832297   7.163592   6.271660   6.179475
    41  H    5.265938   6.337871   6.083186   4.962436   4.911413
    42  H    5.920475   6.331044   5.535001   5.056082   4.143048
    43  H    7.943823   8.240119   7.738616   7.443964   6.421618
    44  H    7.631105   8.204230   8.249695   7.722431   7.089486
                   26         27         28         29         30
    26  H    0.000000
    27  H    1.773352   0.000000
    28  H    1.772732   1.768239   0.000000
    29  H    6.904824   6.530880   7.174092   0.000000
    30  H    6.497813   6.446406   7.194233   1.766394   0.000000
    31  H    5.579748   5.573084   5.974484   1.755902   1.771797
    32  H    8.102397   7.372331   8.408934   2.282804   3.056684
    33  H    8.379427   7.445140   8.760097   3.845331   4.226127
    34  H    8.735247   7.560647   8.625935   4.050738   5.256850
    35  H    7.215766   6.133048   7.030220   2.960193   4.299622
    36  H    7.378365   6.070497   7.309115   4.257947   5.141891
    37  C    4.578140   4.719410   5.790416   4.151765   2.891641
    38  C    4.036397   4.553074   5.571321   5.594744   4.307600
    39  C    4.779075   5.209405   6.389002   6.660344   5.328652
    40  H    5.491075   5.431702   6.676139   4.309690   3.018400
    41  H    5.068253   5.422716   6.247220   3.843679   2.332153
    42  H    3.395813   4.301339   5.012047   5.918822   4.706121
    43  H    4.841809   5.486308   6.547111   7.653279   6.316513
    44  H    5.615476   5.776710   7.126148   6.719082   5.400695
                   31         32         33         34         35
    31  H    0.000000
    32  H    3.855976   0.000000
    33  H    5.150749   1.758159   0.000000
    34  H    5.480419   2.495708   2.410072   0.000000
    35  H    4.063237   2.488380   3.052204   1.763629   0.000000
    36  H    5.240738   3.072477   2.518475   1.769351   1.776053
    37  C    3.383108   4.855208   5.119496   6.503381   5.459436
    38  C    4.591404   6.340954   6.458611   7.857955   6.776632
    39  C    5.832580   7.073500   6.898949   8.518116   7.621946
    40  H    3.963862   4.503139   4.502868   6.213544   5.447835
    41  H    2.910573   4.889019   5.467507   6.809894   5.726726
    42  H    4.640848   6.982683   7.272718   8.463469   7.215304
    43  H    6.702269   8.147125   7.958575   9.537698   8.597661
    44  H    6.161997   6.782466   6.389909   8.202111   7.516654
                   36         37         38         39         40
    36  H    0.000000
    37  C    5.577732   0.000000
    38  C    6.755419   1.509062   0.000000
    39  C    7.327273   2.519400   1.338990   0.000000
    40  H    5.339439   1.094991   2.133221   2.624790   0.000000
    41  H    6.125735   1.097372   2.097802   3.191050   1.757709
    42  H    7.362204   2.220620   1.088847   2.097451   3.089538
    43  H    8.281369   3.504743   2.111249   1.086052   3.706160
    44  H    7.039073   2.784907   2.125097   1.086104   2.439481
                   41         42         43         44
    41  H    0.000000
    42  H    2.495838   0.000000
    43  H    4.085973   2.424125   0.000000
    44  H    3.531740   3.079713   1.854486   0.000000
 Stoichiometry    C14H26O3Si
 Framework group  C1[X(C14H26O3Si)]
 Deg. of freedom   126
 Full point group                 C1      NOp   1
 Largest Abelian subgroup         C1      NOp   1
 Largest concise Abelian subgroup C1      NOp   1
                         Standard orientation:                         
 ---------------------------------------------------------------------
 Center     Atomic      Atomic             Coordinates (Angstroms)
 Number     Number       Type             X           Y           Z
 ---------------------------------------------------------------------
      1          6           0        2.357444   -0.438875    0.492297
      2          6           0        0.883928   -0.808475    0.739256
      3          6           0       -0.043607    0.399732    0.418285
      4          6           0        0.235914    0.810902   -1.031262
      5          6           0        1.678604    1.133076   -1.275596
      6          1           0        2.705236    0.224832    1.293408
      7          1           0        0.609589   -1.605190    0.040035
      8          1           0       -0.016090    0.011941   -1.736964
      9          1           0       -0.373391    1.673954   -1.321323
     10          8           0        2.582023    0.285612   -0.738555
     11          8           0        2.025088    2.034931   -2.030908
     12          6           0        3.328295   -1.635015    0.486603
     13          6           0        3.052986   -2.664864   -0.601978
     14          6           0        0.677435   -1.385293    2.146891
     15          8           0       -1.416312    0.036311    0.689050
     16         14           0       -2.515152   -0.760593   -0.285771
     17          6           0       -3.131310    0.337518   -1.680421
     18          6           0       -1.839236   -2.352813   -1.011821
     19          6           0       -4.021023   -1.224608    0.762256
     20          1           0       -1.016736   -2.157630   -1.705085
     21          1           0       -1.474455   -3.013922   -0.220156
     22          1           0       -2.622353   -2.883512   -1.561865
     23          1           0       -4.766945   -1.741965    0.152060
     24          1           0       -3.723324   -1.884042    1.582611
     25          1           0       -4.479481   -0.326703    1.186517
     26          1           0       -3.472315    1.300007   -1.287814
     27          1           0       -2.345594    0.525028   -2.416833
     28          1           0       -3.970315   -0.137525   -2.197802
     29          1           0        1.203183   -2.338916    2.258249
     30          1           0        1.053705   -0.707956    2.919894
     31          1           0       -0.378791   -1.582847    2.352633
     32          1           0        3.332800   -2.131261    1.462758
     33          1           0        4.344362   -1.252322    0.324631
     34          1           0        3.849199   -3.416459   -0.613334
     35          1           0        2.109948   -3.190656   -0.427837
     36          1           0        3.015175   -2.201413   -1.592452
     37          6           0        0.229876    1.602286    1.388334
     38          6           0       -0.600561    2.829144    1.101175
     39          6           0       -0.095253    4.012656    0.731231
     40          1           0        1.288911    1.880569    1.385306
     41          1           0       -0.012811    1.303928    2.416104
     42          1           0       -1.678129    2.725554    1.218231
     43          1           0       -0.748150    4.859778    0.542504
     44          1           0        0.971538    4.167978    0.599112
 ---------------------------------------------------------------------
 Rotational constants (GHZ):      0.4406716      0.3105581      0.2437844
 Standard basis: 6-31G(d,p) (6D, 7F)
 There are   404 symmetry adapted cartesian basis functions of A   symmetry.
 There are   404 symmetry adapted basis functions of A   symmetry.
   404 basis functions,   710 primitive gaussians,   404 cartesian basis functions
    74 alpha electrons       74 beta electrons
       nuclear repulsion energy      1640.9671556774 Hartrees.
 NAtoms=   44 NActive=   44 NUniq=   44 SFac= 1.00D+00 NAtFMM=   60 NAOKFM=F Big=F
 Integral buffers will be    131072 words long.
 Raffenetti 2 integral format.
 Two-electron integral symmetry is turned on.
 ------------------------------------------------------------------------------
 Polarizable Continuum Model (PCM)
 =================================
 Model                : PCM (using non-symmetric T matrix).
 Atomic radii         : UFF (Universal Force Field).
 Polarization charges : Total charges.
 Charge compensation  : None.
 Solution method      : On-the-fly selection.
 Cavity type          : Scaled VdW (van der Waals Surface) (Alpha=1.100).
 Cavity algorithm     : GePol (No added spheres)
                        Default sphere list used, NSphG=   44.
                        Lebedev-Laikov grids with approx.  5.0 points / Ang**2.
                        Smoothing algorithm: Karplus/York (Gamma=1.0000).
                        Polarization charges: spherical gaussians, with
                                              point-specific exponents (IZeta= 3).
                        Self-potential: point-specific (ISelfS= 7).
                        Self-field    : sphere-specific E.n sum rule (ISelfD= 2).
 1st derivatives      : Analytical E(r).r(x)/FMM algorithm (CHGder, D1EAlg=3).
                        Cavity 1st derivative terms included.
 Solvent              : Chloroform, Eps=   4.711300 Eps(inf)=   2.090627
 ------------------------------------------------------------------------------
 One-electron integrals computed using PRISM.
 NBasis=   404 RedAO= T EigKep=  1.98D-03  NBF=   404
 NBsUse=   404 1.00D-06 EigRej= -1.00D+00 NBFU=   404
 ExpMin= 7.78D-02 ExpMax= 1.61D+04 ExpMxC= 2.43D+03 IAcc=2 IRadAn=         4 AccDes= 0.00D+00
 Harris functional with IExCor=  402 and IRadAn=       4 diagonalized for initial guess.
 HarFok:  IExCor=  402 AccDes= 0.00D+00 IRadAn=         4 IDoV= 1 UseB2=F ITyADJ=14
 ICtDFT=  3500011 ScaDFX=  1.000000  1.000000  1.000000  1.000000
 FoFCou: FMM=F IPFlag=           0 FMFlag=      100000 FMFlg1=           0
         NFxFlg=           0 DoJE=T BraDBF=F KetDBF=T FulRan=T
         wScrn=  0.000000 ICntrl=     500 IOpCl=  0 I1Cent=   200000004 NGrid=           0
         NMat0=    1 NMatS0=      1 NMatT0=    0 NMatD0=    1 NMtDS0=    0 NMtDT0=    0
 Petite list used in FoFCou.
 Requested convergence on RMS density matrix=1.00D-08 within 128 cycles.
 Requested convergence on MAX density matrix=1.00D-06.
 Requested convergence on             energy=1.00D-06.
 No special actions if energy rises.
 Inv3:  Mode=1 IEnd=    25038963.
 Iteration    1 A*A^-1 deviation from unit magnitude is 7.66D-15 for   2888.
 Iteration    1 A*A^-1 deviation from orthogonality  is 3.61D-15 for   2881   1507.
 Iteration    1 A^-1*A deviation from unit magnitude is 7.77D-15 for   2888.
 Iteration    1 A^-1*A deviation from orthogonality  is 5.09D-12 for   2359   2278.
 Error on total polarization charges =  0.00917
 SCF Done:  E(RB3LYP) =  -1064.41702300     A.U. after   13 cycles
            NFock= 13  Conv=0.49D-08     -V/T= 2.0081

 **********************************************************************

            Population analysis using the SCF density.

 **********************************************************************

 Orbital symmetries:
       Occupied  (A) (A) (A) (A) (A) (A) (A) (A) (A) (A) (A) (A)
                 (A) (A) (A) (A) (A) (A) (A) (A) (A) (A) (A) (A)
                 (A) (A) (A) (A) (A) (A) (A) (A) (A) (A) (A) (A)
                 (A) (A) (A) (A) (A) (A) (A) (A) (A) (A) (A) (A)
                 (A) (A) (A) (A) (A) (A) (A) (A) (A) (A) (A) (A)
                 (A) (A) (A) (A) (A) (A) (A) (A) (A) (A) (A) (A)
                 (A) (A)
       Virtual   (A) (A) (A) (A) (A) (A) (A) (A) (A) (A) (A) (A)
                 (A) (A) (A) (A) (A) (A) (A) (A) (A) (A) (A) (A)
                 (A) (A) (A) (A) (A) (A) (A) (A) (A) (A) (A) (A)
                 (A) (A) (A) (A) (A) (A) (A) (A) (A) (A) (A) (A)
                 (A) (A) (A) (A) (A) (A) (A) (A) (A) (A) (A) (A)
                 (A) (A) (A) (A) (A) (A) (A) (A) (A) (A) (A) (A)
                 (A) (A) (A) (A) (A) (A) (A) (A) (A) (A) (A) (A)
                 (A) (A) (A) (A) (A) (A) (A) (A) (A) (A) (A) (A)
                 (A) (A) (A) (A) (A) (A) (A) (A) (A) (A) (A) (A)
                 (A) (A) (A) (A) (A) (A) (A) (A) (A) (A) (A) (A)
                 (A) (A) (A) (A) (A) (A) (A) (A) (A) (A) (A) (A)
                 (A) (A) (A) (A) (A) (A) (A) (A) (A) (A) (A) (A)
                 (A) (A) (A) (A) (A) (A) (A) (A) (A) (A) (A) (A)
                 (A) (A) (A) (A) (A) (A) (A) (A) (A) (A) (A) (A)
                 (A) (A) (A) (A) (A) (A) (A) (A) (A) (A) (A) (A)
                 (A) (A) (A) (A) (A) (A) (A) (A) (A) (A) (A) (A)
                 (A) (A) (A) (A) (A) (A) (A) (A) (A) (A) (A) (A)
                 (A) (A) (A) (A) (A) (A) (A) (A) (A) (A) (A) (A)
                 (A) (A) (A) (A) (A) (A) (A) (A) (A) (A) (A) (A)
                 (A) (A) (A) (A) (A) (A) (A) (A) (A) (A) (A) (A)
                 (A) (A) (A) (A) (A) (A) (A) (A) (A) (A) (A) (A)
                 (A) (A) (A) (A) (A) (A) (A) (A) (A) (A) (A) (A)
                 (A) (A) (A) (A) (A) (A) (A) (A) (A) (A) (A) (A)
                 (A) (A) (A) (A) (A) (A) (A) (A) (A) (A) (A) (A)
                 (A) (A) (A) (A) (A) (A) (A) (A) (A) (A) (A) (A)
                 (A) (A) (A) (A) (A) (A) (A) (A) (A) (A) (A) (A)
                 (A) (A) (A) (A) (A) (A) (A) (A) (A) (A) (A) (A)
                 (A) (A) (A) (A) (A) (A)
 The electronic state is 1-A.
 Alpha  occ. eigenvalues --  -66.13971 -19.19261 -19.14450 -19.13689 -10.32371
 Alpha  occ. eigenvalues --  -10.26672 -10.25660 -10.20161 -10.20075 -10.19188
 Alpha  occ. eigenvalues --  -10.19066 -10.18963 -10.18139 -10.17855 -10.17637
 Alpha  occ. eigenvalues --  -10.16040 -10.15810 -10.15654  -5.28135  -3.64192
 Alpha  occ. eigenvalues --   -3.63959  -3.63922  -1.09912  -1.01542  -1.00726
 Alpha  occ. eigenvalues --   -0.83075  -0.80557  -0.77592  -0.75170  -0.71495
 Alpha  occ. eigenvalues --   -0.70154  -0.69421  -0.67808  -0.67399  -0.64499
 Alpha  occ. eigenvalues --   -0.60736  -0.60057  -0.56298  -0.53694  -0.51517
 Alpha  occ. eigenvalues --   -0.50527  -0.48554  -0.47338  -0.46467  -0.45556
 Alpha  occ. eigenvalues --   -0.44257  -0.43322  -0.42723  -0.42353  -0.41586
 Alpha  occ. eigenvalues --   -0.41262  -0.40765  -0.40543  -0.39836  -0.39385
 Alpha  occ. eigenvalues --   -0.38962  -0.38654  -0.38073  -0.37872  -0.37140
 Alpha  occ. eigenvalues --   -0.36509  -0.36028  -0.35366  -0.35130  -0.34381
 Alpha  occ. eigenvalues --   -0.34050  -0.32514  -0.31746  -0.30650  -0.29446
 Alpha  occ. eigenvalues --   -0.28528  -0.27175  -0.26557  -0.25389
 Alpha virt. eigenvalues --   -0.00487   0.01613   0.06373   0.07004   0.08409
 Alpha virt. eigenvalues --    0.09416   0.09730   0.10658   0.11410   0.11472
 Alpha virt. eigenvalues --    0.12610   0.12838   0.13388   0.14084   0.14191
 Alpha virt. eigenvalues --    0.14640   0.14846   0.15581   0.16664   0.16868
 Alpha virt. eigenvalues --    0.17164   0.17800   0.18293   0.18633   0.18936
 Alpha virt. eigenvalues --    0.19161   0.20047   0.20435   0.20594   0.21044
 Alpha virt. eigenvalues --    0.21618   0.22269   0.22439   0.22566   0.24049
 Alpha virt. eigenvalues --    0.24776   0.24893   0.26437   0.27402   0.28657
 Alpha virt. eigenvalues --    0.29437   0.29972   0.31477   0.35409   0.36346
 Alpha virt. eigenvalues --    0.37741   0.38700   0.39049   0.40561   0.44439
 Alpha virt. eigenvalues --    0.46233   0.46835   0.48180   0.49894   0.50527
 Alpha virt. eigenvalues --    0.51774   0.52411   0.54023   0.54266   0.55327
 Alpha virt. eigenvalues --    0.57354   0.58137   0.59907   0.60163   0.60975
 Alpha virt. eigenvalues --    0.61678   0.62355   0.63571   0.63979   0.66068
 Alpha virt. eigenvalues --    0.66267   0.66491   0.67081   0.67821   0.68757
 Alpha virt. eigenvalues --    0.68882   0.70706   0.71870   0.72308   0.73090
 Alpha virt. eigenvalues --    0.73819   0.74791   0.75938   0.76837   0.77488
 Alpha virt. eigenvalues --    0.78824   0.79737   0.81412   0.82655   0.82853
 Alpha virt. eigenvalues --    0.83419   0.84165   0.84816   0.85601   0.86064
 Alpha virt. eigenvalues --    0.86809   0.87206   0.87617   0.88045   0.88757
 Alpha virt. eigenvalues --    0.89354   0.89619   0.90348   0.90917   0.91265
 Alpha virt. eigenvalues --    0.91417   0.91827   0.92666   0.93123   0.93633
 Alpha virt. eigenvalues --    0.94429   0.95442   0.96088   0.96381   0.97940
 Alpha virt. eigenvalues --    0.98544   0.99572   1.00342   1.01398   1.01859
 Alpha virt. eigenvalues --    1.02070   1.03938   1.04953   1.06817   1.08005
 Alpha virt. eigenvalues --    1.11880   1.12388   1.12831   1.16265   1.16810
 Alpha virt. eigenvalues --    1.18008   1.19643   1.20585   1.23557   1.24504
 Alpha virt. eigenvalues --    1.26818   1.28683   1.30652   1.30965   1.33287
 Alpha virt. eigenvalues --    1.36712   1.37225   1.40255   1.42175   1.43665
 Alpha virt. eigenvalues --    1.44430   1.45745   1.47092   1.47167   1.48715
 Alpha virt. eigenvalues --    1.49394   1.50011   1.50256   1.53306   1.56292
 Alpha virt. eigenvalues --    1.57870   1.60912   1.62799   1.63874   1.64689
 Alpha virt. eigenvalues --    1.66217   1.67271   1.68727   1.71103   1.73156
 Alpha virt. eigenvalues --    1.74411   1.75420   1.76571   1.79017   1.80583
 Alpha virt. eigenvalues --    1.82041   1.82686   1.84333   1.84762   1.86182
 Alpha virt. eigenvalues --    1.86787   1.87420   1.88174   1.89011   1.91022
 Alpha virt. eigenvalues --    1.91408   1.93910   1.94169   1.95539   1.97369
 Alpha virt. eigenvalues --    1.98036   1.99520   2.00026   2.02038   2.02232
 Alpha virt. eigenvalues --    2.03106   2.04414   2.04759   2.04819   2.05761
 Alpha virt. eigenvalues --    2.06178   2.06649   2.07913   2.08672   2.08744
 Alpha virt. eigenvalues --    2.09065   2.10433   2.11118   2.11330   2.12142
 Alpha virt. eigenvalues --    2.12410   2.12668   2.13206   2.13364   2.13821
 Alpha virt. eigenvalues --    2.15037   2.15491   2.16563   2.16910   2.17771
 Alpha virt. eigenvalues --    2.19129   2.20820   2.23358   2.25319   2.26740
 Alpha virt. eigenvalues --    2.27610   2.29495   2.29986   2.31578   2.33320
 Alpha virt. eigenvalues --    2.33661   2.34497   2.35276   2.36560   2.37265
 Alpha virt. eigenvalues --    2.37471   2.38007   2.38720   2.39380   2.40827
 Alpha virt. eigenvalues --    2.43745   2.44432   2.47374   2.48890   2.50035
 Alpha virt. eigenvalues --    2.51558   2.52850   2.55440   2.56198   2.58756
 Alpha virt. eigenvalues --    2.59610   2.60393   2.63432   2.63578   2.64426
 Alpha virt. eigenvalues --    2.65257   2.66587   2.68265   2.68823   2.69233
 Alpha virt. eigenvalues --    2.70801   2.71801   2.72986   2.74775   2.75817
 Alpha virt. eigenvalues --    2.77374   2.78087   2.79012   2.80716   2.81197
 Alpha virt. eigenvalues --    2.81590   2.82514   2.84474   2.84933   2.85414
 Alpha virt. eigenvalues --    2.85539   2.85796   2.87312   2.88472   2.90201
 Alpha virt. eigenvalues --    2.91023   2.91435   2.92623   2.94256   2.96150
 Alpha virt. eigenvalues --    2.96630   2.98581   3.03605   3.06558   3.11337
 Alpha virt. eigenvalues --    3.16515   3.19338   3.20434   3.21165   3.21186
 Alpha virt. eigenvalues --    3.21826   3.22613   3.25613   3.30843   3.33138
 Alpha virt. eigenvalues --    3.33411   3.37314   3.40485   3.43210   3.43506
 Alpha virt. eigenvalues --    3.44271   3.44756   3.44858   3.45177   3.45753
 Alpha virt. eigenvalues --    3.46109   3.46442   3.47756   3.48705   3.52559
 Alpha virt. eigenvalues --    3.55412   3.56963   3.67053   4.02268   4.13953
 Alpha virt. eigenvalues --    4.20169   4.25987   4.33028   4.38908   4.44915
 Alpha virt. eigenvalues --    4.45914   4.47954   4.52211   4.58472   4.59992
 Alpha virt. eigenvalues --    4.66571   4.67150   4.71472   4.78443   4.80890
          Condensed to atoms (all electrons):
               1          2          3          4          5          6
     1  C    4.804118   0.324148  -0.027587  -0.012924  -0.006119   0.386218
     2  C    0.324148   5.100201   0.336431  -0.050941  -0.017910  -0.050240
     3  C   -0.027587   0.336431   4.835518   0.294565  -0.012494  -0.011740
     4  C   -0.012924  -0.050941   0.294565   5.337223   0.287187   0.001261
     5  C   -0.006119  -0.017910  -0.012494   0.287187   4.367837  -0.002019
     6  H    0.386218  -0.050240  -0.011740   0.001261  -0.002019   0.640648
     7  H   -0.038745   0.377030  -0.041725  -0.007330   0.000599   0.006517
     8  H   -0.000208  -0.006353  -0.027724   0.362563  -0.026427   0.000037
     9  H    0.000185   0.005603  -0.029562   0.354742  -0.020772   0.000051
    10  O    0.170971  -0.029418   0.000823  -0.097796   0.252545  -0.041875
    11  O    0.001487  -0.000020   0.001378  -0.082162   0.578021   0.000182
    12  C    0.372476  -0.035674   0.005127  -0.000507   0.001199  -0.049576
    13  C   -0.039231  -0.009808  -0.000102  -0.000098   0.000245   0.005547
    14  C   -0.036428   0.348390  -0.031893   0.005339   0.000432  -0.004494
    15  O    0.002569  -0.041647   0.185818  -0.026089   0.001438  -0.000044
    16  Si   0.000541  -0.005516  -0.010710   0.002476  -0.000560  -0.000072
    17  C    0.000001  -0.000092  -0.002304  -0.000157   0.000109   0.000000
    18  C    0.000024  -0.001011  -0.000827  -0.002438  -0.000027  -0.000001
    19  C    0.000000  -0.000079   0.001001  -0.000061   0.000000   0.000000
    20  H   -0.000017  -0.001093   0.000391  -0.001143  -0.000030  -0.000001
    21  H    0.000006  -0.000665  -0.000405   0.000151   0.000004   0.000000
    22  H   -0.000001   0.000099   0.000000   0.000041   0.000001   0.000000
    23  H    0.000000   0.000001  -0.000012   0.000001   0.000000   0.000000
    24  H    0.000000  -0.000008  -0.000044   0.000003   0.000000   0.000000
    25  H    0.000000   0.000002  -0.000038  -0.000004   0.000000   0.000000
    26  H    0.000000   0.000000   0.000023  -0.000229  -0.000002   0.000000
    27  H    0.000000  -0.000017  -0.000164   0.000316   0.000005   0.000000
    28  H    0.000000   0.000001   0.000045   0.000028  -0.000001   0.000000
    29  H   -0.004453  -0.028318   0.004225  -0.000121  -0.000014  -0.000172
    30  H   -0.005492  -0.034415  -0.006873   0.000056  -0.000013   0.006117
    31  H    0.003708  -0.025543  -0.007729   0.000208  -0.000018  -0.000063
    32  H   -0.028079  -0.005352  -0.000021   0.000027  -0.000041  -0.000249
    33  H   -0.029253   0.005110  -0.000078   0.000013   0.000010  -0.005797
    34  H    0.004424   0.000221  -0.000002   0.000001  -0.000005  -0.000145
    35  H   -0.005094   0.001517  -0.000011  -0.000001   0.000012  -0.000066
    36  H   -0.007734  -0.000644  -0.000118   0.000158   0.000167   0.000303
    37  C   -0.002628  -0.056193   0.350279  -0.071743   0.002042   0.003745
    38  C    0.000051   0.004931  -0.037304  -0.008477  -0.000770   0.000001
    39  C   -0.000024  -0.000006  -0.002923  -0.000663   0.000687  -0.000003
    40  H    0.002274  -0.004647  -0.026626  -0.004191   0.003710   0.001350
    41  H   -0.000248  -0.007454  -0.028612   0.005858  -0.000120   0.000208
    42  H    0.000001   0.000020  -0.003617  -0.000432   0.000057   0.000001
    43  H    0.000000   0.000003  -0.000044  -0.000057  -0.000001   0.000000
    44  H   -0.000013  -0.000010   0.000022  -0.000092   0.000585   0.000014
               7          8          9         10         11         12
     1  C   -0.038745  -0.000208   0.000185   0.170971   0.001487   0.372476
     2  C    0.377030  -0.006353   0.005603  -0.029418  -0.000020  -0.035674
     3  C   -0.041725  -0.027724  -0.029562   0.000823   0.001378   0.005127
     4  C   -0.007330   0.362563   0.354742  -0.097796  -0.082162  -0.000507
     5  C    0.000599  -0.026427  -0.020772   0.252545   0.578021   0.001199
     6  H    0.006517   0.000037   0.000051  -0.041875   0.000182  -0.049576
     7  H    0.638172   0.003596   0.000013  -0.000106  -0.000006  -0.011736
     8  H    0.003596   0.561945  -0.028699   0.000810  -0.000039  -0.000083
     9  H    0.000013  -0.028699   0.558790   0.003252   0.001728   0.000007
    10  O   -0.000106   0.000810   0.003252   8.335267  -0.075281  -0.046290
    11  O   -0.000006  -0.000039   0.001728  -0.075281   8.073730  -0.000086
    12  C   -0.011736  -0.000083   0.000007  -0.046290  -0.000086   4.948933
    13  C    0.005571   0.000082   0.000001  -0.003649  -0.000002   0.361610
    14  C   -0.044135   0.000044  -0.000127   0.002390   0.000002  -0.003388
    15  O   -0.002530  -0.003561   0.000136  -0.000017  -0.000012  -0.000035
    16  Si  -0.001745   0.004916   0.000314  -0.000167  -0.000048  -0.000021
    17  C   -0.000035  -0.001564  -0.000680   0.000000   0.000000   0.000000
    18  C    0.002008  -0.000072   0.000125   0.000004   0.000000   0.000006
    19  C   -0.000016  -0.000001  -0.000005   0.000000   0.000000   0.000000
    20  H    0.001620   0.003029  -0.000007  -0.000002   0.000000  -0.000003
    21  H    0.000838  -0.000102   0.000000   0.000000   0.000000   0.000001
    22  H    0.000048  -0.000012   0.000000   0.000000   0.000000   0.000000
    23  H    0.000000   0.000001   0.000000   0.000000   0.000000   0.000000
    24  H   -0.000008   0.000000   0.000000   0.000000   0.000000   0.000000
    25  H    0.000000   0.000001  -0.000001   0.000000   0.000000   0.000000
    26  H    0.000001   0.000050   0.000499   0.000000   0.000000   0.000000
    27  H   -0.000014   0.000834   0.000833   0.000000  -0.000002   0.000000
    28  H    0.000002   0.000036   0.000042   0.000000   0.000000   0.000000
    29  H   -0.006124  -0.000005   0.000003  -0.000002   0.000000   0.001282
    30  H    0.005766   0.000002   0.000003   0.000015   0.000000  -0.000976
    31  H   -0.002466   0.000007  -0.000005  -0.000046   0.000000   0.000044
    32  H    0.000176   0.000000   0.000000   0.002899   0.000001   0.376988
    33  H    0.000058   0.000001  -0.000001   0.000769  -0.000008   0.379509
    34  H   -0.000186   0.000000   0.000000   0.000076   0.000000  -0.028379
    35  H    0.002156  -0.000012   0.000000  -0.000082   0.000000  -0.036352
    36  H    0.000740   0.000081  -0.000001   0.008342  -0.000020  -0.037196
    37  C    0.005648   0.005593  -0.009757  -0.002356   0.000383  -0.000041
    38  C   -0.000116   0.000189   0.011095   0.000051  -0.000264  -0.000001
    39  C    0.000000   0.000027   0.004275  -0.000004  -0.000099   0.000000
    40  H   -0.000009  -0.000019   0.000237   0.000716  -0.000344   0.000113
    41  H   -0.000006  -0.000129   0.000166   0.000033   0.000001  -0.000022
    42  H    0.000001  -0.000006   0.000346  -0.000001   0.000000   0.000000
    43  H    0.000000   0.000000   0.000065   0.000000   0.000004   0.000000
    44  H    0.000000   0.000004   0.000026  -0.000024   0.000497   0.000000
              13         14         15         16         17         18
     1  C   -0.039231  -0.036428   0.002569   0.000541   0.000001   0.000024
     2  C   -0.009808   0.348390  -0.041647  -0.005516  -0.000092  -0.001011
     3  C   -0.000102  -0.031893   0.185818  -0.010710  -0.002304  -0.000827
     4  C   -0.000098   0.005339  -0.026089   0.002476  -0.000157  -0.002438
     5  C    0.000245   0.000432   0.001438  -0.000560   0.000109  -0.000027
     6  H    0.005547  -0.004494  -0.000044  -0.000072   0.000000  -0.000001
     7  H    0.005571  -0.044135  -0.002530  -0.001745  -0.000035   0.002008
     8  H    0.000082   0.000044  -0.003561   0.004916  -0.001564  -0.000072
     9  H    0.000001  -0.000127   0.000136   0.000314  -0.000680   0.000125
    10  O   -0.003649   0.002390  -0.000017  -0.000167   0.000000   0.000004
    11  O   -0.000002   0.000002  -0.000012  -0.000048   0.000000   0.000000
    12  C    0.361610  -0.003388  -0.000035  -0.000021   0.000000   0.000006
    13  C    4.931217  -0.000666  -0.000001  -0.000062   0.000000  -0.000067
    14  C   -0.000666   4.968977  -0.005664   0.001066   0.000002  -0.000099
    15  O   -0.000001  -0.005664   8.304388   0.330734  -0.016855  -0.015312
    16  Si  -0.000062   0.001066   0.330734  11.847959   0.370933   0.367282
    17  C    0.000000   0.000002  -0.016855   0.370933   5.141333  -0.034870
    18  C   -0.000067  -0.000099  -0.015312   0.367282  -0.034870   5.149830
    19  C    0.000000  -0.000026  -0.018903   0.378919  -0.032965  -0.031745
    20  H    0.000030   0.000003  -0.000469  -0.028858  -0.001487   0.374436
    21  H   -0.000021   0.000470  -0.000407  -0.027324   0.001331   0.377997
    22  H    0.000000  -0.000004   0.000528  -0.014005  -0.000213   0.371041
    23  H    0.000000   0.000000   0.000479  -0.015001  -0.000573  -0.000685
    24  H    0.000000  -0.000015  -0.000387  -0.025355   0.001382  -0.001254
    25  H    0.000000  -0.000001  -0.000412  -0.024538  -0.001259   0.001389
    26  H    0.000000   0.000000  -0.000581  -0.025708   0.379006   0.001286
    27  H    0.000000   0.000000  -0.000423  -0.026710   0.375300  -0.001625
    28  H    0.000000   0.000000   0.000562  -0.013533   0.369527  -0.000081
    29  H    0.000356   0.378919   0.000167  -0.000186   0.000000   0.000000
    30  H    0.000081   0.382800  -0.000036  -0.000274   0.000000   0.000006
    31  H   -0.000014   0.380656   0.007357   0.003367   0.000009  -0.000299
    32  H   -0.036655   0.001929   0.000000  -0.000004   0.000000   0.000000
    33  H   -0.042282   0.000007   0.000000   0.000002   0.000000   0.000000
    34  H    0.382746  -0.000013   0.000000   0.000002   0.000000   0.000001
    35  H    0.386329   0.000336   0.000004  -0.000033   0.000000   0.000052
    36  H    0.389690   0.000066   0.000000  -0.000016   0.000000  -0.000003
    37  C    0.000004  -0.009554  -0.064071  -0.002256   0.000035  -0.000057
    38  C    0.000000   0.000083   0.001441   0.001224  -0.000154   0.000004
    39  C    0.000000   0.000000   0.000365   0.000121  -0.000009   0.000000
    40  H   -0.000001   0.000173   0.003505   0.000163   0.000000   0.000002
    41  H    0.000000   0.002087  -0.000434   0.000502   0.000002  -0.000001
    42  H    0.000000  -0.000002   0.004393   0.001823  -0.000060   0.000003
    43  H    0.000000   0.000000   0.000003   0.000008   0.000000   0.000000
    44  H    0.000000   0.000000  -0.000001   0.000011   0.000000   0.000000
              19         20         21         22         23         24
     1  C    0.000000  -0.000017   0.000006  -0.000001   0.000000   0.000000
     2  C   -0.000079  -0.001093  -0.000665   0.000099   0.000001  -0.000008
     3  C    0.001001   0.000391  -0.000405   0.000000  -0.000012  -0.000044
     4  C   -0.000061  -0.001143   0.000151   0.000041   0.000001   0.000003
     5  C    0.000000  -0.000030   0.000004   0.000001   0.000000   0.000000
     6  H    0.000000  -0.000001   0.000000   0.000000   0.000000   0.000000
     7  H   -0.000016   0.001620   0.000838   0.000048   0.000000  -0.000008
     8  H   -0.000001   0.003029  -0.000102  -0.000012   0.000001   0.000000
     9  H   -0.000005  -0.000007   0.000000   0.000000   0.000000   0.000000
    10  O    0.000000  -0.000002   0.000000   0.000000   0.000000   0.000000
    11  O    0.000000   0.000000   0.000000   0.000000   0.000000   0.000000
    12  C    0.000000  -0.000003   0.000001   0.000000   0.000000   0.000000
    13  C    0.000000   0.000030  -0.000021   0.000000   0.000000   0.000000
    14  C   -0.000026   0.000003   0.000470  -0.000004   0.000000  -0.000015
    15  O   -0.018903  -0.000469  -0.000407   0.000528   0.000479  -0.000387
    16  Si   0.378919  -0.028858  -0.027324  -0.014005  -0.015001  -0.025355
    17  C   -0.032965  -0.001487   0.001331  -0.000213  -0.000573   0.001382
    18  C   -0.031745   0.374436   0.377997   0.371041  -0.000685  -0.001254
    19  C    5.117498   0.001480  -0.001117  -0.001001   0.373753   0.375431
    20  H    0.001480   0.581457  -0.023758  -0.022476   0.000000   0.000003
    21  H   -0.001117  -0.023758   0.574683  -0.022703  -0.000046   0.000631
    22  H   -0.001001  -0.022476  -0.022703   0.564554   0.000120  -0.000032
    23  H    0.373753   0.000000  -0.000046   0.000120   0.566637  -0.023506
    24  H    0.375431   0.000003   0.000631  -0.000032  -0.023506   0.578195
    25  H    0.376307  -0.000028   0.000003   0.000012  -0.023527  -0.022047
    26  H   -0.000993   0.000005  -0.000024   0.000014  -0.000022   0.000002
    27  H    0.001438   0.000619   0.000007  -0.000025   0.000000  -0.000028
    28  H   -0.000952  -0.000024   0.000004   0.000018   0.000043   0.000018
    29  H    0.000000  -0.000001   0.000073   0.000000   0.000000   0.000000
    30  H    0.000001   0.000000  -0.000006   0.000000   0.000000  -0.000001
    31  H   -0.000145   0.000003   0.000237   0.000002   0.000001   0.000250
    32  H    0.000000   0.000000   0.000000   0.000000   0.000000   0.000000
    33  H    0.000000   0.000000   0.000000   0.000000   0.000000   0.000000
    34  H    0.000000  -0.000001   0.000000   0.000000   0.000000   0.000000
    35  H    0.000000   0.000185   0.000237  -0.000001   0.000000   0.000000
    36  H    0.000000   0.000036  -0.000001   0.000000   0.000000   0.000000
    37  C   -0.000008  -0.000006  -0.000006   0.000001   0.000000  -0.000002
    38  C   -0.000015   0.000000   0.000000   0.000000   0.000000   0.000000
    39  C    0.000000   0.000000   0.000000   0.000000   0.000000   0.000000
    40  H    0.000000   0.000000   0.000000   0.000000   0.000000   0.000000
    41  H   -0.000010   0.000000   0.000000   0.000000   0.000000   0.000000
    42  H   -0.000035   0.000000   0.000000   0.000000   0.000000  -0.000001
    43  H    0.000000   0.000000   0.000000   0.000000   0.000000   0.000000
    44  H    0.000000   0.000000   0.000000   0.000000   0.000000   0.000000
              25         26         27         28         29         30
     1  C    0.000000   0.000000   0.000000   0.000000  -0.004453  -0.005492
     2  C    0.000002   0.000000  -0.000017   0.000001  -0.028318  -0.034415
     3  C   -0.000038   0.000023  -0.000164   0.000045   0.004225  -0.006873
     4  C   -0.000004  -0.000229   0.000316   0.000028  -0.000121   0.000056
     5  C    0.000000  -0.000002   0.000005  -0.000001  -0.000014  -0.000013
     6  H    0.000000   0.000000   0.000000   0.000000  -0.000172   0.006117
     7  H    0.000000   0.000001  -0.000014   0.000002  -0.006124   0.005766
     8  H    0.000001   0.000050   0.000834   0.000036  -0.000005   0.000002
     9  H   -0.000001   0.000499   0.000833   0.000042   0.000003   0.000003
    10  O    0.000000   0.000000   0.000000   0.000000  -0.000002   0.000015
    11  O    0.000000   0.000000  -0.000002   0.000000   0.000000   0.000000
    12  C    0.000000   0.000000   0.000000   0.000000   0.001282  -0.000976
    13  C    0.000000   0.000000   0.000000   0.000000   0.000356   0.000081
    14  C   -0.000001   0.000000   0.000000   0.000000   0.378919   0.382800
    15  O   -0.000412  -0.000581  -0.000423   0.000562   0.000167  -0.000036
    16  Si  -0.024538  -0.025708  -0.026710  -0.013533  -0.000186  -0.000274
    17  C   -0.001259   0.379006   0.375300   0.369527   0.000000   0.000000
    18  C    0.001389   0.001286  -0.001625  -0.000081   0.000000   0.000006
    19  C    0.376307  -0.000993   0.001438  -0.000952   0.000000   0.000001
    20  H   -0.000028   0.000005   0.000619  -0.000024  -0.000001   0.000000
    21  H    0.000003  -0.000024   0.000007   0.000004   0.000073  -0.000006
    22  H    0.000012   0.000014  -0.000025   0.000018   0.000000   0.000000
    23  H   -0.023527  -0.000022   0.000000   0.000043   0.000000   0.000000
    24  H   -0.022047   0.000002  -0.000028   0.000018   0.000000  -0.000001
    25  H    0.574313   0.000539   0.000007  -0.000054   0.000000   0.000000
    26  H    0.000539   0.571392  -0.022778  -0.023243   0.000000   0.000000
    27  H    0.000007  -0.022778   0.581791  -0.023456   0.000000   0.000000
    28  H   -0.000054  -0.023243  -0.023456   0.570994   0.000000   0.000000
    29  H    0.000000   0.000000   0.000000   0.000000   0.600497  -0.031451
    30  H    0.000000   0.000000   0.000000   0.000000  -0.031451   0.594674
    31  H   -0.000003   0.000000   0.000000   0.000000  -0.029348  -0.027895
    32  H    0.000000   0.000000   0.000000   0.000000   0.001442   0.000420
    33  H    0.000000   0.000000   0.000000   0.000000  -0.000029  -0.000032
    34  H    0.000000   0.000000   0.000000   0.000000  -0.000039   0.000001
    35  H    0.000000   0.000000   0.000000   0.000000   0.000776  -0.000022
    36  H    0.000000   0.000000   0.000000   0.000000  -0.000022  -0.000001
    37  C    0.000006   0.000010   0.000010   0.000001   0.000079   0.002759
    38  C   -0.000005   0.000100  -0.000037   0.000002  -0.000001  -0.000054
    39  C    0.000000   0.000008  -0.000007   0.000000   0.000000   0.000000
    40  H    0.000000   0.000000   0.000000   0.000000  -0.000017   0.000103
    41  H   -0.000001   0.000000  -0.000001   0.000000  -0.000058   0.002233
    42  H    0.000013   0.000271  -0.000012   0.000000   0.000000   0.000003
    43  H    0.000000  -0.000001   0.000000   0.000000   0.000000   0.000000
    44  H    0.000000   0.000000   0.000000   0.000000   0.000000   0.000000
              31         32         33         34         35         36
     1  C    0.003708  -0.028079  -0.029253   0.004424  -0.005094  -0.007734
     2  C   -0.025543  -0.005352   0.005110   0.000221   0.001517  -0.000644
     3  C   -0.007729  -0.000021  -0.000078  -0.000002  -0.000011  -0.000118
     4  C    0.000208   0.000027   0.000013   0.000001  -0.000001   0.000158
     5  C   -0.000018  -0.000041   0.000010  -0.000005   0.000012   0.000167
     6  H   -0.000063  -0.000249  -0.005797  -0.000145  -0.000066   0.000303
     7  H   -0.002466   0.000176   0.000058  -0.000186   0.002156   0.000740
     8  H    0.000007   0.000000   0.000001   0.000000  -0.000012   0.000081
     9  H   -0.000005   0.000000  -0.000001   0.000000   0.000000  -0.000001
    10  O   -0.000046   0.002899   0.000769   0.000076  -0.000082   0.008342
    11  O    0.000000   0.000001  -0.000008   0.000000   0.000000  -0.000020
    12  C    0.000044   0.376988   0.379509  -0.028379  -0.036352  -0.037196
    13  C   -0.000014  -0.036655  -0.042282   0.382746   0.386329   0.389690
    14  C    0.380656   0.001929   0.000007  -0.000013   0.000336   0.000066
[...]
    13  C    0.000000   0.000009  -0.000009   0.000000   0.000000   0.000000
    14  C   -0.000054  -0.000004   0.000271  -0.000002   0.000001  -0.000028
    15  O   -0.024863  -0.000533  -0.000496   0.000528   0.000679  -0.000613
    16  Si   0.381682  -0.026622  -0.024958  -0.013802  -0.015190  -0.024138
    17  C   -0.029095  -0.001160   0.001205  -0.000223  -0.000230   0.001181
    18  C   -0.028071   0.376460   0.377639   0.368678  -0.000398  -0.001286
    19  C    5.112772   0.001208  -0.001101  -0.000701   0.368488   0.377206
    20  H    0.001208   0.575713  -0.023713  -0.023479  -0.000003   0.000006
    21  H   -0.001101  -0.023713   0.572930  -0.023528  -0.000044   0.000518
    22  H   -0.000701  -0.023479  -0.023528   0.569152   0.000084  -0.000021
    23  H    0.368488  -0.000003  -0.000044   0.000084   0.576063  -0.024036
    24  H    0.377206   0.000006   0.000518  -0.000021  -0.024036   0.572954
    25  H    0.377393  -0.000021  -0.000001   0.000008  -0.024063  -0.022477
    26  H   -0.001053   0.000002  -0.000021   0.000009  -0.000038   0.000000
    27  H    0.001192   0.000441   0.000004  -0.000028   0.000002  -0.000021
    28  H   -0.000598  -0.000033   0.000003   0.000050   0.000010   0.000008
    29  H    0.000000   0.000000   0.000049   0.000000   0.000000  -0.000001
    30  H    0.000002   0.000000  -0.000002   0.000000   0.000000  -0.000001
    31  H   -0.000117   0.000003   0.000080   0.000002   0.000002   0.000489
    32  H    0.000000   0.000000   0.000000   0.000000   0.000000   0.000000
    33  H    0.000000   0.000000   0.000000   0.000000   0.000000   0.000000
    34  H    0.000000   0.000000   0.000000   0.000000   0.000000   0.000000
    35  H    0.000000   0.000064   0.000142  -0.000001   0.000000   0.000000
    36  H    0.000000   0.000012  -0.000001   0.000000   0.000000   0.000000
    37  C   -0.000012  -0.000004  -0.000004   0.000001   0.000000  -0.000002
    38  C   -0.000039   0.000000   0.000000   0.000000   0.000000   0.000001
    39  C    0.000000   0.000000   0.000000   0.000000   0.000000   0.000000
    40  H    0.000000   0.000000   0.000000   0.000000   0.000000   0.000000
    41  H   -0.000011   0.000000   0.000000   0.000000   0.000000   0.000000
    42  H   -0.000066   0.000000   0.000000   0.000000   0.000000  -0.000001
    43  H    0.000000   0.000000   0.000000   0.000000   0.000000   0.000000
    44  H    0.000000   0.000000   0.000000   0.000000   0.000000   0.000000
              25         26         27         28         29         30
     1  C    0.000000   0.000000   0.000000   0.000000  -0.003899  -0.006048
     2  C    0.000003  -0.000001  -0.000009   0.000001  -0.026872  -0.034365
     3  C   -0.000045  -0.000025  -0.000062   0.000021   0.003960  -0.006004
     4  C   -0.000006  -0.000114   0.000388   0.000026  -0.000127   0.000018
     5  C    0.000000   0.000000  -0.000013   0.000000  -0.000011  -0.000008
     6  H    0.000000   0.000000   0.000000   0.000000  -0.000172   0.006723
     7  H    0.000000   0.000001  -0.000008   0.000001  -0.006742   0.005484
     8  H    0.000001   0.000058   0.000527   0.000030  -0.000004   0.000002
     9  H    0.000000   0.000268   0.000630   0.000024   0.000003   0.000004
    10  O    0.000000   0.000000   0.000000   0.000000  -0.000013   0.000029
    11  O    0.000000   0.000000   0.000000   0.000000   0.000000   0.000000
    12  C    0.000000   0.000000   0.000000   0.000000   0.001226  -0.001213
    13  C    0.000000   0.000000   0.000000   0.000000   0.000392   0.000097
    14  C    0.000000   0.000000   0.000000   0.000000   0.379794   0.382870
    15  O   -0.000546  -0.000669  -0.000486   0.000568   0.000116   0.000045
    16  Si  -0.022960  -0.025031  -0.023485  -0.013994  -0.000120  -0.000222
    17  C   -0.001243   0.378962   0.376769   0.367736   0.000000   0.000000
    18  C    0.001189   0.001183  -0.001321  -0.000113  -0.000004   0.000003
    19  C    0.377393  -0.001053   0.001192  -0.000598   0.000000   0.000002
    20  H   -0.000021   0.000002   0.000441  -0.000033   0.000000   0.000000
    21  H   -0.000001  -0.000021   0.000004   0.000003   0.000049  -0.000002
    22  H    0.000008   0.000009  -0.000028   0.000050   0.000000   0.000000
    23  H   -0.024063  -0.000038   0.000002   0.000010   0.000000   0.000000
    24  H   -0.022477   0.000000  -0.000021   0.000008  -0.000001  -0.000001
    25  H    0.569964   0.000440   0.000006  -0.000028   0.000000   0.000000
    26  H    0.000440   0.571091  -0.023285  -0.023852   0.000000   0.000000
    27  H    0.000006  -0.023285   0.573195  -0.023903   0.000000   0.000000
    28  H   -0.000028  -0.023852  -0.023903   0.574386   0.000000   0.000000
    29  H    0.000000   0.000000   0.000000   0.000000   0.596104  -0.031900
    30  H    0.000000   0.000000   0.000000   0.000000  -0.031900   0.596011
    31  H   -0.000007   0.000000   0.000000   0.000000  -0.027796  -0.028120
    32  H    0.000000   0.000000   0.000000   0.000000   0.000931   0.000563
    33  H    0.000000   0.000000   0.000000   0.000000  -0.000013  -0.000040
    34  H    0.000000   0.000000   0.000000   0.000000  -0.000042   0.000002
    35  H    0.000000   0.000000   0.000000   0.000000   0.000866  -0.000022
    36  H    0.000000   0.000000   0.000000   0.000000  -0.000024  -0.000001
    37  C    0.000009   0.000011   0.000008   0.000000   0.000130   0.001934
    38  C   -0.000016   0.000151  -0.000032   0.000003  -0.000001  -0.000042
    39  C    0.000000   0.000012  -0.000007   0.000000   0.000000   0.000000
    40  H    0.000000   0.000000   0.000000   0.000000  -0.000014   0.000032
    41  H   -0.000002   0.000001   0.000000   0.000000  -0.000098   0.002189
    42  H    0.000101   0.000419  -0.000011   0.000001   0.000000   0.000003
    43  H    0.000000  -0.000001   0.000000   0.000000   0.000000   0.000000
    44  H    0.000000   0.000000   0.000000   0.000000   0.000000   0.000000
              31         32         33         34         35         36
     1  C    0.004018  -0.030548  -0.030751   0.004184  -0.004985  -0.007206
     2  C   -0.029352  -0.005713   0.005247   0.000210   0.001679  -0.000628
     3  C   -0.008727  -0.000052  -0.000084  -0.000003  -0.000009  -0.000119
     4  C    0.000295   0.000035   0.000013   0.000001  -0.000007   0.000199
     5  C   -0.000022  -0.000059   0.000028  -0.000009   0.000022   0.000504
     6  H   -0.000045  -0.000333  -0.005653  -0.000131  -0.000054   0.000254
     7  H   -0.001643   0.000226   0.000059  -0.000166   0.002158   0.000745
     8  H    0.000008  -0.000001   0.000000   0.000000  -0.000008   0.000016
     9  H   -0.000007   0.000000  -0.000001   0.000000   0.000000  -0.000001
    10  O   -0.000048   0.003314   0.000496   0.000080  -0.000068   0.008080
    11  O    0.000000   0.000001  -0.000010   0.000000   0.000000  -0.000056
    12  C    0.000031   0.373318   0.379646  -0.027568  -0.034472  -0.037475
    13  C   -0.000012  -0.035210  -0.039100   0.383092   0.386448   0.388775
    14  C    0.379902   0.002601  -0.000034  -0.000011   0.000227   0.000076
    15  O    0.009796   0.000000   0.000000   0.000000   0.000004   0.000000
    16  Si   0.003086  -0.000003   0.000002   0.000001  -0.000017  -0.000010
    17  C    0.000011   0.000000   0.000000   0.000000   0.000000   0.000000
    18  C   -0.000253   0.000000   0.000000   0.000000   0.000018   0.000000
    19  C   -0.000117   0.000000   0.000000   0.000000   0.000000   0.000000
    20  H    0.000003   0.000000   0.000000   0.000000   0.000064   0.000012
    21  H    0.000080   0.000000   0.000000   0.000000   0.000142  -0.000001
    22  H    0.000002   0.000000   0.000000   0.000000  -0.000001   0.000000
    23  H    0.000002   0.000000   0.000000   0.000000   0.000000   0.000000
    24  H    0.000489   0.000000   0.000000   0.000000   0.000000   0.000000
    25  H   -0.000007   0.000000   0.000000   0.000000   0.000000   0.000000
    26  H    0.000000   0.000000   0.000000   0.000000   0.000000   0.000000
    27  H    0.000000   0.000000   0.000000   0.000000   0.000000   0.000000
    28  H    0.000000   0.000000   0.000000   0.000000   0.000000   0.000000
    29  H   -0.027796   0.000931  -0.000013  -0.000042   0.000866  -0.000024
    30  H   -0.028120   0.000563  -0.000040   0.000002  -0.000022  -0.000001
    31  H    0.565432   0.000002   0.000001   0.000000  -0.000013   0.000002
    32  H    0.000002   0.614480  -0.032353  -0.002373  -0.005129   0.005280
    33  H    0.000001  -0.032353   0.609218  -0.004360   0.005030  -0.003387
    34  H    0.000000  -0.002373  -0.004360   0.595667  -0.030339  -0.029889
    35  H   -0.000013  -0.005129   0.005030  -0.030339   0.600261  -0.032465
    36  H    0.000002   0.005280  -0.003387  -0.029889  -0.032465   0.587349
    37  C   -0.000520  -0.000006  -0.000001   0.000000  -0.000002   0.000001
    38  C   -0.000060   0.000000   0.000000   0.000000   0.000000   0.000000
    39  C    0.000000   0.000000   0.000000   0.000000   0.000000   0.000000
    40  H    0.000045  -0.000001   0.000002   0.000000   0.000000   0.000000
    41  H    0.001156  -0.000001   0.000001   0.000000   0.000000   0.000000
    42  H    0.000000   0.000000   0.000000   0.000000   0.000000   0.000000
    43  H    0.000000   0.000000   0.000000   0.000000   0.000000   0.000000
    44  H    0.000000   0.000000   0.000000   0.000000   0.000000   0.000000
              37         38         39         40         41         42
     1  C   -0.001788   0.000015  -0.000019   0.001900  -0.000497   0.000001
     2  C   -0.056970   0.005029  -0.000032  -0.004175  -0.009085   0.000040
     3  C    0.348377  -0.036081  -0.002028  -0.026035  -0.032267  -0.004914
     4  C   -0.071157  -0.009622  -0.000663  -0.004689   0.006317  -0.000306
     5  C    0.001791  -0.000266   0.000242   0.002398  -0.000097   0.000027
     6  H    0.004860  -0.000009   0.000001   0.000183   0.000223   0.000001
     7  H    0.005917  -0.000121   0.000000  -0.000059   0.000013   0.000000
     8  H    0.005560   0.000142   0.000006   0.000043  -0.000165  -0.000001
     9  H   -0.010069   0.011763   0.004524   0.000181   0.000222   0.000267
    10  O   -0.002547   0.000029  -0.000005   0.001876   0.000052   0.000000
    11  O    0.000124  -0.000054  -0.000022  -0.000263   0.000001   0.000000
    12  C   -0.000093  -0.000001   0.000000   0.000160  -0.000023   0.000000
    13  C    0.000004   0.000000   0.000000  -0.000002   0.000000   0.000000
    14  C   -0.009809   0.000062   0.000002   0.000131   0.003220  -0.000004
    15  O   -0.066210   0.001139   0.000474   0.003534  -0.000294   0.005137
    16  Si  -0.001892   0.001254   0.000135   0.000120   0.000453   0.002137
    17  C    0.000035  -0.000186  -0.000013   0.000000   0.000001  -0.000079
    18  C   -0.000061   0.000004   0.000000   0.000001   0.000000   0.000005
    19  C   -0.000012  -0.000039   0.000000   0.000000  -0.000011  -0.000066
    20  H   -0.000004   0.000000   0.000000   0.000000   0.000000   0.000000
    21  H   -0.000004   0.000000   0.000000   0.000000   0.000000   0.000000
    22  H    0.000001   0.000000   0.000000   0.000000   0.000000   0.000000
    23  H    0.000000   0.000000   0.000000   0.000000   0.000000   0.000000
    24  H   -0.000002   0.000001   0.000000   0.000000   0.000000  -0.000001
    25  H    0.000009  -0.000016   0.000000   0.000000  -0.000002   0.000101
    26  H    0.000011   0.000151   0.000012   0.000000   0.000001   0.000419
    27  H    0.000008  -0.000032  -0.000007   0.000000   0.000000  -0.000011
    28  H    0.000000   0.000003   0.000000   0.000000   0.000000   0.000001
    29  H    0.000130  -0.000001   0.000000  -0.000014  -0.000098   0.000000
    30  H    0.001934  -0.000042   0.000000   0.000032   0.002189   0.000003
    31  H   -0.000520  -0.000060   0.000000   0.000045   0.001156   0.000000
    32  H   -0.000006   0.000000   0.000000  -0.000001  -0.000001   0.000000
    33  H   -0.000001   0.000000   0.000000   0.000002   0.000001   0.000000
    34  H    0.000000   0.000000   0.000000   0.000000   0.000000   0.000000
    35  H   -0.000002   0.000000   0.000000   0.000000   0.000000   0.000000
    36  H    0.000001   0.000000   0.000000   0.000000   0.000000   0.000000
    37  C    5.061652   0.386609  -0.041048   0.362953   0.367883  -0.049523
    38  C    0.386609   4.764423   0.655252  -0.038829  -0.033033   0.385514
    39  C   -0.041048   0.655252   4.934299  -0.005969   0.001030  -0.045788
    40  H    0.362953  -0.038829  -0.005969   0.619923  -0.031074   0.005184
    41  H    0.367883  -0.033033   0.001030  -0.031074   0.604827  -0.002159
    42  H   -0.049523   0.385514  -0.045788   0.005184  -0.002159   0.600191
    43  H    0.004684  -0.025907   0.376562   0.000092  -0.000214  -0.007947
    44  H   -0.012110  -0.034114   0.381647   0.006259   0.000184   0.005609
              43         44
     1  C    0.000000  -0.000006
     2  C    0.000003  -0.000010
     3  C   -0.000046   0.000058
     4  C   -0.000049  -0.000019
     5  C   -0.000003   0.000172
     6  H    0.000000   0.000004
     7  H    0.000000   0.000000
     8  H    0.000000   0.000001
     9  H    0.000064   0.000028
    10  O    0.000000  -0.000008
    11  O    0.000000   0.000023
    12  C    0.000000   0.000000
    13  C    0.000000   0.000000
    14  C    0.000000   0.000000
    15  O    0.000003  -0.000002
    16  Si   0.000013   0.000011
    17  C    0.000000   0.000000
    18  C    0.000000   0.000000
    19  C    0.000000   0.000000
    20  H    0.000000   0.000000
    21  H    0.000000   0.000000
    22  H    0.000000   0.000000
    23  H    0.000000   0.000000
    24  H    0.000000   0.000000
    25  H    0.000000   0.000000
    26  H   -0.000001   0.000000
    27  H    0.000000   0.000000
    28  H    0.000000   0.000000
    29  H    0.000000   0.000000
    30  H    0.000000   0.000000
    31  H    0.000000   0.000000
    32  H    0.000000   0.000000
    33  H    0.000000   0.000000
    34  H    0.000000   0.000000
    35  H    0.000000   0.000000
    36  H    0.000000   0.000000
    37  C    0.004684  -0.012110
    38  C   -0.025907  -0.034114
    39  C    0.376562   0.381647
    40  H    0.000092   0.006259
    41  H   -0.000214   0.000184
    42  H   -0.007947   0.005609
    43  H    0.591351  -0.043506
    44  H   -0.043506   0.592350
 Mulliken charges:
               1
     1  C    0.171129
     2  C   -0.094456
     3  C    0.310990
     4  C   -0.298576
     5  C    0.589817
     6  H    0.113882
     7  H    0.104555
     8  H    0.150231
     9  H    0.147771
    10  O   -0.486688
    11  O   -0.499539
    12  C   -0.191487
    13  C   -0.332201
    14  C   -0.340912
    15  O   -0.654036
    16  Si   0.917626
    17  C   -0.549425
    18  C   -0.558352
    19  C   -0.535014
    20  H    0.119174
    21  H    0.120796
    22  H    0.123197
    23  H    0.118685
    24  H    0.120329
    25  H    0.122302
    26  H    0.121483
    27  H    0.119509
    28  H    0.119655
    29  H    0.114282
    30  H    0.111976
    31  H    0.132379
    32  H    0.111031
    33  H    0.116044
    34  H    0.111653
    35  H    0.110673
    36  H    0.119970
    37  C   -0.228716
    38  C   -0.032977
    39  C   -0.258595
    40  H    0.106093
    41  H    0.121248
    42  H    0.106161
    43  H    0.104901
    44  H    0.103432
 Sum of Mulliken charges =   0.00000
 Mulliken charges with hydrogens summed into heavy atoms:
               1
     1  C    0.285010
     2  C    0.010099
     3  C    0.310990
     4  C   -0.000574
     5  C    0.589817
    10  O   -0.486688
    11  O   -0.499539
    12  C    0.035588
    13  C    0.010094
    14  C    0.017726
    15  O   -0.654036
    16  Si   0.917626
    17  C   -0.188778
    18  C   -0.195185
    19  C   -0.173698
    37  C   -0.001375
    38  C    0.073184
    39  C   -0.050262
 Electronic spatial extent (au):  <R**2>=           5319.4974
 Charge=              0.0000 electrons
 Dipole moment (field-independent basis, Debye):
    X=             -2.0634    Y=             -3.6213    Z=              3.1002  Tot=              5.1945
 Quadrupole moment (field-independent basis, Debye-Ang):
   XX=           -118.4772   YY=           -119.0802   ZZ=           -125.0311
   XY=             -6.7225   XZ=             12.7929   YZ=              6.6944
 Traceless Quadrupole moment (field-independent basis, Debye-Ang):
   XX=              2.3857   YY=              1.7826   ZZ=             -4.1683
   XY=             -6.7225   XZ=             12.7929   YZ=              6.6944
 Octapole moment (field-independent basis, Debye-Ang**2):
  XXX=            -10.7833  YYY=             -0.3966  ZZZ=             12.8708  XYY=             -7.5209
  XXY=            -23.0340  XXZ=             19.2495  XZZ=            -10.9055  YZZ=            -23.1699
  YYZ=             10.5616  XYZ=             12.8234
 Hexadecapole moment (field-independent basis, Debye-Ang**3):
 XXXX=          -3644.3756 YYYY=          -2240.7368 ZZZZ=          -1214.7003 XXXY=            -37.4388
 XXXZ=             62.1021 YYYX=            -17.0034 YYYZ=            -14.6109 ZZZX=             29.1921
 ZZZY=             18.9005 XXYY=           -974.1165 XXZZ=           -850.8133 YYZZ=           -633.0125
 XXYZ=             47.3226 YYXZ=             32.0669 ZZXY=            -26.6315
 N-N= 1.632999306424D+03 E-N=-5.756290302579D+03  KE= 1.055907221751D+03
 1\1\GINC-CPU-E-532\FOpt\RB3LYP\6-31G(d,p)\C14H26O3Si1\KE291\06-Feb-201
 9\0\\# b3lyp/6-31g(d,p) Opt=(maxcycles=25) scrf=(solvent=chloroform)\\
 P_ng_correct1ginp002\\0,1\C,1.0156218512,-0.4838270299,0.6217013276\C,
 -0.5201905822,-0.5028380694,0.6237931753\C,-1.0924787805,0.59165499,1.
 5680637812\C,-0.5565026481,1.9415955654,1.0681539272\C,0.9429498925,1.
 9965161934,0.8428952712\H,1.3694938903,-0.8798644497,1.5814546685\H,-0
 .8716471406,-0.2285844438,-0.3781849655\H,-1.0067342023,2.1744525713,0
 .0955443373\H,-0.812728281,2.7553007258,1.7487436464\O,1.5927885153,0.
 8573783199,0.5263486024\O,1.5682984498,3.0358724252,0.8694059483\C,1.6
 866114795,-1.2933098742,-0.4952166663\C,1.3215015312,-0.8702826581,-1.
 9211043863\C,-1.0368856322,-1.9156532899,0.9349482707\O,-2.5159422414,
 0.5466455667,1.5290756773\Si,-3.7405444911,1.2065906664,0.5827827657\C
 ,-3.9533776511,3.0489136108,0.9315482253\C,-3.4562062827,0.9330310775,
 -1.2646951458\C,-5.2747529969,0.2702060723,1.1363500478\H,-2.590043203
 5,1.4795212324,-1.6522955579\H,-3.3169370075,-0.1281263422,-1.49697275
 82\H,-4.3327503868,1.2806461307,-1.8243987691\H,-6.1644402078,0.634136
 287,0.6104557276\H,-5.1801178459,-0.8017177553,0.9337946129\H,-5.44728
 21428,0.3940462934,2.2104881335\H,-4.0773546073,3.2335230188,2.0039255
 201\H,-3.1044216319,3.6469877484,0.585723748\H,-4.84956198,3.424990071
 5,0.4242000904\H,-0.8439451359,-2.5963088755,0.1016231905\H,-0.5604684
 487,-2.3394897749,1.8252810359\H,-2.1146382808,-1.8896859014,1.1074790
 117\H,1.4514144816,-2.3515980569,-0.3385240875\H,2.7683937203,-1.19565
 47731,-0.3514850797\H,1.92123614,-1.428193902,-2.646250559\H,0.2688547
 806,-1.0603406367,-2.1529896751\H,1.5171461545,0.1950264495,-2.0749609
 132\C,-0.6974524253,0.3618635355,3.0526675101\C,-1.2793539789,1.372164
 1149,4.003408069\C,-0.5642148226,2.1637347413,4.8045321381\H,0.3938865
 339,0.358628476,3.1502427542\H,-1.0516631983,-0.637155711,3.3342376248
 \H,-2.3658540912,1.4296600726,4.0237830117\H,-1.039243209,2.8659475102
 ,5.4835383455\H,0.5231841134,2.1362100771,4.8151003673\\Version=ES64L-
 G09RevD.01\State=1-A\HF=-1064.4242459\RMSD=4.210e-09\RMSF=4.516e-06\Di
 pole=-1.3351266,-1.5055717,-0.3567208\Quadrupole=-3.5386441,-0.5216991
 ,4.0603431,-11.230913,1.9665511,1.6812878\PG=C01 [X(C14H26O3Si1)]\\@


 If your ship doesn't come in, swim out to it!
                          -- Jonathan Winters
 Job cpu time:       0 days  2 hours 21 minutes  8.8 seconds.
 File lengths (MBytes):  RWF=    375 Int=      0 D2E=      0 Chk=     17 Scr=      1
 Normal termination of Gaussian 09 at Wed Feb  6 11:21:33 2019.
