 Entering Gaussian System, Link 0=/usr/local/Cluster-Apps/gaussian/g09/g09
 Initial command:
 /usr/local/Cluster-Apps/gaussian/g09/l1.exe "/home/ke291/rds/hpc-work/06Feb0927IP1/Gau-172711.inp" -scrdir="/home/ke291/rds/hpc-work/06Feb0927IP1/"
 Entering Link 1 = /usr/local/Cluster-Apps/gaussian/g09/l1.exe PID=    172716.
  
 Copyright (c) 1988,1990,1992,1993,1995,1998,2003,2009,2013,
            Gaussian, Inc.  All Rights Reserved.
  
 This is part of the Gaussian(R) 09 program.  It is based on
 the Gaussian(R) 03 system (copyright 2003, Gaussian, Inc.),
 the Gaussian(R) 98 system (copyright 1998, Gaussian, Inc.),
 the Gaussian(R) 94 system (copyright 1995, Gaussian, Inc.),
 the Gaussian 92(TM) system (copyright 1992, Gaussian, Inc.),
 the Gaussian 90(TM) system (copyright 1990, Gaussian, Inc.),
 the Gaussian 88(TM) system (copyright 1988, Gaussian, Inc.),
 the Gaussian 86(TM) system (copyright 1986, Carnegie Mellon
 University), and the Gaussian 82(TM) system (copyright 1983,
 Carnegie Mellon University). Gaussian is a federally registered
 trademark of Gaussian, Inc.
  
 This software contains proprietary and confidential information,
 including trade secrets, belonging to Gaussian, Inc.
  
 This software is provided under written license and may be
 used, copied, transmitted, or stored only in accord with that
 written license.
  
 The following legend is applicable only to US Government
 contracts under FAR:
  
                    RESTRICTED RIGHTS LEGEND
  
 Use, reproduction and disclosure by the US Government is
 subject to restrictions as set forth in subparagraphs (a)
 and (c) of the Commercial Computer Software - Restricted
 Rights clause in FAR 52.227-19.
  
 Gaussian, Inc.
 340 Quinnipiac St., Bldg. 40, Wallingford CT 06492
  
  
 ---------------------------------------------------------------
 Warning -- This program may not be used in any manner that
 competes with the business of Gaussian, Inc. or will provide
 assistance to any competitor of Gaussian, Inc.  The licensee
 of this program is prohibited from giving any competitor of
 Gaussian, Inc. access to this program.  By using this program,
 the user acknowledges that Gaussian, Inc. is engaged in the
 business of creating and licensing software in the field of
 computational chemistry and represents and warrants to the
 licensee that it is not a competitor of Gaussian, Inc. and that
 it will not use this program in any manner prohibited above.
 ---------------------------------------------------------------
  

 Cite this work as:
 Gaussian 09, Revision D.01,
 M. J. Frisch, G. W. Trucks, H. B. Schlegel, G. E. Scuseria, 
 M. A. Robb, J. R. Cheeseman, G. Scalmani, V. Barone, B. Mennucci, 
 G. A. Petersson, H. Nakatsuji, M. Caricato, X. Li, H. P. Hratchian, 
 A. F. Izmaylov, J. Bloino, G. Zheng, J. L. Sonnenberg, M. Hada, 
 M. Ehara, K. Toyota, R. Fukuda, J. Hasegawa, M. Ishida, T. Nakajima, 
 Y. Honda, O. Kitao, H. Nakai, T. Vreven, J. A. Montgomery, Jr., 
 J. E. Peralta, F. Ogliaro, M. Bearpark, J. J. Heyd, E. Brothers, 
 K. N. Kudin, V. N. Staroverov, T. Keith, R. Kobayashi, J. Normand, 
 K. Raghavachari, A. Rendell, J. C. Burant, S. S. Iyengar, J. Tomasi, 
 M. Cossi, N. Rega, J. M. Millam, M. Klene, J. E. Knox, J. B. Cross, 
 V. Bakken, C. Adamo, J. Jaramillo, R. Gomperts, R. E. Stratmann, 
 O. Yazyev, A. J. Austin, R. Cammi, C. Pomelli, J. W. Ochterski, 
 R. L. Martin, K. Morokuma, V. G. Zakrzewski, G. A. Voth, 
 P. Salvador, J. J. Dannenberg, S. Dapprich, A. D. Daniels, 
 O. Farkas, J. B. Foresman, J. V. Ortiz, J. Cioslowski, 
 and D. J. Fox, Gaussian, Inc., Wallingford CT, 2013.
 
 ******************************************
 Gaussian 09:  ES64L-G09RevD.01 24-Apr-2013
                 6-Feb-2019 
 ******************************************
 %nprocshared=2
 Will use up to    2 processors via shared memory.
 %mem=6000MB
 %chk=/home/ke291/rds/hpc-work/06Feb0927IP1/P_ng_2ginp003.chk
 ---------------------------------------------------------------
 # b3lyp/6-31g(d,p) Opt=(maxcycles=25) scrf=(solvent=chloroform)
 ---------------------------------------------------------------
 1/6=25,14=-1,18=20,19=15,26=3,38=1/1,3;
 2/9=110,12=2,17=6,18=5,40=1/2;
 3/5=1,6=6,7=101,11=2,16=1,25=1,30=1,70=2201,71=1,72=7,74=-5/1,2,3;
 4//1;
 5/5=2,38=5,53=7/2;
 6/7=2,8=2,9=2,10=2,28=1/1;
 7//1,2,3,16;
 1/6=25,14=-1,18=20,19=15,26=3/3(2);
 2/9=110/2;
 99//99;
 2/9=110/2;
 3/5=1,6=6,7=101,11=2,16=1,25=1,30=1,70=2205,71=1,72=7,74=-5/1,2,3;
 4/5=5,16=3,69=1/1;
 5/5=2,38=5,53=7/2;
 7//1,2,3,16;
 1/6=25,14=-1,18=20,19=15,26=3/3(-5);
 2/9=110/2;
 6/7=2,8=2,9=2,10=2,19=2,28=1/1;
 99/9=1/99;
 -------------
 P_ng_2ginp003
 -------------
 Symbolic Z-matrix:
 Charge =  0 Multiplicity = 1
 C                    -0.25789  -0.07169   1.24678 
 C                    -0.98441   1.0465    0.48575 
 C                    -1.92965   1.8378    1.44498 
 C                    -1.00204   2.42846   2.51604 
 C                    -0.15724   1.41171   3.22174 
 H                    -0.96172  -0.87644   1.49123 
 H                    -0.22799   1.77082   0.14434 
 H                    -0.32088   3.16966   2.08002 
 H                    -1.58991   2.94964   3.28072 
 O                     0.30437   0.37227   2.50286 
 O                     0.1788    1.56774   4.39209 
 C                     0.89473  -0.69019   0.43424 
 C                     1.59536  -1.82275   1.17691 
 C                    -1.64559   0.53089  -0.8016 
 O                    -2.52292   2.86198   0.61523 
 Si                   -3.25764   4.2958    1.06498 
 C                    -1.98129   5.61482   1.48007 
 C                    -4.26288   4.93867  -0.40404 
 C                    -4.43822   4.13446   2.51089 
 H                    -3.61263   5.0956   -1.26946 
 H                    -5.03794   4.2169   -0.67756 
 H                    -4.74372   5.8883   -0.15229 
 H                    -5.20225   3.37832   2.30848 
 H                    -3.90858   3.85905   3.42698 
 H                    -4.94742   5.08573   2.69414 
 H                    -1.45458   5.37576   2.40778 
 H                    -1.2445    5.70108   0.67613 
 H                    -2.46582   6.5875    1.60762 
 H                    -0.88628   0.32011  -1.56258 
 H                    -2.19679  -0.39814  -0.63538 
 H                    -2.32589   1.2659   -1.24149 
 H                     1.64039   0.08139   0.2073 
 H                     0.52611  -1.08574  -0.51745 
 H                     2.37385  -2.26133   0.5444 
 H                     2.07336  -1.4665    2.09458 
 H                     0.88686  -2.61433   1.44067 
 C                    -3.03116   0.96384   2.1329 
 C                    -4.06192   0.35134   1.22435 
 C                    -4.3993   -0.94477   1.23666 
 H                    -3.58382   1.58314   2.84723 
 H                    -2.56635   0.17932   2.74194 
 H                    -4.56874   1.01969   0.53032 
 H                    -5.15968  -1.32492   0.56053 
 H                    -3.93652  -1.65363   1.9163 
 

 GradGradGradGradGradGradGradGradGradGradGradGradGradGradGradGradGradGrad
 Berny optimization.
 Initialization pass.
                           ----------------------------
                           !    Initial Parameters    !
                           ! (Angstroms and Degrees)  !
 --------------------------                            --------------------------
 ! Name  Definition              Value          Derivative Info.                !
 --------------------------------------------------------------------------------
 ! R1    R(1,2)                  1.5354         estimate D2E/DX2                !
 ! R2    R(1,6)                  1.0967         estimate D2E/DX2                !
 ! R3    R(1,10)                 1.446          estimate D2E/DX2                !
 ! R4    R(1,12)                 1.5399         estimate D2E/DX2                !
 ! R5    R(2,3)                  1.562          estimate D2E/DX2                !
 ! R6    R(2,7)                  1.1015         estimate D2E/DX2                !
 ! R7    R(2,14)                 1.5363         estimate D2E/DX2                !
 ! R8    R(3,4)                  1.5351         estimate D2E/DX2                !
 ! R9    R(3,15)                 1.4455         estimate D2E/DX2                !
 ! R10   R(3,37)                 1.5654         estimate D2E/DX2                !
 ! R11   R(4,5)                  1.4985         estimate D2E/DX2                !
 ! R12   R(4,8)                  1.097          estimate D2E/DX2                !
 ! R13   R(4,9)                  1.0963         estimate D2E/DX2                !
 ! R14   R(5,10)                 1.3455         estimate D2E/DX2                !
 ! R15   R(5,11)                 1.2276         estimate D2E/DX2                !
 ! R16   R(12,13)                1.5248         estimate D2E/DX2                !
 ! R17   R(12,32)                1.0967         estimate D2E/DX2                !
 ! R18   R(12,33)                1.0946         estimate D2E/DX2                !
 ! R19   R(13,34)                1.0947         estimate D2E/DX2                !
 ! R20   R(13,35)                1.0943         estimate D2E/DX2                !
 ! R21   R(13,36)                1.0946         estimate D2E/DX2                !
 ! R22   R(14,29)                1.0955         estimate D2E/DX2                !
 ! R23   R(14,30)                1.093          estimate D2E/DX2                !
 ! R24   R(14,31)                1.0939         estimate D2E/DX2                !
 ! R25   R(15,16)                1.6727         estimate D2E/DX2                !
 ! R26   R(16,17)                1.8818         estimate D2E/DX2                !
 ! R27   R(16,18)                1.8926         estimate D2E/DX2                !
 ! R28   R(16,19)                1.8736         estimate D2E/DX2                !
 ! R29   R(17,26)                1.0933         estimate D2E/DX2                !
 ! R30   R(17,27)                1.0939         estimate D2E/DX2                !
 ! R31   R(17,28)                1.0941         estimate D2E/DX2                !
 ! R32   R(18,20)                1.0938         estimate D2E/DX2                !
 ! R33   R(18,21)                1.0938         estimate D2E/DX2                !
 ! R34   R(18,22)                1.0938         estimate D2E/DX2                !
 ! R35   R(19,23)                1.0938         estimate D2E/DX2                !
 ! R36   R(19,24)                1.0934         estimate D2E/DX2                !
 ! R37   R(19,25)                1.0944         estimate D2E/DX2                !
 ! R38   R(37,38)                1.5044         estimate D2E/DX2                !
 ! R39   R(37,40)                1.0951         estimate D2E/DX2                !
 ! R40   R(37,41)                1.0966         estimate D2E/DX2                !
 ! R41   R(38,39)                1.3394         estimate D2E/DX2                !
 ! R42   R(38,42)                1.0887         estimate D2E/DX2                !
 ! R43   R(39,43)                1.0862         estimate D2E/DX2                !
 ! R44   R(39,44)                1.0856         estimate D2E/DX2                !
 ! A1    A(2,1,6)              109.951          estimate D2E/DX2                !
 ! A2    A(2,1,10)             113.0135         estimate D2E/DX2                !
 ! A3    A(2,1,12)             112.6533         estimate D2E/DX2                !
 ! A4    A(6,1,10)             106.3332         estimate D2E/DX2                !
 ! A5    A(6,1,12)             107.6531         estimate D2E/DX2                !
 ! A6    A(10,1,12)            106.895          estimate D2E/DX2                !
 ! A7    A(1,2,3)              110.5428         estimate D2E/DX2                !
 ! A8    A(1,2,7)              107.9139         estimate D2E/DX2                !
 ! A9    A(1,2,14)             111.9972         estimate D2E/DX2                !
 ! A10   A(3,2,7)              105.8306         estimate D2E/DX2                !
 ! A11   A(3,2,14)             115.0982         estimate D2E/DX2                !
 ! A12   A(7,2,14)             104.8623         estimate D2E/DX2                !
 ! A13   A(2,3,4)              104.9348         estimate D2E/DX2                !
 ! A14   A(2,3,15)             104.7618         estimate D2E/DX2                !
 ! A15   A(2,3,37)             114.3861         estimate D2E/DX2                !
 ! A16   A(4,3,15)             112.0793         estimate D2E/DX2                !
 ! A17   A(4,3,37)             109.4762         estimate D2E/DX2                !
 ! A18   A(15,3,37)            111.0415         estimate D2E/DX2                !
 ! A19   A(3,4,5)              114.0903         estimate D2E/DX2                !
 ! A20   A(3,4,8)              110.9687         estimate D2E/DX2                !
 ! A21   A(3,4,9)              110.215          estimate D2E/DX2                !
 ! A22   A(5,4,8)              107.191          estimate D2E/DX2                !
 ! A23   A(5,4,9)              107.2401         estimate D2E/DX2                !
 ! A24   A(8,4,9)              106.7967         estimate D2E/DX2                !
 ! A25   A(4,5,10)             117.7735         estimate D2E/DX2                !
 ! A26   A(4,5,11)             121.1359         estimate D2E/DX2                !
 ! A27   A(10,5,11)            120.9075         estimate D2E/DX2                !
 ! A28   A(1,10,5)             124.6041         estimate D2E/DX2                !
 ! A29   A(1,12,13)            112.6592         estimate D2E/DX2                !
 ! A30   A(1,12,32)            109.604          estimate D2E/DX2                !
 ! A31   A(1,12,33)            110.6004         estimate D2E/DX2                !
 ! A32   A(13,12,32)           108.115          estimate D2E/DX2                !
 ! A33   A(13,12,33)           108.0477         estimate D2E/DX2                !
 ! A34   A(32,12,33)           107.6549         estimate D2E/DX2                !
 ! A35   A(12,13,34)           110.054          estimate D2E/DX2                !
 ! A36   A(12,13,35)           111.5511         estimate D2E/DX2                !
 ! A37   A(12,13,36)           110.9212         estimate D2E/DX2                !
 ! A38   A(34,13,35)           107.7169         estimate D2E/DX2                !
 ! A39   A(34,13,36)           108.0463         estimate D2E/DX2                !
 ! A40   A(35,13,36)           108.4264         estimate D2E/DX2                !
 ! A41   A(2,14,29)            110.3869         estimate D2E/DX2                !
 ! A42   A(2,14,30)            112.0169         estimate D2E/DX2                !
 ! A43   A(2,14,31)            112.2793         estimate D2E/DX2                !
 ! A44   A(29,14,30)           106.9568         estimate D2E/DX2                !
 ! A45   A(29,14,31)           106.3207         estimate D2E/DX2                !
 ! A46   A(30,14,31)           108.5822         estimate D2E/DX2                !
 ! A47   A(3,15,16)            129.2932         estimate D2E/DX2                !
 ! A48   A(15,16,17)           111.2367         estimate D2E/DX2                !
 ! A49   A(15,16,18)           108.4073         estimate D2E/DX2                !
 ! A50   A(15,16,19)           114.2336         estimate D2E/DX2                !
 ! A51   A(17,16,18)           107.0602         estimate D2E/DX2                !
 ! A52   A(17,16,19)           108.5122         estimate D2E/DX2                !
 ! A53   A(18,16,19)           107.0724         estimate D2E/DX2                !
 ! A54   A(16,17,26)           111.1415         estimate D2E/DX2                !
 ! A55   A(16,17,27)           110.4874         estimate D2E/DX2                !
 ! A56   A(16,17,28)           110.3944         estimate D2E/DX2                !
 ! A57   A(26,17,27)           108.4447         estimate D2E/DX2                !
 ! A58   A(26,17,28)           107.9878         estimate D2E/DX2                !
 ! A59   A(27,17,28)           108.2913         estimate D2E/DX2                !
 ! A60   A(16,18,20)           110.3102         estimate D2E/DX2                !
 ! A61   A(16,18,21)           110.262          estimate D2E/DX2                !
 ! A62   A(16,18,22)           110.4721         estimate D2E/DX2                !
 ! A63   A(20,18,21)           108.5458         estimate D2E/DX2                !
 ! A64   A(20,18,22)           108.5956         estimate D2E/DX2                !
 ! A65   A(21,18,22)           108.5992         estimate D2E/DX2                !
 ! A66   A(16,19,23)           110.9065         estimate D2E/DX2                !
 ! A67   A(16,19,24)           111.2866         estimate D2E/DX2                !
 ! A68   A(16,19,25)           110.3366         estimate D2E/DX2                !
 ! A69   A(23,19,24)           108.6181         estimate D2E/DX2                !
 ! A70   A(23,19,25)           107.8694         estimate D2E/DX2                !
 ! A71   A(24,19,25)           107.699          estimate D2E/DX2                !
 ! A72   A(3,37,38)            116.3627         estimate D2E/DX2                !
 ! A73   A(3,37,40)            109.0296         estimate D2E/DX2                !
 ! A74   A(3,37,41)            110.1964         estimate D2E/DX2                !
 ! A75   A(38,37,40)           106.1656         estimate D2E/DX2                !
 ! A76   A(38,37,41)           109.547          estimate D2E/DX2                !
 ! A77   A(40,37,41)           104.8458         estimate D2E/DX2                !
 ! A78   A(37,38,39)           124.1287         estimate D2E/DX2                !
 ! A79   A(37,38,42)           117.0026         estimate D2E/DX2                !
 ! A80   A(39,38,42)           118.8603         estimate D2E/DX2                !
 ! A81   A(38,39,43)           120.617          estimate D2E/DX2                !
 ! A82   A(38,39,44)           122.0219         estimate D2E/DX2                !
 ! A83   A(43,39,44)           117.3603         estimate D2E/DX2                !
 ! D1    D(6,1,2,3)             71.9142         estimate D2E/DX2                !
 ! D2    D(6,1,2,7)           -172.7896         estimate D2E/DX2                !
 ! D3    D(6,1,2,14)           -57.8719         estimate D2E/DX2                !
 ! D4    D(10,1,2,3)           -46.7212         estimate D2E/DX2                !
 ! D5    D(10,1,2,7)            68.575          estimate D2E/DX2                !
 ! D6    D(10,1,2,14)         -176.5072         estimate D2E/DX2                !
 ! D7    D(12,1,2,3)          -168.0141         estimate D2E/DX2                !
 ! D8    D(12,1,2,7)           -52.7179         estimate D2E/DX2                !
 ! D9    D(12,1,2,14)           62.1998         estimate D2E/DX2                !
 ! D10   D(2,1,10,5)            25.7836         estimate D2E/DX2                !
 ! D11   D(6,1,10,5)           -94.9325         estimate D2E/DX2                !
 ! D12   D(12,1,10,5)          150.2791         estimate D2E/DX2                !
 ! D13   D(2,1,12,13)         -178.6525         estimate D2E/DX2                !
 ! D14   D(2,1,12,32)           60.9262         estimate D2E/DX2                !
 ! D15   D(2,1,12,33)          -57.6164         estimate D2E/DX2                !
 ! D16   D(6,1,12,13)          -57.2646         estimate D2E/DX2                !
 ! D17   D(6,1,12,32)         -177.6859         estimate D2E/DX2                !
 ! D18   D(6,1,12,33)           63.7715         estimate D2E/DX2                !
 ! D19   D(10,1,12,13)          56.6322         estimate D2E/DX2                !
 ! D20   D(10,1,12,32)         -63.7891         estimate D2E/DX2                !
 ! D21   D(10,1,12,33)         177.6683         estimate D2E/DX2                !
 ! D22   D(1,2,3,4)             60.7587         estimate D2E/DX2                !
 ! D23   D(1,2,3,15)           178.9614         estimate D2E/DX2                !
 ! D24   D(1,2,3,37)           -59.2274         estimate D2E/DX2                !
 ! D25   D(7,2,3,4)            -55.8362         estimate D2E/DX2                !
 ! D26   D(7,2,3,15)            62.3665         estimate D2E/DX2                !
 ! D27   D(7,2,3,37)          -175.8223         estimate D2E/DX2                !
 ! D28   D(14,2,3,4)          -171.1274         estimate D2E/DX2                !
 ! D29   D(14,2,3,15)          -52.9247         estimate D2E/DX2                !
 ! D30   D(14,2,3,37)           68.8865         estimate D2E/DX2                !
 ! D31   D(1,2,14,29)          -72.9883         estimate D2E/DX2                !
 ! D32   D(1,2,14,30)           46.0826         estimate D2E/DX2                !
 ! D33   D(1,2,14,31)          168.5715         estimate D2E/DX2                !
 ! D34   D(3,2,14,29)          159.6291         estimate D2E/DX2                !
 ! D35   D(3,2,14,30)          -81.2999         estimate D2E/DX2                !
 ! D36   D(3,2,14,31)           41.189          estimate D2E/DX2                !
 ! D37   D(7,2,14,29)           43.7825         estimate D2E/DX2                !
 ! D38   D(7,2,14,30)          162.8535         estimate D2E/DX2                !
 ! D39   D(7,2,14,31)          -74.6576         estimate D2E/DX2                !
 ! D40   D(2,3,4,5)            -55.3989         estimate D2E/DX2                !
 ! D41   D(2,3,4,8)             65.804          estimate D2E/DX2                !
 ! D42   D(2,3,4,9)           -176.1031         estimate D2E/DX2                !
 ! D43   D(15,3,4,5)          -168.5262         estimate D2E/DX2                !
 ! D44   D(15,3,4,8)           -47.3233         estimate D2E/DX2                !
 ! D45   D(15,3,4,9)            70.7697         estimate D2E/DX2                !
 ! D46   D(37,3,4,5)            67.8025         estimate D2E/DX2                !
 ! D47   D(37,3,4,8)          -170.9946         estimate D2E/DX2                !
 ! D48   D(37,3,4,9)           -52.9017         estimate D2E/DX2                !
 ! D49   D(2,3,15,16)         -160.1308         estimate D2E/DX2                !
 ! D50   D(4,3,15,16)          -46.8965         estimate D2E/DX2                !
 ! D51   D(37,3,15,16)          75.893          estimate D2E/DX2                !
 ! D52   D(2,3,37,38)          -64.925          estimate D2E/DX2                !
 ! D53   D(2,3,37,40)          175.0997         estimate D2E/DX2                !
 ! D54   D(2,3,37,41)           60.5386         estimate D2E/DX2                !
 ! D55   D(4,3,37,38)          177.6582         estimate D2E/DX2                !
 ! D56   D(4,3,37,40)           57.683          estimate D2E/DX2                !
 ! D57   D(4,3,37,41)          -56.8781         estimate D2E/DX2                !
 ! D58   D(15,3,37,38)          53.3784         estimate D2E/DX2                !
 ! D59   D(15,3,37,40)         -66.5969         estimate D2E/DX2                !
 ! D60   D(15,3,37,41)         178.8421         estimate D2E/DX2                !
 ! D61   D(3,4,5,10)            36.065          estimate D2E/DX2                !
 ! D62   D(3,4,5,11)          -148.8089         estimate D2E/DX2                !
 ! D63   D(8,4,5,10)           -87.2102         estimate D2E/DX2                !
 ! D64   D(8,4,5,11)            87.9158         estimate D2E/DX2                !
 ! D65   D(9,4,5,10)           158.4135         estimate D2E/DX2                !
 ! D66   D(9,4,5,11)           -26.4604         estimate D2E/DX2                !
 ! D67   D(4,5,10,1)           -19.9421         estimate D2E/DX2                !
 ! D68   D(11,5,10,1)          164.9201         estimate D2E/DX2                !
 ! D69   D(1,12,13,34)         177.3579         estimate D2E/DX2                !
 ! D70   D(1,12,13,35)         -63.1389         estimate D2E/DX2                !
 ! D71   D(1,12,13,36)          57.846          estimate D2E/DX2                !
 ! D72   D(32,12,13,34)        -61.3692         estimate D2E/DX2                !
 ! D73   D(32,12,13,35)         58.134          estimate D2E/DX2                !
 ! D74   D(32,12,13,36)        179.1189         estimate D2E/DX2                !
 ! D75   D(33,12,13,34)         54.8757         estimate D2E/DX2                !
 ! D76   D(33,12,13,35)        174.3789         estimate D2E/DX2                !
 ! D77   D(33,12,13,36)        -64.6362         estimate D2E/DX2                !
 ! D78   D(3,15,16,17)          78.9921         estimate D2E/DX2                !
 ! D79   D(3,15,16,18)        -163.5529         estimate D2E/DX2                !
 ! D80   D(3,15,16,19)         -44.2708         estimate D2E/DX2                !
 ! D81   D(15,16,17,26)        -69.7053         estimate D2E/DX2                !
 ! D82   D(15,16,17,27)         50.733          estimate D2E/DX2                !
 ! D83   D(15,16,17,28)        170.4922         estimate D2E/DX2                !
 ! D84   D(18,16,17,26)        172.0247         estimate D2E/DX2                !
 ! D85   D(18,16,17,27)        -67.537          estimate D2E/DX2                !
 ! D86   D(18,16,17,28)         52.2223         estimate D2E/DX2                !
 ! D87   D(19,16,17,26)         56.7725         estimate D2E/DX2                !
 ! D88   D(19,16,17,27)        177.2108         estimate D2E/DX2                !
 ! D89   D(19,16,17,28)        -63.0299         estimate D2E/DX2                !
 ! D90   D(15,16,18,20)        -58.8361         estimate D2E/DX2                !
 ! D91   D(15,16,18,21)         61.0416         estimate D2E/DX2                !
 ! D92   D(15,16,18,22)       -178.9105         estimate D2E/DX2                !
 ! D93   D(17,16,18,20)         61.2602         estimate D2E/DX2                !
 ! D94   D(17,16,18,21)       -178.8621         estimate D2E/DX2                !
 ! D95   D(17,16,18,22)        -58.8142         estimate D2E/DX2                !
 ! D96   D(19,16,18,20)        177.4712         estimate D2E/DX2                !
 ! D97   D(19,16,18,21)        -62.6511         estimate D2E/DX2                !
 ! D98   D(19,16,18,22)         57.3968         estimate D2E/DX2                !
 ! D99   D(15,16,19,23)        -55.5425         estimate D2E/DX2                !
 ! D100  D(15,16,19,24)         65.4959         estimate D2E/DX2                !
 ! D101  D(15,16,19,25)       -175.0074         estimate D2E/DX2                !
 ! D102  D(17,16,19,23)        179.7339         estimate D2E/DX2                !
 ! D103  D(17,16,19,24)        -59.2276         estimate D2E/DX2                !
 ! D104  D(17,16,19,25)         60.269          estimate D2E/DX2                !
 ! D105  D(18,16,19,23)         64.4897         estimate D2E/DX2                !
 ! D106  D(18,16,19,24)       -174.4719         estimate D2E/DX2                !
 ! D107  D(18,16,19,25)        -54.9752         estimate D2E/DX2                !
 ! D108  D(3,37,38,39)         129.5663         estimate D2E/DX2                !
 ! D109  D(3,37,38,42)         -51.5031         estimate D2E/DX2                !
 ! D110  D(40,37,38,39)       -108.9307         estimate D2E/DX2                !
 ! D111  D(40,37,38,42)         69.9999         estimate D2E/DX2                !
 ! D112  D(41,37,38,39)          3.7751         estimate D2E/DX2                !
 ! D113  D(41,37,38,42)       -177.2943         estimate D2E/DX2                !
 ! D114  D(37,38,39,43)        179.4039         estimate D2E/DX2                !
 ! D115  D(37,38,39,44)         -0.2681         estimate D2E/DX2                !
 ! D116  D(42,38,39,43)          0.4919         estimate D2E/DX2                !
 ! D117  D(42,38,39,44)       -179.1802         estimate D2E/DX2                !
 --------------------------------------------------------------------------------
 Trust Radius=3.00D-01 FncErr=1.00D-07 GrdErr=1.00D-06
 Number of steps in this run=     25 maximum allowed number of steps=    264.
 GradGradGradGradGradGradGradGradGradGradGradGradGradGradGradGradGradGrad

                          Input orientation:                          
 ---------------------------------------------------------------------
 Center     Atomic      Atomic             Coordinates (Angstroms)
 Number     Number       Type             X           Y           Z
 ---------------------------------------------------------------------
      1          6           0       -0.257893   -0.071691    1.246784
      2          6           0       -0.984405    1.046504    0.485751
      3          6           0       -1.929654    1.837795    1.444983
      4          6           0       -1.002040    2.428461    2.516041
      5          6           0       -0.157235    1.411714    3.221742
      6          1           0       -0.961724   -0.876440    1.491225
      7          1           0       -0.227988    1.770818    0.144335
      8          1           0       -0.320883    3.169655    2.080020
      9          1           0       -1.589908    2.949638    3.280722
     10          8           0        0.304367    0.372271    2.502861
     11          8           0        0.178803    1.567735    4.392089
     12          6           0        0.894733   -0.690188    0.434243
     13          6           0        1.595363   -1.822747    1.176906
     14          6           0       -1.645588    0.530894   -0.801601
     15          8           0       -2.522918    2.861982    0.615233
     16         14           0       -3.257637    4.295795    1.064984
     17          6           0       -1.981290    5.614818    1.480066
     18          6           0       -4.262882    4.938667   -0.404042
     19          6           0       -4.438216    4.134462    2.510892
     20          1           0       -3.612628    5.095598   -1.269456
     21          1           0       -5.037938    4.216898   -0.677563
     22          1           0       -4.743720    5.888297   -0.152287
     23          1           0       -5.202250    3.378324    2.308480
     24          1           0       -3.908579    3.859054    3.426982
     25          1           0       -4.947417    5.085729    2.694136
     26          1           0       -1.454582    5.375758    2.407782
     27          1           0       -1.244503    5.701079    0.676129
     28          1           0       -2.465821    6.587500    1.607622
     29          1           0       -0.886281    0.320107   -1.562577
     30          1           0       -2.196787   -0.398139   -0.635377
     31          1           0       -2.325892    1.265897   -1.241494
     32          1           0        1.640385    0.081387    0.207295
     33          1           0        0.526106   -1.085735   -0.517454
     34          1           0        2.373846   -2.261327    0.544402
     35          1           0        2.073361   -1.466495    2.094578
     36          1           0        0.886861   -2.614330    1.440668
     37          6           0       -3.031161    0.963843    2.132901
     38          6           0       -4.061920    0.351339    1.224350
     39          6           0       -4.399300   -0.944772    1.236655
     40          1           0       -3.583824    1.583136    2.847231
     41          1           0       -2.566349    0.179323    2.741941
     42          1           0       -4.568739    1.019693    0.530318
     43          1           0       -5.159677   -1.324921    0.560529
     44          1           0       -3.936516   -1.653633    1.916301
 ---------------------------------------------------------------------
                    Distance matrix (angstroms):
                    1          2          3          4          5
     1  C    0.000000
     2  C    1.535367   0.000000
     3  C    2.545625   1.561974   0.000000
     4  C    2.900953   2.456052   1.535096   0.000000
     5  C    2.472060   2.881533   2.545562   1.498494   0.000000
     6  H    1.096700   2.170071   2.882030   3.460382   2.979520
     7  H    2.147354   1.101527   2.142858   2.580047   3.099096
     8  H    3.347323   2.736736   2.182949   1.097022   2.102538
     9  H    3.878092   3.435173   2.172915   1.096335   2.102675
    10  O    1.446018   2.486816   2.873624   2.436142   1.345477
    11  O    3.573705   4.109040   3.633725   2.377981   1.227590
    12  C    1.539905   2.559280   3.922940   4.202095   3.646201
    13  C    2.550615   3.919885   5.088927   5.158736   4.208883
    14  C    2.546505   1.536324   2.614541   3.875779   4.379307
    15  O    3.759738   2.383222   1.445478   2.472667   3.807049
    16  Si   5.301552   4.007616   2.819522   3.268061   4.752054
    17  C    5.946503   4.780370   3.777539   3.490708   4.901703
    18  C    6.623356   5.166147   4.298634   5.045900   6.514756
    19  C    6.063398   5.056233   3.564228   3.836375   5.123033
    20  H    6.654817   5.136484   4.562221   5.315899   6.758817
    21  H    6.704024   5.275967   4.452725   5.448494   6.847985
    22  H    7.589565   6.162995   5.184284   5.752444   7.242908
    23  H    6.121803   5.152664   3.718702   4.311274   5.491246
    24  H    5.790641   5.011195   3.453976   3.365171   4.483768
    25  H    7.119371   6.074353   4.606121   4.760125   6.059917
    26  H    5.696901   4.760012   3.697277   2.983802   4.249622
    27  H    5.884209   4.665722   3.998191   3.762193   5.104993
    28  H    7.024954   5.844298   4.782638   4.501720   5.892683
    29  H    2.905320   2.175529   3.526673   4.592786   4.961131
    30  H    2.721839   2.194035   3.065723   4.398696   4.723633
    31  H    3.501041   2.197975   2.775109   4.150085   4.964354
    32  H    2.169661   2.810429   4.166776   4.221549   3.753412
    33  H    2.180705   2.799019   4.292895   4.887422   4.548164
    34  H    3.494839   4.714131   6.011153   6.105578   5.202475
    35  H    2.845870   4.272402   5.231103   4.980603   3.811843
    36  H    2.795186   4.220807   5.268225   5.491276   4.524532
    37  C    3.090073   2.628525   1.565356   2.531647   3.105739
    38  C    3.827542   3.240352   2.608599   3.917367   4.512265
    39  C    4.232449   4.023748   3.726289   4.955492   5.242968
    40  H    4.044960   3.552681   2.183444   2.736763   3.451254
    41  H    2.761788   2.888762   2.199548   2.748948   2.748241
    42  H    4.504202   3.584711   2.910442   4.318456   5.182549
    43  H    5.105783   4.802306   4.606309   5.932778   6.292508
    44  H    4.059934   4.248785   4.054591   5.063036   5.038203
                    6          7          8          9         10
     6  H    0.000000
     7  H    3.059486   0.000000
     8  H    4.138628   2.390032   0.000000
     9  H    4.270338   3.616817   1.760829   0.000000
    10  O    2.045892   2.793203   2.897428   3.291833   0.000000
    11  O    3.961036   4.272018   2.856833   2.504622   2.239215
    12  C    2.144372   2.720496   4.368603   5.246353   2.399277
    13  C    2.744629   4.159870   5.423255   6.111273   2.871051
    14  C    2.775844   2.107557   4.125729   4.745396   3.840176
    15  O    4.144935   2.584393   2.662559   2.825424   4.213709
    16  Si   5.674937   4.049923   3.304998   3.082686   5.490847
    17  C    6.570850   4.431093   3.015911   3.240174   5.809874
    18  C    6.950191   5.159104   4.983906   4.967747   7.082501
    19  C    6.183434   5.377120   4.250757   3.179513   6.053614
    20  H    7.093228   4.950632   5.075808   5.422238   7.202988
    21  H    6.874682   5.458429   5.563415   5.400267   7.310026
    22  H    7.922518   6.118288   5.651168   5.510698   7.934705
    23  H    6.062424   5.657816   4.891164   3.765374   6.276701
    24  H    5.903898   5.355675   3.893731   2.494928   5.546221
    25  H    7.271878   6.305801   5.045126   4.022417   7.059356
    26  H    6.338215   4.429821   2.501918   2.581936   5.304510
    27  H    6.633860   4.094272   3.038436   3.804423   5.842272
    28  H    7.614871   5.509041   4.062706   4.098845   6.863269
    29  H    3.280720   2.334836   4.659196   5.555814   4.236526
    30  H    2.505312   3.031253   4.860201   5.187653   4.086299
    31  H    3.730726   2.564502   4.321668   4.881300   4.662298
    32  H    3.055631   2.519714   4.109875   5.301661   2.671925
    33  H    2.508433   3.027626   5.056936   5.931938   3.361139
    34  H    3.733686   4.815370   6.254219   7.095981   3.879967
    35  H    3.150229   4.424912   5.217902   5.859071   2.584008
    36  H    2.537732   4.706686   5.943223   6.362226   3.222939
    37  C    2.842703   3.530352   3.494855   2.708890   3.407723
    38  C    3.345128   4.228521   4.761348   4.134086   4.549669
    39  C    3.447666   5.095825   5.854337   5.218939   5.046024
    40  H    3.842353   4.313062   3.708428   2.455798   4.086908
    41  H    2.292105   3.840357   3.797676   2.986364   2.887109
    42  H    4.186791   4.422136   5.006815   4.490306   5.296909
    43  H    4.323209   5.837669   6.776724   6.197948   6.042259
    44  H    3.103886   5.349758   6.030233   5.343998   4.736394
                   11         12         13         14         15
    11  O    0.000000
    12  C    4.612517   0.000000
    13  C    4.882562   1.524835   0.000000
    14  C    5.601594   3.077594   4.467424   0.000000
    15  O    4.820686   4.932647   6.262779   2.865501   0.000000
    16  Si   5.506456   6.519205   7.810294   4.500813   1.672695
    17  C    5.433669   7.008449   8.258434   5.582561   2.935882
    18  C    7.354905   7.680347   9.084886   5.141667   2.894653
    19  C    5.607482   7.485323   8.583236   5.635342   2.980117
    20  H    7.672930   7.529556   8.998408   4.992460   3.119064
    21  H    7.741694   7.778958   9.160625   5.010993   3.135673
    22  H    7.971815   8.684045  10.070299   6.222684   3.831401
    23  H    6.047759   7.565630   8.633605   5.516367   3.211310
    24  H    4.784168   7.261122   8.224298   5.837696   3.289398
    25  H    6.444956   8.520508   9.635196   6.623351   3.891669
    26  H    4.594177   6.797782   7.914272   5.814579   3.267054
    27  H    5.737481   6.744118   8.057517   5.392158   3.114245
    28  H    6.320232   8.101536   9.349384   6.569598   3.855850
    29  H    6.176490   2.860069   4.272604   1.095474   3.725932
    30  H    5.897754   3.284338   4.437824   1.092956   3.506961
    31  H    6.172670   4.123929   5.546586   1.093869   2.456368
    32  H    4.675249   1.096736   2.137264   3.466633   5.023068
    33  H    5.591523   1.094564   2.134796   2.722220   5.115075
    34  H    5.855307   2.160645   1.094737   5.075832   7.087426
    35  H    4.251407   2.179112   1.094312   5.119375   6.484594
    36  H    5.167388   2.171469   1.094600   4.618820   6.503686
    37  C    3.971459   4.586273   5.484864   3.273921   2.482853
    38  C    5.431199   5.126154   6.060838   3.158382   3.007138
    39  C    6.101515   5.360547   6.058910   3.730282   4.289330
    40  H    4.067454   5.572072   6.419813   4.263560   2.782586
    41  H    3.490922   4.249777   4.876214   3.678056   3.423658
    42  H    6.144329   5.725596   6.818629   3.249268   2.754382
    43  H    7.179671   6.088901   6.801347   4.200984   4.948297
    44  H    5.782957   5.144481   5.583636   4.172230   4.907323
                   16         17         18         19         20
    16  Si   0.000000
    17  C    1.881801   0.000000
    18  C    1.892575   3.035244   0.000000
    19  C    1.873618   3.048039   3.028915   0.000000
    20  H    2.493053   3.238939   1.093800   3.987030   0.000000
    21  H    2.492422   3.994076   1.093835   3.245413   1.775939
    22  H    2.495246   3.220308   1.093793   3.203403   1.776459
    23  H    2.483859   4.007837   3.267240   1.093830   4.275226
    24  H    2.488675   3.253864   3.995978   1.093428   4.865507
    25  H    2.476588   3.248355   3.176306   1.094428   4.182322
    26  H    2.494080   1.093265   3.997993   3.233190   4.272907
    27  H    2.485707   1.093897   3.295247   4.002555   3.124088
    28  H    2.484621   1.094144   3.161467   3.274696   3.437807
    29  H    5.322922   6.204086   5.837357   6.615036   5.506742
    30  H    5.103885   6.377867   5.727457   5.955458   5.708573
    31  H    3.920239   5.141863   4.235858   5.174068   4.040183
    32  H    6.518242   6.734637   7.669124   7.660507   7.410617
    33  H    6.766217   7.427956   7.696797   7.814463   7.476865
    34  H    8.659126   9.048554   9.837968   9.548685   9.656723
    35  H    7.917297   8.183081   9.349715   8.599109   9.311727
    36  H    8.066463   8.714741   9.325801   8.663026   9.329157
    37  C    3.506229   4.812483   4.873648   3.489342   5.383822
    38  C    4.028772   5.665565   4.871922   4.013578   5.378562
    39  C    5.366228   6.995301   6.109448   5.236775   6.586768
    40  H    3.262104   4.548815   4.721386   2.711526   5.411592
    41  H    4.498378   5.610635   5.952041   4.381825   6.430845
    42  H    3.568992   5.358366   4.040413   3.693440   4.557010
    43  H    5.955223   7.688151   6.400560   5.842027   6.853121
    44  H    6.048249   7.539469   6.996351   5.840144   7.470346
                   21         22         23         24         25
    21  H    0.000000
    22  H    1.776529   0.000000
    23  H    3.105907   3.544797   0.000000
    24  H    4.272095   4.198387   1.776438   0.000000
    25  H    3.483018   2.964411   1.768870   1.766629   0.000000
    26  H    4.868547   4.199414   4.247896   3.059618   3.516534
    27  H    4.292485   3.600811   4.870680   4.249418   4.261758
    28  H    4.178231   2.962261   4.275284   3.582742   3.097442
    29  H    5.762333   6.919067   6.554797   6.823059   7.571234
    30  H    5.419639   6.799965   5.653386   6.128351   6.980289
    31  H    4.047421   5.329057   5.033696   5.569922   6.078873
    32  H    7.904772   8.637494   7.880763   7.445009   8.638689
    33  H    7.687791   8.748802   7.792804   7.725021   8.852160
    34  H    9.919432  10.842578   9.608063   9.232399  10.592520
    35  H    9.516107  10.276865   8.743714   8.119137   9.621977
    36  H    9.287401  10.321609   8.587332   8.297372   9.741709
    37  C    4.744284   5.692556   3.251795   3.290403   4.580062
    38  C    4.417288   5.746119   3.411499   4.144776   5.035755
    39  C    5.542105   6.981305   4.525781   5.302366   6.228292
    40  H    4.634147   5.373721   2.476339   2.370945   3.761779
    41  H    5.839843   6.760909   4.167670   3.976340   5.453860
    42  H    3.449818   4.919337   3.020983   4.109555   4.621488
    43  H    5.679740   7.260278   5.017734   6.054370   6.759716
    44  H    6.511866   7.862019   5.203506   5.716000   6.859005
                   26         27         28         29         30
    26  H    0.000000
    27  H    1.774426   0.000000
    28  H    1.769514   1.773426   0.000000
    29  H    6.453396   5.839091   7.198981   0.000000
    30  H    6.568833   6.310892   7.341837   1.758694   0.000000
    31  H    5.564832   4.951517   6.037922   1.752168   1.775686
    32  H    6.515468   6.334297   7.819933   3.094103   3.957768
    33  H    7.364172   7.114811   8.505652   2.250225   2.810843
    34  H    8.743804   8.746983  10.141723   4.661715   5.074843
    35  H    7.704603   8.024608   9.257869   5.032515   5.179595
    36  H    8.382074   8.618194   9.795000   4.557898   4.327857
    37  C    4.693203   5.268371   5.676358   4.321049   3.196019
    38  C    5.783036   6.071087   6.448576   4.225236   2.738434
    39  C    7.070502   7.377958   7.785312   4.666575   2.941832
    40  H    4.371587   5.209948   5.275436   5.321502   4.240033
    41  H    5.324530   6.041907   6.508573   4.622913   3.446203
    42  H    5.674341   5.743447   6.048415   4.293032   2.999208
    43  H    7.876495   8.044043   8.423756   5.047337   3.326835
    44  H    7.470869   7.929486   8.377022   5.030127   3.333764
                   31         32         33         34         35
    31  H    0.000000
    32  H    4.385591   0.000000
    33  H    3.766736   1.768913   0.000000
    34  H    6.141520   2.477885   2.433865   0.000000
    35  H    6.160257   2.478960   3.059687   1.767794   0.000000
    36  H    5.707183   3.058741   2.510177   1.771730   1.775642
    37  C    3.460518   5.129330   4.886645   6.491468   5.653685
    38  C    3.151285   5.798582   5.113614   6.979071   6.457824
    39  C    3.915010   6.212116   5.230334   6.934554   6.550081
    40  H    4.289604   6.042919   5.944367   7.454981   6.470740
    41  H    4.135966   4.912294   4.667687   5.932240   4.965350
    42  H    2.868849   6.287924   5.611426   7.678853   7.262612
    43  H    4.241458   6.952936   5.792010   7.591514   7.395281
    44  H    4.592323   6.085460   5.114750   6.486298   6.015432
                   36         37         38         39         40
    36  H    0.000000
    37  C    5.351019   0.000000
    38  C    5.773424   1.504357   0.000000
    39  C    5.547301   2.513538   1.339358   0.000000
    40  H    6.291595   1.095092   2.092760   3.106328   0.000000
    41  H    4.628441   1.096564   2.137617   2.624726   1.736961
    42  H    6.618038   2.221607   1.088689   2.094456   2.579847
    43  H    6.244825   3.498768   2.110824   1.086201   4.021084
    44  H    4.941066   2.778086   2.124720   1.085620   3.386399
                   41         42         43         44
    41  H    0.000000
    42  H    3.099526   0.000000
    43  H    3.707649   2.418126   0.000000
    44  H    2.432852   3.076902   1.855342   0.000000
 Stoichiometry    C14H26O3Si
 Framework group  C1[X(C14H26O3Si)]
 Deg. of freedom   126
 Full point group                 C1      NOp   1
 Largest Abelian subgroup         C1      NOp   1
 Largest concise Abelian subgroup C1      NOp   1
                         Standard orientation:                         
 ---------------------------------------------------------------------
 Center     Atomic      Atomic             Coordinates (Angstroms)
 Number     Number       Type             X           Y           Z
 ---------------------------------------------------------------------
      1          6           0       -2.402182    0.103097   -0.314573
      2          6           0       -1.028717    0.356117   -0.952479
      3          6           0        0.114792    0.020299    0.057164
      4          6           0       -0.065193   -1.470215    0.377306
      5          6           0       -1.428950   -1.826186    0.886164
      6          1           0       -2.612010    0.871609    0.439159
      7          1           0       -0.908234   -0.350522   -1.788844
      8          1           0        0.121110   -2.087640   -0.510125
      9          1           0        0.658026   -1.784078    1.139143
     10          8           0       -2.482620   -1.168959    0.368341
     11          8           0       -1.589298   -2.748116    1.680714
     12          6           0       -3.548131    0.132272   -1.342804
     13          6           0       -4.915651   -0.086422   -0.704695
     14          6           0       -0.941140    1.748015   -1.596870
     15          8           0        1.336559    0.275781   -0.671823
     16         14           0        2.885129   -0.280949   -0.372005
     17          6           0        3.101169   -2.051286   -0.972344
     18          6           0        4.104102    0.788800   -1.347496
     19          6           0        3.397631   -0.196524    1.428178
     20          1           0        3.879496    0.741223   -2.416929
     21          1           0        4.036277    1.831440   -1.023801
     22          1           0        5.129097    0.440758   -1.190541
     23          1           0        3.291555    0.820372    1.816936
     24          1           0        2.795899   -0.870306    2.044231
     25          1           0        4.445824   -0.490948    1.539439
     26          1           0        2.528963   -2.749412   -0.355554
     27          1           0        2.763765   -2.148097   -2.008393
     28          1           0        4.154397   -2.343962   -0.925426
     29          1           0       -1.527745    1.778043   -2.521562
     30          1           0       -1.337761    2.528254   -0.942292
     31          1           0        0.083327    2.012997   -1.874000
     32          1           0       -3.391273   -0.654111   -2.091021
     33          1           0       -3.569024    1.091796   -1.869061
     34          1           0       -5.700617   -0.010904   -1.464020
     35          1           0       -4.991056   -1.076685   -0.245115
     36          1           0       -5.113511    0.667602    0.063711
     37          6           0        0.068741    0.848515    1.384673
     38          6           0        0.285140    2.331537    1.254642
     39          6           0       -0.521393    3.258259    1.788094
     40          1           0        0.850177    0.484424    2.059969
     41          1           0       -0.871857    0.660180    1.915950
     42          1           0        1.166215    2.656069    0.703617
     43          1           0       -0.305267    4.315789    1.666636
     44          1           0       -1.406003    2.992077    2.358343
 ---------------------------------------------------------------------
 Rotational constants (GHZ):      0.5388476      0.2505159      0.2227826
 Standard basis: 6-31G(d,p) (6D, 7F)
 There are   404 symmetry adapted cartesian basis functions of A   symmetry.
 There are   404 symmetry adapted basis functions of A   symmetry.
   404 basis functions,   710 primitive gaussians,   404 cartesian basis functions
    74 alpha electrons       74 beta electrons
       nuclear repulsion energy      1622.2727651577 Hartrees.
 NAtoms=   44 NActive=   44 NUniq=   44 SFac= 1.00D+00 NAtFMM=   60 NAOKFM=F Big=F
 Integral buffers will be    131072 words long.
 Raffenetti 2 integral format.
 Two-electron integral symmetry is turned on.
 ------------------------------------------------------------------------------
 Polarizable Continuum Model (PCM)
 =================================
 Model                : PCM (using non-symmetric T matrix).
 Atomic radii         : UFF (Universal Force Field).
 Polarization charges : Total charges.
 Charge compensation  : None.
 Solution method      : On-the-fly selection.
 Cavity type          : Scaled VdW (van der Waals Surface) (Alpha=1.100).
 Cavity algorithm     : GePol (No added spheres)
                        Default sphere list used, NSphG=   44.
                        Lebedev-Laikov grids with approx.  5.0 points / Ang**2.
                        Smoothing algorithm: Karplus/York (Gamma=1.0000).
                        Polarization charges: spherical gaussians, with
                                              point-specific exponents (IZeta= 3).
                        Self-potential: point-specific (ISelfS= 7).
                        Self-field    : sphere-specific E.n sum rule (ISelfD= 2).
 1st derivatives      : Analytical E(r).r(x)/FMM algorithm (CHGder, D1EAlg=3).
                        Cavity 1st derivative terms included.
 Solvent              : Chloroform, Eps=   4.711300 Eps(inf)=   2.090627
 ------------------------------------------------------------------------------
 One-electron integrals computed using PRISM.
 NBasis=   404 RedAO= T EigKep=  1.78D-03  NBF=   404
 NBsUse=   404 1.00D-06 EigRej= -1.00D+00 NBFU=   404
 ExpMin= 7.78D-02 ExpMax= 1.61D+04 ExpMxC= 2.43D+03 IAcc=2 IRadAn=         4 AccDes= 0.00D+00
 Harris functional with IExCor=  402 and IRadAn=       4 diagonalized for initial guess.
 HarFok:  IExCor=  402 AccDes= 0.00D+00 IRadAn=         4 IDoV= 1 UseB2=F ITyADJ=14
 ICtDFT=  3500011 ScaDFX=  1.000000  1.000000  1.000000  1.000000
 FoFCou: FMM=F IPFlag=           0 FMFlag=      100000 FMFlg1=           0
         NFxFlg=           0 DoJE=T BraDBF=F KetDBF=T FulRan=T
         wScrn=  0.000000 ICntrl=     500 IOpCl=  0 I1Cent=   200000004 NGrid=           0
         NMat0=    1 NMatS0=      1 NMatT0=    0 NMatD0=    1 NMtDS0=    0 NMtDT0=    0
 Petite list used in FoFCou.
 Requested convergence on RMS density matrix=1.00D-08 within 128 cycles.
 Requested convergence on MAX density matrix=1.00D-06.
 Requested convergence on             energy=1.00D-06.
 No special actions if energy rises.
 Inv3:  Mode=1 IEnd=    24848652.
 Iteration    1 A*A^-1 deviation from unit magnitude is 7.55D-15 for   1405.
 Iteration    1 A*A^-1 deviation from orthogonality  is 3.98D-15 for   2860   1368.
 Iteration    1 A^-1*A deviation from unit magnitude is 5.77D-15 for   2877.
 Iteration    1 A^-1*A deviation from orthogonality  is 5.68D-11 for   2827   2534.
 Error on total polarization charges =  0.00933
 SCF Done:  E(RB3LYP) =  -1064.41670218     A.U. after   13 cycles
            NFock= 13  Conv=0.62D-08     -V/T= 2.0081

 **********************************************************************

            Population analysis using the SCF density.

 **********************************************************************

 Orbital symmetries:
       Occupied  (A) (A) (A) (A) (A) (A) (A) (A) (A) (A) (A) (A)
                 (A) (A) (A) (A) (A) (A) (A) (A) (A) (A) (A) (A)
                 (A) (A) (A) (A) (A) (A) (A) (A) (A) (A) (A) (A)
                 (A) (A) (A) (A) (A) (A) (A) (A) (A) (A) (A) (A)
                 (A) (A) (A) (A) (A) (A) (A) (A) (A) (A) (A) (A)
                 (A) (A) (A) (A) (A) (A) (A) (A) (A) (A) (A) (A)
                 (A) (A)
       Virtual   (A) (A) (A) (A) (A) (A) (A) (A) (A) (A) (A) (A)
                 (A) (A) (A) (A) (A) (A) (A) (A) (A) (A) (A) (A)
                 (A) (A) (A) (A) (A) (A) (A) (A) (A) (A) (A) (A)
                 (A) (A) (A) (A) (A) (A) (A) (A) (A) (A) (A) (A)
                 (A) (A) (A) (A) (A) (A) (A) (A) (A) (A) (A) (A)
                 (A) (A) (A) (A) (A) (A) (A) (A) (A) (A) (A) (A)
                 (A) (A) (A) (A) (A) (A) (A) (A) (A) (A) (A) (A)
                 (A) (A) (A) (A) (A) (A) (A) (A) (A) (A) (A) (A)
                 (A) (A) (A) (A) (A) (A) (A) (A) (A) (A) (A) (A)
                 (A) (A) (A) (A) (A) (A) (A) (A) (A) (A) (A) (A)
                 (A) (A) (A) (A) (A) (A) (A) (A) (A) (A) (A) (A)
                 (A) (A) (A) (A) (A) (A) (A) (A) (A) (A) (A) (A)
                 (A) (A) (A) (A) (A) (A) (A) (A) (A) (A) (A) (A)
                 (A) (A) (A) (A) (A) (A) (A) (A) (A) (A) (A) (A)
                 (A) (A) (A) (A) (A) (A) (A) (A) (A) (A) (A) (A)
                 (A) (A) (A) (A) (A) (A) (A) (A) (A) (A) (A) (A)
                 (A) (A) (A) (A) (A) (A) (A) (A) (A) (A) (A) (A)
                 (A) (A) (A) (A) (A) (A) (A) (A) (A) (A) (A) (A)
                 (A) (A) (A) (A) (A) (A) (A) (A) (A) (A) (A) (A)
                 (A) (A) (A) (A) (A) (A) (A) (A) (A) (A) (A) (A)
                 (A) (A) (A) (A) (A) (A) (A) (A) (A) (A) (A) (A)
                 (A) (A) (A) (A) (A) (A) (A) (A) (A) (A) (A) (A)
                 (A) (A) (A) (A) (A) (A) (A) (A) (A) (A) (A) (A)
                 (A) (A) (A) (A) (A) (A) (A) (A) (A) (A) (A) (A)
                 (A) (A) (A) (A) (A) (A) (A) (A) (A) (A) (A) (A)
                 (A) (A) (A) (A) (A) (A) (A) (A) (A) (A) (A) (A)
                 (A) (A) (A) (A) (A) (A) (A) (A) (A) (A) (A) (A)
                 (A) (A) (A) (A) (A) (A)
 The electronic state is 1-A.
 Alpha  occ. eigenvalues --  -66.13988 -19.19404 -19.14541 -19.13452 -10.32392
 Alpha  occ. eigenvalues --  -10.26682 -10.25530 -10.20219 -10.19974 -10.19655
 Alpha  occ. eigenvalues --  -10.19351 -10.18890 -10.18045 -10.17405 -10.17327
 Alpha  occ. eigenvalues --  -10.15996 -10.15784 -10.15651  -5.28149  -3.64207
 Alpha  occ. eigenvalues --   -3.63972  -3.63938  -1.10020  -1.01446  -1.00775
 Alpha  occ. eigenvalues --   -0.82971  -0.80436  -0.78062  -0.75110  -0.71292
 Alpha  occ. eigenvalues --   -0.70264  -0.69238  -0.67689  -0.67381  -0.64110
 Alpha  occ. eigenvalues --   -0.61483  -0.59414  -0.56642  -0.54327  -0.51272
 Alpha  occ. eigenvalues --   -0.50443  -0.48407  -0.46802  -0.46287  -0.45120
 Alpha  occ. eigenvalues --   -0.44835  -0.43488  -0.42793  -0.42405  -0.41920
 Alpha  occ. eigenvalues --   -0.40993  -0.40661  -0.40269  -0.39768  -0.39290
 Alpha  occ. eigenvalues --   -0.39056  -0.38490  -0.38294  -0.37836  -0.37156
 Alpha  occ. eigenvalues --   -0.36468  -0.36084  -0.35135  -0.34808  -0.34258
 Alpha  occ. eigenvalues --   -0.34038  -0.32761  -0.31602  -0.30026  -0.29498
 Alpha  occ. eigenvalues --   -0.28506  -0.27824  -0.26421  -0.25203
 Alpha virt. eigenvalues --   -0.00139   0.01207   0.06367   0.06946   0.08753
 Alpha virt. eigenvalues --    0.09432   0.09927   0.10235   0.11182   0.11793
 Alpha virt. eigenvalues --    0.11966   0.12996   0.13695   0.14103   0.14313
 Alpha virt. eigenvalues --    0.15149   0.16012   0.16102   0.16438   0.16876
 Alpha virt. eigenvalues --    0.16973   0.17539   0.18003   0.18386   0.18661
 Alpha virt. eigenvalues --    0.19106   0.19712   0.19894   0.20753   0.21133
 Alpha virt. eigenvalues --    0.21328   0.21398   0.22479   0.23069   0.23679
 Alpha virt. eigenvalues --    0.24473   0.25201   0.26086   0.27314   0.27703
 Alpha virt. eigenvalues --    0.28957   0.30200   0.32640   0.35279   0.36463
 Alpha virt. eigenvalues --    0.37088   0.38950   0.39814   0.40624   0.44013
 Alpha virt. eigenvalues --    0.45765   0.47153   0.48594   0.49984   0.50675
 Alpha virt. eigenvalues --    0.51384   0.52553   0.53246   0.53828   0.55490
 Alpha virt. eigenvalues --    0.56771   0.57909   0.58896   0.60531   0.60907
 Alpha virt. eigenvalues --    0.61949   0.62784   0.63211   0.64089   0.64750
 Alpha virt. eigenvalues --    0.66112   0.66429   0.67022   0.68491   0.69132
 Alpha virt. eigenvalues --    0.69439   0.70850   0.71281   0.73196   0.74528
 Alpha virt. eigenvalues --    0.75286   0.75605   0.75905   0.76214   0.76876
 Alpha virt. eigenvalues --    0.78457   0.79851   0.80742   0.82594   0.82801
 Alpha virt. eigenvalues --    0.83850   0.84314   0.85697   0.86250   0.86615
 Alpha virt. eigenvalues --    0.86935   0.87403   0.87817   0.88557   0.88936
 Alpha virt. eigenvalues --    0.89697   0.89965   0.90303   0.90615   0.91401
 Alpha virt. eigenvalues --    0.91979   0.92397   0.93120   0.93584   0.93942
 Alpha virt. eigenvalues --    0.94445   0.94634   0.94873   0.96083   0.97384
 Alpha virt. eigenvalues --    0.97816   0.98852   0.99149   1.00680   1.00884
 Alpha virt. eigenvalues --    1.02557   1.03817   1.04768   1.06059   1.08131
 Alpha virt. eigenvalues --    1.10356   1.12162   1.13068   1.14375   1.15970
 Alpha virt. eigenvalues --    1.19503   1.21093   1.22564   1.25624   1.26556
 Alpha virt. eigenvalues --    1.28365   1.30089   1.30498   1.31892   1.33454
 Alpha virt. eigenvalues --    1.34311   1.38248   1.38841   1.41672   1.42994
 Alpha virt. eigenvalues --    1.43861   1.45320   1.46061   1.47107   1.48214
 Alpha virt. eigenvalues --    1.49324   1.52259   1.54331   1.55396   1.56361
 Alpha virt. eigenvalues --    1.57652   1.60085   1.62864   1.64030   1.64922
 Alpha virt. eigenvalues --    1.66140   1.66842   1.69010   1.69369   1.69675
 Alpha virt. eigenvalues --    1.72355   1.76046   1.77311   1.77584   1.79149
 Alpha virt. eigenvalues --    1.79852   1.81622   1.83353   1.84798   1.84933
 Alpha virt. eigenvalues --    1.86176   1.86717   1.88413   1.90795   1.91454
 Alpha virt. eigenvalues --    1.91894   1.92642   1.95708   1.95994   1.97501
 Alpha virt. eigenvalues --    1.97662   1.98875   1.99322   2.01970   2.02398
 Alpha virt. eigenvalues --    2.03720   2.04761   2.04835   2.05337   2.05920
 Alpha virt. eigenvalues --    2.06637   2.07042   2.07558   2.08298   2.08758
 Alpha virt. eigenvalues --    2.09092   2.09781   2.10819   2.11307   2.11660
 Alpha virt. eigenvalues --    2.12449   2.12889   2.13493   2.13823   2.14638
 Alpha virt. eigenvalues --    2.15497   2.16523   2.16692   2.16985   2.17398
 Alpha virt. eigenvalues --    2.20122   2.21944   2.23121   2.24323   2.27275
 Alpha virt. eigenvalues --    2.29514   2.29584   2.30899   2.31265   2.32542
 Alpha virt. eigenvalues --    2.33598   2.34793   2.35152   2.35733   2.36548
 Alpha virt. eigenvalues --    2.37349   2.38406   2.38776   2.39441   2.41080
 Alpha virt. eigenvalues --    2.42957   2.45438   2.47776   2.50072   2.51670
 Alpha virt. eigenvalues --    2.52038   2.53639   2.56431   2.56990   2.58501
 Alpha virt. eigenvalues --    2.59444   2.62908   2.63513   2.64073   2.64944
 Alpha virt. eigenvalues --    2.65899   2.66470   2.67387   2.68399   2.69439
 Alpha virt. eigenvalues --    2.70933   2.71341   2.73324   2.74573   2.76483
 Alpha virt. eigenvalues --    2.77311   2.79169   2.80012   2.81026   2.81263
 Alpha virt. eigenvalues --    2.81720   2.82433   2.84379   2.85051   2.85372
 Alpha virt. eigenvalues --    2.85798   2.86338   2.87210   2.87718   2.89892
 Alpha virt. eigenvalues --    2.91626   2.92386   2.92742   2.93585   2.95387
 Alpha virt. eigenvalues --    2.96744   2.98544   3.02144   3.08589   3.11036
 Alpha virt. eigenvalues --    3.17291   3.18314   3.20343   3.20661   3.21087
 Alpha virt. eigenvalues --    3.21906   3.22798   3.25700   3.29103   3.31841
 Alpha virt. eigenvalues --    3.33873   3.35039   3.40691   3.43393   3.43746
 Alpha virt. eigenvalues --    3.44214   3.44491   3.44699   3.45259   3.45942
 Alpha virt. eigenvalues --    3.46245   3.47634   3.48360   3.49713   3.51203
 Alpha virt. eigenvalues --    3.53823   3.56240   3.66899   4.02200   4.13858
 Alpha virt. eigenvalues --    4.21574   4.25083   4.33104   4.37981   4.44745
 Alpha virt. eigenvalues --    4.45540   4.49655   4.51641   4.54017   4.55775
 Alpha virt. eigenvalues --    4.63113   4.65873   4.75520   4.78309   4.81105
          Condensed to atoms (all electrons):
               1          2          3          4          5          6
     1  C    4.811562   0.322516  -0.029122  -0.008086  -0.008850   0.378086
     2  C    0.322516   5.073934   0.339241  -0.051127  -0.016318  -0.042276
     3  C   -0.029122   0.339241   4.852314   0.289126  -0.015461  -0.012755
     4  C   -0.008086  -0.051127   0.289126   5.347690   0.285539   0.001416
     5  C   -0.008850  -0.016318  -0.015461   0.285539   4.356018  -0.001522
     6  H    0.378086  -0.042276  -0.012755   0.001416  -0.001522   0.634974
     7  H   -0.039799   0.376949  -0.044530  -0.007237  -0.000094   0.006344
     8  H    0.000478  -0.007520  -0.021653   0.364040  -0.023604  -0.000002
     9  H    0.000050   0.006011  -0.033215   0.354300  -0.021219   0.000077
    10  O    0.163007  -0.026053   0.002263  -0.099037   0.264641  -0.041816
    11  O    0.001929  -0.000080   0.001994  -0.088055   0.576779   0.000048
    12  C    0.381159  -0.036184   0.004998  -0.000901   0.001283  -0.051496
    13  C   -0.038858   0.004205  -0.000098  -0.000001   0.000114  -0.006447
    14  C   -0.032189   0.349565  -0.028033   0.004783   0.000552  -0.004368
    15  O    0.002898  -0.044258   0.179975  -0.025315   0.001583  -0.000033
    16  Si   0.000330  -0.001891  -0.014767   0.003856  -0.000515  -0.000029
    17  C   -0.000001  -0.000066  -0.001285  -0.000351   0.000085   0.000000
    18  C    0.000000  -0.000004   0.000945  -0.000048   0.000000   0.000000
    19  C    0.000002  -0.000016  -0.000829  -0.002326   0.000003   0.000000
    20  H    0.000000   0.000006  -0.000041  -0.000004   0.000000   0.000000
    21  H    0.000000  -0.000002  -0.000050   0.000003   0.000000   0.000000
    22  H    0.000000   0.000000  -0.000012   0.000001   0.000000   0.000000
    23  H    0.000000  -0.000006  -0.000382   0.000124   0.000003   0.000000
    24  H    0.000000  -0.000005   0.000415  -0.000770  -0.000017   0.000000
    25  H    0.000000   0.000001   0.000007   0.000028   0.000000   0.000000
    26  H   -0.000001   0.000009  -0.000121   0.000113  -0.000014   0.000000
    27  H    0.000000   0.000019   0.000029  -0.000233  -0.000004   0.000000
    28  H    0.000000   0.000001   0.000031   0.000044   0.000000   0.000000
    29  H   -0.004302  -0.026780   0.003917  -0.000131  -0.000014  -0.000012
    30  H   -0.006527  -0.035588  -0.003887   0.000058  -0.000017   0.006233
    31  H    0.003846  -0.025981  -0.008594   0.000286  -0.000021  -0.000075
    32  H   -0.033555  -0.006302  -0.000101   0.000002   0.000192   0.006143
    33  H   -0.029377  -0.005233  -0.000007   0.000031  -0.000042  -0.000538
    34  H    0.004053  -0.000100   0.000002   0.000001  -0.000003  -0.000054
    35  H   -0.007777   0.000119  -0.000007   0.000040   0.000267   0.000096
    36  H   -0.005074   0.000108   0.000000   0.000000  -0.000019   0.005670
    37  C    0.000694  -0.058910   0.337076  -0.065552   0.000403   0.004118
    38  C   -0.001332  -0.004431  -0.032687   0.004655  -0.000023   0.000402
    39  C   -0.000539   0.001412  -0.000181  -0.000063  -0.000017   0.001319
    40  H   -0.000155   0.005385  -0.031266  -0.006872  -0.000355   0.000052
    41  H    0.002161  -0.006105  -0.023645  -0.004417   0.005161  -0.000470
    42  H    0.000014  -0.000556  -0.004315   0.000081   0.000001   0.000008
    43  H    0.000009  -0.000038  -0.000076   0.000002   0.000000  -0.000011
    44  H   -0.000114  -0.000027   0.000114  -0.000005  -0.000005   0.000701
               7          8          9         10         11         12
     1  C   -0.039799   0.000478   0.000050   0.163007   0.001929   0.381159
     2  C    0.376949  -0.007520   0.006011  -0.026053  -0.000080  -0.036184
     3  C   -0.044530  -0.021653  -0.033215   0.002263   0.001994   0.004998
     4  C   -0.007237   0.364040   0.354300  -0.099037  -0.088055  -0.000901
     5  C   -0.000094  -0.023604  -0.021219   0.264641   0.576779   0.001283
     6  H    0.006344  -0.000002   0.000077  -0.041816   0.000048  -0.051496
     7  H    0.642859   0.004671   0.000206  -0.000605  -0.000030  -0.009911
     8  H    0.004671   0.543760  -0.026403   0.000154  -0.000469  -0.000022
     9  H    0.000206  -0.026403   0.572635   0.003320   0.003574   0.000008
    10  O   -0.000605   0.000154   0.003320   8.328657  -0.075892  -0.045636
    11  O   -0.000030  -0.000469   0.003574  -0.075892   8.085147  -0.000061
    12  C   -0.009911  -0.000022   0.000008  -0.045636  -0.000061   4.934842
    13  C    0.000026   0.000001   0.000000  -0.003336  -0.000008   0.361913
    14  C   -0.043288  -0.000011  -0.000144   0.002412   0.000002  -0.005319
    15  O    0.000261  -0.001741  -0.001155  -0.000009  -0.000013  -0.000041
    16  Si   0.000768  -0.000463   0.004186  -0.000056  -0.000305  -0.000005
    17  C   -0.000058   0.000146  -0.001723   0.000000   0.000003   0.000000
    18  C   -0.000008  -0.000014   0.000005   0.000000   0.000000   0.000000
    19  C    0.000006   0.000115  -0.000096   0.000000   0.000002   0.000000
    20  H   -0.000001  -0.000002   0.000000   0.000000   0.000000   0.000000
    21  H    0.000000   0.000000   0.000000   0.000000   0.000000   0.000000
    22  H    0.000000   0.000000   0.000000   0.000000   0.000000   0.000000
    23  H    0.000000   0.000001  -0.000082   0.000000   0.000000   0.000000
    24  H    0.000000  -0.000032   0.002201   0.000000  -0.000006   0.000000
    25  H    0.000000   0.000000   0.000003   0.000000   0.000000   0.000000
    26  H   -0.000013   0.000806   0.000917   0.000000  -0.000002   0.000000
    27  H    0.000021   0.000600   0.000043   0.000000   0.000000   0.000000
    28  H    0.000001   0.000031   0.000051   0.000000   0.000000   0.000000
    29  H   -0.008914  -0.000010   0.000003  -0.000017   0.000000   0.001251
    30  H    0.005536   0.000000   0.000006   0.000029   0.000000  -0.001202
    31  H   -0.000880   0.000008  -0.000007  -0.000044   0.000000   0.000124
    32  H    0.006307   0.000004   0.000001  -0.000489  -0.000013   0.377249
    33  H    0.000161  -0.000002   0.000000   0.002937   0.000001   0.378564
    34  H   -0.000005   0.000000   0.000000   0.000134   0.000000  -0.028164
    35  H    0.000005  -0.000001   0.000000   0.008260   0.000014  -0.033063
    36  H    0.000013   0.000000   0.000000  -0.000340   0.000000  -0.037589
    37  C    0.006012   0.004845  -0.006771  -0.003076   0.000167  -0.000042
    38  C   -0.000109  -0.000110   0.000016   0.000081   0.000001   0.000015
    39  C   -0.000012   0.000001   0.000002  -0.000001   0.000000   0.000001
    40  H   -0.000146   0.000000   0.004225   0.000027  -0.000007  -0.000001
    41  H   -0.000074   0.000026  -0.000026   0.001629  -0.000334   0.000117
    42  H   -0.000015   0.000003   0.000001  -0.000001   0.000000   0.000001
    43  H    0.000000   0.000000   0.000000   0.000000   0.000000   0.000000
    44  H    0.000000   0.000000   0.000000  -0.000003   0.000000   0.000001
              13         14         15         16         17         18
     1  C   -0.038858  -0.032189   0.002898   0.000330  -0.000001   0.000000
     2  C    0.004205   0.349565  -0.044258  -0.001891  -0.000066  -0.000004
     3  C   -0.000098  -0.028033   0.179975  -0.014767  -0.001285   0.000945
     4  C   -0.000001   0.004783  -0.025315   0.003856  -0.000351  -0.000048
     5  C    0.000114   0.000552   0.001583  -0.000515   0.000085   0.000000
     6  H   -0.006447  -0.004368  -0.000033  -0.000029   0.000000   0.000000
     7  H    0.000026  -0.043288   0.000261   0.000768  -0.000058  -0.000008
     8  H    0.000001  -0.000011  -0.001741  -0.000463   0.000146  -0.000014
     9  H    0.000000  -0.000144  -0.001155   0.004186  -0.001723   0.000005
    10  O   -0.003336   0.002412  -0.000009  -0.000056   0.000000   0.000000
    11  O   -0.000008   0.000002  -0.000013  -0.000305   0.000003   0.000000
    12  C    0.361913  -0.005319  -0.000041  -0.000005   0.000000   0.000000
    13  C    4.933743   0.000108   0.000000   0.000000   0.000000   0.000000
    14  C    0.000108   4.982848  -0.009856   0.000075   0.000002  -0.000008
    15  O    0.000000  -0.009856   8.298194   0.333628  -0.018232  -0.019227
    16  Si   0.000000   0.000075   0.333628  11.857913   0.370199   0.378038
    17  C    0.000000   0.000002  -0.018232   0.370199   5.142311  -0.033275
    18  C    0.000000  -0.000008  -0.019227   0.378038  -0.033275   5.118683
    19  C    0.000000  -0.000005  -0.014342   0.367021  -0.035642  -0.031403
    20  H    0.000000  -0.000003  -0.000426  -0.024849  -0.001290   0.376411
    21  H    0.000000  -0.000001  -0.000317  -0.025512   0.001384   0.375463
    22  H    0.000000   0.000000   0.000492  -0.014794  -0.000476   0.373418
    23  H    0.000000   0.000000  -0.000468  -0.027829   0.001343  -0.001062
    24  H    0.000000   0.000000  -0.000420  -0.027908  -0.001566   0.001485
    25  H    0.000000   0.000000   0.000488  -0.014183  -0.000384  -0.001070
    26  H    0.000000   0.000000  -0.000494  -0.026959   0.375289   0.001441
    27  H    0.000000   0.000000  -0.000606  -0.025425   0.378112  -0.001037
    28  H    0.000000   0.000000   0.000566  -0.013884   0.369998  -0.000836
    29  H   -0.000069   0.373060   0.000080  -0.000039   0.000000   0.000000
    30  H   -0.000042   0.380702   0.000013  -0.000076   0.000000   0.000000
    31  H    0.000000   0.379435   0.010532   0.001226  -0.000002  -0.000006
    32  H   -0.041265  -0.000462  -0.000002  -0.000003   0.000000   0.000000
    33  H   -0.036962   0.002128   0.000000   0.000000   0.000000   0.000000
    34  H    0.380390  -0.000003   0.000000   0.000000   0.000000   0.000000
    35  H    0.388827  -0.000005   0.000000   0.000000   0.000000   0.000000
    36  H    0.385846  -0.000019   0.000000   0.000000   0.000000   0.000000
    37  C    0.000000  -0.006323  -0.053424  -0.006435  -0.000139  -0.000095
    38  C    0.000000  -0.004754   0.000923   0.001482   0.000006  -0.000051
    39  C    0.000000  -0.003791   0.000341  -0.000165   0.000000   0.000000
    40  H    0.000000  -0.000109  -0.002118  -0.001798  -0.000032   0.000001
    41  H    0.000001   0.000325   0.002890   0.000464   0.000002   0.000000
    42  H    0.000000   0.000132   0.004032   0.002709   0.000006  -0.000082
    43  H    0.000000   0.000028   0.000003   0.000015   0.000000   0.000000
    44  H    0.000000   0.000008  -0.000002   0.000020   0.000000   0.000000
              19         20         21         22         23         24
     1  C    0.000002   0.000000   0.000000   0.000000   0.000000   0.000000
     2  C   -0.000016   0.000006  -0.000002   0.000000  -0.000006  -0.000005
     3  C   -0.000829  -0.000041  -0.000050  -0.000012  -0.000382   0.000415
     4  C   -0.002326  -0.000004   0.000003   0.000001   0.000124  -0.000770
     5  C    0.000003   0.000000   0.000000   0.000000   0.000003  -0.000017
     6  H    0.000000   0.000000   0.000000   0.000000   0.000000   0.000000
     7  H    0.000006  -0.000001   0.000000   0.000000   0.000000   0.000000
     8  H    0.000115  -0.000002   0.000000   0.000000   0.000001  -0.000032
     9  H   -0.000096   0.000000   0.000000   0.000000  -0.000082   0.002201
    10  O    0.000000   0.000000   0.000000   0.000000   0.000000   0.000000
    11  O    0.000002   0.000000   0.000000   0.000000   0.000000  -0.000006
    12  C    0.000000   0.000000   0.000000   0.000000   0.000000   0.000000
    13  C    0.000000   0.000000   0.000000   0.000000   0.000000   0.000000
    14  C   -0.000005  -0.000003  -0.000001   0.000000   0.000000   0.000000
    15  O   -0.014342  -0.000426  -0.000317   0.000492  -0.000468  -0.000420
    16  Si   0.367021  -0.024849  -0.025512  -0.014794  -0.027829  -0.027908
    17  C   -0.035642  -0.001290   0.001384  -0.000476   0.001343  -0.001566
    18  C   -0.031403   0.376411   0.375463   0.373418  -0.001062   0.001485
    19  C    5.148853   0.001394  -0.001197  -0.000747   0.377940   0.375092
    20  H    0.001394   0.575161  -0.022040  -0.023583   0.000002  -0.000028
    21  H   -0.001197  -0.022040   0.578585  -0.023450   0.000613   0.000003
    22  H   -0.000747  -0.023583  -0.023450   0.566946  -0.000056   0.000000
    23  H    0.377940   0.000002   0.000613  -0.000056   0.573987  -0.023815
    24  H    0.375092  -0.000028   0.000003   0.000000  -0.023815   0.577017
    25  H    0.372093   0.000014  -0.000037   0.000114  -0.022744  -0.022566
    26  H   -0.001671   0.000008  -0.000027   0.000001   0.000005   0.000702
    27  H    0.001319   0.000550   0.000002  -0.000023  -0.000025   0.000007
    28  H   -0.000150  -0.000052   0.000016   0.000006   0.000005  -0.000032
    29  H    0.000000   0.000000   0.000000   0.000000   0.000000   0.000000
    30  H    0.000000   0.000000   0.000000   0.000000   0.000000   0.000000
    31  H    0.000006   0.000018   0.000014   0.000000  -0.000001   0.000000
    32  H    0.000000   0.000000   0.000000   0.000000   0.000000   0.000000
    33  H    0.000000   0.000000   0.000000   0.000000   0.000000   0.000000
    34  H    0.000000   0.000000   0.000000   0.000000   0.000000   0.000000
    35  H    0.000000   0.000000   0.000000   0.000000   0.000000   0.000000
    36  H    0.000000   0.000000   0.000000   0.000000   0.000000   0.000000
    37  C   -0.000997   0.000003  -0.000013   0.000001  -0.000912  -0.001579
    38  C   -0.000495   0.000000  -0.000039   0.000001   0.001001  -0.000002
    39  C    0.000002   0.000000  -0.000001   0.000000   0.000035  -0.000001
    40  H    0.002011   0.000000  -0.000005   0.000000   0.000630   0.002548
    41  H    0.000014   0.000000   0.000000   0.000000   0.000015  -0.000009
    42  H   -0.000310  -0.000002   0.000285   0.000000   0.000363   0.000005
    43  H    0.000000   0.000000   0.000000   0.000000   0.000000   0.000000
    44  H   -0.000001   0.000000   0.000000   0.000000   0.000001   0.000000
              25         26         27         28         29         30
     1  C    0.000000  -0.000001   0.000000   0.000000  -0.004302  -0.006527
     2  C    0.000001   0.000009   0.000019   0.000001  -0.026780  -0.035588
     3  C    0.000007  -0.000121   0.000029   0.000031   0.003917  -0.003887
     4  C    0.000028   0.000113  -0.000233   0.000044  -0.000131   0.000058
     5  C    0.000000  -0.000014  -0.000004   0.000000  -0.000014  -0.000017
     6  H    0.000000   0.000000   0.000000   0.000000  -0.000012   0.006233
     7  H    0.000000  -0.000013   0.000021   0.000001  -0.008914   0.005536
     8  H    0.000000   0.000806   0.000600   0.000031  -0.000010   0.000000
     9  H    0.000003   0.000917   0.000043   0.000051   0.000003   0.000006
    10  O    0.000000   0.000000   0.000000   0.000000  -0.000017   0.000029
    11  O    0.000000  -0.000002   0.000000   0.000000   0.000000   0.000000
    12  C    0.000000   0.000000   0.000000   0.000000   0.001251  -0.001202
    13  C    0.000000   0.000000   0.000000   0.000000  -0.000069  -0.000042
    14  C    0.000000   0.000000   0.000000   0.000000   0.373060   0.380702
    15  O    0.000488  -0.000494  -0.000606   0.000566   0.000080   0.000013
    16  Si  -0.014183  -0.026959  -0.025425  -0.013884  -0.000039  -0.000076
    17  C   -0.000384   0.375289   0.378112   0.369998   0.000000   0.000000
    18  C   -0.001070   0.001441  -0.001037  -0.000836   0.000000   0.000000
    19  C    0.372093  -0.001671   0.001319  -0.000150   0.000000   0.000000
    20  H    0.000014   0.000008   0.000550  -0.000052   0.000000   0.000000
    21  H   -0.000037  -0.000027   0.000002   0.000016   0.000000   0.000000
    22  H    0.000114   0.000001  -0.000023   0.000006   0.000000   0.000000
    23  H   -0.022744   0.000005  -0.000025   0.000005   0.000000   0.000000
    24  H   -0.022566   0.000702   0.000007  -0.000032   0.000000   0.000000
    25  H    0.563255  -0.000026   0.000016   0.000046   0.000000   0.000000
    26  H   -0.000026   0.581831  -0.023045  -0.023277   0.000000   0.000000
    27  H    0.000016  -0.023045   0.574659  -0.023288   0.000000   0.000000
    28  H    0.000046  -0.023277  -0.023288   0.570402   0.000000   0.000000
    29  H    0.000000   0.000000   0.000000   0.000000   0.614757  -0.030981
    30  H    0.000000   0.000000   0.000000   0.000000  -0.030981   0.587008
    31  H    0.000000   0.000000  -0.000002   0.000000  -0.030510  -0.028057
    32  H    0.000000   0.000000   0.000000   0.000000   0.000552   0.000110
    33  H    0.000000   0.000000   0.000000   0.000000   0.001455   0.000972
    34  H    0.000000   0.000000   0.000000   0.000000   0.000004   0.000000
    35  H    0.000000   0.000000   0.000000   0.000000  -0.000001   0.000000
    36  H    0.000000   0.000000   0.000000   0.000000   0.000011   0.000004
    37  C    0.000132  -0.000036   0.000000   0.000001  -0.000016   0.001004
    38  C   -0.000005   0.000000   0.000000   0.000000   0.000242   0.005686
    39  C    0.000000   0.000000   0.000000   0.000000   0.000155   0.004693
    40  H    0.000068  -0.000011   0.000000   0.000001   0.000004   0.000052
    41  H   -0.000002   0.000000   0.000000   0.000000  -0.000002  -0.000215
    42  H    0.000001   0.000000   0.000000   0.000000   0.000006  -0.000202
    43  H    0.000000   0.000000   0.000000   0.000000  -0.000001   0.000007
    44  H    0.000000   0.000000   0.000000   0.000000   0.000001   0.000011
              31         32         33         34         35         36
     1  C    0.003846  -0.033555  -0.029377   0.004053  -0.007777  -0.005074
     2  C   -0.025981  -0.006302  -0.005233  -0.000100   0.000119   0.000108
     3  C   -0.008594  -0.000101  -0.000007   0.000002  -0.000007   0.000000
     4  C    0.000286   0.000002   0.000031   0.000001   0.000040   0.000000
     5  C   -0.000021   0.000192  -0.000042  -0.000003   0.000267  -0.000019
     6  H   -0.000075   0.006143  -0.000538  -0.000054   0.000096   0.005670
     7  H   -0.000880   0.006307   0.000161  -0.000005   0.000005   0.000013
     8  H    0.000008   0.000004  -0.000002   0.000000  -0.000001   0.000000
     9  H   -0.000007   0.000001   0.000000   0.000000   0.000000   0.000000
    10  O   -0.000044  -0.000489   0.002937   0.000134   0.008260  -0.000340
    11  O    0.000000  -0.000013   0.000001   0.000000   0.000014   0.000000
    12  C    0.000124   0.377249   0.378564  -0.028164  -0.033063  -0.037589
    13  C    0.000000  -0.041265  -0.036962   0.380390   0.388827   0.385846
    14  C    0.379435  -0.000462   0.002128  -0.000003  -0.000005  -0.000019
[...]
    13  C    0.000000   0.000000   0.000000   0.000000   0.000000   0.000000
    14  C   -0.000005  -0.000010  -0.000003   0.000000   0.000000   0.000000
    15  O   -0.016153  -0.000592  -0.000402   0.000681  -0.000579  -0.000534
    16  Si   0.365970  -0.023446  -0.023667  -0.015168  -0.025722  -0.024939
    17  C   -0.033480  -0.001228   0.001206  -0.000241   0.001195  -0.001239
    18  C   -0.027676   0.377465   0.377076   0.368567  -0.001058   0.001193
    19  C    5.144782   0.001173  -0.001268  -0.000406   0.378360   0.376540
    20  H    0.001173   0.570489  -0.022443  -0.023975  -0.000002  -0.000021
    21  H   -0.001268  -0.022443   0.572159  -0.023991   0.000467   0.000007
    22  H   -0.000406  -0.023975  -0.023991   0.575468  -0.000054  -0.000001
    23  H    0.378360  -0.000002   0.000467  -0.000054   0.570824  -0.023842
    24  H    0.376540  -0.000021   0.000007  -0.000001  -0.023842   0.572585
    25  H    0.369193   0.000006  -0.000026   0.000059  -0.023364  -0.023516
    26  H   -0.001418   0.000006  -0.000021   0.000000   0.000004   0.000532
    27  H    0.001184   0.000416  -0.000002  -0.000036  -0.000021   0.000002
    28  H   -0.000150  -0.000032   0.000010   0.000027   0.000002  -0.000036
    29  H    0.000000   0.000000   0.000000   0.000000   0.000000   0.000000
    30  H    0.000000   0.000000   0.000000   0.000000   0.000000   0.000000
    31  H    0.000008   0.000118   0.000043   0.000001  -0.000001   0.000000
    32  H    0.000000   0.000000   0.000000   0.000000   0.000000   0.000000
    33  H    0.000000   0.000000   0.000000   0.000000   0.000000   0.000000
    34  H    0.000000   0.000000   0.000000   0.000000   0.000000   0.000000
    35  H    0.000000   0.000000   0.000000   0.000000   0.000000   0.000000
    36  H    0.000000   0.000000   0.000000   0.000000   0.000000   0.000000
    37  C   -0.000531   0.000003  -0.000013   0.000001  -0.000243  -0.000713
    38  C   -0.000322   0.000000  -0.000053   0.000001   0.000715  -0.000009
    39  C   -0.000005   0.000000  -0.000001   0.000000   0.000028  -0.000001
    40  H    0.001767   0.000000  -0.000004   0.000000   0.000358   0.001778
    41  H   -0.000003   0.000000   0.000000   0.000000   0.000004  -0.000012
    42  H   -0.000294  -0.000005   0.000411   0.000000   0.000234   0.000003
    43  H    0.000000   0.000000   0.000000   0.000000   0.000000   0.000000
    44  H    0.000000   0.000000   0.000000   0.000000   0.000000   0.000000
              25         26         27         28         29         30
     1  C    0.000000   0.000000   0.000000   0.000000  -0.004188  -0.006713
     2  C    0.000001   0.000011   0.000017   0.000001  -0.027492  -0.033632
     3  C   -0.000004  -0.000025   0.000015   0.000016   0.003945  -0.005094
     4  C    0.000020   0.000069  -0.000250   0.000054  -0.000132   0.000072
     5  C    0.000000  -0.000018  -0.000004   0.000000  -0.000011  -0.000016
     6  H    0.000000   0.000000   0.000000   0.000000  -0.000021   0.006596
     7  H    0.000000  -0.000013   0.000036   0.000001  -0.007172   0.005260
     8  H    0.000000   0.000684   0.000675   0.000028  -0.000006   0.000000
     9  H    0.000004   0.000703   0.000028   0.000029   0.000003   0.000006
    10  O    0.000000   0.000000   0.000000   0.000000  -0.000014   0.000027
    11  O    0.000000   0.000001   0.000000   0.000000   0.000000   0.000000
    12  C    0.000000   0.000000   0.000000   0.000000   0.000787  -0.000771
    13  C    0.000000   0.000000   0.000000   0.000000  -0.000095  -0.000033
    14  C    0.000000   0.000000   0.000000   0.000000   0.374502   0.379572
    15  O    0.000523  -0.000459  -0.000663   0.000536   0.000090  -0.000057
    16  Si  -0.014708  -0.024322  -0.023879  -0.014129  -0.000038  -0.000088
    17  C   -0.000211   0.376747   0.377915   0.368292   0.000000   0.000000
    18  C   -0.000707   0.001223  -0.001006  -0.000676   0.000000   0.000000
    19  C    0.369193  -0.001418   0.001184  -0.000150   0.000000   0.000000
    20  H    0.000006   0.000006   0.000416  -0.000032   0.000000   0.000000
    21  H   -0.000026  -0.000021  -0.000002   0.000010   0.000000   0.000000
    22  H    0.000059   0.000000  -0.000036   0.000027   0.000000   0.000000
    23  H   -0.023364   0.000004  -0.000021   0.000002   0.000000   0.000000
    24  H   -0.023516   0.000532   0.000002  -0.000036   0.000000   0.000000
    25  H    0.570040  -0.000040   0.000009   0.000052   0.000000   0.000000
    26  H   -0.000040   0.573754  -0.023611  -0.023633   0.000000   0.000000
    27  H    0.000009  -0.023611   0.572095  -0.023795   0.000000   0.000000
    28  H    0.000052  -0.023633  -0.023795   0.572112   0.000000   0.000000
    29  H    0.000000   0.000000   0.000000   0.000000   0.606620  -0.029562
    30  H    0.000000   0.000000   0.000000   0.000000  -0.029562   0.583682
    31  H    0.000000   0.000000  -0.000003   0.000000  -0.028409  -0.028511
    32  H    0.000000   0.000000   0.000000   0.000000   0.000433   0.000078
    33  H    0.000000   0.000000   0.000000   0.000000   0.002237   0.000636
    34  H    0.000000   0.000000   0.000000   0.000000   0.000004   0.000000
    35  H    0.000000   0.000000   0.000000   0.000000   0.000000   0.000000
    36  H    0.000000   0.000000   0.000000   0.000000   0.000012   0.000001
    37  C    0.000069  -0.000027  -0.000001   0.000001  -0.000005   0.001144
    38  C   -0.000003   0.000000   0.000000   0.000000   0.000185   0.007648
    39  C    0.000000   0.000000   0.000000   0.000000   0.000100   0.004535
    40  H    0.000029  -0.000011   0.000000   0.000001   0.000004   0.000075
    41  H   -0.000001   0.000000   0.000000   0.000000  -0.000001  -0.000288
    42  H    0.000002   0.000000   0.000000   0.000000   0.000012  -0.000385
    43  H    0.000000   0.000000   0.000000   0.000000   0.000000   0.000012
    44  H    0.000000   0.000000   0.000000   0.000000   0.000001  -0.000019
              31         32         33         34         35         36
     1  C    0.004182  -0.034710  -0.033602   0.003848  -0.008061  -0.004550
     2  C   -0.028724  -0.006815  -0.004675  -0.000095   0.000144   0.000077
     3  C   -0.008941  -0.000122  -0.000009   0.000001  -0.000006   0.000000
     4  C    0.000282   0.000000   0.000040   0.000001   0.000045   0.000000
     5  C   -0.000024   0.000365  -0.000047  -0.000003   0.000341  -0.000013
     6  H   -0.000067   0.006331  -0.000528  -0.000040   0.000101   0.005252
     7  H   -0.001563   0.006690   0.000143  -0.000004   0.000003   0.000012
     8  H    0.000005   0.000003  -0.000003   0.000000  -0.000001   0.000000
     9  H   -0.000007   0.000002   0.000000   0.000000   0.000000   0.000000
    10  O   -0.000046  -0.000552   0.003385   0.000134   0.009193  -0.000262
    11  O    0.000000  -0.000034   0.000001   0.000000   0.000023   0.000000
    12  C    0.000098   0.376280   0.375116  -0.027351  -0.033494  -0.036208
    13  C    0.000001  -0.038378  -0.035164   0.380584   0.388385   0.385423
    14  C    0.378911  -0.000228   0.001639  -0.000002  -0.000007  -0.000014
    15  O    0.011434  -0.000002   0.000000   0.000000   0.000000   0.000000
    16  Si   0.001133  -0.000003   0.000000   0.000000   0.000000   0.000000
    17  C   -0.000006   0.000000   0.000000   0.000000   0.000000   0.000000
    18  C    0.000076   0.000000   0.000000   0.000000   0.000000   0.000000
    19  C    0.000008   0.000000   0.000000   0.000000   0.000000   0.000000
    20  H    0.000118   0.000000   0.000000   0.000000   0.000000   0.000000
    21  H    0.000043   0.000000   0.000000   0.000000   0.000000   0.000000
    22  H    0.000001   0.000000   0.000000   0.000000   0.000000   0.000000
    23  H   -0.000001   0.000000   0.000000   0.000000   0.000000   0.000000
    24  H    0.000000   0.000000   0.000000   0.000000   0.000000   0.000000
    25  H    0.000000   0.000000   0.000000   0.000000   0.000000   0.000000
    26  H    0.000000   0.000000   0.000000   0.000000   0.000000   0.000000
    27  H   -0.000003   0.000000   0.000000   0.000000   0.000000   0.000000
    28  H    0.000000   0.000000   0.000000   0.000000   0.000000   0.000000
    29  H   -0.028409   0.000433   0.002237   0.000004   0.000000   0.000012
    30  H   -0.028511   0.000078   0.000636   0.000000   0.000000   0.000001
    31  H    0.571615  -0.000031  -0.000020   0.000000   0.000000   0.000000
    32  H   -0.000031   0.617267  -0.032362  -0.003101  -0.003786   0.005167
    33  H   -0.000020  -0.032362   0.613345  -0.003512   0.004992  -0.004227
    34  H    0.000000  -0.003101  -0.003512   0.604183  -0.030049  -0.031269
    35  H    0.000000  -0.003786   0.004992  -0.030049   0.577302  -0.030648
    36  H    0.000000   0.005167  -0.004227  -0.031269  -0.030648   0.604833
    37  C   -0.000187   0.000009   0.000001   0.000000   0.000000  -0.000001
    38  C    0.000421  -0.000001  -0.000003   0.000000   0.000000   0.000000
    39  C    0.000011   0.000000   0.000000   0.000000   0.000000   0.000000
    40  H   -0.000036   0.000000   0.000000   0.000000   0.000000   0.000000
    41  H   -0.000008  -0.000003  -0.000003   0.000000  -0.000001  -0.000003
    42  H    0.000415   0.000000   0.000000   0.000000   0.000000   0.000000
    43  H   -0.000002   0.000000   0.000000   0.000000   0.000000   0.000000
    44  H   -0.000001   0.000000   0.000000   0.000000   0.000000   0.000000
              37         38         39         40         41         42
     1  C    0.000721  -0.001228  -0.000384  -0.000167   0.001874   0.000026
     2  C   -0.060334  -0.004398   0.001140   0.006056  -0.005893  -0.000781
     3  C    0.341101  -0.030597   0.000594  -0.033655  -0.025186  -0.005058
     4  C   -0.064826   0.004814  -0.000086  -0.008618  -0.004019   0.000151
     5  C    0.000154  -0.000066  -0.000012  -0.000392   0.003914  -0.000001
     6  H    0.004712   0.000280   0.001102   0.000043  -0.001221   0.000003
     7  H    0.006418  -0.000129  -0.000007  -0.000177  -0.000105  -0.000023
     8  H    0.005082  -0.000123   0.000001   0.000020   0.000024   0.000003
     9  H   -0.006768   0.000016   0.000002   0.004947  -0.000064   0.000002
    10  O   -0.003585   0.000109  -0.000004   0.000031   0.003025  -0.000001
    11  O    0.000128   0.000000   0.000000  -0.000021  -0.000389   0.000000
    12  C   -0.000047   0.000014  -0.000001  -0.000002   0.000151   0.000001
    13  C    0.000000   0.000000   0.000000   0.000000   0.000001   0.000000
    14  C   -0.006665  -0.005161  -0.003129  -0.000140   0.000356   0.000289
    15  O   -0.059387   0.000390   0.000414  -0.002565   0.003359   0.005680
    16  Si  -0.005315   0.001100  -0.000095  -0.000695   0.000386   0.002456
    17  C   -0.000108   0.000005   0.000000  -0.000042   0.000002   0.000007
    18  C   -0.000097  -0.000070   0.000000  -0.000007   0.000000  -0.000057
    19  C   -0.000531  -0.000322  -0.000005   0.001767  -0.000003  -0.000294
    20  H    0.000003   0.000000   0.000000   0.000000   0.000000  -0.000005
    21  H   -0.000013  -0.000053  -0.000001  -0.000004   0.000000   0.000411
    22  H    0.000001   0.000001   0.000000   0.000000   0.000000   0.000000
    23  H   -0.000243   0.000715   0.000028   0.000358   0.000004   0.000234
    24  H   -0.000713  -0.000009  -0.000001   0.001778  -0.000012   0.000003
    25  H    0.000069  -0.000003   0.000000   0.000029  -0.000001   0.000002
    26  H   -0.000027   0.000000   0.000000  -0.000011   0.000000   0.000000
    27  H   -0.000001   0.000000   0.000000   0.000000   0.000000   0.000000
    28  H    0.000001   0.000000   0.000000   0.000001   0.000000   0.000000
    29  H   -0.000005   0.000185   0.000100   0.000004  -0.000001   0.000012
    30  H    0.001144   0.007648   0.004535   0.000075  -0.000288  -0.000385
    31  H   -0.000187   0.000421   0.000011  -0.000036  -0.000008   0.000415
    32  H    0.000009  -0.000001   0.000000   0.000000  -0.000003   0.000000
    33  H    0.000001  -0.000003   0.000000   0.000000  -0.000003   0.000000
    34  H    0.000000   0.000000   0.000000   0.000000   0.000000   0.000000
    35  H    0.000000   0.000000   0.000000   0.000000  -0.000001   0.000000
    36  H   -0.000001   0.000000   0.000000   0.000000  -0.000003   0.000000
    37  C    5.062038   0.385290  -0.040250   0.370084   0.362312  -0.053112
    38  C    0.385290   4.757251   0.651466  -0.037613  -0.036069   0.385477
    39  C   -0.040250   0.651466   4.946043  -0.001574  -0.006080  -0.044224
    40  H    0.370084  -0.037613  -0.001574   0.609344  -0.030856  -0.000797
    41  H    0.362312  -0.036069  -0.006080  -0.030856   0.614526   0.005142
    42  H   -0.053112   0.385477  -0.044224  -0.000797   0.005142   0.600856
    43  H    0.004636  -0.024745   0.376026  -0.000214   0.000081  -0.007899
    44  H   -0.012005  -0.034538   0.381822   0.000250   0.005857   0.005590
              43         44
     1  C    0.000006  -0.000062
     2  C   -0.000027  -0.000024
     3  C   -0.000090   0.000129
     4  C    0.000002  -0.000004
     5  C    0.000000  -0.000004
     6  H   -0.000006   0.000385
     7  H    0.000000   0.000000
     8  H    0.000000   0.000000
     9  H    0.000000   0.000000
    10  O    0.000000  -0.000003
    11  O    0.000000   0.000000
    12  C    0.000000   0.000001
    13  C    0.000000   0.000000
    14  C    0.000016   0.000015
    15  O    0.000003  -0.000002
    16  Si   0.000012   0.000015
    17  C    0.000000   0.000000
    18  C    0.000000   0.000000
    19  C    0.000000   0.000000
    20  H    0.000000   0.000000
    21  H    0.000000   0.000000
    22  H    0.000000   0.000000
    23  H    0.000000   0.000000
    24  H    0.000000   0.000000
    25  H    0.000000   0.000000
    26  H    0.000000   0.000000
    27  H    0.000000   0.000000
    28  H    0.000000   0.000000
    29  H    0.000000   0.000001
    30  H    0.000012  -0.000019
    31  H   -0.000002  -0.000001
    32  H    0.000000   0.000000
    33  H    0.000000   0.000000
    34  H    0.000000   0.000000
    35  H    0.000000   0.000000
    36  H    0.000000   0.000000
    37  C    0.004636  -0.012005
    38  C   -0.024745  -0.034538
    39  C    0.376026   0.381822
    40  H   -0.000214   0.000250
    41  H    0.000081   0.005857
    42  H   -0.007899   0.005590
    43  H    0.591154  -0.043649
    44  H   -0.043649   0.595400
 Mulliken charges:
               1
     1  C    0.174617
     2  C   -0.090723
     3  C    0.308401
     4  C   -0.307744
     5  C    0.592104
     6  H    0.114591
     7  H    0.102253
     8  H    0.158626
     9  H    0.140092
    10  O   -0.486084
    11  O   -0.499661
    12  C   -0.186949
    13  C   -0.328468
    14  C   -0.337966
    15  O   -0.649965
    16  Si   0.909822
    17  C   -0.549212
    18  C   -0.535353
    19  C   -0.555632
    20  H    0.122131
    21  H    0.120564
    22  H    0.119081
    23  H    0.123002
    24  H    0.121036
    25  H    0.122571
    26  H    0.119864
    27  H    0.120879
    28  H    0.121288
    29  H    0.108212
    30  H    0.115827
    31  H    0.127836
    32  H    0.107504
    33  H    0.112623
    34  H    0.106671
    35  H    0.125522
    36  H    0.106420
    37  C   -0.229687
    38  C   -0.020056
    39  C   -0.267434
    40  H    0.122797
    41  H    0.109193
    42  H    0.105876
    43  H    0.104685
    44  H    0.100846
 Sum of Mulliken charges =   0.00000
 Mulliken charges with hydrogens summed into heavy atoms:
               1
     1  C    0.289208
     2  C    0.011530
     3  C    0.308401
     4  C   -0.009026
     5  C    0.592104
    10  O   -0.486084
    11  O   -0.499661
    12  C    0.033178
    13  C    0.010145
    14  C    0.013909
    15  O   -0.649965
    16  Si   0.909822
    17  C   -0.187182
    18  C   -0.173577
    19  C   -0.189022
    37  C    0.002304
    38  C    0.085820
    39  C   -0.061903
 Electronic spatial extent (au):  <R**2>=           5691.3258
 Charge=              0.0000 electrons
 Dipole moment (field-independent basis, Debye):
    X=              2.4423    Y=              2.9951    Z=             -2.4763  Tot=              4.5899
 Quadrupole moment (field-independent basis, Debye-Ang):
   XX=           -115.0590   YY=           -126.7958   ZZ=           -121.0967
   XY=            -11.1755   XZ=              7.6537   YZ=              8.4069
 Traceless Quadrupole moment (field-independent basis, Debye-Ang):
   XX=              5.9248   YY=             -5.8119   ZZ=             -0.1129
   XY=            -11.1755   XZ=              7.6537   YZ=              8.4069
 Octapole moment (field-independent basis, Debye-Ang**2):
  XXX=             19.1432  YYY=             27.9858  ZZZ=            -10.5245  XYY=             20.1682
  XXY=             12.9967  XXZ=            -17.6238  XZZ=             -2.0688  YZZ=              6.9782
  YYZ=            -20.8219  XYZ=            -18.3829
 Hexadecapole moment (field-independent basis, Debye-Ang**3):
 XXXX=          -4634.0750 YYYY=          -1807.9723 ZZZZ=          -1150.1174 XXXY=            -51.9979
 XXXZ=             36.0758 YYYX=            -26.0915 YYYZ=             61.5449 ZZZX=             -3.7113
 ZZZY=             -1.1991 XXYY=          -1126.7922 XXZZ=           -991.2488 YYZZ=           -529.4599
 XXYZ=             30.8825 YYXZ=             34.8280 ZZXY=            -33.4591
 N-N= 1.616954462773D+03 E-N=-5.724177380255D+03  KE= 1.055905298196D+03
 1\1\GINC-CPU-E-609\FOpt\RB3LYP\6-31G(d,p)\C14H26O3Si1\KE291\06-Feb-201
 9\0\\# b3lyp/6-31g(d,p) Opt=(maxcycles=25) scrf=(solvent=chloroform)\\
 P_ng_2ginp003\\0,1\C,-0.254540643,-0.0786322545,1.1959991333\C,-0.9974
 00211,1.064543039,0.4893176232\C,-1.9484723494,1.7981240622,1.47786665
 9\C,-1.0346605337,2.3784524634,2.570342299\C,-0.1137741834,1.367202233
 9,3.2260437917\H,-0.9563582879,-0.9026333697,1.379146176\H,-0.25391040
 41,1.8213854925,0.2020954936\H,-0.3908874762,3.1442471989,2.1219757213
 \H,-1.6001169121,2.8591526466,3.3726030239\O,0.2589569835,0.2819665987
 ,2.5198690295\O,0.3330249201,1.5195363565,4.3440280899\C,0.9502901572,
 -0.6138585721,0.4184828147\C,1.6476094122,-1.7964221446,1.097856525\C,
 -1.6727861508,0.5756469822,-0.8009413769\O,-2.5839640946,2.836476508,0
 .7393140856\Si,-3.2763547022,4.3289555143,1.1021682897\C,-1.9583363729
 ,5.6189401436,1.5054997486\C,-4.1541400007,4.7993712077,-0.4930808688\
 C,-4.5145657369,4.2273700613,2.5238644811\H,-3.4506047175,4.8423743692
 ,-1.3310433723\H,-4.9349213663,4.0751861764,-0.7475923016\H,-4.6265941
 81,5.7837512694,-0.4021358953\H,-5.2951640036,3.4839292797,2.331448515
 2\H,-4.0410732664,3.9814912817,3.4802653119\H,-5.0067112013,5.19945416
 62,2.6468365058\H,-1.4716061661,5.4389754147,2.4690875849\H,-1.1812944
 213,5.6476455902,0.7341170595\H,-2.4158829299,6.6143039584,1.550811694
 1\H,-0.927524146,0.3349436365,-1.5635796644\H,-2.288459918,-0.31058653
 34,-0.630464324\H,-2.3134965293,1.3646118821,-1.1985618939\H,1.6588461
 09,0.2109461841,0.2709150255\H,0.6059596035,-0.9174415551,-0.575299985
 6\H,2.4888315306,-2.1457867048,0.4917015033\H,2.0295146515,-1.51800648
 58,2.0828776604\H,0.9583873222,-2.6382500615,1.2288018801\C,-3.0279943
 212,0.905532314,2.1519311053\C,-4.0857876782,0.3204720681,1.2563161036
 \C,-4.5233446837,-0.9382541874,1.3223106219\H,-3.524727617,1.548348264
 7,2.8916401696\H,-2.5460057551,0.1060023467,2.726520472\H,-4.535954616
 3,1.0072809922,0.5420851511\H,-5.3213738109,-1.298003004,0.6794406579\
 H,-4.1029513016,-1.6549918303,2.0244456752\\Version=ES64L-G09RevD.01\S
 tate=1-A\HF=-1064.4233808\RMSD=9.803e-09\RMSF=6.556e-06\Dipole=-0.9718
 019,0.3336034,-1.4850215\Quadrupole=-0.5849291,8.1315125,-7.5465834,-0
 .8219814,-9.3475912,3.1242472\PG=C01 [X(C14H26O3Si1)]\\@


 BE LIKE A POSTAGE STAMP.  STICK TO ONE THING UNTIL
 YOU GET THERE -- JOSH BILLINGS
 Job cpu time:       0 days  2 hours 20 minutes 13.5 seconds.
 File lengths (MBytes):  RWF=    371 Int=      0 D2E=      0 Chk=     17 Scr=      1
 Normal termination of Gaussian 09 at Wed Feb  6 11:21:04 2019.
