 Entering Gaussian System, Link 0=/usr/local/Cluster-Apps/gaussian/g09/g09
 Initial command:
 /usr/local/Cluster-Apps/gaussian/g09/l1.exe "/home/ke291/rds/hpc-work/06Feb0927IP1/Gau-313961.inp" -scrdir="/home/ke291/rds/hpc-work/06Feb0927IP1/"
 Entering Link 1 = /usr/local/Cluster-Apps/gaussian/g09/l1.exe PID=    313968.
  
 Copyright (c) 1988,1990,1992,1993,1995,1998,2003,2009,2013,
            Gaussian, Inc.  All Rights Reserved.
  
 This is part of the Gaussian(R) 09 program.  It is based on
 the Gaussian(R) 03 system (copyright 2003, Gaussian, Inc.),
 the Gaussian(R) 98 system (copyright 1998, Gaussian, Inc.),
 the Gaussian(R) 94 system (copyright 1995, Gaussian, Inc.),
 the Gaussian 92(TM) system (copyright 1992, Gaussian, Inc.),
 the Gaussian 90(TM) system (copyright 1990, Gaussian, Inc.),
 the Gaussian 88(TM) system (copyright 1988, Gaussian, Inc.),
 the Gaussian 86(TM) system (copyright 1986, Carnegie Mellon
 University), and the Gaussian 82(TM) system (copyright 1983,
 Carnegie Mellon University). Gaussian is a federally registered
 trademark of Gaussian, Inc.
  
 This software contains proprietary and confidential information,
 including trade secrets, belonging to Gaussian, Inc.
  
 This software is provided under written license and may be
 used, copied, transmitted, or stored only in accord with that
 written license.
  
 The following legend is applicable only to US Government
 contracts under FAR:
  
                    RESTRICTED RIGHTS LEGEND
  
 Use, reproduction and disclosure by the US Government is
 subject to restrictions as set forth in subparagraphs (a)
 and (c) of the Commercial Computer Software - Restricted
 Rights clause in FAR 52.227-19.
  
 Gaussian, Inc.
 340 Quinnipiac St., Bldg. 40, Wallingford CT 06492
  
  
 ---------------------------------------------------------------
 Warning -- This program may not be used in any manner that
 competes with the business of Gaussian, Inc. or will provide
 assistance to any competitor of Gaussian, Inc.  The licensee
 of this program is prohibited from giving any competitor of
 Gaussian, Inc. access to this program.  By using this program,
 the user acknowledges that Gaussian, Inc. is engaged in the
 business of creating and licensing software in the field of
 computational chemistry and represents and warrants to the
 licensee that it is not a competitor of Gaussian, Inc. and that
 it will not use this program in any manner prohibited above.
 ---------------------------------------------------------------
  

 Cite this work as:
 Gaussian 09, Revision D.01,
 M. J. Frisch, G. W. Trucks, H. B. Schlegel, G. E. Scuseria, 
 M. A. Robb, J. R. Cheeseman, G. Scalmani, V. Barone, B. Mennucci, 
 G. A. Petersson, H. Nakatsuji, M. Caricato, X. Li, H. P. Hratchian, 
 A. F. Izmaylov, J. Bloino, G. Zheng, J. L. Sonnenberg, M. Hada, 
 M. Ehara, K. Toyota, R. Fukuda, J. Hasegawa, M. Ishida, T. Nakajima, 
 Y. Honda, O. Kitao, H. Nakai, T. Vreven, J. A. Montgomery, Jr., 
 J. E. Peralta, F. Ogliaro, M. Bearpark, J. J. Heyd, E. Brothers, 
 K. N. Kudin, V. N. Staroverov, T. Keith, R. Kobayashi, J. Normand, 
 K. Raghavachari, A. Rendell, J. C. Burant, S. S. Iyengar, J. Tomasi, 
 M. Cossi, N. Rega, J. M. Millam, M. Klene, J. E. Knox, J. B. Cross, 
 V. Bakken, C. Adamo, J. Jaramillo, R. Gomperts, R. E. Stratmann, 
 O. Yazyev, A. J. Austin, R. Cammi, C. Pomelli, J. W. Ochterski, 
 R. L. Martin, K. Morokuma, V. G. Zakrzewski, G. A. Voth, 
 P. Salvador, J. J. Dannenberg, S. Dapprich, A. D. Daniels, 
 O. Farkas, J. B. Foresman, J. V. Ortiz, J. Cioslowski, 
 and D. J. Fox, Gaussian, Inc., Wallingford CT, 2013.
 
 ******************************************
 Gaussian 09:  ES64L-G09RevD.01 24-Apr-2013
                 6-Feb-2019 
 ******************************************
 %nprocshared=2
 Will use up to    2 processors via shared memory.
 %mem=6000MB
 %chk=/home/ke291/rds/hpc-work/06Feb0927IP1/P_ng_2ginp014.chk
 ---------------------------------------------------------------
 # b3lyp/6-31g(d,p) Opt=(maxcycles=25) scrf=(solvent=chloroform)
 ---------------------------------------------------------------
 1/6=25,14=-1,18=20,19=15,26=3,38=1/1,3;
 2/9=110,12=2,17=6,18=5,40=1/2;
 3/5=1,6=6,7=101,11=2,16=1,25=1,30=1,70=2201,71=1,72=7,74=-5/1,2,3;
 4//1;
 5/5=2,38=5,53=7/2;
 6/7=2,8=2,9=2,10=2,28=1/1;
 7//1,2,3,16;
 1/6=25,14=-1,18=20,19=15,26=3/3(2);
 2/9=110/2;
 99//99;
 2/9=110/2;
 3/5=1,6=6,7=101,11=2,16=1,25=1,30=1,70=2205,71=1,72=7,74=-5/1,2,3;
 4/5=5,16=3,69=1/1;
 5/5=2,38=5,53=7/2;
 7//1,2,3,16;
 1/6=25,14=-1,18=20,19=15,26=3/3(-5);
 2/9=110/2;
 6/7=2,8=2,9=2,10=2,19=2,28=1/1;
 99/9=1/99;
 -------------
 P_ng_2ginp014
 -------------
 Symbolic Z-matrix:
 Charge =  0 Multiplicity = 1
 C                    -0.19102   0.08086   1.13378 
 C                    -1.15332   1.08964   0.48826 
 C                    -2.398     1.26162   1.4238 
 C                    -2.01521   1.14918   2.91772 
 C                    -0.54825   1.28431   3.21087 
 H                    -0.70519  -0.85755   1.37386 
 H                    -0.62755   2.05      0.45315 
 H                    -2.55613   1.89376   3.51283 
 H                    -2.27407   0.16407   3.32633 
 O                     0.29491   0.64118   2.37258 
 O                    -0.13159   1.86775   4.20573 
 C                     1.04781  -0.28276   0.29807 
 C                     1.95422   0.89706  -0.03469 
 C                    -1.51414   0.75255  -0.96312 
 O                    -3.13331   2.47042   1.1323 
 Si                   -2.61346   4.05812   1.11488 
 C                    -1.22632   4.44966   2.30507 
 C                    -2.0546    4.54256  -0.61948 
 C                    -4.0712    5.17621   1.5621 
 H                    -2.84553   4.33565  -1.34627 
 H                    -1.81939   5.6102   -0.66022 
 H                    -1.16148   3.98445  -0.91316 
 H                    -4.89586   5.02532   0.85952 
 H                    -4.42825   4.9489    2.57073 
 H                    -3.77216   6.22778   1.52726 
 H                    -0.98401   5.51644   2.26741 
 H                    -1.51127   4.21121   3.33337 
 H                    -0.31733   3.89711   2.05376 
 H                    -2.29942   1.41502  -1.34094 
 H                    -0.64992   0.88019  -1.62253 
 H                    -1.85336  -0.28313  -1.06668 
 H                     0.74892  -0.78844  -0.62649 
 H                     1.6482   -1.0028    0.86901 
 H                     2.30934   1.39633   0.87206 
 H                     2.83197   0.5475   -0.58804 
 H                     1.44402   1.63718  -0.65717 
 C                    -3.45891   0.13051   1.12739 
 C                    -4.67199   0.14679   2.02907 
 C                    -5.07449  -0.88875   2.77652 
 H                    -2.9804   -0.8552    1.17088 
 H                    -3.85215   0.25439   0.11038 
 H                    -5.25153   1.06901   2.04463 
 H                    -5.96287  -0.81014   3.39663 
 H                    -4.53934  -1.83285   2.78823 
 

 GradGradGradGradGradGradGradGradGradGradGradGradGradGradGradGradGradGrad
 Berny optimization.
 Initialization pass.
                           ----------------------------
                           !    Initial Parameters    !
                           ! (Angstroms and Degrees)  !
 --------------------------                            --------------------------
 ! Name  Definition              Value          Derivative Info.                !
 --------------------------------------------------------------------------------
 ! R1    R(1,2)                  1.5363         estimate D2E/DX2                !
 ! R2    R(1,6)                  1.0966         estimate D2E/DX2                !
 ! R3    R(1,10)                 1.4438         estimate D2E/DX2                !
 ! R4    R(1,12)                 1.538          estimate D2E/DX2                !
 ! R5    R(2,3)                  1.5665         estimate D2E/DX2                !
 ! R6    R(2,7)                  1.0954         estimate D2E/DX2                !
 ! R7    R(2,14)                 1.5331         estimate D2E/DX2                !
 ! R8    R(3,4)                  1.5463         estimate D2E/DX2                !
 ! R9    R(3,15)                 1.4446         estimate D2E/DX2                !
 ! R10   R(3,37)                 1.5789         estimate D2E/DX2                !
 ! R11   R(4,5)                  1.5021         estimate D2E/DX2                !
 ! R12   R(4,8)                  1.096          estimate D2E/DX2                !
 ! R13   R(4,9)                  1.0975         estimate D2E/DX2                !
 ! R14   R(5,10)                 1.3518         estimate D2E/DX2                !
 ! R15   R(5,11)                 1.2263         estimate D2E/DX2                !
 ! R16   R(12,13)                1.5246         estimate D2E/DX2                !
 ! R17   R(12,32)                1.0954         estimate D2E/DX2                !
 ! R18   R(12,33)                1.0977         estimate D2E/DX2                !
 ! R19   R(13,34)                1.0943         estimate D2E/DX2                !
 ! R20   R(13,35)                1.0949         estimate D2E/DX2                !
 ! R21   R(13,36)                1.0934         estimate D2E/DX2                !
 ! R22   R(14,29)                1.0947         estimate D2E/DX2                !
 ! R23   R(14,30)                1.0945         estimate D2E/DX2                !
 ! R24   R(14,31)                1.0947         estimate D2E/DX2                !
 ! R25   R(15,16)                1.6707         estimate D2E/DX2                !
 ! R26   R(16,17)                1.8692         estimate D2E/DX2                !
 ! R27   R(16,18)                1.8855         estimate D2E/DX2                !
 ! R28   R(16,19)                1.8908         estimate D2E/DX2                !
 ! R29   R(17,26)                1.0946         estimate D2E/DX2                !
 ! R30   R(17,27)                1.0934         estimate D2E/DX2                !
 ! R31   R(17,28)                1.093          estimate D2E/DX2                !
 ! R32   R(18,20)                1.0939         estimate D2E/DX2                !
 ! R33   R(18,21)                1.094          estimate D2E/DX2                !
 ! R34   R(18,22)                1.0933         estimate D2E/DX2                !
 ! R35   R(19,23)                1.0938         estimate D2E/DX2                !
 ! R36   R(19,24)                1.0938         estimate D2E/DX2                !
 ! R37   R(19,25)                1.0938         estimate D2E/DX2                !
 ! R38   R(37,38)                1.5116         estimate D2E/DX2                !
 ! R39   R(37,40)                1.0966         estimate D2E/DX2                !
 ! R40   R(37,41)                1.0974         estimate D2E/DX2                !
 ! R41   R(38,39)                1.339          estimate D2E/DX2                !
 ! R42   R(38,42)                1.0893         estimate D2E/DX2                !
 ! R43   R(39,43)                1.0862         estimate D2E/DX2                !
 ! R44   R(39,44)                1.0853         estimate D2E/DX2                !
 ! A1    A(2,1,6)              111.1112         estimate D2E/DX2                !
 ! A2    A(2,1,10)             108.4504         estimate D2E/DX2                !
 ! A3    A(2,1,12)             115.5598         estimate D2E/DX2                !
 ! A4    A(6,1,10)             107.5804         estimate D2E/DX2                !
 ! A5    A(6,1,12)             107.1166         estimate D2E/DX2                !
 ! A6    A(10,1,12)            106.671          estimate D2E/DX2                !
 ! A7    A(1,2,3)              108.5919         estimate D2E/DX2                !
 ! A8    A(1,2,7)              106.7678         estimate D2E/DX2                !
 ! A9    A(1,2,14)             113.6296         estimate D2E/DX2                !
 ! A10   A(3,2,7)              107.7124         estimate D2E/DX2                !
 ! A11   A(3,2,14)             113.7354         estimate D2E/DX2                !
 ! A12   A(7,2,14)             105.9853         estimate D2E/DX2                !
 ! A13   A(2,3,4)              111.8579         estimate D2E/DX2                !
 ! A14   A(2,3,15)             112.0729         estimate D2E/DX2                !
 ! A15   A(2,3,37)             110.0673         estimate D2E/DX2                !
 ! A16   A(4,3,15)             112.4461         estimate D2E/DX2                !
 ! A17   A(4,3,37)             107.195          estimate D2E/DX2                !
 ! A18   A(15,3,37)            102.6834         estimate D2E/DX2                !
 ! A19   A(3,4,5)              115.0737         estimate D2E/DX2                !
 ! A20   A(3,4,8)              110.6728         estimate D2E/DX2                !
 ! A21   A(3,4,9)              111.5062         estimate D2E/DX2                !
 ! A22   A(5,4,8)              108.3562         estimate D2E/DX2                !
 ! A23   A(5,4,9)              103.7949         estimate D2E/DX2                !
 ! A24   A(8,4,9)              106.9328         estimate D2E/DX2                !
 ! A25   A(4,5,10)             116.4453         estimate D2E/DX2                !
 ! A26   A(4,5,11)             122.2068         estimate D2E/DX2                !
 ! A27   A(10,5,11)            121.1673         estimate D2E/DX2                !
 ! A28   A(1,10,5)             120.4498         estimate D2E/DX2                !
 ! A29   A(1,12,13)            114.4905         estimate D2E/DX2                !
 ! A30   A(1,12,32)            110.3651         estimate D2E/DX2                !
 ! A31   A(1,12,33)            108.2418         estimate D2E/DX2                !
 ! A32   A(13,12,32)           109.5879         estimate D2E/DX2                !
 ! A33   A(13,12,33)           107.2164         estimate D2E/DX2                !
 ! A34   A(32,12,33)           106.5853         estimate D2E/DX2                !
 ! A35   A(12,13,34)           111.4164         estimate D2E/DX2                !
 ! A36   A(12,13,35)           109.8682         estimate D2E/DX2                !
 ! A37   A(12,13,36)           111.7572         estimate D2E/DX2                !
 ! A38   A(34,13,35)           107.7136         estimate D2E/DX2                !
 ! A39   A(34,13,36)           108.3193         estimate D2E/DX2                !
 ! A40   A(35,13,36)           107.605          estimate D2E/DX2                !
 ! A41   A(2,14,29)            111.2554         estimate D2E/DX2                !
 ! A42   A(2,14,30)            111.0313         estimate D2E/DX2                !
 ! A43   A(2,14,31)            111.747          estimate D2E/DX2                !
 ! A44   A(29,14,30)           106.733          estimate D2E/DX2                !
 ! A45   A(29,14,31)           108.5177         estimate D2E/DX2                !
 ! A46   A(30,14,31)           107.3378         estimate D2E/DX2                !
 ! A47   A(3,15,16)            129.7107         estimate D2E/DX2                !
 ! A48   A(15,16,17)           115.045          estimate D2E/DX2                !
 ! A49   A(15,16,18)           110.2413         estimate D2E/DX2                !
 ! A50   A(15,16,19)           108.6381         estimate D2E/DX2                !
 ! A51   A(17,16,18)           108.1747         estimate D2E/DX2                !
 ! A52   A(17,16,19)           107.3174         estimate D2E/DX2                !
 ! A53   A(18,16,19)           107.1065         estimate D2E/DX2                !
 ! A54   A(16,17,26)           110.2743         estimate D2E/DX2                !
 ! A55   A(16,17,27)           111.0846         estimate D2E/DX2                !
 ! A56   A(16,17,28)           111.3988         estimate D2E/DX2                !
 ! A57   A(26,17,27)           107.6136         estimate D2E/DX2                !
 ! A58   A(26,17,28)           107.4977         estimate D2E/DX2                !
 ! A59   A(27,17,28)           108.8271         estimate D2E/DX2                !
 ! A60   A(16,18,20)           110.3801         estimate D2E/DX2                !
 ! A61   A(16,18,21)           110.4089         estimate D2E/DX2                !
 ! A62   A(16,18,22)           110.9804         estimate D2E/DX2                !
 ! A63   A(20,18,21)           108.3791         estimate D2E/DX2                !
 ! A64   A(20,18,22)           108.3982         estimate D2E/DX2                !
 ! A65   A(21,18,22)           108.2119         estimate D2E/DX2                !
 ! A66   A(16,19,23)           110.3506         estimate D2E/DX2                !
 ! A67   A(16,19,24)           110.296          estimate D2E/DX2                !
 ! A68   A(16,19,25)           110.4984         estimate D2E/DX2                !
 ! A69   A(23,19,24)           108.5128         estimate D2E/DX2                !
 ! A70   A(23,19,25)           108.5586         estimate D2E/DX2                !
 ! A71   A(24,19,25)           108.5653         estimate D2E/DX2                !
 ! A72   A(3,37,38)            114.8067         estimate D2E/DX2                !
 ! A73   A(3,37,40)            110.0789         estimate D2E/DX2                !
 ! A74   A(3,37,41)            109.5053         estimate D2E/DX2                !
 ! A75   A(38,37,40)           109.647          estimate D2E/DX2                !
 ! A76   A(38,37,41)           105.3091         estimate D2E/DX2                !
 ! A77   A(40,37,41)           107.1325         estimate D2E/DX2                !
 ! A78   A(37,38,39)           124.4634         estimate D2E/DX2                !
 ! A79   A(37,38,42)           116.3976         estimate D2E/DX2                !
 ! A80   A(39,38,42)           119.1324         estimate D2E/DX2                !
 ! A81   A(38,39,43)           120.5656         estimate D2E/DX2                !
 ! A82   A(38,39,44)           122.0419         estimate D2E/DX2                !
 ! A83   A(43,39,44)           117.3921         estimate D2E/DX2                !
 ! D1    D(6,1,2,3)             53.6435         estimate D2E/DX2                !
 ! D2    D(6,1,2,7)            169.5304         estimate D2E/DX2                !
 ! D3    D(6,1,2,14)           -73.9973         estimate D2E/DX2                !
 ! D4    D(10,1,2,3)           -64.3995         estimate D2E/DX2                !
 ! D5    D(10,1,2,7)            51.4875         estimate D2E/DX2                !
 ! D6    D(10,1,2,14)          167.9598         estimate D2E/DX2                !
 ! D7    D(12,1,2,3)           175.9446         estimate D2E/DX2                !
 ! D8    D(12,1,2,7)           -68.1684         estimate D2E/DX2                !
 ! D9    D(12,1,2,14)           48.3039         estimate D2E/DX2                !
 ! D10   D(2,1,10,5)            42.5009         estimate D2E/DX2                !
 ! D11   D(6,1,10,5)           -77.7647         estimate D2E/DX2                !
 ! D12   D(12,1,10,5)          167.5794         estimate D2E/DX2                !
 ! D13   D(2,1,12,13)           60.3359         estimate D2E/DX2                !
 ! D14   D(2,1,12,32)          -63.862          estimate D2E/DX2                !
 ! D15   D(2,1,12,33)          179.8469         estimate D2E/DX2                !
 ! D16   D(6,1,12,13)         -175.2592         estimate D2E/DX2                !
 ! D17   D(6,1,12,32)           60.5429         estimate D2E/DX2                !
 ! D18   D(6,1,12,33)          -55.7481         estimate D2E/DX2                !
 ! D19   D(10,1,12,13)         -60.29           estimate D2E/DX2                !
 ! D20   D(10,1,12,32)         175.5121         estimate D2E/DX2                !
 ! D21   D(10,1,12,33)          59.2211         estimate D2E/DX2                !
 ! D22   D(1,2,3,4)             34.2131         estimate D2E/DX2                !
 ! D23   D(1,2,3,15)           161.5567         estimate D2E/DX2                !
 ! D24   D(1,2,3,37)           -84.8418         estimate D2E/DX2                !
 ! D25   D(7,2,3,4)            -81.0615         estimate D2E/DX2                !
 ! D26   D(7,2,3,15)            46.282          estimate D2E/DX2                !
 ! D27   D(7,2,3,37)           159.8835         estimate D2E/DX2                !
 ! D28   D(14,2,3,4)           161.7937         estimate D2E/DX2                !
 ! D29   D(14,2,3,15)          -70.8628         estimate D2E/DX2                !
 ! D30   D(14,2,3,37)           42.7387         estimate D2E/DX2                !
 ! D31   D(1,2,14,29)          172.441          estimate D2E/DX2                !
 ! D32   D(1,2,14,30)          -68.8385         estimate D2E/DX2                !
 ! D33   D(1,2,14,31)           50.9705         estimate D2E/DX2                !
 ! D34   D(3,2,14,29)           47.5139         estimate D2E/DX2                !
 ! D35   D(3,2,14,30)          166.2344         estimate D2E/DX2                !
 ! D36   D(3,2,14,31)          -73.9566         estimate D2E/DX2                !
 ! D37   D(7,2,14,29)          -70.6296         estimate D2E/DX2                !
 ! D38   D(7,2,14,30)           48.0909         estimate D2E/DX2                !
 ! D39   D(7,2,14,31)          167.8999         estimate D2E/DX2                !
 ! D40   D(2,3,4,5)             16.186          estimate D2E/DX2                !
 ! D41   D(2,3,4,8)            139.4267         estimate D2E/DX2                !
 ! D42   D(2,3,4,9)           -101.6741         estimate D2E/DX2                !
 ! D43   D(15,3,4,5)          -110.9566         estimate D2E/DX2                !
 ! D44   D(15,3,4,8)            12.2841         estimate D2E/DX2                !
 ! D45   D(15,3,4,9)           131.1833         estimate D2E/DX2                !
 ! D46   D(37,3,4,5)           136.9254         estimate D2E/DX2                !
 ! D47   D(37,3,4,8)           -99.8338         estimate D2E/DX2                !
 ! D48   D(37,3,4,9)            19.0653         estimate D2E/DX2                !
 ! D49   D(2,3,15,16)          -56.9098         estimate D2E/DX2                !
 ! D50   D(4,3,15,16)           70.1181         estimate D2E/DX2                !
 ! D51   D(37,3,15,16)        -174.995          estimate D2E/DX2                !
 ! D52   D(2,3,37,38)          176.5836         estimate D2E/DX2                !
 ! D53   D(2,3,37,40)           52.2976         estimate D2E/DX2                !
 ! D54   D(2,3,37,41)          -65.2328         estimate D2E/DX2                !
 ! D55   D(4,3,37,38)           54.7159         estimate D2E/DX2                !
 ! D56   D(4,3,37,40)          -69.57           estimate D2E/DX2                !
 ! D57   D(4,3,37,41)          172.8995         estimate D2E/DX2                !
 ! D58   D(15,3,37,38)         -63.925          estimate D2E/DX2                !
 ! D59   D(15,3,37,40)         171.7891         estimate D2E/DX2                !
 ! D60   D(15,3,37,41)          54.2586         estimate D2E/DX2                !
 ! D61   D(3,4,5,10)           -42.4009         estimate D2E/DX2                !
 ! D62   D(3,4,5,11)           142.4318         estimate D2E/DX2                !
 ! D63   D(8,4,5,10)          -166.8657         estimate D2E/DX2                !
 ! D64   D(8,4,5,11)            17.967          estimate D2E/DX2                !
 ! D65   D(9,4,5,10)            79.7156         estimate D2E/DX2                !
 ! D66   D(9,4,5,11)           -95.4517         estimate D2E/DX2                !
 ! D67   D(4,5,10,1)            11.3615         estimate D2E/DX2                !
 ! D68   D(11,5,10,1)         -173.4172         estimate D2E/DX2                !
 ! D69   D(1,12,13,34)          58.0688         estimate D2E/DX2                !
 ! D70   D(1,12,13,35)         177.36           estimate D2E/DX2                !
 ! D71   D(1,12,13,36)         -63.2675         estimate D2E/DX2                !
 ! D72   D(32,12,13,34)       -177.3207         estimate D2E/DX2                !
 ! D73   D(32,12,13,35)        -58.0295         estimate D2E/DX2                !
 ! D74   D(32,12,13,36)         61.343          estimate D2E/DX2                !
 ! D75   D(33,12,13,34)        -62.0147         estimate D2E/DX2                !
 ! D76   D(33,12,13,35)         57.2765         estimate D2E/DX2                !
 ! D77   D(33,12,13,36)        176.649          estimate D2E/DX2                !
 ! D78   D(3,15,16,17)         -30.3544         estimate D2E/DX2                !
 ! D79   D(3,15,16,18)          92.2782         estimate D2E/DX2                !
 ! D80   D(3,15,16,19)        -150.6419         estimate D2E/DX2                !
 ! D81   D(15,16,17,26)       -177.0207         estimate D2E/DX2                !
 ! D82   D(15,16,17,27)        -57.8013         estimate D2E/DX2                !
 ! D83   D(15,16,17,28)         63.7033         estimate D2E/DX2                !
 ! D84   D(18,16,17,26)         59.2456         estimate D2E/DX2                !
 ! D85   D(18,16,17,27)        178.465          estimate D2E/DX2                !
 ! D86   D(18,16,17,28)        -60.0304         estimate D2E/DX2                !
 ! D87   D(19,16,17,26)        -56.0099         estimate D2E/DX2                !
 ! D88   D(19,16,17,27)         63.2095         estimate D2E/DX2                !
 ! D89   D(19,16,17,28)       -175.2859         estimate D2E/DX2                !
 ! D90   D(15,16,18,20)         53.8937         estimate D2E/DX2                !
 ! D91   D(15,16,18,21)        173.7027         estimate D2E/DX2                !
 ! D92   D(15,16,18,22)        -66.3091         estimate D2E/DX2                !
 ! D93   D(17,16,18,20)       -179.5264         estimate D2E/DX2                !
 ! D94   D(17,16,18,21)        -59.7173         estimate D2E/DX2                !
 ! D95   D(17,16,18,22)         60.2709         estimate D2E/DX2                !
 ! D96   D(19,16,18,20)        -64.1328         estimate D2E/DX2                !
 ! D97   D(19,16,18,21)         55.6763         estimate D2E/DX2                !
 ! D98   D(19,16,18,22)        175.6645         estimate D2E/DX2                !
 ! D99   D(15,16,19,23)        -58.0504         estimate D2E/DX2                !
 ! D100  D(15,16,19,24)         61.8338         estimate D2E/DX2                !
 ! D101  D(15,16,19,25)       -178.1218         estimate D2E/DX2                !
 ! D102  D(17,16,19,23)        176.9804         estimate D2E/DX2                !
 ! D103  D(17,16,19,24)        -63.1354         estimate D2E/DX2                !
 ! D104  D(17,16,19,25)         56.909          estimate D2E/DX2                !
 ! D105  D(18,16,19,23)         61.0162         estimate D2E/DX2                !
 ! D106  D(18,16,19,24)       -179.0996         estimate D2E/DX2                !
 ! D107  D(18,16,19,25)        -59.0552         estimate D2E/DX2                !
 ! D108  D(3,37,38,39)        -123.5661         estimate D2E/DX2                !
 ! D109  D(3,37,38,42)          57.3844         estimate D2E/DX2                !
 ! D110  D(40,37,38,39)          0.9477         estimate D2E/DX2                !
 ! D111  D(40,37,38,42)       -178.1018         estimate D2E/DX2                !
 ! D112  D(41,37,38,39)        115.9103         estimate D2E/DX2                !
 ! D113  D(41,37,38,42)        -63.1391         estimate D2E/DX2                !
 ! D114  D(37,38,39,43)       -179.4673         estimate D2E/DX2                !
 ! D115  D(37,38,39,44)          0.2831         estimate D2E/DX2                !
 ! D116  D(42,38,39,43)         -0.4421         estimate D2E/DX2                !
 ! D117  D(42,38,39,44)        179.3083         estimate D2E/DX2                !
 --------------------------------------------------------------------------------
 Trust Radius=3.00D-01 FncErr=1.00D-07 GrdErr=1.00D-06
 Number of steps in this run=     25 maximum allowed number of steps=    264.
 GradGradGradGradGradGradGradGradGradGradGradGradGradGradGradGradGradGrad

                          Input orientation:                          
 ---------------------------------------------------------------------
 Center     Atomic      Atomic             Coordinates (Angstroms)
 Number     Number       Type             X           Y           Z
 ---------------------------------------------------------------------
      1          6           0       -0.191015    0.080855    1.133783
      2          6           0       -1.153315    1.089638    0.488256
      3          6           0       -2.398001    1.261623    1.423800
      4          6           0       -2.015215    1.149179    2.917721
      5          6           0       -0.548253    1.284309    3.210869
      6          1           0       -0.705186   -0.857549    1.373861
      7          1           0       -0.627553    2.050004    0.453148
      8          1           0       -2.556129    1.893760    3.512831
      9          1           0       -2.274069    0.164071    3.326329
     10          8           0        0.294913    0.641175    2.372577
     11          8           0       -0.131590    1.867745    4.205730
     12          6           0        1.047815   -0.282756    0.298072
     13          6           0        1.954217    0.897061   -0.034692
     14          6           0       -1.514139    0.752546   -0.963120
     15          8           0       -3.133313    2.470423    1.132295
     16         14           0       -2.613460    4.058117    1.114884
     17          6           0       -1.226315    4.449664    2.305067
     18          6           0       -2.054600    4.542555   -0.619482
     19          6           0       -4.071200    5.176206    1.562096
     20          1           0       -2.845531    4.335650   -1.346268
     21          1           0       -1.819390    5.610197   -0.660218
     22          1           0       -1.161484    3.984450   -0.913160
     23          1           0       -4.895864    5.025322    0.859523
     24          1           0       -4.428247    4.948904    2.570729
     25          1           0       -3.772158    6.227775    1.527257
     26          1           0       -0.984005    5.516444    2.267407
     27          1           0       -1.511266    4.211210    3.333374
     28          1           0       -0.317327    3.897112    2.053765
     29          1           0       -2.299419    1.415022   -1.340940
     30          1           0       -0.649920    0.880185   -1.622530
     31          1           0       -1.853364   -0.283125   -1.066679
     32          1           0        0.748924   -0.788436   -0.626492
     33          1           0        1.648198   -1.002796    0.869011
     34          1           0        2.309339    1.396330    0.872056
     35          1           0        2.831968    0.547498   -0.588039
     36          1           0        1.444022    1.637182   -0.657173
     37          6           0       -3.458914    0.130510    1.127393
     38          6           0       -4.671994    0.146785    2.029066
     39          6           0       -5.074493   -0.888753    2.776521
     40          1           0       -2.980401   -0.855196    1.170875
     41          1           0       -3.852153    0.254387    0.110376
     42          1           0       -5.251530    1.069014    2.044628
     43          1           0       -5.962873   -0.810136    3.396631
     44          1           0       -4.539336   -1.832850    2.788234
 ---------------------------------------------------------------------
                    Distance matrix (angstroms):
                    1          2          3          4          5
     1  C    0.000000
     2  C    1.536349   0.000000
     3  C    2.519744   1.566545   0.000000
     4  C    2.766127   2.578511   1.546276   0.000000
     5  C    2.426975   2.795822   2.572100   1.502056   0.000000
     6  H    1.096636   2.185556   2.712749   2.850726   2.826090
     7  H    2.128703   1.095427   2.167532   2.968369   2.863146
     8  H    3.813169   3.429658   2.188299   1.095967   2.119948
     9  H    3.025442   3.188640   2.199908   1.097453   2.060754
    10  O    1.443847   2.418501   2.921801   2.427332   1.351771
    11  O    3.554345   3.933063   3.639112   2.392352   1.226276
    12  C    1.537962   2.600886   3.940307   4.277283   3.672535
    13  C    2.575567   3.157106   4.604553   4.953453   4.116550
    14  C    2.568818   1.533074   2.595719   3.933106   4.317162
    15  O    3.790403   2.498349   1.444596   2.486679   3.522765
    16  Si   4.656953   3.366980   2.821742   3.474196   4.043791
    17  C    4.640069   3.820459   3.509001   3.448320   3.361505
    18  C    5.143312   3.736581   3.880392   4.901873   5.249461
    19  C    6.418870   5.134902   4.259423   4.720354   5.502406
    20  H    5.594675   4.094590   4.162115   5.387451   5.946063
    21  H    6.036859   4.711486   4.856750   5.721947   5.942593
    22  H    4.513296   3.216204   3.795279   4.841825   4.967336
    23  H    6.830708   5.443723   4.552270   5.249648   6.198849
    24  H    6.611872   5.473190   4.362727   4.514536   5.375257
    25  H    7.124888   5.859890   5.153802   5.550890   6.137261
    26  H    5.608883   4.773956   4.562298   4.534237   4.357863
    27  H    4.862211   4.238754   3.623925   3.130937   3.083691
    28  H    3.927612   3.321386   3.416411   3.343707   2.866872
    29  H    3.514203   2.182977   2.770747   4.276405   4.878794
    30  H    2.906335   2.180068   3.532904   4.748712   4.851330
    31  H    2.781711   2.189148   2.980832   4.237114   4.738943
    32  H    2.176630   2.896263   4.278969   4.894513   4.550196
    33  H    2.151071   3.517347   4.669808   4.716864   3.942023
    34  H    2.837384   3.497333   4.741478   4.790365   3.694378
    35  H    3.510107   4.163509   5.648898   6.012284   5.138140
    36  H    2.881497   2.891016   4.385503   4.998433   4.365252
    37  C    3.268282   2.577636   1.578864   2.515398   3.760861
    38  C    4.570017   3.955271   2.603892   2.975395   4.438002
    39  C    5.242813   4.952355   3.690201   3.678626   5.039614
    40  H    2.942489   2.754377   2.209996   2.828529   3.828107
    41  H    3.805444   2.850292   2.203217   3.472201   4.646456
    42  H    5.235925   4.383844   2.926628   3.352977   4.850493
    43  H    6.263281   5.932928   4.570838   4.433089   5.808556
    44  H    5.030643   5.029510   4.002844   3.909022   5.081736
                    6          7          8          9         10
     6  H    0.000000
     7  H    3.050837   0.000000
     8  H    3.945996   3.620149   0.000000
     9  H    2.705038   3.810896   1.762432   0.000000
    10  O    2.060050   2.553419   3.316261   2.781535   0.000000
    11  O    3.971866   3.789600   2.521741   2.875077   2.246515
    12  C    2.135585   2.876226   5.297198   4.517179   2.392505
    13  C    3.483547   2.869286   5.824221   5.450884   2.934913
    14  C    2.950981   2.115478   4.735214   4.395813   3.796307
    15  O    4.126688   2.629986   2.516472   3.297172   4.078870
    16  Si   5.279427   2.900731   3.230770   4.491021   4.660034
    17  C    5.413431   3.089739   3.124059   4.528473   4.101619
    18  C    5.912314   3.065911   4.933929   5.898196   5.449165
    19  C    6.911706   4.781382   4.107951   5.609251   6.347151
    20  H    6.240953   3.658074   5.445863   6.289817   6.110756
    21  H    6.871002   3.915997   5.636402   6.764583   6.193489
    22  H    5.374349   2.427748   5.089736   5.814328   4.908630
    23  H    7.241167   5.218825   4.724519   6.049025   6.960908
    24  H    7.000612   5.228102   3.704900   5.301513   6.395626
    25  H    7.722154   5.338166   4.919849   6.499957   6.961733
    26  H    6.442356   3.928715   4.140833   5.606557   5.041323
    27  H    5.493794   3.707757   2.548434   4.118404   4.114677
    28  H    4.818662   2.463742   3.339839   4.402710   3.328304
    29  H    3.882821   2.533198   4.884074   4.832072   4.595607
    30  H    3.464265   2.382733   5.570718   5.257555   4.112264
    31  H    2.757628   3.042364   5.119045   4.435707   4.159075
    32  H    2.473990   3.334225   5.937301   5.066611   3.353256
    33  H    2.411304   3.830349   5.749451   4.773277   2.606671
    34  H    3.797254   3.037780   5.558229   5.343178   2.622925
    35  H    4.281900   3.912784   6.903705   6.445224   3.900086
    36  H    3.868834   2.386348   5.784114   5.644692   3.389966
    37  C    2.935988   3.486498   3.100707   2.498060   3.987791
    38  C    4.144098   4.739542   3.119353   2.726396   5.003258
    39  C    4.589038   5.814605   3.824485   3.041891   5.597711
    40  H    2.284253   3.806733   3.636141   2.486723   3.796169
    41  H    3.568781   3.706721   3.992984   3.583415   4.739759
    42  H    4.983053   4.987616   3.178209   3.365554   5.572578
    43  H    5.633571   6.731280   4.350915   3.815927   6.504989
    44  H    4.201472   5.985919   4.283197   3.067356   5.446424
                   11         12         13         14         15
    11  O    0.000000
    12  C    4.613615   0.000000
    13  C    4.824313   1.524554   0.000000
    14  C    5.465539   3.037444   3.593377   0.000000
    15  O    4.338152   5.075210   5.451632   3.156515   0.000000
    16  Si   4.528878   5.737185   5.672519   4.056280   1.670725
    17  C    3.387809   5.620987   5.311426   4.942931   2.988215
    18  C    5.842538   5.809519   5.449974   3.843742   2.919944
    19  C    5.784051   7.589620   7.560851   5.699478   2.895794
    20  H    6.654375   6.260325   6.048281   3.841620   3.115311
    21  H    6.366480   6.623147   6.070012   4.876649   3.846775
    22  H    5.634195   4.955515   4.473396   3.251471   3.219359
    23  H    6.623119   7.988632   8.047718   5.745843   3.115847
    24  H    5.534260   7.907116   7.996343   6.212048   3.144649
    25  H    6.279953   8.193293   7.977943   6.424855   3.831685
    26  H    4.218615   6.452697   5.938982   5.780318   3.896954
    27  H    2.855931   5.996473   5.859780   5.515635   3.241315
    28  H    2.963745   4.734698   4.303704   4.519098   3.288514
    29  H    5.972436   4.095459   4.479731   1.094663   2.815340
    30  H    5.934017   2.814862   3.050089   1.094526   4.035487
    31  H    5.948869   3.206148   4.117707   1.094720   3.749104
    32  H    5.583992   1.095384   2.154961   2.758514   5.365189
    33  H    4.747773   1.097674   2.125978   4.054418   5.915692
    34  H    4.158575   2.177207   1.094337   4.289675   5.553725
    35  H    5.788432   2.158174   1.094913   4.367079   6.499367
    36  H    5.116985   2.180742   1.093417   3.102725   4.984825
    37  C    4.854403   4.600996   5.589278   2.922212   2.362463
    38  C    5.321169   5.991416   6.980593   4.392285   2.927632
    39  C    5.837226   6.632692   7.777841   5.418016   4.213754
    40  H    4.973980   4.161249   5.373477   3.047736   3.329356
    41  H    5.763457   4.932894   5.843630   2.620470   2.543986
    42  H    5.614456   6.675289   7.501728   4.807784   2.698730
    43  H    6.467577   7.683030   8.795954   6.421887   4.888322
    44  H    5.927219   6.310305   7.588647   5.468889   4.820497
                   16         17         18         19         20
    16  Si   0.000000
    17  C    1.869229   0.000000
    18  C    1.885479   3.040998   0.000000
    19  C    1.890801   3.028736   3.037675   0.000000
    20  H    2.487599   3.995886   1.093892   3.266096   0.000000
    21  H    2.488069   3.239057   1.094003   3.193380   1.774289
    22  H    2.495320   3.252324   1.093336   4.001702   1.773961
    23  H    2.492000   3.985796   3.239336   1.093822   3.089503
    24  H    2.491272   3.251490   3.997095   1.093842   4.268950
    25  H    2.494002   3.201247   3.224664   1.093818   3.563134
    26  H    2.471872   1.094601   3.229359   3.184964   4.232990
    27  H    2.481928   1.093377   4.003757   3.259126   4.867730
    28  H    2.485890   1.093035   3.252839   3.996171   4.259619
    29  H    3.621553   4.863535   3.218991   5.070831   2.971251
    30  H    4.631218   5.338486   4.048726   6.348448   4.103324
    31  H    4.917656   5.844754   4.850533   6.452406   4.732404
    32  H    6.150373   6.319280   6.023227   7.974990   6.300352
    33  H    6.620802   6.328855   6.832075   8.448192   7.321207
    34  H    5.601609   4.886432   5.582775   7.448147   6.335081
    35  H    6.699036   6.329820   6.311895   8.584972   6.867241
    36  H    5.046214   4.880125   4.547853   6.918636   5.114376
    37  C    4.017592   5.002650   4.948718   5.101265   4.917158
    38  C    4.513514   5.519388   5.760933   5.086658   5.681147
    39  C    5.769683   6.597684   7.081786   6.266191   7.018550
    40  H    4.927314   5.701294   5.761788   6.141719   5.770536
    41  H    4.124531   5.414060   4.706620   5.136124   4.448798
    42  H    4.093724   5.262982   5.420639   4.300586   5.287525
    43  H    6.334416   7.161843   7.749520   6.540660   7.661072
    44  H    6.419703   7.118956   7.644098   7.130879   7.616658
                   21         22         23         24         25
    21  H    0.000000
    22  H    1.771969   0.000000
    23  H    3.480860   4.262794   0.000000
    24  H    4.205052   4.872309   1.775593   0.000000
    25  H    2.996623   4.219450   1.776085   1.776175   0.000000
    26  H    3.045923   3.534758   4.186404   3.503842   2.971130
    27  H    4.242745   4.266945   4.270623   3.103965   3.527070
    28  H    3.543523   3.085915   4.864368   4.274714   4.200602
    29  H    4.277067   2.842508   4.961636   5.685190   5.792936
    30  H    4.966560   3.225115   6.432013   6.957992   6.947391
    31  H    5.907420   4.326022   6.414567   6.872764   7.266505
    32  H    6.894917   5.149007   8.238425   8.363157   8.620095
    33  H    7.621967   5.995254   8.897362   8.674201   9.060613
    34  H    6.095157   4.683159   8.067508   7.803931   7.794662
    35  H    6.875410   5.278826   9.047968   9.058748   8.964067
    36  H    5.141470   3.516228   7.346701   7.474650   7.283805
    37  C    5.992542   4.928985   5.108401   5.122475   6.118387
    38  C    6.724468   5.975621   5.021760   4.838715   6.167654
    39  C    8.040101   7.257651   6.219572   5.876923   7.341778
    40  H    6.819249   5.574391   6.192449   6.143568   7.135991
    41  H    5.780194   4.711761   4.940888   5.331389   6.139651
    42  H    6.302231   5.828958   4.145280   4.001015   5.391570
    43  H    8.651425   8.038389   6.451976   6.016954   7.604340
    44  H    8.642273   7.677967   7.133131   6.786150   8.194651
                   26         27         28         29         30
    26  H    0.000000
    27  H    1.765765   0.000000
    28  H    1.764182   1.778074   0.000000
    29  H    5.618910   5.503550   4.649030   0.000000
    30  H    6.061198   6.033128   4.767348   1.756756   0.000000
    31  H    6.745881   6.298932   5.437919   1.777045   1.763672
    32  H    7.150469   6.766495   5.502275   3.828584   2.394400
    33  H    7.168298   6.575801   5.410733   5.129660   3.877466
    34  H    5.456048   5.345901   3.814410   5.112568   3.904687
    35  H    6.885176   6.903908   5.302556   5.258383   3.647519
    36  H    5.431129   5.593193   3.944467   3.811856   2.426840
    37  C    6.035983   5.031083   4.991495   3.014476   4.001817
    38  C    6.518536   5.311400   5.747059   4.312131   5.481707
    39  C    7.616944   6.246302   6.786568   5.473746   6.485186
    40  H    6.766519   5.701160   5.518685   3.453526   4.030608
    41  H    6.369325   5.614616   5.435182   2.421647   3.694439
    42  H    6.167741   5.052112   5.687230   4.505192   5.887149
    43  H    8.129569   6.710791   7.472193   6.388803   7.501775
    44  H    8.180694   6.782112   7.155227   5.711040   6.476338
                   31         32         33         34         35
    31  H    0.000000
    32  H    2.687193   0.000000
    33  H    4.065189   1.758173   0.000000
    34  H    4.889515   3.074694   2.488558   0.000000
    35  H    4.782402   2.474928   2.434690   1.767918   0.000000
    36  H    3.837711   2.523435   3.056208   1.773506   1.765952
    37  C    2.750061   4.650427   5.237722   5.911027   6.533895
    38  C    4.208698   6.108435   6.527794   7.186031   7.957340
    39  C    5.051004   6.745572   6.989004   7.960500   8.711785
    40  H    2.569849   4.140392   4.640780   5.756736   6.232573
    41  H    2.381079   4.774973   5.692969   6.312541   6.726899
    42  H    4.801671   6.825720   7.299364   7.658251   8.517385
    43  H    6.089905   7.825229   8.022118   8.925887   9.750384
    44  H    4.947368   6.380975   6.531308   7.810486   8.449935
                   36         37         38         39         40
    36  H    0.000000
    37  C    5.430793   0.000000
    38  C    6.844181   1.511569   0.000000
    39  C    7.788558   2.523612   1.339042   0.000000
    40  H    5.397150   1.096577   2.145214   2.639024   0.000000
    41  H    5.527271   1.097409   2.089279   3.147890   1.765158
    42  H    7.242442   2.221617   1.089317   2.097585   3.102266
    43  H    8.791177   3.507715   2.110047   1.086249   3.721715
    44  H    7.727388   2.789352   2.124356   1.085288   2.449885
                   41         42         43         44
    41  H    0.000000
    42  H    2.522539   0.000000
    43  H    4.048187   2.421802   0.000000
    44  H    3.464059   3.079121   1.855411   0.000000
 Stoichiometry    C14H26O3Si
 Framework group  C1[X(C14H26O3Si)]
 Deg. of freedom   126
 Full point group                 C1      NOp   1
 Largest Abelian subgroup         C1      NOp   1
 Largest concise Abelian subgroup C1      NOp   1
                         Standard orientation:                         
 ---------------------------------------------------------------------
 Center     Atomic      Atomic             Coordinates (Angstroms)
 Number     Number       Type             X           Y           Z
 ---------------------------------------------------------------------
      1          6           0       -2.308393    0.210912   -0.160035
      2          6           0       -0.973905   -0.141708   -0.834698
      3          6           0        0.144003    0.783409   -0.244355
      4          6           0       -0.100752    1.101046    1.249021
      5          6           0       -1.087662    0.202112    1.937569
      6          1           0       -2.522310    1.283189   -0.244136
      7          1           0       -0.738311   -1.172770   -0.549448
      8          1           0        0.840544    1.073805    1.809703
      9          1           0       -0.523534    2.104921    1.382788
     10          8           0       -2.207413   -0.104735    1.245264
     11          8           0       -0.938523   -0.164754    3.098139
     12          6           0       -3.540287   -0.539613   -0.693398
     13          6           0       -3.468415   -2.055569   -0.548567
     14          6           0       -1.038154   -0.131590   -2.366392
     15          8           0        1.467610    0.257897   -0.486754
     16         14           0        2.121872   -1.221428   -0.068589
     17          6           0        1.433094   -1.977462    1.496024
     18          6           0        1.887607   -2.458497   -1.472089
     19          6           0        3.984112   -1.009692    0.181122
     20          1           0        2.287363   -2.054441   -2.406719
     21          1           0        2.410958   -3.392803   -1.248440
     22          1           0        0.828667   -2.686934   -1.619891
     23          1           0        4.447878   -0.618371   -0.728952
     24          1           0        4.180163   -0.310462    0.999126
     25          1           0        4.449539   -1.969258    0.424121
     26          1           0        1.950799   -2.914494    1.724290
     27          1           0        1.569340   -1.307786    2.349513
     28          1           0        0.369210   -2.206314    1.393541
     29          1           0       -0.043381   -0.255431   -2.806138
     30          1           0       -1.652516   -0.957143   -2.739232
     31          1           0       -1.473763    0.797425   -2.747952
     32          1           0       -3.720995   -0.279036   -1.741878
     33          1           0       -4.419494   -0.200766   -0.130311
     34          1           0       -3.335419   -2.351264    0.496636
     35          1           0       -4.398747   -2.508148   -0.907021
     36          1           0       -2.647532   -2.480082   -1.132947
     37          6           0        0.171079    2.160532   -1.016112
     38          6           0        1.160211    3.169335   -0.478732
     39          6           0        0.838104    4.403621   -0.071524
     40          1           0       -0.832631    2.601807   -1.034101
     41          1           0        0.468190    1.990475   -2.058758
     42          1           0        2.202381    2.854311   -0.443342
     43          1           0        1.603256    5.081158    0.296475
     44          1           0       -0.183107    4.770138   -0.096875
 ---------------------------------------------------------------------
 Rotational constants (GHZ):      0.4003667      0.3232791      0.2655261
 Standard basis: 6-31G(d,p) (6D, 7F)
 There are   404 symmetry adapted cartesian basis functions of A   symmetry.
 There are   404 symmetry adapted basis functions of A   symmetry.
   404 basis functions,   710 primitive gaussians,   404 cartesian basis functions
    74 alpha electrons       74 beta electrons
       nuclear repulsion energy      1647.5035055551 Hartrees.
 NAtoms=   44 NActive=   44 NUniq=   44 SFac= 1.00D+00 NAtFMM=   60 NAOKFM=F Big=F
 Integral buffers will be    131072 words long.
 Raffenetti 2 integral format.
 Two-electron integral symmetry is turned on.
 ------------------------------------------------------------------------------
 Polarizable Continuum Model (PCM)
 =================================
 Model                : PCM (using non-symmetric T matrix).
 Atomic radii         : UFF (Universal Force Field).
 Polarization charges : Total charges.
 Charge compensation  : None.
 Solution method      : On-the-fly selection.
 Cavity type          : Scaled VdW (van der Waals Surface) (Alpha=1.100).
 Cavity algorithm     : GePol (No added spheres)
                        Default sphere list used, NSphG=   44.
                        Lebedev-Laikov grids with approx.  5.0 points / Ang**2.
                        Smoothing algorithm: Karplus/York (Gamma=1.0000).
                        Polarization charges: spherical gaussians, with
                                              point-specific exponents (IZeta= 3).
                        Self-potential: point-specific (ISelfS= 7).
                        Self-field    : sphere-specific E.n sum rule (ISelfD= 2).
 1st derivatives      : Analytical E(r).r(x)/FMM algorithm (CHGder, D1EAlg=3).
                        Cavity 1st derivative terms included.
 Solvent              : Chloroform, Eps=   4.711300 Eps(inf)=   2.090627
 ------------------------------------------------------------------------------
 One-electron integrals computed using PRISM.
 NBasis=   404 RedAO= T EigKep=  1.46D-03  NBF=   404
 NBsUse=   404 1.00D-06 EigRej= -1.00D+00 NBFU=   404
 ExpMin= 7.78D-02 ExpMax= 1.61D+04 ExpMxC= 2.43D+03 IAcc=2 IRadAn=         4 AccDes= 0.00D+00
 Harris functional with IExCor=  402 and IRadAn=       4 diagonalized for initial guess.
 HarFok:  IExCor=  402 AccDes= 0.00D+00 IRadAn=         4 IDoV= 1 UseB2=F ITyADJ=14
 ICtDFT=  3500011 ScaDFX=  1.000000  1.000000  1.000000  1.000000
 FoFCou: FMM=F IPFlag=           0 FMFlag=      100000 FMFlg1=           0
         NFxFlg=           0 DoJE=T BraDBF=F KetDBF=T FulRan=T
         wScrn=  0.000000 ICntrl=     500 IOpCl=  0 I1Cent=   200000004 NGrid=           0
         NMat0=    1 NMatS0=      1 NMatT0=    0 NMatD0=    1 NMtDS0=    0 NMtDT0=    0
 Petite list used in FoFCou.
 Requested convergence on RMS density matrix=1.00D-08 within 128 cycles.
 Requested convergence on MAX density matrix=1.00D-06.
 Requested convergence on             energy=1.00D-06.
 No special actions if energy rises.
 Inv3:  Mode=1 IEnd=    23992752.
 Iteration    1 A*A^-1 deviation from unit magnitude is 4.33D-15 for   2821.
 Iteration    1 A*A^-1 deviation from orthogonality  is 5.61D-15 for   2796   1664.
 Iteration    1 A^-1*A deviation from unit magnitude is 4.22D-15 for   2815.
 Iteration    1 A^-1*A deviation from orthogonality  is 1.25D-12 for   2612   2606.
 Error on total polarization charges =  0.00913
 SCF Done:  E(RB3LYP) =  -1064.41467778     A.U. after   13 cycles
            NFock= 13  Conv=0.52D-08     -V/T= 2.0081

 **********************************************************************

            Population analysis using the SCF density.

 **********************************************************************

 Orbital symmetries:
       Occupied  (A) (A) (A) (A) (A) (A) (A) (A) (A) (A) (A) (A)
                 (A) (A) (A) (A) (A) (A) (A) (A) (A) (A) (A) (A)
                 (A) (A) (A) (A) (A) (A) (A) (A) (A) (A) (A) (A)
                 (A) (A) (A) (A) (A) (A) (A) (A) (A) (A) (A) (A)
                 (A) (A) (A) (A) (A) (A) (A) (A) (A) (A) (A) (A)
                 (A) (A) (A) (A) (A) (A) (A) (A) (A) (A) (A) (A)
                 (A) (A)
       Virtual   (A) (A) (A) (A) (A) (A) (A) (A) (A) (A) (A) (A)
                 (A) (A) (A) (A) (A) (A) (A) (A) (A) (A) (A) (A)
                 (A) (A) (A) (A) (A) (A) (A) (A) (A) (A) (A) (A)
                 (A) (A) (A) (A) (A) (A) (A) (A) (A) (A) (A) (A)
                 (A) (A) (A) (A) (A) (A) (A) (A) (A) (A) (A) (A)
                 (A) (A) (A) (A) (A) (A) (A) (A) (A) (A) (A) (A)
                 (A) (A) (A) (A) (A) (A) (A) (A) (A) (A) (A) (A)
                 (A) (A) (A) (A) (A) (A) (A) (A) (A) (A) (A) (A)
                 (A) (A) (A) (A) (A) (A) (A) (A) (A) (A) (A) (A)
                 (A) (A) (A) (A) (A) (A) (A) (A) (A) (A) (A) (A)
                 (A) (A) (A) (A) (A) (A) (A) (A) (A) (A) (A) (A)
                 (A) (A) (A) (A) (A) (A) (A) (A) (A) (A) (A) (A)
                 (A) (A) (A) (A) (A) (A) (A) (A) (A) (A) (A) (A)
                 (A) (A) (A) (A) (A) (A) (A) (A) (A) (A) (A) (A)
                 (A) (A) (A) (A) (A) (A) (A) (A) (A) (A) (A) (A)
                 (A) (A) (A) (A) (A) (A) (A) (A) (A) (A) (A) (A)
                 (A) (A) (A) (A) (A) (A) (A) (A) (A) (A) (A) (A)
                 (A) (A) (A) (A) (A) (A) (A) (A) (A) (A) (A) (A)
                 (A) (A) (A) (A) (A) (A) (A) (A) (A) (A) (A) (A)
                 (A) (A) (A) (A) (A) (A) (A) (A) (A) (A) (A) (A)
                 (A) (A) (A) (A) (A) (A) (A) (A) (A) (A) (A) (A)
                 (A) (A) (A) (A) (A) (A) (A) (A) (A) (A) (A) (A)
                 (A) (A) (A) (A) (A) (A) (A) (A) (A) (A) (A) (A)
                 (A) (A) (A) (A) (A) (A) (A) (A) (A) (A) (A) (A)
                 (A) (A) (A) (A) (A) (A) (A) (A) (A) (A) (A) (A)
                 (A) (A) (A) (A) (A) (A) (A) (A) (A) (A) (A) (A)
                 (A) (A) (A) (A) (A) (A) (A) (A) (A) (A) (A) (A)
                 (A) (A) (A) (A) (A) (A)
 The electronic state is 1-A.
 Alpha  occ. eigenvalues --  -66.13718 -19.19340 -19.14414 -19.13213 -10.31885
 Alpha  occ. eigenvalues --  -10.26893 -10.25768 -10.20711 -10.20076 -10.19233
 Alpha  occ. eigenvalues --  -10.19095 -10.19068 -10.18480 -10.17971 -10.17628
 Alpha  occ. eigenvalues --  -10.15589 -10.15560 -10.15528  -5.27905  -3.63961
 Alpha  occ. eigenvalues --   -3.63724  -3.63695  -1.09961  -1.01358  -1.00709
 Alpha  occ. eigenvalues --   -0.83106  -0.80374  -0.77459  -0.75189  -0.71276
 Alpha  occ. eigenvalues --   -0.70217  -0.69480  -0.67444  -0.67229  -0.64865
 Alpha  occ. eigenvalues --   -0.60681  -0.59984  -0.56167  -0.53937  -0.51664
 Alpha  occ. eigenvalues --   -0.50654  -0.48921  -0.46750  -0.46449  -0.44746
 Alpha  occ. eigenvalues --   -0.44169  -0.43683  -0.42836  -0.42505  -0.41409
 Alpha  occ. eigenvalues --   -0.40968  -0.40604  -0.40324  -0.39947  -0.39173
 Alpha  occ. eigenvalues --   -0.38753  -0.38548  -0.38092  -0.37640  -0.37063
 Alpha  occ. eigenvalues --   -0.36748  -0.36388  -0.35746  -0.34934  -0.34452
 Alpha  occ. eigenvalues --   -0.34023  -0.33339  -0.31468  -0.30495  -0.29251
 Alpha  occ. eigenvalues --   -0.28571  -0.26754  -0.26390  -0.25365
 Alpha virt. eigenvalues --    0.00406   0.01645   0.06116   0.06759   0.08261
 Alpha virt. eigenvalues --    0.08561   0.10022   0.10527   0.10974   0.12239
 Alpha virt. eigenvalues --    0.12467   0.12693   0.13204   0.14104   0.14596
 Alpha virt. eigenvalues --    0.14961   0.15287   0.15928   0.16169   0.16660
 Alpha virt. eigenvalues --    0.17031   0.17115   0.18102   0.18393   0.18727
 Alpha virt. eigenvalues --    0.19232   0.19637   0.19936   0.20689   0.21271
 Alpha virt. eigenvalues --    0.21786   0.21823   0.22409   0.23109   0.23638
 Alpha virt. eigenvalues --    0.24173   0.25211   0.26528   0.27074   0.28852
 Alpha virt. eigenvalues --    0.30876   0.31296   0.32191   0.34909   0.37323
 Alpha virt. eigenvalues --    0.37553   0.38426   0.38989   0.41016   0.43045
 Alpha virt. eigenvalues --    0.45246   0.46919   0.48768   0.50418   0.51057
 Alpha virt. eigenvalues --    0.52436   0.53839   0.54337   0.55454   0.56149
 Alpha virt. eigenvalues --    0.57331   0.57861   0.58057   0.59273   0.60622
 Alpha virt. eigenvalues --    0.60732   0.62257   0.63041   0.64413   0.65024
 Alpha virt. eigenvalues --    0.65872   0.66192   0.66789   0.67648   0.69112
 Alpha virt. eigenvalues --    0.69345   0.70504   0.71522   0.72263   0.73432
 Alpha virt. eigenvalues --    0.74162   0.75756   0.75837   0.76558   0.77512
 Alpha virt. eigenvalues --    0.79311   0.80812   0.81792   0.82900   0.83186
 Alpha virt. eigenvalues --    0.83567   0.84164   0.84671   0.84927   0.85826
 Alpha virt. eigenvalues --    0.86481   0.87184   0.87520   0.88292   0.88354
 Alpha virt. eigenvalues --    0.89079   0.89428   0.89985   0.90948   0.91166
 Alpha virt. eigenvalues --    0.91557   0.92062   0.92640   0.93225   0.93711
 Alpha virt. eigenvalues --    0.94416   0.94861   0.96010   0.97064   0.97580
 Alpha virt. eigenvalues --    0.98195   0.99440   1.00290   1.01502   1.02252
 Alpha virt. eigenvalues --    1.03543   1.04316   1.05554   1.06544   1.07961
 Alpha virt. eigenvalues --    1.09791   1.11075   1.12220   1.13283   1.16528
 Alpha virt. eigenvalues --    1.19294   1.20475   1.21997   1.23411   1.24350
 Alpha virt. eigenvalues --    1.29060   1.30147   1.31073   1.31603   1.33734
 Alpha virt. eigenvalues --    1.35375   1.38192   1.39379   1.42610   1.42811
 Alpha virt. eigenvalues --    1.44041   1.44683   1.46220   1.47157   1.47463
 Alpha virt. eigenvalues --    1.48636   1.49951   1.51855   1.54289   1.55236
 Alpha virt. eigenvalues --    1.57673   1.58234   1.61386   1.62861   1.64017
 Alpha virt. eigenvalues --    1.65552   1.67080   1.68243   1.72159   1.72858
 Alpha virt. eigenvalues --    1.74239   1.75168   1.77468   1.79075   1.81036
 Alpha virt. eigenvalues --    1.81968   1.82429   1.83748   1.84764   1.84895
 Alpha virt. eigenvalues --    1.85357   1.86504   1.88372   1.89142   1.90590
 Alpha virt. eigenvalues --    1.92543   1.93498   1.94217   1.95906   1.97859
 Alpha virt. eigenvalues --    1.98719   1.99008   2.00543   2.02025   2.03293
 Alpha virt. eigenvalues --    2.04440   2.04940   2.05018   2.05207   2.05630
 Alpha virt. eigenvalues --    2.06398   2.07238   2.07927   2.08771   2.09037
 Alpha virt. eigenvalues --    2.09308   2.10224   2.11294   2.11369   2.12196
 Alpha virt. eigenvalues --    2.12683   2.13544   2.13894   2.14403   2.15035
 Alpha virt. eigenvalues --    2.16663   2.16873   2.17847   2.18537   2.20022
 Alpha virt. eigenvalues --    2.21453   2.21663   2.23458   2.25122   2.25340
 Alpha virt. eigenvalues --    2.28152   2.29533   2.31567   2.32423   2.33897
 Alpha virt. eigenvalues --    2.34709   2.35305   2.36535   2.37212   2.37997
 Alpha virt. eigenvalues --    2.38457   2.38944   2.39785   2.40483   2.42349
 Alpha virt. eigenvalues --    2.43001   2.44880   2.47292   2.48171   2.49400
 Alpha virt. eigenvalues --    2.52877   2.54552   2.55860   2.56906   2.57843
 Alpha virt. eigenvalues --    2.59736   2.60765   2.62002   2.63930   2.64318
 Alpha virt. eigenvalues --    2.64749   2.66776   2.67095   2.68520   2.68941
 Alpha virt. eigenvalues --    2.69698   2.71612   2.72667   2.74089   2.75276
 Alpha virt. eigenvalues --    2.76779   2.78900   2.79093   2.81986   2.82053
 Alpha virt. eigenvalues --    2.82621   2.83842   2.84045   2.85232   2.85288
 Alpha virt. eigenvalues --    2.85547   2.85815   2.86904   2.87556   2.88552
 Alpha virt. eigenvalues --    2.90304   2.91526   2.92574   2.94116   2.95656
 Alpha virt. eigenvalues --    2.97642   3.01276   3.02889   3.09190   3.09862
 Alpha virt. eigenvalues --    3.16077   3.16802   3.20072   3.21075   3.21558
 Alpha virt. eigenvalues --    3.21996   3.23183   3.25739   3.30892   3.31343
 Alpha virt. eigenvalues --    3.34973   3.35755   3.40190   3.43188   3.43487
 Alpha virt. eigenvalues --    3.44197   3.44733   3.44784   3.45045   3.46031
 Alpha virt. eigenvalues --    3.46789   3.47653   3.48809   3.48894   3.50518
 Alpha virt. eigenvalues --    3.54365   3.55518   3.66620   4.04438   4.13162
 Alpha virt. eigenvalues --    4.22977   4.25877   4.37331   4.39519   4.44346
 Alpha virt. eigenvalues --    4.45843   4.46835   4.48429   4.53980   4.60662
 Alpha virt. eigenvalues --    4.61460   4.64190   4.72152   4.77725   4.89712
          Condensed to atoms (all electrons):
               1          2          3          4          5          6
     1  C    4.837345   0.320221  -0.028724  -0.006593  -0.013980   0.381278
     2  C    0.320221   5.080440   0.364833  -0.068621  -0.005574  -0.053779
     3  C   -0.028724   0.364833   4.794369   0.282782  -0.016607  -0.007750
     4  C   -0.006593  -0.068621   0.282782   5.338880   0.304413   0.001271
     5  C   -0.013980  -0.005574  -0.016607   0.304413   4.364155  -0.005020
     6  H    0.381278  -0.053779  -0.007750   0.001271  -0.005020   0.637996
     7  H   -0.039627   0.373296  -0.041420  -0.003097   0.001550   0.006578
     8  H    0.000187   0.003388  -0.022830   0.360619  -0.022667  -0.000072
     9  H    0.000724   0.001788  -0.027240   0.358045  -0.027532   0.000385
    10  O    0.157929  -0.035696  -0.000228  -0.094111   0.251053  -0.034985
    11  O    0.002939  -0.000460   0.002963  -0.086324   0.561905  -0.000138
    12  C    0.375457  -0.033652   0.003847  -0.000320   0.002176  -0.046420
    13  C   -0.040477  -0.008824   0.000072  -0.000043   0.000060   0.005440
    14  C   -0.038223   0.344497  -0.033809   0.005147   0.000193  -0.000784
    15  O    0.002449  -0.033103   0.203927  -0.041537   0.000183   0.000030
    16  Si  -0.000334   0.000454  -0.011019  -0.003644  -0.000587   0.000062
    17  C   -0.000045  -0.001795  -0.001574   0.000844  -0.000111  -0.000006
    18  C    0.000035  -0.000727  -0.000801  -0.000141  -0.000008  -0.000001
    19  C    0.000000  -0.000046   0.000923  -0.000082   0.000002   0.000000
    20  H   -0.000002   0.000001  -0.000023  -0.000001   0.000000   0.000000
    21  H    0.000000   0.000025   0.000011   0.000002   0.000000   0.000000
    22  H    0.000004  -0.000875  -0.000099  -0.000016  -0.000004   0.000000
    23  H    0.000000  -0.000003  -0.000020   0.000003   0.000000   0.000000
    24  H    0.000000   0.000001  -0.000040  -0.000023   0.000000   0.000000
    25  H    0.000000   0.000001  -0.000009   0.000000   0.000000   0.000000
    26  H    0.000000   0.000036  -0.000004   0.000030   0.000044   0.000000
    27  H    0.000002   0.000132  -0.000157  -0.001614   0.000690   0.000000
    28  H   -0.000079  -0.000769   0.000071  -0.000190   0.003293   0.000004
    29  H    0.004393  -0.027020  -0.005933   0.000185  -0.000023  -0.000141
    30  H   -0.004885  -0.026692   0.004409  -0.000152   0.000009  -0.000104
    31  H   -0.005304  -0.033265  -0.007154  -0.000037   0.000012   0.003139
    32  H   -0.027735  -0.006419  -0.000050   0.000035  -0.000051   0.000156
    33  H   -0.029215   0.005345  -0.000090   0.000028  -0.000069  -0.005844
    34  H   -0.007511  -0.000805  -0.000045   0.000084   0.000316   0.000237
    35  H    0.004600   0.000108  -0.000002   0.000000   0.000000  -0.000130
    36  H   -0.006283   0.004076   0.000031   0.000008  -0.000035  -0.000064
    37  C   -0.004570  -0.048490   0.344153  -0.049234   0.001667   0.002654
    38  C    0.000033   0.004507  -0.035907  -0.009419   0.000649  -0.000112
    39  C    0.000000  -0.000097  -0.001479   0.000351   0.000113  -0.000034
    40  H   -0.000357  -0.000618  -0.031733  -0.002499  -0.000144   0.004654
    41  H    0.000342  -0.010916  -0.025806   0.005006  -0.000010  -0.000081
    42  H   -0.000008   0.000136  -0.003976  -0.000602  -0.000004   0.000003
    43  H    0.000000   0.000003  -0.000067  -0.000005   0.000000   0.000000
    44  H   -0.000006  -0.000008   0.000137  -0.000124  -0.000002   0.000014
               7          8          9         10         11         12
     1  C   -0.039627   0.000187   0.000724   0.157929   0.002939   0.375457
     2  C    0.373296   0.003388   0.001788  -0.035696  -0.000460  -0.033652
     3  C   -0.041420  -0.022830  -0.027240  -0.000228   0.002963   0.003847
     4  C   -0.003097   0.360619   0.358045  -0.094111  -0.086324  -0.000320
     5  C    0.001550  -0.022667  -0.027532   0.251053   0.561905   0.002176
     6  H    0.006578  -0.000072   0.000385  -0.034985  -0.000138  -0.046420
     7  H    0.623518  -0.000063  -0.000098  -0.000751  -0.000370  -0.008747
     8  H   -0.000063   0.538371  -0.018902   0.003202   0.001902   0.000006
     9  H   -0.000098  -0.018902   0.550185  -0.000164   0.000468   0.000033
    10  O   -0.000751   0.003202  -0.000164   8.339736  -0.073555  -0.045749
    11  O   -0.000370   0.001902   0.000468  -0.073555   8.104039  -0.000067
    12  C   -0.008747   0.000006   0.000033  -0.045749  -0.000067   4.938080
    13  C    0.004786   0.000000   0.000000  -0.003662  -0.000017   0.363402
    14  C   -0.042393  -0.000091  -0.000129   0.003040  -0.000002  -0.003189
    15  O   -0.005380  -0.003338   0.002504  -0.000007   0.000003  -0.000040
    16  Si   0.008975   0.003164   0.000042  -0.000587  -0.000966  -0.000032
    17  C   -0.000723  -0.000482   0.000055  -0.000315  -0.001764   0.000007
    18  C   -0.000683   0.000009   0.000001   0.000002   0.000000   0.000002
    19  C   -0.000008  -0.000232   0.000000   0.000000   0.000000   0.000000
    20  H    0.000070   0.000000   0.000000   0.000000   0.000000   0.000000
    21  H   -0.000002   0.000000   0.000000   0.000000   0.000000   0.000000
    22  H    0.001199  -0.000001   0.000000   0.000000   0.000000  -0.000003
    23  H    0.000001   0.000000   0.000000   0.000000   0.000000   0.000000
    24  H    0.000000   0.000017   0.000000   0.000000   0.000000   0.000000
    25  H    0.000002   0.000005   0.000000   0.000000   0.000000   0.000000
    26  H    0.000001   0.000004  -0.000001   0.000001   0.000101   0.000000
    27  H   -0.000050   0.001774   0.000033   0.000054   0.004117   0.000000
    28  H    0.002073  -0.000178   0.000009   0.000423   0.000058  -0.000024
    29  H   -0.002863  -0.000002  -0.000006  -0.000056   0.000000   0.000110
    30  H   -0.006892   0.000002   0.000003   0.000009   0.000000   0.001826
    31  H    0.005587  -0.000001  -0.000009   0.000005   0.000000  -0.001723
    32  H    0.000373   0.000000  -0.000001   0.002873   0.000001   0.377126
    33  H   -0.000067   0.000000  -0.000004   0.000542  -0.000004   0.379169
    34  H    0.000760  -0.000001   0.000000   0.008406   0.000011  -0.035186
    35  H   -0.000116   0.000000   0.000000   0.000140   0.000000  -0.028577
    36  H    0.000305   0.000000   0.000000  -0.000190   0.000000  -0.037027
    37  C    0.005043  -0.000413  -0.011529  -0.000093  -0.000068  -0.000076
    38  C   -0.000097   0.001346   0.004534  -0.000008  -0.000002   0.000001
    39  C    0.000000  -0.000149   0.004474   0.000000   0.000000   0.000000
    40  H    0.000009   0.000095   0.000788  -0.000037   0.000002  -0.000088
    41  H   -0.000052  -0.000211   0.000678  -0.000007   0.000001  -0.000006
    42  H    0.000002   0.000407   0.000203   0.000000   0.000000   0.000000
    43  H    0.000000   0.000003  -0.000021   0.000000   0.000000   0.000000
    44  H    0.000000   0.000007   0.000489   0.000000   0.000000   0.000000
              13         14         15         16         17         18
     1  C   -0.040477  -0.038223   0.002449  -0.000334  -0.000045   0.000035
     2  C   -0.008824   0.344497  -0.033103   0.000454  -0.001795  -0.000727
     3  C    0.000072  -0.033809   0.203927  -0.011019  -0.001574  -0.000801
     4  C   -0.000043   0.005147  -0.041537  -0.003644   0.000844  -0.000141
     5  C    0.000060   0.000193   0.000183  -0.000587  -0.000111  -0.000008
     6  H    0.005440  -0.000784   0.000030   0.000062  -0.000006  -0.000001
     7  H    0.004786  -0.042393  -0.005380   0.008975  -0.000723  -0.000683
     8  H    0.000000  -0.000091  -0.003338   0.003164  -0.000482   0.000009
     9  H    0.000000  -0.000129   0.002504   0.000042   0.000055   0.000001
    10  O   -0.003662   0.003040  -0.000007  -0.000587  -0.000315   0.000002
    11  O   -0.000017  -0.000002   0.000003  -0.000966  -0.001764   0.000000
    12  C    0.363402  -0.003189  -0.000040  -0.000032   0.000007   0.000002
    13  C    4.932871  -0.002654   0.000000  -0.000097  -0.000010  -0.000010
    14  C   -0.002654   4.971748  -0.002110  -0.000644   0.000059  -0.000332
    15  O    0.000000  -0.002110   8.274371   0.335346  -0.013340  -0.018915
    16  Si  -0.000097  -0.000644   0.335346  11.861354   0.370369   0.367574
    17  C   -0.000010   0.000059  -0.013340   0.370369   5.156107  -0.034795
    18  C   -0.000010  -0.000332  -0.018915   0.367574  -0.034795   5.144012
    19  C    0.000000   0.000000  -0.020238   0.375782  -0.031456  -0.034697
    20  H    0.000000  -0.000103  -0.000702  -0.026575   0.001345   0.378996
    21  H    0.000000   0.000017   0.000600  -0.013714  -0.000436   0.369695
    22  H   -0.000011   0.000515  -0.000581  -0.028461  -0.001526   0.375398
    23  H    0.000000   0.000000  -0.000535  -0.024601   0.001394  -0.001475
    24  H    0.000000   0.000000  -0.000463  -0.024794  -0.001270   0.001376
    25  H    0.000000   0.000000   0.000502  -0.014507  -0.000856  -0.000269
    26  H    0.000000  -0.000001   0.000480  -0.013324   0.370664  -0.000740
    27  H    0.000000  -0.000002  -0.000495  -0.027447   0.376887   0.001325
    28  H    0.000054   0.000021  -0.000343  -0.028249   0.374850  -0.001486
    29  H   -0.000006   0.379398   0.005159   0.000816   0.000007   0.000564
    30  H    0.000263   0.378663  -0.000008  -0.000320   0.000002  -0.000033
    31  H    0.000214   0.385582   0.000016   0.000080  -0.000001   0.000010
    32  H   -0.036317   0.003449   0.000000  -0.000006   0.000000   0.000000
    33  H   -0.041956  -0.000034   0.000000   0.000001   0.000000   0.000000
    34  H    0.389720   0.000163   0.000000  -0.000039  -0.000007   0.000001
    35  H    0.382366   0.000042   0.000000   0.000004   0.000000   0.000000
    36  H    0.385761  -0.000706   0.000002   0.000001  -0.000008  -0.000010
    37  C    0.000000  -0.010882  -0.064249  -0.001024  -0.000018  -0.000044
    38  C    0.000000   0.000279   0.000299   0.000296  -0.000005   0.000004
    39  C    0.000000   0.000004   0.000411   0.000032   0.000000   0.000000
    40  H    0.000002  -0.001395   0.003673   0.000121   0.000002   0.000000
    41  H    0.000000   0.004292  -0.000263   0.000762   0.000004  -0.000036
    42  H    0.000000  -0.000016   0.006279   0.001130   0.000002   0.000000
    43  H    0.000000   0.000000   0.000002  -0.000002   0.000000   0.000000
    44  H    0.000000  -0.000001  -0.000002   0.000005   0.000000   0.000000
              19         20         21         22         23         24
     1  C    0.000000  -0.000002   0.000000   0.000004   0.000000   0.000000
     2  C   -0.000046   0.000001   0.000025  -0.000875  -0.000003   0.000001
     3  C    0.000923  -0.000023   0.000011  -0.000099  -0.000020  -0.000040
     4  C   -0.000082  -0.000001   0.000002  -0.000016   0.000003  -0.000023
     5  C    0.000002   0.000000   0.000000  -0.000004   0.000000   0.000000
     6  H    0.000000   0.000000   0.000000   0.000000   0.000000   0.000000
     7  H   -0.000008   0.000070  -0.000002   0.001199   0.000001   0.000000
     8  H   -0.000232   0.000000   0.000000  -0.000001   0.000000   0.000017
     9  H    0.000000   0.000000   0.000000   0.000000   0.000000   0.000000
    10  O    0.000000   0.000000   0.000000   0.000000   0.000000   0.000000
    11  O    0.000000   0.000000   0.000000   0.000000   0.000000   0.000000
    12  C    0.000000   0.000000   0.000000  -0.000003   0.000000   0.000000
    13  C    0.000000   0.000000   0.000000  -0.000011   0.000000   0.000000
    14  C    0.000000  -0.000103   0.000017   0.000515   0.000000   0.000000
    15  O   -0.020238  -0.000702   0.000600  -0.000581  -0.000535  -0.000463
    16  Si   0.375782  -0.026575  -0.013714  -0.028461  -0.024601  -0.024794
    17  C   -0.031456   0.001345  -0.000436  -0.001526   0.001394  -0.001270
    18  C   -0.034697   0.378996   0.369695   0.375398  -0.001475   0.001376
    19  C    5.121038  -0.001239  -0.000438   0.001407   0.376219   0.375486
    20  H   -0.001239   0.576937  -0.023957  -0.023008   0.000624   0.000004
    21  H   -0.000438  -0.023957   0.572871  -0.023583  -0.000037   0.000015
    22  H    0.001407  -0.023008  -0.023583   0.587372   0.000004  -0.000027
    23  H    0.376219   0.000624  -0.000037   0.000004   0.576807  -0.022197
    24  H    0.375486   0.000004   0.000015  -0.000027  -0.022197   0.577949
    25  H    0.372753  -0.000033  -0.000041   0.000004  -0.023931  -0.023512
    26  H   -0.001098   0.000019   0.000121  -0.000016   0.000016  -0.000055
    27  H   -0.001035  -0.000025   0.000006   0.000005   0.000007   0.000637
    28  H    0.001467   0.000010  -0.000008   0.000572  -0.000027   0.000001
    29  H   -0.000005   0.000707   0.000015   0.000036  -0.000002   0.000000
    30  H    0.000000   0.000006  -0.000001   0.000347   0.000000   0.000000
    31  H    0.000000   0.000002   0.000000  -0.000001   0.000000   0.000000
    32  H    0.000000   0.000000   0.000000  -0.000001   0.000000   0.000000
    33  H    0.000000   0.000000   0.000000   0.000000   0.000000   0.000000
    34  H    0.000000   0.000000   0.000000  -0.000003   0.000000   0.000000
    35  H    0.000000   0.000000   0.000000   0.000000   0.000000   0.000000
    36  H    0.000000  -0.000001   0.000000   0.000365   0.000000   0.000000
    37  C    0.000003   0.000012   0.000001   0.000000   0.000005  -0.000002
    38  C   -0.000035   0.000000   0.000000   0.000000  -0.000005  -0.000005
    39  C    0.000000   0.000000   0.000000   0.000000   0.000000   0.000000
    40  H    0.000000   0.000000   0.000000   0.000000   0.000000   0.000000
    41  H   -0.000007  -0.000004   0.000000  -0.000004   0.000000   0.000000
    42  H    0.000007   0.000000   0.000000   0.000000   0.000010   0.000030
    43  H    0.000000   0.000000   0.000000   0.000000   0.000000   0.000000
    44  H    0.000000   0.000000   0.000000   0.000000   0.000000   0.000000
              25         26         27         28         29         30
     1  C    0.000000   0.000000   0.000002  -0.000079   0.004393  -0.004885
     2  C    0.000001   0.000036   0.000132  -0.000769  -0.027020  -0.026692
     3  C   -0.000009  -0.000004  -0.000157   0.000071  -0.005933   0.004409
     4  C    0.000000   0.000030  -0.001614  -0.000190   0.000185  -0.000152
     5  C    0.000000   0.000044   0.000690   0.003293  -0.000023   0.000009
     6  H    0.000000   0.000000   0.000000   0.000004  -0.000141  -0.000104
     7  H    0.000002   0.000001  -0.000050   0.002073  -0.002863  -0.006892
     8  H    0.000005   0.000004   0.001774  -0.000178  -0.000002   0.000002
     9  H    0.000000  -0.000001   0.000033   0.000009  -0.000006   0.000003
    10  O    0.000000   0.000001   0.000054   0.000423  -0.000056   0.000009
    11  O    0.000000   0.000101   0.004117   0.000058   0.000000   0.000000
    12  C    0.000000   0.000000   0.000000  -0.000024   0.000110   0.001826
    13  C    0.000000   0.000000   0.000000   0.000054  -0.000006   0.000263
    14  C    0.000000  -0.000001  -0.000002   0.000021   0.379398   0.378663
    15  O    0.000502   0.000480  -0.000495  -0.000343   0.005159  -0.000008
    16  Si  -0.014507  -0.013324  -0.027447  -0.028249   0.000816  -0.000320
    17  C   -0.000856   0.370664   0.376887   0.374850   0.000007   0.000002
    18  C   -0.000269  -0.000740   0.001325  -0.001486   0.000564  -0.000033
    19  C    0.372753  -0.001098  -0.001035   0.001467  -0.000005   0.000000
    20  H   -0.000033   0.000019  -0.000025   0.000010   0.000707   0.000006
    21  H   -0.000041   0.000121   0.000006  -0.000008   0.000015  -0.000001
    22  H    0.000004  -0.000016   0.000005   0.000572   0.000036   0.000347
    23  H   -0.023931   0.000016   0.000007  -0.000027  -0.000002   0.000000
    24  H   -0.023512  -0.000055   0.000637   0.000001   0.000000   0.000000
    25  H    0.568828   0.000083  -0.000058   0.000002   0.000000   0.000000
    26  H    0.000083   0.562465  -0.021789  -0.021807   0.000000   0.000000
    27  H   -0.000058  -0.021789   0.560827  -0.022894   0.000000   0.000000
    28  H    0.000002  -0.021807  -0.022894   0.573077  -0.000003  -0.000001
    29  H    0.000000   0.000000   0.000000  -0.000003   0.573981  -0.029385
    30  H    0.000000   0.000000   0.000000  -0.000001  -0.029385   0.596518
    31  H    0.000000   0.000000   0.000000   0.000000  -0.028523  -0.031992
    32  H    0.000000   0.000000   0.000000   0.000000   0.000028  -0.000353
    33  H    0.000000   0.000000   0.000000   0.000000  -0.000001   0.000029
    34  H    0.000000   0.000000   0.000000   0.000125   0.000002  -0.000068
    35  H    0.000000   0.000000   0.000000  -0.000001   0.000000  -0.000046
    36  H    0.000000   0.000000   0.000000   0.000028  -0.000038   0.002938
    37  C    0.000000   0.000001  -0.000007   0.000001  -0.002405   0.000320
    38  C    0.000000   0.000000  -0.000002   0.000000  -0.000096  -0.000006
    39  C    0.000000   0.000000   0.000000   0.000000  -0.000001   0.000000
    40  H    0.000000   0.000000   0.000000   0.000000   0.000188  -0.000021
    41  H    0.000000   0.000000   0.000000   0.000000   0.001707   0.000052
    42  H    0.000000   0.000000  -0.000001   0.000000   0.000001   0.000000
    43  H    0.000000   0.000000   0.000000   0.000000   0.000000   0.000000
    44  H    0.000000   0.000000   0.000000   0.000000   0.000000   0.000000
              31         32         33         34         35         36
     1  C   -0.005304  -0.027735  -0.029215  -0.007511   0.004600  -0.006283
     2  C   -0.033265  -0.006419   0.005345  -0.000805   0.000108   0.004076
     3  C   -0.007154  -0.000050  -0.000090  -0.000045  -0.000002   0.000031
     4  C   -0.000037   0.000035   0.000028   0.000084   0.000000   0.000008
     5  C    0.000012  -0.000051  -0.000069   0.000316   0.000000  -0.000035
     6  H    0.003139   0.000156  -0.005844   0.000237  -0.000130  -0.000064
     7  H    0.005587   0.000373  -0.000067   0.000760  -0.000116   0.000305
     8  H   -0.000001   0.000000   0.000000  -0.000001   0.000000   0.000000
     9  H   -0.000009  -0.000001  -0.000004   0.000000   0.000000   0.000000
    10  O    0.000005   0.002873   0.000542   0.008406   0.000140  -0.000190
    11  O    0.000000   0.000001  -0.000004   0.000011   0.000000   0.000000
    12  C   -0.001723   0.377126   0.379169  -0.035186  -0.028577  -0.037027
    13  C    0.000214  -0.036317  -0.041956   0.389720   0.382366   0.385761
    14  C    0.385582   0.003449  -0.000034   0.000163   0.000042  -0.000706
[...]
    13  C    0.000000   0.000000   0.000000  -0.000005   0.000000   0.000000
    14  C    0.000000  -0.000121   0.000017   0.000409   0.000000   0.000000
    15  O   -0.025926  -0.000825   0.000568  -0.000624  -0.000778  -0.000562
    16  Si   0.378085  -0.025668  -0.013474  -0.025907  -0.023155  -0.023390
    17  C   -0.027465   0.001200  -0.000329  -0.001362   0.001170  -0.001277
    18  C   -0.030756   0.379216   0.367811   0.377029  -0.001340   0.001204
    19  C    5.116125  -0.001128  -0.000348   0.001206   0.377157   0.377231
    20  H   -0.001128   0.574172  -0.024404  -0.023543   0.000459   0.000000
    21  H   -0.000348  -0.024404   0.574631  -0.024209  -0.000016   0.000010
    22  H    0.001206  -0.023543  -0.024209   0.579509   0.000002  -0.000022
    23  H    0.377157   0.000459  -0.000016   0.000002   0.572295  -0.022591
    24  H    0.377231   0.000000   0.000010  -0.000022  -0.022591   0.572377
    25  H    0.367790  -0.000043  -0.000016   0.000004  -0.024389  -0.024083
    26  H   -0.000848   0.000005   0.000078  -0.000023   0.000014  -0.000053
    27  H   -0.000883  -0.000020   0.000003   0.000004  -0.000001   0.000407
    28  H    0.001178   0.000009  -0.000041   0.000500  -0.000020   0.000005
    29  H   -0.000007   0.000788   0.000012   0.000066  -0.000003   0.000000
    30  H    0.000000   0.000007  -0.000002   0.000300   0.000000   0.000000
    31  H    0.000000   0.000002   0.000000   0.000000   0.000000   0.000000
    32  H    0.000000   0.000000   0.000000  -0.000001   0.000000   0.000000
    33  H    0.000000   0.000000   0.000000   0.000000   0.000000   0.000000
    34  H    0.000000   0.000000   0.000000  -0.000003   0.000000   0.000000
    35  H    0.000000   0.000000   0.000000   0.000000   0.000000   0.000000
    36  H    0.000000  -0.000001   0.000000   0.000325   0.000000   0.000000
    37  C   -0.000006   0.000014   0.000001   0.000004   0.000009  -0.000003
    38  C   -0.000059   0.000000   0.000000   0.000000  -0.000015  -0.000010
    39  C    0.000000   0.000000   0.000000   0.000000   0.000000   0.000000
    40  H    0.000001   0.000000   0.000000   0.000000   0.000000   0.000000
    41  H   -0.000016  -0.000006   0.000000  -0.000006   0.000002   0.000000
    42  H    0.000089  -0.000001   0.000000   0.000000   0.000075   0.000072
    43  H    0.000000   0.000000   0.000000   0.000000   0.000000   0.000000
    44  H    0.000000   0.000000   0.000000   0.000000   0.000000   0.000000
              25         26         27         28         29         30
     1  C    0.000000   0.000000  -0.000001  -0.000069   0.004598  -0.005268
     2  C    0.000001   0.000032   0.000118  -0.000556  -0.028703  -0.026898
     3  C   -0.000012  -0.000013  -0.000209   0.000055  -0.005185   0.004441
     4  C    0.000000   0.000009  -0.000954   0.000080   0.000171  -0.000159
     5  C    0.000000   0.000032   0.000854   0.001593  -0.000025   0.000007
     6  H    0.000000   0.000000  -0.000001   0.000003  -0.000169  -0.000108
     7  H    0.000002   0.000002  -0.000083   0.001704  -0.003269  -0.006291
     8  H    0.000004  -0.000002   0.001110  -0.000048  -0.000002   0.000002
     9  H    0.000000   0.000000   0.000028  -0.000002  -0.000008   0.000004
    10  O    0.000000   0.000001   0.000018   0.000391  -0.000054   0.000013
    11  O    0.000000   0.000066   0.005084  -0.000057   0.000000   0.000000
    12  C    0.000000   0.000000   0.000001  -0.000019   0.000119   0.002157
    13  C    0.000000   0.000000   0.000000   0.000052  -0.000006   0.000180
    14  C    0.000000  -0.000001  -0.000002   0.000019   0.379579   0.379065
    15  O    0.000674   0.000519  -0.000592  -0.000408   0.004483  -0.000041
    16  Si  -0.014741  -0.014169  -0.024299  -0.025619   0.000818  -0.000345
    17  C   -0.000537   0.366538   0.375934   0.376734   0.000005   0.000002
    18  C   -0.000034  -0.000369   0.001144  -0.001304   0.000650  -0.000033
    19  C    0.367790  -0.000848  -0.000883   0.001178  -0.000007   0.000000
    20  H   -0.000043   0.000005  -0.000020   0.000009   0.000788   0.000007
    21  H   -0.000016   0.000078   0.000003  -0.000041   0.000012  -0.000002
    22  H    0.000004  -0.000023   0.000004   0.000500   0.000066   0.000300
    23  H   -0.024389   0.000014  -0.000001  -0.000020  -0.000003   0.000000
    24  H   -0.024083  -0.000053   0.000407   0.000005   0.000000   0.000000
    25  H    0.577485   0.000098  -0.000032  -0.000005   0.000000   0.000000
    26  H    0.000098   0.571149  -0.021482  -0.023017   0.000000   0.000000
    27  H   -0.000032  -0.021482   0.556547  -0.024227   0.000000   0.000000
    28  H   -0.000005  -0.023017  -0.024227   0.570537  -0.000002  -0.000001
    29  H    0.000000   0.000000   0.000000  -0.000002   0.577600  -0.028381
    30  H    0.000000   0.000000   0.000000  -0.000001  -0.028381   0.594374
    31  H    0.000000   0.000000   0.000000   0.000000  -0.029883  -0.031851
    32  H    0.000000   0.000000   0.000000   0.000000   0.000027  -0.000491
    33  H    0.000000   0.000000   0.000000   0.000000  -0.000001   0.000022
    34  H    0.000000   0.000000  -0.000001   0.000153   0.000002  -0.000083
    35  H    0.000000   0.000000   0.000000  -0.000001   0.000000  -0.000049
    36  H    0.000000   0.000000   0.000000   0.000029  -0.000036   0.003232
    37  C    0.000000   0.000001  -0.000007  -0.000002  -0.002884   0.000322
    38  C    0.000001   0.000000  -0.000001   0.000000  -0.000105  -0.000006
    39  C    0.000000   0.000000   0.000000   0.000000  -0.000001   0.000000
    40  H    0.000000   0.000000   0.000000   0.000000   0.000200  -0.000019
    41  H    0.000000   0.000000   0.000000   0.000000   0.001982   0.000015
    42  H    0.000000   0.000000  -0.000001   0.000000   0.000000   0.000000
    43  H    0.000000   0.000000   0.000000   0.000000   0.000000   0.000000
    44  H    0.000000   0.000000   0.000000   0.000000   0.000000   0.000000
              31         32         33         34         35         36
     1  C   -0.005239  -0.030149  -0.030466  -0.007417   0.004404  -0.005840
     2  C   -0.032054  -0.006384   0.005459  -0.000849   0.000089   0.003928
     3  C   -0.007429  -0.000074  -0.000098  -0.000042  -0.000002   0.000022
     4  C   -0.000027   0.000045   0.000034   0.000082   0.000000   0.000007
     5  C    0.000010  -0.000062  -0.000076   0.000256   0.000000  -0.000029
     6  H    0.003073  -0.000139  -0.006082   0.000223  -0.000122  -0.000059
     7  H    0.005365   0.000363  -0.000085   0.000825  -0.000103   0.000178
     8  H   -0.000001   0.000000   0.000000  -0.000001   0.000000   0.000000
     9  H   -0.000013  -0.000001  -0.000005   0.000000   0.000000   0.000000
    10  O    0.000000   0.003163   0.000624   0.008732   0.000131  -0.000157
    11  O    0.000000   0.000001  -0.000007   0.000009   0.000000   0.000000
    12  C   -0.001668   0.374721   0.379083  -0.035690  -0.027983  -0.035209
    13  C    0.000228  -0.035190  -0.039115   0.389009   0.382547   0.385608
    14  C    0.384994   0.003489  -0.000027   0.000184   0.000052  -0.000864
    15  O    0.000027   0.000000   0.000000   0.000000   0.000000   0.000002
    16  Si   0.000063  -0.000006   0.000002  -0.000047   0.000003   0.000027
    17  C   -0.000001   0.000000   0.000000  -0.000007   0.000000  -0.000008
    18  C    0.000011   0.000000   0.000000   0.000001   0.000000  -0.000008
    19  C    0.000000   0.000000   0.000000   0.000000   0.000000   0.000000
    20  H    0.000002   0.000000   0.000000   0.000000   0.000000  -0.000001
    21  H    0.000000   0.000000   0.000000   0.000000   0.000000   0.000000
    22  H    0.000000  -0.000001   0.000000  -0.000003   0.000000   0.000325
    23  H    0.000000   0.000000   0.000000   0.000000   0.000000   0.000000
    24  H    0.000000   0.000000   0.000000   0.000000   0.000000   0.000000
    25  H    0.000000   0.000000   0.000000   0.000000   0.000000   0.000000
    26  H    0.000000   0.000000   0.000000   0.000000   0.000000   0.000000
    27  H    0.000000   0.000000   0.000000  -0.000001   0.000000   0.000000
    28  H    0.000000   0.000000   0.000000   0.000153  -0.000001   0.000029
    29  H   -0.029883   0.000027  -0.000001   0.000002   0.000000  -0.000036
    30  H   -0.031851  -0.000491   0.000022  -0.000083  -0.000049   0.003232
    31  H    0.591814   0.001063  -0.000026  -0.000003  -0.000001  -0.000042
    32  H    0.001063   0.612301  -0.032364   0.005106  -0.002765  -0.004927
    33  H   -0.000026  -0.032364   0.609945  -0.003582  -0.003935   0.005148
    34  H   -0.000003   0.005106  -0.003582   0.577472  -0.029502  -0.031116
    35  H   -0.000001  -0.002765  -0.003935  -0.029502   0.597017  -0.030554
    36  H   -0.000042  -0.004927   0.005148  -0.031116  -0.030554   0.601092
    37  C    0.002643  -0.000004   0.000001   0.000000   0.000000  -0.000002
    38  C    0.000047   0.000000   0.000000   0.000000   0.000000   0.000000
    39  C   -0.000001   0.000000   0.000000   0.000000   0.000000   0.000000
    40  H    0.001378   0.000005   0.000001   0.000000   0.000000   0.000000
    41  H   -0.000124  -0.000003   0.000000   0.000000   0.000000   0.000000
    42  H    0.000004   0.000000   0.000000   0.000000   0.000000   0.000000
    43  H    0.000000   0.000000   0.000000   0.000000   0.000000   0.000000
    44  H    0.000000   0.000000   0.000000   0.000000   0.000000   0.000000
              37         38         39         40         41         42
     1  C   -0.003290  -0.000003   0.000002  -0.000134   0.000305  -0.000008
     2  C   -0.048948   0.004922  -0.000112  -0.000522  -0.012481   0.000170
     3  C    0.348486  -0.037163  -0.001660  -0.031181  -0.028575  -0.004240
     4  C   -0.051525  -0.009517   0.000726  -0.002521   0.005606  -0.000942
     5  C    0.002038   0.000616   0.000101  -0.000158  -0.000014  -0.000008
     6  H    0.002474  -0.000139  -0.000031   0.003944  -0.000106   0.000003
     7  H    0.005100  -0.000112   0.000000   0.000037  -0.000076   0.000003
     8  H   -0.001850   0.002167  -0.000053   0.000146  -0.000208   0.000670
     9  H   -0.009336   0.003776   0.003511   0.000684   0.000565   0.000203
    10  O   -0.000071  -0.000005   0.000000  -0.000027  -0.000006   0.000000
    11  O   -0.000059  -0.000003   0.000000   0.000001   0.000001   0.000000
    12  C   -0.000098   0.000002   0.000000  -0.000087   0.000000   0.000000
    13  C    0.000000   0.000000   0.000000   0.000002   0.000000   0.000000
    14  C   -0.010304   0.000283   0.000004  -0.001555   0.005248  -0.000017
    15  O   -0.067064   0.000187   0.000453   0.003727  -0.000101   0.006931
    16  Si  -0.001069   0.000136   0.000032   0.000076   0.001085   0.001046
    17  C   -0.000036  -0.000003   0.000000   0.000002   0.000004   0.000002
    18  C   -0.000038   0.000005   0.000000   0.000000  -0.000054  -0.000001
    19  C   -0.000006  -0.000059   0.000000   0.000001  -0.000016   0.000089
    20  H    0.000014   0.000000   0.000000   0.000000  -0.000006  -0.000001
    21  H    0.000001   0.000000   0.000000   0.000000   0.000000   0.000000
    22  H    0.000004   0.000000   0.000000   0.000000  -0.000006   0.000000
    23  H    0.000009  -0.000015   0.000000   0.000000   0.000002   0.000075
    24  H   -0.000003  -0.000010   0.000000   0.000000   0.000000   0.000072
    25  H    0.000000   0.000001   0.000000   0.000000   0.000000   0.000000
    26  H    0.000001   0.000000   0.000000   0.000000   0.000000   0.000000
    27  H   -0.000007  -0.000001   0.000000   0.000000   0.000000  -0.000001
    28  H   -0.000002   0.000000   0.000000   0.000000   0.000000   0.000000
    29  H   -0.002884  -0.000105  -0.000001   0.000200   0.001982   0.000000
    30  H    0.000322  -0.000006   0.000000  -0.000019   0.000015   0.000000
    31  H    0.002643   0.000047  -0.000001   0.001378  -0.000124   0.000004
    32  H   -0.000004   0.000000   0.000000   0.000005  -0.000003   0.000000
    33  H    0.000001   0.000000   0.000000   0.000001   0.000000   0.000000
    34  H    0.000000   0.000000   0.000000   0.000000   0.000000   0.000000
    35  H    0.000000   0.000000   0.000000   0.000000   0.000000   0.000000
    36  H   -0.000002   0.000000   0.000000   0.000000   0.000000   0.000000
    37  C    5.051272   0.384342  -0.040997   0.360016   0.366567  -0.052640
    38  C    0.384342   4.779342   0.654163  -0.039207  -0.033863   0.384514
    39  C   -0.040997   0.654163   4.936959  -0.006561   0.000729  -0.045291
    40  H    0.360016  -0.039207  -0.006561   0.630270  -0.030113   0.005402
    41  H    0.366567  -0.033863   0.000729  -0.030113   0.602605  -0.001741
    42  H   -0.052640   0.384514  -0.045291   0.005402  -0.001741   0.602428
    43  H    0.004594  -0.024851   0.376494   0.000100  -0.000206  -0.007817
    44  H   -0.012437  -0.034804   0.380755   0.006402   0.000201   0.005701
              43         44
     1  C    0.000000  -0.000005
     2  C    0.000003  -0.000008
     3  C   -0.000065   0.000173
     4  C   -0.000012  -0.000138
     5  C    0.000000  -0.000002
     6  H    0.000000   0.000010
     7  H    0.000000   0.000000
     8  H    0.000006   0.000010
     9  H   -0.000016   0.000433
    10  O    0.000000   0.000000
    11  O    0.000000   0.000000
    12  C    0.000000   0.000000
    13  C    0.000000   0.000000
    14  C    0.000000  -0.000001
    15  O    0.000002  -0.000002
    16  Si  -0.000001   0.000004
    17  C    0.000000   0.000000
    18  C    0.000000   0.000000
    19  C    0.000000   0.000000
    20  H    0.000000   0.000000
    21  H    0.000000   0.000000
    22  H    0.000000   0.000000
    23  H    0.000000   0.000000
    24  H    0.000000   0.000000
    25  H    0.000000   0.000000
    26  H    0.000000   0.000000
    27  H    0.000000   0.000000
    28  H    0.000000   0.000000
    29  H    0.000000   0.000000
    30  H    0.000000   0.000000
    31  H    0.000000   0.000000
    32  H    0.000000   0.000000
    33  H    0.000000   0.000000
    34  H    0.000000   0.000000
    35  H    0.000000   0.000000
    36  H    0.000000   0.000000
    37  C    0.004594  -0.012437
    38  C   -0.024851  -0.034804
    39  C    0.376494   0.380755
    40  H    0.000100   0.006402
    41  H   -0.000206   0.000201
    42  H   -0.007817   0.005701
    43  H    0.590217  -0.043979
    44  H   -0.043979   0.599474
 Mulliken charges:
               1
     1  C    0.160291
     2  C   -0.104387
     3  C    0.310854
     4  C   -0.295674
     5  C    0.595733
     6  H    0.108648
     7  H    0.116826
     8  H    0.149776
     9  H    0.152846
    10  O   -0.476903
    11  O   -0.506441
    12  C   -0.197705
    13  C   -0.331700
    14  C   -0.342567
    15  O   -0.635594
    16  Si   0.904238
    17  C   -0.567121
    18  C   -0.547432
    19  C   -0.532133
    20  H    0.119847
    21  H    0.119679
    22  H    0.116056
    23  H    0.121165
    24  H    0.120698
    25  H    0.117836
    26  H    0.121434
    27  H    0.131545
    28  H    0.122357
    29  H    0.127622
    30  H    0.115883
    31  H    0.117640
    32  H    0.112277
    33  H    0.115550
    34  H    0.126288
    35  H    0.110775
    36  H    0.109254
    37  C   -0.225213
    38  C   -0.034635
    39  C   -0.259222
    40  H    0.099692
    41  H    0.122784
    42  H    0.105391
    43  H    0.105531
    44  H    0.098213
 Sum of Mulliken charges =   0.00000
 Mulliken charges with hydrogens summed into heavy atoms:
               1
     1  C    0.268939
     2  C    0.012439
     3  C    0.310854
     4  C    0.006947
     5  C    0.595733
    10  O   -0.476903
    11  O   -0.506441
    12  C    0.030122
    13  C    0.014617
    14  C    0.018578
    15  O   -0.635594
    16  Si   0.904238
    17  C   -0.191785
    18  C   -0.191849
    19  C   -0.172435
    37  C   -0.002737
    38  C    0.070756
    39  C   -0.055478
 Electronic spatial extent (au):  <R**2>=           5163.7232
 Charge=              0.0000 electrons
 Dipole moment (field-independent basis, Debye):
    X=             -0.2128    Y=              0.6601    Z=             -4.8165  Tot=              4.8661
 Quadrupole moment (field-independent basis, Debye-Ang):
   XX=           -114.1056   YY=           -112.7293   ZZ=           -132.3243
   XY=             -4.6418   XZ=              9.7412   YZ=              3.2190
 Traceless Quadrupole moment (field-independent basis, Debye-Ang):
   XX=              5.6141   YY=              6.9905   ZZ=            -12.6046
   XY=             -4.6418   XZ=              9.7412   YZ=              3.2190
 Octapole moment (field-independent basis, Debye-Ang**2):
  XXX=            -16.8670  YYY=              2.4047  ZZZ=            -43.8107  XYY=             -2.4134
  XXY=             -2.7675  XXZ=             -9.1294  XZZ=             15.0569  YZZ=              3.9917
  YYZ=             12.3974  XYZ=             -1.2788
 Hexadecapole moment (field-independent basis, Debye-Ang**3):
 XXXX=          -3103.8955 YYYY=          -2383.4261 ZZZZ=          -1513.2087 XXXY=              0.6837
 XXXZ=             17.1520 YYYX=            -26.6513 YYYZ=             25.3461 ZZZX=             41.4777
 ZZZY=             14.3494 XXYY=           -891.7414 XXZZ=           -764.8173 YYZZ=           -650.0931
 XXYZ=             13.3228 YYXZ=             14.6663 ZZXY=             -9.7358
 N-N= 1.643324703643D+03 E-N=-5.777128637129D+03  KE= 1.055911832951D+03
 1\1\GINC-CPU-E-611\FOpt\RB3LYP\6-31G(d,p)\C14H26O3Si1\KE291\06-Feb-201
 9\0\\# b3lyp/6-31g(d,p) Opt=(maxcycles=25) scrf=(solvent=chloroform)\\
 P_ng_2ginp014\\0,1\C,-0.1658657779,0.0788905348,1.1532834725\C,-1.1599
 137224,1.0627415583,0.5114800643\C,-2.4149355952,1.2259211999,1.428355
 5031\C,-1.9988262989,1.0635956155,2.9235545137\C,-0.534285559,1.244797
 6432,3.2461334263\H,-0.6798524133,-0.8574610647,1.4112440182\H,-0.6505
 988951,2.0342063973,0.5223218709\H,-2.5785379866,1.7403986118,3.550292
 4839\H,-2.2483789582,0.0465698008,3.2522029627\O,0.3390170907,0.666934
 3382,2.3901833972\O,-0.1120531562,1.80996938,4.2332176259\C,1.07902722
 51,-0.271747099,0.3341091596\C,1.9636961677,0.9183100579,-0.0521719984
 \C,-1.4958990632,0.7256933163,-0.94704658\O,-3.0330315024,2.4932237359
 ,1.2223502908\Si,-2.557785119,4.1049575777,1.1170454043\C,-1.132975554
 4,4.5335552095,2.2766602025\C,-2.0807901649,4.5324908299,-0.6584415501
 \C,-4.1042206031,5.0619532059,1.5985608031\H,-2.882561087,4.2682137706
 ,-1.3562685505\H,-1.9025195257,5.6102974916,-0.7513500088\H,-1.1694674
 035,4.0204530079,-0.9844703033\H,-4.9494613435,4.7917103205,0.95691258
 1\H,-4.391303419,4.8571667467,2.6352197382\H,-3.9424334794,6.141316655
 3,1.5017480603\H,-0.9875677448,5.6205225571,2.2753281618\H,-1.32625019
 51,4.2245381783,3.3081758175\H,-0.1849742399,4.0806083348,1.9690789356
 \H,-2.2750023558,1.3943077166,-1.3222175598\H,-0.6194230704,0.85051426
 42,-1.5872443181\H,-1.8479087668,-0.3036644807,-1.0643862744\H,0.75609
 38307,-0.8170288851,-0.5592382977\H,1.6651614912,-0.9805859693,0.92990
 66107\H,2.2902287506,1.465371492,0.8361500906\H,2.855811194,0.56955203
 98,-0.5806764248\H,1.4465781187,1.62269482,-0.7115141727\C,-3.51537104
 36,0.1805050653,1.0998127055\C,-4.6994551398,0.228075931,2.0258108831\
 C,-5.1603867623,-0.8105509391,2.7247308431\H,-3.0800753868,-0.82592345
 22,1.1099410125\H,-3.8570991708,0.3802149224,0.0783964584\H,-5.2002726
 387,1.1915949676,2.1009152455\H,-6.0311928305,-0.7240599234,3.36809876
 94\H,-4.6885638957,-1.7895344815,2.6731769265\\Version=ES64L-G09RevD.0
 1\State=1-A\HF=-1064.4217371\RMSD=4.955e-09\RMSF=5.477e-06\Dipole=-0.5
 549508,-0.6062928,-1.7290758\Quadrupole=-2.9055835,8.557883,-5.6522995
 ,-1.6507705,-8.7513818,-0.2979544\PG=C01 [X(C14H26O3Si1)]\\@


 A MAN IS EXACTLY AS GREAT AS THE TIDE SURGING
 BENEATH HIM.      - BISMARCK
 Job cpu time:       0 days  2 hours 36 minutes 47.1 seconds.
 File lengths (MBytes):  RWF=    361 Int=      0 D2E=      0 Chk=     17 Scr=      1
 Normal termination of Gaussian 09 at Wed Feb  6 11:29:20 2019.
