 Entering Gaussian System, Link 0=/usr/local/Cluster-Apps/gaussian/g09/g09
 Initial command:
 /usr/local/Cluster-Apps/gaussian/g09/l1.exe "/home/ke291/rds/hpc-work/06Feb0927IP1/Gau-371543.inp" -scrdir="/home/ke291/rds/hpc-work/06Feb0927IP1/"
 Entering Link 1 = /usr/local/Cluster-Apps/gaussian/g09/l1.exe PID=    371549.
  
 Copyright (c) 1988,1990,1992,1993,1995,1998,2003,2009,2013,
            Gaussian, Inc.  All Rights Reserved.
  
 This is part of the Gaussian(R) 09 program.  It is based on
 the Gaussian(R) 03 system (copyright 2003, Gaussian, Inc.),
 the Gaussian(R) 98 system (copyright 1998, Gaussian, Inc.),
 the Gaussian(R) 94 system (copyright 1995, Gaussian, Inc.),
 the Gaussian 92(TM) system (copyright 1992, Gaussian, Inc.),
 the Gaussian 90(TM) system (copyright 1990, Gaussian, Inc.),
 the Gaussian 88(TM) system (copyright 1988, Gaussian, Inc.),
 the Gaussian 86(TM) system (copyright 1986, Carnegie Mellon
 University), and the Gaussian 82(TM) system (copyright 1983,
 Carnegie Mellon University). Gaussian is a federally registered
 trademark of Gaussian, Inc.
  
 This software contains proprietary and confidential information,
 including trade secrets, belonging to Gaussian, Inc.
  
 This software is provided under written license and may be
 used, copied, transmitted, or stored only in accord with that
 written license.
  
 The following legend is applicable only to US Government
 contracts under FAR:
  
                    RESTRICTED RIGHTS LEGEND
  
 Use, reproduction and disclosure by the US Government is
 subject to restrictions as set forth in subparagraphs (a)
 and (c) of the Commercial Computer Software - Restricted
 Rights clause in FAR 52.227-19.
  
 Gaussian, Inc.
 340 Quinnipiac St., Bldg. 40, Wallingford CT 06492
  
  
 ---------------------------------------------------------------
 Warning -- This program may not be used in any manner that
 competes with the business of Gaussian, Inc. or will provide
 assistance to any competitor of Gaussian, Inc.  The licensee
 of this program is prohibited from giving any competitor of
 Gaussian, Inc. access to this program.  By using this program,
 the user acknowledges that Gaussian, Inc. is engaged in the
 business of creating and licensing software in the field of
 computational chemistry and represents and warrants to the
 licensee that it is not a competitor of Gaussian, Inc. and that
 it will not use this program in any manner prohibited above.
 ---------------------------------------------------------------
  

 Cite this work as:
 Gaussian 09, Revision D.01,
 M. J. Frisch, G. W. Trucks, H. B. Schlegel, G. E. Scuseria, 
 M. A. Robb, J. R. Cheeseman, G. Scalmani, V. Barone, B. Mennucci, 
 G. A. Petersson, H. Nakatsuji, M. Caricato, X. Li, H. P. Hratchian, 
 A. F. Izmaylov, J. Bloino, G. Zheng, J. L. Sonnenberg, M. Hada, 
 M. Ehara, K. Toyota, R. Fukuda, J. Hasegawa, M. Ishida, T. Nakajima, 
 Y. Honda, O. Kitao, H. Nakai, T. Vreven, J. A. Montgomery, Jr., 
 J. E. Peralta, F. Ogliaro, M. Bearpark, J. J. Heyd, E. Brothers, 
 K. N. Kudin, V. N. Staroverov, T. Keith, R. Kobayashi, J. Normand, 
 K. Raghavachari, A. Rendell, J. C. Burant, S. S. Iyengar, J. Tomasi, 
 M. Cossi, N. Rega, J. M. Millam, M. Klene, J. E. Knox, J. B. Cross, 
 V. Bakken, C. Adamo, J. Jaramillo, R. Gomperts, R. E. Stratmann, 
 O. Yazyev, A. J. Austin, R. Cammi, C. Pomelli, J. W. Ochterski, 
 R. L. Martin, K. Morokuma, V. G. Zakrzewski, G. A. Voth, 
 P. Salvador, J. J. Dannenberg, S. Dapprich, A. D. Daniels, 
 O. Farkas, J. B. Foresman, J. V. Ortiz, J. Cioslowski, 
 and D. J. Fox, Gaussian, Inc., Wallingford CT, 2013.
 
 ******************************************
 Gaussian 09:  ES64L-G09RevD.01 24-Apr-2013
                 6-Feb-2019 
 ******************************************
 %nprocshared=2
 Will use up to    2 processors via shared memory.
 %mem=6000MB
 %chk=/home/ke291/rds/hpc-work/06Feb0927IP1/P_ng_correct1ginp009.chk
 ---------------------------------------------------------------
 # b3lyp/6-31g(d,p) Opt=(maxcycles=25) scrf=(solvent=chloroform)
 ---------------------------------------------------------------
 1/6=25,14=-1,18=20,19=15,26=3,38=1/1,3;
 2/9=110,12=2,17=6,18=5,40=1/2;
 3/5=1,6=6,7=101,11=2,16=1,25=1,30=1,70=2201,71=1,72=7,74=-5/1,2,3;
 4//1;
 5/5=2,38=5,53=7/2;
 6/7=2,8=2,9=2,10=2,28=1/1;
 7//1,2,3,16;
 1/6=25,14=-1,18=20,19=15,26=3/3(2);
 2/9=110/2;
 99//99;
 2/9=110/2;
 3/5=1,6=6,7=101,11=2,16=1,25=1,30=1,70=2205,71=1,72=7,74=-5/1,2,3;
 4/5=5,16=3,69=1/1;
 5/5=2,38=5,53=7/2;
 7//1,2,3,16;
 1/6=25,14=-1,18=20,19=15,26=3/3(-5);
 2/9=110/2;
 6/7=2,8=2,9=2,10=2,19=2,28=1/1;
 99/9=1/99;
 --------------------
 P_ng_correct1ginp009
 --------------------
 Symbolic Z-matrix:
 Charge =  0 Multiplicity = 1
 C                     0.87943  -0.40435   0.31923 
 C                    -0.64475  -0.44798   0.54262 
 C                    -1.0933    0.66945   1.52833 
 C                    -0.62084   1.99912   0.93729 
 C                     0.8599    2.03572   0.73121 
 H                     1.39194  -0.86406   1.17314 
 H                    -1.12692  -0.2418   -0.42154 
 H                    -1.06943   2.1944   -0.04286 
 H                    -0.91012   2.84063   1.57612 
 O                     1.42311   0.93201   0.20076 
 O                     1.5149    3.05409   0.9259 
 C                     1.30254  -1.17166  -0.94771 
 C                     2.81513  -1.2024   -1.13751 
 C                    -1.11242  -1.85151   0.95954 
 O                    -2.51913   0.57406   1.73784 
 Si                   -3.7729    1.22664   0.84916 
 C                    -5.4004    0.49448   1.47879 
 C                    -3.88818   3.08967   1.0598 
 C                    -3.65916   0.82234  -0.97972 
 H                    -3.87564   3.35704   2.12054 
 H                    -3.05644   3.59893   0.56613 
 H                    -4.81829   3.46609   0.62333 
 H                    -2.78389   1.29081  -1.43751 
 H                    -3.5914   -0.2589   -1.13196 
 H                    -4.54759   1.18399  -1.50631 
 H                    -5.39856  -0.59276   1.35887 
 H                    -5.53627   0.72731   2.53886 
 H                    -6.24623   0.90553   0.92021 
 H                    -0.9518   -2.57511   0.15462 
 H                    -0.571    -2.21207   1.83978 
 H                    -2.18239  -1.87066   1.18731 
 H                     0.85881  -0.69527  -1.83044 
 H                     0.94202  -2.20424  -0.91329 
 H                     3.07036  -1.79171  -2.02408 
 H                     3.2232   -0.19666  -1.27713 
 H                     3.30828  -1.6589   -0.27349 
 C                    -0.48465   0.44137   2.9578 
 C                    -0.74533   1.55184   3.94808 
 C                    -1.60768   1.45902   4.96838 
 H                     0.60164   0.30924   2.91193 
 H                    -0.88986  -0.49033   3.37398 
 H                    -0.17245   2.47026   3.83168 
 H                    -1.74559   2.28653   5.65747 
 H                    -2.20127   0.56482   5.13271 
 

 GradGradGradGradGradGradGradGradGradGradGradGradGradGradGradGradGradGrad
 Berny optimization.
 Initialization pass.
                           ----------------------------
                           !    Initial Parameters    !
                           ! (Angstroms and Degrees)  !
 --------------------------                            --------------------------
 ! Name  Definition              Value          Derivative Info.                !
 --------------------------------------------------------------------------------
 ! R1    R(1,2)                  1.5411         estimate D2E/DX2                !
 ! R2    R(1,6)                  1.0969         estimate D2E/DX2                !
 ! R3    R(1,10)                 1.4476         estimate D2E/DX2                !
 ! R4    R(1,12)                 1.5404         estimate D2E/DX2                !
 ! R5    R(2,3)                  1.5561         estimate D2E/DX2                !
 ! R6    R(2,7)                  1.0975         estimate D2E/DX2                !
 ! R7    R(2,14)                 1.537          estimate D2E/DX2                !
 ! R8    R(3,4)                  1.5299         estimate D2E/DX2                !
 ! R9    R(3,15)                 1.4443         estimate D2E/DX2                !
 ! R10   R(3,37)                 1.5703         estimate D2E/DX2                !
 ! R11   R(4,5)                  1.4955         estimate D2E/DX2                !
 ! R12   R(4,8)                  1.0955         estimate D2E/DX2                !
 ! R13   R(4,9)                  1.0954         estimate D2E/DX2                !
 ! R14   R(5,10)                 1.3479         estimate D2E/DX2                !
 ! R15   R(5,11)                 1.2264         estimate D2E/DX2                !
 ! R16   R(12,13)                1.5248         estimate D2E/DX2                !
 ! R17   R(12,32)                1.0968         estimate D2E/DX2                !
 ! R18   R(12,33)                1.0942         estimate D2E/DX2                !
 ! R19   R(13,34)                1.0947         estimate D2E/DX2                !
 ! R20   R(13,35)                1.0943         estimate D2E/DX2                !
 ! R21   R(13,36)                1.0946         estimate D2E/DX2                !
 ! R22   R(14,29)                1.0942         estimate D2E/DX2                !
 ! R23   R(14,30)                1.0945         estimate D2E/DX2                !
 ! R24   R(14,31)                1.0941         estimate D2E/DX2                !
 ! R25   R(15,16)                1.6696         estimate D2E/DX2                !
 ! R26   R(16,17)                1.8924         estimate D2E/DX2                !
 ! R27   R(16,18)                1.8784         estimate D2E/DX2                !
 ! R28   R(16,19)                1.8765         estimate D2E/DX2                !
 ! R29   R(17,26)                1.0938         estimate D2E/DX2                !
 ! R30   R(17,27)                1.0938         estimate D2E/DX2                !
 ! R31   R(17,28)                1.0938         estimate D2E/DX2                !
 ! R32   R(18,20)                1.094          estimate D2E/DX2                !
 ! R33   R(18,21)                1.0931         estimate D2E/DX2                !
 ! R34   R(18,22)                1.0942         estimate D2E/DX2                !
 ! R35   R(19,23)                1.0932         estimate D2E/DX2                !
 ! R36   R(19,24)                1.094          estimate D2E/DX2                !
 ! R37   R(19,25)                1.0943         estimate D2E/DX2                !
 ! R38   R(37,38)                1.5106         estimate D2E/DX2                !
 ! R39   R(37,40)                1.0953         estimate D2E/DX2                !
 ! R40   R(37,41)                1.0979         estimate D2E/DX2                !
 ! R41   R(38,39)                1.3391         estimate D2E/DX2                !
 ! R42   R(38,42)                1.0887         estimate D2E/DX2                !
 ! R43   R(39,43)                1.0856         estimate D2E/DX2                !
 ! R44   R(39,44)                1.0858         estimate D2E/DX2                !
 ! A1    A(2,1,6)              109.7188         estimate D2E/DX2                !
 ! A2    A(2,1,10)             114.1709         estimate D2E/DX2                !
 ! A3    A(2,1,12)             112.1348         estimate D2E/DX2                !
 ! A4    A(6,1,10)             105.969          estimate D2E/DX2                !
 ! A5    A(6,1,12)             107.6484         estimate D2E/DX2                !
 ! A6    A(10,1,12)            106.8203         estimate D2E/DX2                !
 ! A7    A(1,2,3)              110.891          estimate D2E/DX2                !
 ! A8    A(1,2,7)              107.5676         estimate D2E/DX2                !
 ! A9    A(1,2,14)             111.4756         estimate D2E/DX2                !
 ! A10   A(3,2,7)              107.154          estimate D2E/DX2                !
 ! A11   A(3,2,14)             113.3406         estimate D2E/DX2                !
 ! A12   A(7,2,14)             106.0304         estimate D2E/DX2                !
 ! A13   A(2,3,4)              106.8804         estimate D2E/DX2                !
 ! A14   A(2,3,15)             109.2098         estimate D2E/DX2                !
 ! A15   A(2,3,37)             111.1375         estimate D2E/DX2                !
 ! A16   A(4,3,15)             114.7284         estimate D2E/DX2                !
 ! A17   A(4,3,37)             110.9904         estimate D2E/DX2                !
 ! A18   A(15,3,37)            103.9459         estimate D2E/DX2                !
 ! A19   A(3,4,5)              112.3515         estimate D2E/DX2                !
 ! A20   A(3,4,8)              111.9701         estimate D2E/DX2                !
 ! A21   A(3,4,9)              111.1506         estimate D2E/DX2                !
 ! A22   A(5,4,8)              106.1295         estimate D2E/DX2                !
 ! A23   A(5,4,9)              108.8477         estimate D2E/DX2                !
 ! A24   A(8,4,9)              106.0638         estimate D2E/DX2                !
 ! A25   A(4,5,10)             116.6113         estimate D2E/DX2                !
 ! A26   A(4,5,11)             121.8215         estimate D2E/DX2                !
 ! A27   A(10,5,11)            121.2835         estimate D2E/DX2                !
 ! A28   A(1,10,5)             124.527          estimate D2E/DX2                !
 ! A29   A(1,12,13)            112.6376         estimate D2E/DX2                !
 ! A30   A(1,12,32)            109.5386         estimate D2E/DX2                !
 ! A31   A(1,12,33)            110.7117         estimate D2E/DX2                !
 ! A32   A(13,12,32)           108.0536         estimate D2E/DX2                !
 ! A33   A(13,12,33)           108.1638         estimate D2E/DX2                !
 ! A34   A(32,12,33)           107.5706         estimate D2E/DX2                !
 ! A35   A(12,13,34)           110.0565         estimate D2E/DX2                !
 ! A36   A(12,13,35)           111.5477         estimate D2E/DX2                !
 ! A37   A(12,13,36)           110.9214         estimate D2E/DX2                !
 ! A38   A(34,13,35)           107.7268         estimate D2E/DX2                !
 ! A39   A(34,13,36)           108.042          estimate D2E/DX2                !
 ! A40   A(35,13,36)           108.4216         estimate D2E/DX2                !
 ! A41   A(2,14,29)            111.0798         estimate D2E/DX2                !
 ! A42   A(2,14,30)            111.6198         estimate D2E/DX2                !
 ! A43   A(2,14,31)            111.7163         estimate D2E/DX2                !
 ! A44   A(29,14,30)           107.526          estimate D2E/DX2                !
 ! A45   A(29,14,31)           106.5659         estimate D2E/DX2                !
 ! A46   A(30,14,31)           108.0932         estimate D2E/DX2                !
 ! A47   A(3,15,16)            129.6665         estimate D2E/DX2                !
 ! A48   A(15,16,17)           108.5123         estimate D2E/DX2                !
 ! A49   A(15,16,18)           111.966          estimate D2E/DX2                !
 ! A50   A(15,16,19)           112.8945         estimate D2E/DX2                !
 ! A51   A(17,16,18)           107.0756         estimate D2E/DX2                !
 ! A52   A(17,16,19)           107.0398         estimate D2E/DX2                !
 ! A53   A(18,16,19)           109.0685         estimate D2E/DX2                !
 ! A54   A(16,17,26)           110.2817         estimate D2E/DX2                !
 ! A55   A(16,17,27)           110.299          estimate D2E/DX2                !
 ! A56   A(16,17,28)           110.4713         estimate D2E/DX2                !
 ! A57   A(26,17,27)           108.544          estimate D2E/DX2                !
 ! A58   A(26,17,28)           108.594          estimate D2E/DX2                !
 ! A59   A(27,17,28)           108.5947         estimate D2E/DX2                !
 ! A60   A(16,18,20)           110.5129         estimate D2E/DX2                !
 ! A61   A(16,18,21)           111.3909         estimate D2E/DX2                !
 ! A62   A(16,18,22)           110.4033         estimate D2E/DX2                !
 ! A63   A(20,18,21)           108.3801         estimate D2E/DX2                !
 ! A64   A(20,18,22)           108.2057         estimate D2E/DX2                !
 ! A65   A(21,18,22)           107.8404         estimate D2E/DX2                !
 ! A66   A(16,19,23)           111.3667         estimate D2E/DX2                !
 ! A67   A(16,19,24)           110.6293         estimate D2E/DX2                !
 ! A68   A(16,19,25)           110.402          estimate D2E/DX2                !
 ! A69   A(23,19,24)           108.4008         estimate D2E/DX2                !
 ! A70   A(23,19,25)           107.8718         estimate D2E/DX2                !
 ! A71   A(24,19,25)           108.0569         estimate D2E/DX2                !
 ! A72   A(3,37,38)            115.0314         estimate D2E/DX2                !
 ! A73   A(3,37,40)            111.3354         estimate D2E/DX2                !
 ! A74   A(3,37,41)            108.9813         estimate D2E/DX2                !
 ! A75   A(38,37,40)           106.6964         estimate D2E/DX2                !
 ! A76   A(38,37,41)           108.1586         estimate D2E/DX2                !
 ! A77   A(40,37,41)           106.2332         estimate D2E/DX2                !
 ! A78   A(37,38,39)           124.0326         estimate D2E/DX2                !
 ! A79   A(37,38,42)           117.3395         estimate D2E/DX2                !
 ! A80   A(39,38,42)           118.6074         estimate D2E/DX2                !
 ! A81   A(38,39,43)           120.8354         estimate D2E/DX2                !
 ! A82   A(38,39,44)           121.6308         estimate D2E/DX2                !
 ! A83   A(43,39,44)           117.5302         estimate D2E/DX2                !
 ! D1    D(6,1,2,3)             78.3358         estimate D2E/DX2                !
 ! D2    D(6,1,2,7)           -164.7935         estimate D2E/DX2                !
 ! D3    D(6,1,2,14)           -48.956          estimate D2E/DX2                !
 ! D4    D(10,1,2,3)           -40.4282         estimate D2E/DX2                !
 ! D5    D(10,1,2,7)            76.4425         estimate D2E/DX2                !
 ! D6    D(10,1,2,14)         -167.7199         estimate D2E/DX2                !
 ! D7    D(12,1,2,3)          -162.0948         estimate D2E/DX2                !
 ! D8    D(12,1,2,7)           -45.2241         estimate D2E/DX2                !
 ! D9    D(12,1,2,14)           70.6135         estimate D2E/DX2                !
 ! D10   D(2,1,10,5)            25.3563         estimate D2E/DX2                !
 ! D11   D(6,1,10,5)           -95.5144         estimate D2E/DX2                !
 ! D12   D(12,1,10,5)          149.9067         estimate D2E/DX2                !
 ! D13   D(2,1,12,13)         -176.7793         estimate D2E/DX2                !
 ! D14   D(2,1,12,32)           62.9367         estimate D2E/DX2                !
 ! D15   D(2,1,12,33)          -55.5294         estimate D2E/DX2                !
 ! D16   D(6,1,12,13)          -56.0055         estimate D2E/DX2                !
 ! D17   D(6,1,12,32)         -176.2895         estimate D2E/DX2                !
 ! D18   D(6,1,12,33)           65.2445         estimate D2E/DX2                !
 ! D19   D(10,1,12,13)          57.4344         estimate D2E/DX2                !
 ! D20   D(10,1,12,32)         -62.8496         estimate D2E/DX2                !
 ! D21   D(10,1,12,33)         178.6844         estimate D2E/DX2                !
 ! D22   D(1,2,3,4)             56.7953         estimate D2E/DX2                !
 ! D23   D(1,2,3,15)          -178.5479         estimate D2E/DX2                !
 ! D24   D(1,2,3,37)           -64.4475         estimate D2E/DX2                !
 ! D25   D(7,2,3,4)            -60.3292         estimate D2E/DX2                !
 ! D26   D(7,2,3,15)            64.3276         estimate D2E/DX2                !
 ! D27   D(7,2,3,37)           178.428          estimate D2E/DX2                !
 ! D28   D(14,2,3,4)          -176.9418         estimate D2E/DX2                !
 ! D29   D(14,2,3,15)          -52.285          estimate D2E/DX2                !
 ! D30   D(14,2,3,37)           61.8155         estimate D2E/DX2                !
 ! D31   D(1,2,14,29)          -65.1587         estimate D2E/DX2                !
 ! D32   D(1,2,14,30)           54.8366         estimate D2E/DX2                !
 ! D33   D(1,2,14,31)          175.9969         estimate D2E/DX2                !
 ! D34   D(3,2,14,29)          168.8889         estimate D2E/DX2                !
 ! D35   D(3,2,14,30)          -71.1158         estimate D2E/DX2                !
 ! D36   D(3,2,14,31)           50.0446         estimate D2E/DX2                !
 ! D37   D(7,2,14,29)           51.6176         estimate D2E/DX2                !
 ! D38   D(7,2,14,30)          171.6129         estimate D2E/DX2                !
 ! D39   D(7,2,14,31)          -67.2268         estimate D2E/DX2                !
 ! D40   D(2,3,4,5)            -58.261          estimate D2E/DX2                !
 ! D41   D(2,3,4,8)             61.0649         estimate D2E/DX2                !
 ! D42   D(2,3,4,9)            179.4896         estimate D2E/DX2                !
 ! D43   D(15,3,4,5)          -179.4801         estimate D2E/DX2                !
 ! D44   D(15,3,4,8)           -60.1542         estimate D2E/DX2                !
 ! D45   D(15,3,4,9)            58.2705         estimate D2E/DX2                !
 ! D46   D(37,3,4,5)            63.0749         estimate D2E/DX2                !
 ! D47   D(37,3,4,8)          -177.5992         estimate D2E/DX2                !
 ! D48   D(37,3,4,9)           -59.1745         estimate D2E/DX2                !
 ! D49   D(2,3,15,16)          -86.0518         estimate D2E/DX2                !
 ! D50   D(4,3,15,16)           33.8827         estimate D2E/DX2                !
 ! D51   D(37,3,15,16)         155.2632         estimate D2E/DX2                !
 ! D52   D(2,3,37,38)          173.9078         estimate D2E/DX2                !
 ! D53   D(2,3,37,40)           52.3868         estimate D2E/DX2                !
 ! D54   D(2,3,37,41)          -64.4674         estimate D2E/DX2                !
 ! D55   D(4,3,37,38)           55.1057         estimate D2E/DX2                !
 ! D56   D(4,3,37,40)          -66.4153         estimate D2E/DX2                !
 ! D57   D(4,3,37,41)          176.7305         estimate D2E/DX2                !
 ! D58   D(15,3,37,38)         -68.7383         estimate D2E/DX2                !
 ! D59   D(15,3,37,40)         169.7407         estimate D2E/DX2                !
 ! D60   D(15,3,37,41)          52.8865         estimate D2E/DX2                !
 ! D61   D(3,4,5,10)            43.3846         estimate D2E/DX2                !
 ! D62   D(3,4,5,11)          -142.6616         estimate D2E/DX2                !
 ! D63   D(8,4,5,10)           -79.299          estimate D2E/DX2                !
 ! D64   D(8,4,5,11)            94.6547         estimate D2E/DX2                !
 ! D65   D(9,4,5,10)           166.9298         estimate D2E/DX2                !
 ! D66   D(9,4,5,11)           -19.1164         estimate D2E/DX2                !
 ! D67   D(4,5,10,1)           -26.422          estimate D2E/DX2                !
 ! D68   D(11,5,10,1)          159.5893         estimate D2E/DX2                !
 ! D69   D(1,12,13,34)         177.6397         estimate D2E/DX2                !
 ! D70   D(1,12,13,35)         -62.8452         estimate D2E/DX2                !
 ! D71   D(1,12,13,36)          58.1314         estimate D2E/DX2                !
 ! D72   D(32,12,13,34)        -61.2254         estimate D2E/DX2                !
 ! D73   D(32,12,13,35)         58.2897         estimate D2E/DX2                !
 ! D74   D(32,12,13,36)        179.2663         estimate D2E/DX2                !
 ! D75   D(33,12,13,34)         54.949          estimate D2E/DX2                !
 ! D76   D(33,12,13,35)        174.4641         estimate D2E/DX2                !
 ! D77   D(33,12,13,36)        -64.5593         estimate D2E/DX2                !
 ! D78   D(3,15,16,17)         170.6103         estimate D2E/DX2                !
 ! D79   D(3,15,16,18)         -71.4239         estimate D2E/DX2                !
 ! D80   D(3,15,16,19)          52.1302         estimate D2E/DX2                !
 ! D81   D(15,16,17,26)        -60.2415         estimate D2E/DX2                !
 ! D82   D(15,16,17,27)         59.6394         estimate D2E/DX2                !
 ! D83   D(15,16,17,28)        179.705          estimate D2E/DX2                !
 ! D84   D(18,16,17,26)        178.7269         estimate D2E/DX2                !
 ! D85   D(18,16,17,27)        -61.3922         estimate D2E/DX2                !
 ! D86   D(18,16,17,28)         58.6734         estimate D2E/DX2                !
 ! D87   D(19,16,17,26)         61.8805         estimate D2E/DX2                !
 ! D88   D(19,16,17,27)       -178.2386         estimate D2E/DX2                !
 ! D89   D(19,16,17,28)        -58.1731         estimate D2E/DX2                !
 ! D90   D(15,16,18,20)        -49.8346         estimate D2E/DX2                !
 ! D91   D(15,16,18,21)         70.7048         estimate D2E/DX2                !
 ! D92   D(15,16,18,22)       -169.5094         estimate D2E/DX2                !
 ! D93   D(17,16,18,20)         68.9843         estimate D2E/DX2                !
 ! D94   D(17,16,18,21)       -170.4763         estimate D2E/DX2                !
 ! D95   D(17,16,18,22)        -50.6905         estimate D2E/DX2                !
 ! D96   D(19,16,18,20)       -175.5148         estimate D2E/DX2                !
 ! D97   D(19,16,18,21)        -54.9754         estimate D2E/DX2                !
 ! D98   D(19,16,18,22)         64.8104         estimate D2E/DX2                !
 ! D99   D(15,16,19,23)        -65.7335         estimate D2E/DX2                !
 ! D100  D(15,16,19,24)         54.8947         estimate D2E/DX2                !
 ! D101  D(15,16,19,25)        174.4579         estimate D2E/DX2                !
 ! D102  D(17,16,19,23)        174.9315         estimate D2E/DX2                !
 ! D103  D(17,16,19,24)        -64.4403         estimate D2E/DX2                !
 ! D104  D(17,16,19,25)         55.1229         estimate D2E/DX2                !
 ! D105  D(18,16,19,23)         59.4076         estimate D2E/DX2                !
 ! D106  D(18,16,19,24)       -179.9642         estimate D2E/DX2                !
 ! D107  D(18,16,19,25)        -60.401          estimate D2E/DX2                !
 ! D108  D(3,37,38,39)         106.8166         estimate D2E/DX2                !
 ! D109  D(3,37,38,42)         -74.8596         estimate D2E/DX2                !
 ! D110  D(40,37,38,39)       -129.1772         estimate D2E/DX2                !
 ! D111  D(40,37,38,42)         49.1466         estimate D2E/DX2                !
 ! D112  D(41,37,38,39)        -15.2531         estimate D2E/DX2                !
 ! D113  D(41,37,38,42)        163.0706         estimate D2E/DX2                !
 ! D114  D(37,38,39,43)        179.2278         estimate D2E/DX2                !
 ! D115  D(37,38,39,44)         -1.4781         estimate D2E/DX2                !
 ! D116  D(42,38,39,43)          0.9239         estimate D2E/DX2                !
 ! D117  D(42,38,39,44)       -179.7821         estimate D2E/DX2                !
 --------------------------------------------------------------------------------
 Trust Radius=3.00D-01 FncErr=1.00D-07 GrdErr=1.00D-06
 Number of steps in this run=     25 maximum allowed number of steps=    264.
 GradGradGradGradGradGradGradGradGradGradGradGradGradGradGradGradGradGrad

                          Input orientation:                          
 ---------------------------------------------------------------------
 Center     Atomic      Atomic             Coordinates (Angstroms)
 Number     Number       Type             X           Y           Z
 ---------------------------------------------------------------------
      1          6           0        0.879426   -0.404351    0.319225
      2          6           0       -0.644751   -0.447975    0.542624
      3          6           0       -1.093304    0.669447    1.528331
      4          6           0       -0.620837    1.999122    0.937292
      5          6           0        0.859902    2.035715    0.731211
      6          1           0        1.391940   -0.864056    1.173137
      7          1           0       -1.126916   -0.241804   -0.421541
      8          1           0       -1.069433    2.194400   -0.042858
      9          1           0       -0.910118    2.840629    1.576117
     10          8           0        1.423113    0.932006    0.200762
     11          8           0        1.514900    3.054093    0.925898
     12          6           0        1.302541   -1.171656   -0.947713
     13          6           0        2.815129   -1.202395   -1.137511
     14          6           0       -1.112425   -1.851506    0.959538
     15          8           0       -2.519129    0.574057    1.737837
     16         14           0       -3.772898    1.226640    0.849164
     17          6           0       -5.400403    0.494475    1.478785
     18          6           0       -3.888177    3.089666    1.059802
     19          6           0       -3.659158    0.822339   -0.979719
     20          1           0       -3.875642    3.357035    2.120537
     21          1           0       -3.056438    3.598927    0.566131
     22          1           0       -4.818295    3.466093    0.623327
     23          1           0       -2.783893    1.290805   -1.437512
     24          1           0       -3.591403   -0.258900   -1.131955
     25          1           0       -4.547586    1.183991   -1.506311
     26          1           0       -5.398559   -0.592758    1.358870
     27          1           0       -5.536275    0.727305    2.538863
     28          1           0       -6.246226    0.905531    0.920211
     29          1           0       -0.951801   -2.575110    0.154619
     30          1           0       -0.571002   -2.212068    1.839781
     31          1           0       -2.182391   -1.870658    1.187307
     32          1           0        0.858806   -0.695267   -1.830438
     33          1           0        0.942016   -2.204235   -0.913287
     34          1           0        3.070363   -1.791711   -2.024080
     35          1           0        3.223196   -0.196658   -1.277134
     36          1           0        3.308277   -1.658896   -0.273488
     37          6           0       -0.484649    0.441370    2.957801
     38          6           0       -0.745330    1.551842    3.948084
     39          6           0       -1.607681    1.459019    4.968377
     40          1           0        0.601641    0.309243    2.911931
     41          1           0       -0.889857   -0.490329    3.373977
     42          1           0       -0.172449    2.470256    3.831679
     43          1           0       -1.745589    2.286525    5.657470
     44          1           0       -2.201275    0.564816    5.132706
 ---------------------------------------------------------------------
                    Distance matrix (angstroms):
                    1          2          3          4          5
     1  C    0.000000
     2  C    1.541079   0.000000
     3  C    2.550812   1.556101   0.000000
     4  C    2.899910   2.478834   1.529898   0.000000
     5  C    2.474679   2.910028   2.513385   1.495459   0.000000
     6  H    1.096889   2.172275   2.941808   3.507803   2.981113
     7  H    2.144893   1.097544   2.152559   2.669137   3.234714
     8  H    3.268434   2.739578   2.189677   1.095475   2.084873
     9  H    3.913073   3.457375   2.179420   1.095406   2.120076
    10  O    1.447577   2.509438   2.857224   2.420526   1.347871
    11  O    3.568293   4.132248   3.584995   2.382114   1.226385
    12  C    1.540427   2.556710   3.906473   4.160103   3.647183
    13  C    2.550667   3.919537   5.087863   5.134236   4.219051
    14  C    2.543959   1.537022   2.584395   3.881944   4.364939
    15  O    3.810501   2.446707   1.444288   2.505034   3.816751
    16  Si   4.958335   3.561405   2.819921   3.246534   4.704397
    17  C    6.448932   4.937695   4.310936   5.039983   6.490432
    18  C    5.957067   4.827234   3.726700   3.446709   4.874735
    19  C    4.877578   3.608029   3.591281   3.780363   4.982115
    20  H    6.324826   5.235128   3.913469   3.719913   5.108962
    21  H    5.619450   4.711072   3.655349   2.937565   4.220024
    22  H    6.894696   5.722317   4.745084   4.457492   5.856581
    23  H    4.402225   3.394145   3.469928   3.289410   4.305287
    24  H    4.702700   3.394514   3.765561   4.266698   5.343291
    25  H    5.942043   4.700380   4.626648   4.696274   5.913786
    26  H    6.366275   4.825548   4.489666   5.451807   6.816976
    27  H    6.882489   5.412325   4.556810   5.323916   6.774262
    28  H    7.269931   5.775039   5.194050   5.730727   7.197923
    29  H    2.844764   2.183926   3.526224   4.652495   4.987428
    30  H    2.771944   2.190908   2.944984   4.307098   4.617367
    31  H    3.504047   2.191798   2.784698   4.180449   4.972255
    32  H    2.169357   2.820153   4.117585   4.136352   3.744370
    33  H    2.182335   2.778841   4.285099   4.851326   4.548438
    34  H    3.495147   4.711228   6.001087   6.063423   5.208354
    35  H    2.843371   4.282020   5.220435   4.949921   3.821269
    36  H    2.797232   4.214119   5.295437   5.503183   4.544679
    37  C    3.088370   2.578691   1.570307   2.554916   3.050812
    38  C    4.431156   3.950512   2.599021   3.046379   3.627558
    39  C    5.592179   4.914382   3.566781   4.185119   4.937117
    40  H    2.703425   2.782173   2.217416   2.872167   2.793375
    41  H    3.531185   2.842258   2.189265   3.493876   4.052995
    42  H    4.659092   4.422332   3.065338   2.966563   3.296586
    43  H    6.529041   5.903472   4.482210   4.860838   5.578487
    44  H    5.796516   4.951501   3.772276   4.707071   5.559452
                    6          7          8          9         10
     6  H    0.000000
     7  H    3.045461   0.000000
     8  H    4.109885   2.466130   0.000000
     9  H    4.380246   3.679542   1.750449   0.000000
    10  O    2.042627   2.875368   2.804599   3.313368   0.000000
    11  O    3.927867   4.433703   2.890733   2.519735   2.244438
    12  C    2.144904   2.654005   4.216083   5.231062   2.399776
    13  C    2.734782   4.120081   5.275064   6.130847   2.878255
    14  C    2.700468   2.121021   4.168453   4.736795   3.840916
    15  O    4.205177   2.695700   2.810339   2.784317   4.246410
    16  Si   5.581355   3.282109   3.006823   3.365848   5.244594
    17  C    6.933610   4.734558   4.895145   5.067205   6.955943
    18  C    6.597302   4.573580   3.156371   3.032727   5.796831
    19  C    5.743893   2.802894   3.076839   4.261809   5.218720
    20  H    6.816348   5.193197   3.729183   3.058987   6.135398
    21  H    6.330461   4.410189   2.508337   2.490337   5.226121
    22  H    7.590751   5.335403   4.014346   4.070978   6.749469
    23  H    5.375546   2.475209   2.387659   3.872331   4.528971
    24  H    5.523891   2.564893   3.683089   4.912232   5.323510
    25  H    6.830220   3.861425   3.906427   5.047473   6.215050
    26  H    6.798454   4.641117   5.336143   5.655214   7.085290
    27  H    7.238632   5.398668   5.363798   5.176326   7.344501
    28  H    7.844552   5.415165   5.421058   5.713919   7.703056
    29  H    3.075420   2.409760   4.775046   5.599341   4.235824
    30  H    2.472790   3.050337   4.817647   5.070924   4.067933
    31  H    3.713393   2.521029   4.390521   4.895516   4.672029
    32  H    3.055190   2.476633   3.906882   5.218838   2.663125
    33  H    2.520253   2.893688   4.914424   5.922684   3.362821
    34  H    3.728249   4.752630   6.078835   7.089726   3.883554
    35  H    3.130934   4.433684   5.066287   5.869450   2.588119
    36  H    2.529198   4.658434   5.836559   6.439070   3.239063
    37  C    2.900129   3.507020   3.524066   2.801164   3.388443
    38  C    4.254976   4.738818   4.055310   2.704506   4.373644
    39  C    5.366400   5.672314   5.093424   3.728655   5.673941
    40  H    2.241564   3.795207   3.882922   3.236932   2.900532
    41  H    3.192173   3.811026   4.349112   3.785233   4.176381
    42  H    4.542334   5.133825   3.986567   2.401852   4.253891
    43  H    6.315021   6.612834   5.741029   4.202676   6.453763
    44  H    5.534533   5.714415   5.542840   4.415398   6.131483
                   11         12         13         14         15
    11  O    0.000000
    12  C    4.627361   0.000000
    13  C    4.905705   1.524759   0.000000
    14  C    5.564968   3.151486   4.499404   0.000000
    15  O    4.804499   4.986467   6.314881   2.909969   0.000000
    16  Si   5.595202   5.894122   7.297204   4.070047   1.669593
    17  C    7.394508   7.320747   8.787453   4.915282   2.893991
    18  C    5.404853   7.009460   8.257378   5.668336   2.943181
    19  C    5.948359   5.347476   6.785340   4.170853   2.957435
    20  H    5.529636   7.532382   8.727525   6.009342   3.119544
    21  H    4.617728   6.637084   7.773698   5.800101   3.288075
    22  H    6.353790   7.838464   9.119457   6.490252   3.859037
    23  H    5.212918   4.796098   6.136375   4.291127   3.265987
    24  H    6.425341   4.981742   6.475636   3.613318   3.174791
    25  H    6.794605   6.331279   7.748576   5.205284   3.874423
    26  H    7.828340   7.110569   8.606291   4.484959   3.129887
    27  H    7.598333   7.907697   9.326597   5.358636   3.125428
    28  H    8.053038   8.049083   9.528154   5.827410   3.830097
    29  H    6.194143   2.875218   4.212328   1.094211   3.857506
    30  H    5.737475   3.516069   4.620562   1.094519   3.401189
    31  H    6.163722   4.146283   5.552167   1.094108   2.528459
    32  H    4.699526   1.096837   2.136475   3.606467   5.074861
    33  H    5.600072   1.094250   2.136004   2.802252   5.169806
    34  H    5.882487   2.160608   1.094734   5.138216   7.140819
    35  H    4.282407   2.179003   1.094313   5.151585   6.531336
    36  H    5.183338   2.171396   1.094588   4.593480   6.556689
    37  C    3.866930   4.587912   5.510180   3.105550   2.375927
    38  C    4.061897   5.964901   6.791610   4.544111   2.997936
    39  C    5.351300   7.098589   7.995389   5.222609   3.471352
    40  H    3.508927   4.192991   4.856188   3.379156   3.344821
    41  H    4.933444   4.893651   5.881112   2.780621   2.542518
    42  H    3.410510   6.187221   6.863442   5.273554   3.672418
    43  H    5.797217   8.054723   8.896318   6.292437   4.346773
    44  H    6.140333   7.229354   8.222102   4.943636   3.409729
                   16         17         18         19         20
    16  Si   0.000000
    17  C    1.892422   0.000000
    18  C    1.878436   3.032720   0.000000
    19  C    1.876489   3.030457   3.058246   0.000000
    20  H    2.483048   3.306205   1.093984   4.010379   0.000000
    21  H    2.494227   3.995589   1.093091   3.234558   1.773636
    22  H    2.481735   3.146613   1.094224   3.301937   1.772604
    23  H    2.492215   3.998131   3.269850   1.093217   4.256869
    24  H    2.482862   3.264356   4.013075   1.094004   4.871805
    25  H    2.479964   3.180177   3.263641   1.094256   4.281081
    26  H    2.492545   1.093828   3.991358   3.239910   4.301195
    27  H    2.492773   1.093817   3.237993   3.989113   3.138181
    28  H    2.495097   1.093795   3.217192   3.210853   3.615290
    29  H    4.784797   5.564695   6.444482   4.489896   6.899567
    30  H    4.801893   5.547865   6.302412   5.166615   6.481850
    31  H    3.498186   4.004300   5.246978   3.758866   5.573759
    32  H    5.685655   7.179425   6.724065   4.841369   7.378777
    33  H    6.091597   7.295980   7.432983   5.507755   7.958746
    34  H    8.012253   9.447253   9.042093   7.294546   9.588244
    35  H    7.449312   9.079604   8.175134   6.963735   8.635184
    36  H    7.728500   9.140491   8.724417   7.429700   9.082930
    37  C    3.984417   5.133707   4.711674   5.072150   4.549829
    38  C    4.344563   5.374492   4.537021   5.771119   4.049383
    39  C    4.659408   5.243314   4.810055   6.324062   4.105643
    40  H    4.922724   6.173553   5.596392   5.793325   5.473701
    41  H    4.199356   4.990653   5.211688   5.324171   5.028741
    42  H    4.837893   6.063936   4.676923   6.166224   4.174688
    43  H    5.324767   5.833568   5.135589   7.061010   4.265327
    44  H    4.610503   4.857006   5.080261   6.289156   4.435443
                   21         22         23         24         25
    21  H    0.000000
    22  H    1.767783   0.000000
    23  H    3.068598   3.621840   0.000000
    24  H    4.248825   4.296726   1.773985   0.000000
    25  H    3.514321   3.133150   1.768263   1.770978   0.000000
    26  H    4.866640   4.165573   4.266619   3.095397   3.477104
    27  H    4.276386   3.418440   4.868747   4.269664   4.189212
    28  H    4.189809   2.946796   4.206548   3.551812   2.975051
    29  H    6.535868   7.187878   4.564728   3.740000   5.460696
    30  H    6.447266   7.194496   5.282770   4.665716   6.208282
    31  H    5.573704   5.978877   4.152870   3.156272   4.709629
    32  H    6.285919   7.454351   4.167509   4.525777   5.732865
    33  H    7.200903   8.227696   5.135418   4.938019   6.478231
    34  H    8.561884   9.842977   6.642159   6.893803   8.194879
    35  H    7.565573   9.038422   6.190588   6.816429   7.895807
    36  H    8.298148   9.649402   6.868058   7.092428   8.444906
    37  C    4.722748   5.777474   5.032578   5.183474   6.081713
    38  C    4.579234   5.595302   5.764419   6.098009   6.659046
    39  C    5.104691   5.763319   6.515150   6.640817   7.116197
    40  H    5.450352   6.676759   5.598478   5.852984   6.841095
    41  H    5.412955   6.217071   5.469025   5.258834   6.324519
    42  H    4.500566   5.733158   5.997926   6.616283   7.020715
    43  H    5.418714   6.014607   7.239358   7.482146   7.770877
    44  H    5.548940   5.966632   6.635832   6.469694   7.068600
                   26         27         28         29         30
    26  H    0.000000
    27  H    1.775927   0.000000
    28  H    1.776466   1.776465   0.000000
    29  H    5.015336   6.132533   6.382157   0.000000
    30  H    5.114562   5.812277   6.540122   1.765383   0.000000
    31  H    3.464996   4.452488   4.928825   1.754152   1.771682
    32  H    7.024017   7.874742   7.785249   3.279109   4.220846
    33  H    6.925493   7.904399   8.043829   2.205564   3.141444
    34  H    9.198069  10.061814  10.136212   4.640932   5.325942
    35  H    9.024415   9.599160   9.783307   5.013736   5.307822
    36  H    8.922457   9.582764   9.964423   4.378469   4.452046
    37  C    5.269963   5.077026   6.128865   4.144299   2.880652
    38  C    5.740721   5.061514   6.312336   5.609344   4.317679
    39  C    5.622196   4.676729   6.181432   6.314795   4.933528
    40  H    6.263226   6.163438   7.156521   4.281991   2.980202
    41  H    4.939589   4.875372   6.054757   3.835937   2.328049
    42  H    6.542864   5.786180   6.914895   6.291572   5.103985
    43  H    6.333437   5.150357   6.678660   7.385592   6.015957
    44  H    5.079807   4.228079   5.850028   6.016782   4.605674
                   31         32         33         34         35
    31  H    0.000000
    32  H    4.442658   0.000000
    33  H    3.779641   1.767788   0.000000
    34  H    6.157164   2.476019   2.435959   0.000000
    35  H    6.172205   2.478930   3.060479   1.767903   0.000000
    36  H    5.685613   3.058199   2.511161   1.771670   1.775580
    37  C    3.370823   5.101377   4.901012   6.514898   5.664792
    38  C    4.626072   6.404223   6.370885   7.836173   6.790387
    39  C    5.070851   7.546416   7.383384   9.019190   8.067530
    40  H    3.934098   4.854404   4.589741   5.905320   4.967570
    41  H    2.890930   5.494157   4.967279   6.820261   6.215809
    42  H    5.465904   6.568378   6.753340   7.935371   6.689006
    43  H    6.120075   8.470108   8.400297   9.941409   8.885030
    44  H    4.636600   7.709558   7.355403   9.195813   8.431535
                   36         37         38         39         40
    36  H    0.000000
    37  C    5.407276   0.000000
    38  C    6.675495   1.510551   0.000000
    39  C    7.833593   2.517782   1.339128   0.000000
    40  H    4.620210   1.095257   2.105231   3.229870   0.000000
    41  H    5.682770   1.097934   2.126252   2.618652   1.754243
    42  H    6.783638   2.231033   1.088681   2.091548   2.472879
    43  H    8.734081   3.504680   2.112410   1.085649   4.117902
    44  H    8.032869   2.773492   2.120690   1.085798   3.585177
                   41         42         43         44
    41  H    0.000000
    42  H    3.080459   0.000000
    43  H    3.695610   2.417031   0.000000
    44  H    2.434394   3.072378   1.856693   0.000000
 Stoichiometry    C14H26O3Si
 Framework group  C1[X(C14H26O3Si)]
 Deg. of freedom   126
 Full point group                 C1      NOp   1
 Largest Abelian subgroup         C1      NOp   1
 Largest concise Abelian subgroup C1      NOp   1
                         Standard orientation:                         
 ---------------------------------------------------------------------
 Center     Atomic      Atomic             Coordinates (Angstroms)
 Number     Number       Type             X           Y           Z
 ---------------------------------------------------------------------
      1          6           0       -2.367439   -0.364706   -0.404363
      2          6           0       -0.910036   -0.790641   -0.667953
      3          6           0        0.077631    0.354929   -0.302393
      4          6           0       -0.177758    0.710799    1.163458
      5          6           0       -1.592022    1.130436    1.408731
      6          1           0       -2.716982    0.282083   -1.218396
      7          1           0       -0.686404   -1.635167   -0.003597
      8          1           0        0.007511   -0.138792    1.829744
      9          1           0        0.491795    1.510396    1.498505
     10          8           0       -2.551972    0.394160    0.814468
     11          8           0       -1.873266    2.025172    2.198902
     12          6           0       -3.320031   -1.572730   -0.325863
     13          6           0       -4.776671   -1.160612   -0.143525
     14          6           0       -0.728089   -1.317627   -2.100299
     15          8           0        1.426826   -0.069454   -0.594867
     16         14           0        2.500404   -0.933128    0.348022
     17          6           0        3.988329   -1.410487   -0.719437
     18          6           0        3.155345    0.088233    1.782036
     19          6           0        1.767980   -2.526965    1.014690
     20          1           0        3.516395    1.058439    1.428277
     21          1           0        2.381346    0.261847    2.534120
     22          1           0        3.987076   -0.428801    2.270122
     23          1           0        0.953386   -2.328160    1.716144
     24          1           0        1.378537   -3.143051    0.198836
     25          1           0        2.531703   -3.106294    1.542421
     26          1           0        3.667295   -2.029106   -1.562470
     27          1           0        4.476950   -0.514043   -1.111962
     28          1           0        4.716611   -1.974946   -0.130048
     29          1           0       -1.295477   -2.240325   -2.255209
     30          1           0       -1.070773   -0.591203   -2.843836
     31          1           0        0.318242   -1.555157   -2.314413
     32          1           0       -3.037736   -2.207967    0.522568
     33          1           0       -3.248651   -2.181412   -1.232392
     34          1           0       -5.419345   -2.046807   -0.135184
     35          1           0       -4.928918   -0.629709    0.801189
     36          1           0       -5.104637   -0.511686   -0.961729
     37          6           0       -0.135667    1.603988   -1.229874
     38          6           0        0.678283    2.821429   -0.859624
     39          6           0        1.739893    3.252382   -1.552824
     40          1           0       -1.184850    1.918148   -1.240168
     41          1           0        0.112225    1.327969   -2.263229
     42          1           0        0.357813    3.391319    0.010865
     43          1           0        2.280559    4.142562   -1.246403
     44          1           0        2.099474    2.724069   -2.430631
 ---------------------------------------------------------------------
 Rotational constants (GHZ):      0.4921377      0.2689183      0.2350641
 Standard basis: 6-31G(d,p) (6D, 7F)
 There are   404 symmetry adapted cartesian basis functions of A   symmetry.
 There are   404 symmetry adapted basis functions of A   symmetry.
   404 basis functions,   710 primitive gaussians,   404 cartesian basis functions
    74 alpha electrons       74 beta electrons
       nuclear repulsion energy      1629.8095594130 Hartrees.
 NAtoms=   44 NActive=   44 NUniq=   44 SFac= 1.00D+00 NAtFMM=   60 NAOKFM=F Big=F
 Integral buffers will be    131072 words long.
 Raffenetti 2 integral format.
 Two-electron integral symmetry is turned on.
 ------------------------------------------------------------------------------
 Polarizable Continuum Model (PCM)
 =================================
 Model                : PCM (using non-symmetric T matrix).
 Atomic radii         : UFF (Universal Force Field).
 Polarization charges : Total charges.
 Charge compensation  : None.
 Solution method      : On-the-fly selection.
 Cavity type          : Scaled VdW (van der Waals Surface) (Alpha=1.100).
 Cavity algorithm     : GePol (No added spheres)
                        Default sphere list used, NSphG=   44.
                        Lebedev-Laikov grids with approx.  5.0 points / Ang**2.
                        Smoothing algorithm: Karplus/York (Gamma=1.0000).
                        Polarization charges: spherical gaussians, with
                                              point-specific exponents (IZeta= 3).
                        Self-potential: point-specific (ISelfS= 7).
                        Self-field    : sphere-specific E.n sum rule (ISelfD= 2).
 1st derivatives      : Analytical E(r).r(x)/FMM algorithm (CHGder, D1EAlg=3).
                        Cavity 1st derivative terms included.
 Solvent              : Chloroform, Eps=   4.711300 Eps(inf)=   2.090627
 ------------------------------------------------------------------------------
 One-electron integrals computed using PRISM.
 NBasis=   404 RedAO= T EigKep=  1.88D-03  NBF=   404
 NBsUse=   404 1.00D-06 EigRej= -1.00D+00 NBFU=   404
 ExpMin= 7.78D-02 ExpMax= 1.61D+04 ExpMxC= 2.43D+03 IAcc=2 IRadAn=         4 AccDes= 0.00D+00
 Harris functional with IExCor=  402 and IRadAn=       4 diagonalized for initial guess.
 HarFok:  IExCor=  402 AccDes= 0.00D+00 IRadAn=         4 IDoV= 1 UseB2=F ITyADJ=14
 ICtDFT=  3500011 ScaDFX=  1.000000  1.000000  1.000000  1.000000
 FoFCou: FMM=F IPFlag=           0 FMFlag=      100000 FMFlg1=           0
         NFxFlg=           0 DoJE=T BraDBF=F KetDBF=T FulRan=T
         wScrn=  0.000000 ICntrl=     500 IOpCl=  0 I1Cent=   200000004 NGrid=           0
         NMat0=    1 NMatS0=      1 NMatT0=    0 NMatD0=    1 NMtDS0=    0 NMtDT0=    0
 Petite list used in FoFCou.
 Requested convergence on RMS density matrix=1.00D-08 within 128 cycles.
 Requested convergence on MAX density matrix=1.00D-06.
 Requested convergence on             energy=1.00D-06.
 No special actions if energy rises.
 Inv3:  Mode=1 IEnd=    25386843.
 Iteration    1 A*A^-1 deviation from unit magnitude is 5.33D-15 for   2870.
 Iteration    1 A*A^-1 deviation from orthogonality  is 4.34D-15 for   2890   1740.
 Iteration    1 A^-1*A deviation from unit magnitude is 4.44D-15 for   2864.
 Iteration    1 A^-1*A deviation from orthogonality  is 2.64D-11 for   2227   2137.
 Error on total polarization charges =  0.00931
 SCF Done:  E(RB3LYP) =  -1064.41654663     A.U. after   13 cycles
            NFock= 13  Conv=0.53D-08     -V/T= 2.0081

 **********************************************************************

            Population analysis using the SCF density.

 **********************************************************************

 Orbital symmetries:
       Occupied  (A) (A) (A) (A) (A) (A) (A) (A) (A) (A) (A) (A)
                 (A) (A) (A) (A) (A) (A) (A) (A) (A) (A) (A) (A)
                 (A) (A) (A) (A) (A) (A) (A) (A) (A) (A) (A) (A)
                 (A) (A) (A) (A) (A) (A) (A) (A) (A) (A) (A) (A)
                 (A) (A) (A) (A) (A) (A) (A) (A) (A) (A) (A) (A)
                 (A) (A) (A) (A) (A) (A) (A) (A) (A) (A) (A) (A)
                 (A) (A)
       Virtual   (A) (A) (A) (A) (A) (A) (A) (A) (A) (A) (A) (A)
                 (A) (A) (A) (A) (A) (A) (A) (A) (A) (A) (A) (A)
                 (A) (A) (A) (A) (A) (A) (A) (A) (A) (A) (A) (A)
                 (A) (A) (A) (A) (A) (A) (A) (A) (A) (A) (A) (A)
                 (A) (A) (A) (A) (A) (A) (A) (A) (A) (A) (A) (A)
                 (A) (A) (A) (A) (A) (A) (A) (A) (A) (A) (A) (A)
                 (A) (A) (A) (A) (A) (A) (A) (A) (A) (A) (A) (A)
                 (A) (A) (A) (A) (A) (A) (A) (A) (A) (A) (A) (A)
                 (A) (A) (A) (A) (A) (A) (A) (A) (A) (A) (A) (A)
                 (A) (A) (A) (A) (A) (A) (A) (A) (A) (A) (A) (A)
                 (A) (A) (A) (A) (A) (A) (A) (A) (A) (A) (A) (A)
                 (A) (A) (A) (A) (A) (A) (A) (A) (A) (A) (A) (A)
                 (A) (A) (A) (A) (A) (A) (A) (A) (A) (A) (A) (A)
                 (A) (A) (A) (A) (A) (A) (A) (A) (A) (A) (A) (A)
                 (A) (A) (A) (A) (A) (A) (A) (A) (A) (A) (A) (A)
                 (A) (A) (A) (A) (A) (A) (A) (A) (A) (A) (A) (A)
                 (A) (A) (A) (A) (A) (A) (A) (A) (A) (A) (A) (A)
                 (A) (A) (A) (A) (A) (A) (A) (A) (A) (A) (A) (A)
                 (A) (A) (A) (A) (A) (A) (A) (A) (A) (A) (A) (A)
                 (A) (A) (A) (A) (A) (A) (A) (A) (A) (A) (A) (A)
                 (A) (A) (A) (A) (A) (A) (A) (A) (A) (A) (A) (A)
                 (A) (A) (A) (A) (A) (A) (A) (A) (A) (A) (A) (A)
                 (A) (A) (A) (A) (A) (A) (A) (A) (A) (A) (A) (A)
                 (A) (A) (A) (A) (A) (A) (A) (A) (A) (A) (A) (A)
                 (A) (A) (A) (A) (A) (A) (A) (A) (A) (A) (A) (A)
                 (A) (A) (A) (A) (A) (A) (A) (A) (A) (A) (A) (A)
                 (A) (A) (A) (A) (A) (A) (A) (A) (A) (A) (A) (A)
                 (A) (A) (A) (A) (A) (A)
 The electronic state is 1-A.
 Alpha  occ. eigenvalues --  -66.13846 -19.19416 -19.14232 -19.13748 -10.32504
 Alpha  occ. eigenvalues --  -10.26675 -10.25767 -10.20250 -10.20228 -10.19213
 Alpha  occ. eigenvalues --  -10.19055 -10.19025 -10.18105 -10.17891 -10.17419
 Alpha  occ. eigenvalues --  -10.15943 -10.15712 -10.15557  -5.28009  -3.64067
 Alpha  occ. eigenvalues --   -3.63834  -3.63797  -1.10039  -1.01647  -1.00590
 Alpha  occ. eigenvalues --   -0.83068  -0.80634  -0.77698  -0.75358  -0.71402
 Alpha  occ. eigenvalues --   -0.69885  -0.69378  -0.67713  -0.67307  -0.64089
 Alpha  occ. eigenvalues --   -0.61711  -0.59533  -0.56369  -0.54154  -0.51485
 Alpha  occ. eigenvalues --   -0.50961  -0.47831  -0.47266  -0.46108  -0.45631
 Alpha  occ. eigenvalues --   -0.44968  -0.43778  -0.42824  -0.42158  -0.41249
 Alpha  occ. eigenvalues --   -0.40796  -0.40583  -0.40330  -0.39776  -0.39718
 Alpha  occ. eigenvalues --   -0.38979  -0.38495  -0.38189  -0.37806  -0.37223
 Alpha  occ. eigenvalues --   -0.36627  -0.36053  -0.35165  -0.34828  -0.34224
 Alpha  occ. eigenvalues --   -0.34004  -0.32540  -0.31758  -0.30576  -0.29633
 Alpha  occ. eigenvalues --   -0.28480  -0.27071  -0.26530  -0.25480
 Alpha virt. eigenvalues --   -0.00445   0.01438   0.06786   0.07077   0.08898
 Alpha virt. eigenvalues --    0.09609   0.09762   0.10882   0.11070   0.11718
 Alpha virt. eigenvalues --    0.12226   0.12776   0.13075   0.13766   0.14059
 Alpha virt. eigenvalues --    0.14668   0.15130   0.15712   0.16582   0.16734
 Alpha virt. eigenvalues --    0.17176   0.17329   0.17800   0.18509   0.18963
 Alpha virt. eigenvalues --    0.19698   0.19819   0.20230   0.20753   0.20968
 Alpha virt. eigenvalues --    0.21200   0.22102   0.22462   0.23252   0.23886
 Alpha virt. eigenvalues --    0.24971   0.25482   0.25987   0.27584   0.28537
 Alpha virt. eigenvalues --    0.29103   0.30350   0.31424   0.35326   0.35953
 Alpha virt. eigenvalues --    0.37479   0.38838   0.39497   0.40691   0.44102
 Alpha virt. eigenvalues --    0.46384   0.46889   0.47803   0.50078   0.50241
 Alpha virt. eigenvalues --    0.52266   0.53143   0.53771   0.54939   0.55649
 Alpha virt. eigenvalues --    0.56948   0.57434   0.57865   0.59719   0.60677
 Alpha virt. eigenvalues --    0.61739   0.62179   0.62991   0.64266   0.65248
 Alpha virt. eigenvalues --    0.66138   0.66440   0.67984   0.68180   0.68367
 Alpha virt. eigenvalues --    0.69189   0.71158   0.71836   0.72663   0.73713
 Alpha virt. eigenvalues --    0.74234   0.75666   0.75955   0.76384   0.78162
 Alpha virt. eigenvalues --    0.78566   0.79369   0.80604   0.82198   0.82729
 Alpha virt. eigenvalues --    0.83930   0.84525   0.85019   0.85611   0.86115
 Alpha virt. eigenvalues --    0.86645   0.87537   0.88002   0.88270   0.88671
 Alpha virt. eigenvalues --    0.89120   0.89897   0.90278   0.90742   0.91370
 Alpha virt. eigenvalues --    0.91806   0.92160   0.92613   0.92802   0.93532
 Alpha virt. eigenvalues --    0.94061   0.95314   0.96090   0.96384   0.97101
 Alpha virt. eigenvalues --    0.98117   0.98977   0.99583   1.00764   1.01466
 Alpha virt. eigenvalues --    1.02306   1.02613   1.03381   1.05450   1.07326
 Alpha virt. eigenvalues --    1.09978   1.11141   1.13881   1.16413   1.18115
 Alpha virt. eigenvalues --    1.19141   1.19623   1.21486   1.22363   1.24660
 Alpha virt. eigenvalues --    1.29014   1.29921   1.30534   1.31907   1.33735
 Alpha virt. eigenvalues --    1.37339   1.39478   1.39813   1.40214   1.43054
 Alpha virt. eigenvalues --    1.43729   1.45283   1.46089   1.46930   1.48591
 Alpha virt. eigenvalues --    1.49538   1.50528   1.51473   1.54091   1.55365
 Alpha virt. eigenvalues --    1.59814   1.61169   1.63423   1.63472   1.64290
 Alpha virt. eigenvalues --    1.65972   1.67437   1.69319   1.70312   1.71949
 Alpha virt. eigenvalues --    1.73639   1.75232   1.77488   1.77800   1.78275
 Alpha virt. eigenvalues --    1.81061   1.81748   1.83153   1.84167   1.85013
 Alpha virt. eigenvalues --    1.86631   1.87704   1.88771   1.89436   1.91134
 Alpha virt. eigenvalues --    1.92112   1.94576   1.95373   1.96100   1.97708
 Alpha virt. eigenvalues --    1.98474   1.99345   2.00293   2.01300   2.03448
 Alpha virt. eigenvalues --    2.03773   2.04646   2.04913   2.05284   2.05572
 Alpha virt. eigenvalues --    2.06009   2.06465   2.07676   2.08184   2.08629
 Alpha virt. eigenvalues --    2.09263   2.09969   2.11151   2.11417   2.11780
 Alpha virt. eigenvalues --    2.12169   2.12974   2.13552   2.13710   2.14318
 Alpha virt. eigenvalues --    2.14936   2.15368   2.16437   2.17027   2.17388
 Alpha virt. eigenvalues --    2.18607   2.21947   2.22461   2.26155   2.27079
 Alpha virt. eigenvalues --    2.28938   2.29481   2.30198   2.31176   2.33522
 Alpha virt. eigenvalues --    2.33742   2.34984   2.35070   2.36062   2.36718
 Alpha virt. eigenvalues --    2.37672   2.38220   2.38927   2.39723   2.41461
 Alpha virt. eigenvalues --    2.42780   2.46026   2.46214   2.49341   2.50698
 Alpha virt. eigenvalues --    2.51925   2.53603   2.55192   2.56490   2.57265
 Alpha virt. eigenvalues --    2.59120   2.60866   2.62661   2.63762   2.64373
 Alpha virt. eigenvalues --    2.65436   2.66702   2.67376   2.68417   2.69205
 Alpha virt. eigenvalues --    2.71663   2.72886   2.74785   2.75857   2.75971
 Alpha virt. eigenvalues --    2.77011   2.78027   2.79946   2.81025   2.81657
 Alpha virt. eigenvalues --    2.81735   2.83120   2.84476   2.85030   2.85286
 Alpha virt. eigenvalues --    2.85653   2.85844   2.87341   2.89366   2.90005
 Alpha virt. eigenvalues --    2.90828   2.91679   2.92125   2.93705   2.95679
 Alpha virt. eigenvalues --    2.97094   2.98998   3.03664   3.06303   3.11771
 Alpha virt. eigenvalues --    3.16986   3.19516   3.20387   3.20694   3.21472
 Alpha virt. eigenvalues --    3.21787   3.22986   3.26071   3.28528   3.32158
 Alpha virt. eigenvalues --    3.33374   3.34793   3.40531   3.43338   3.43597
 Alpha virt. eigenvalues --    3.44296   3.44442   3.44902   3.45185   3.45512
 Alpha virt. eigenvalues --    3.46168   3.47125   3.47872   3.48940   3.52800
 Alpha virt. eigenvalues --    3.54641   3.56404   3.66295   4.02844   4.14313
 Alpha virt. eigenvalues --    4.20116   4.23977   4.34289   4.40025   4.45333
 Alpha virt. eigenvalues --    4.45813   4.48033   4.51901   4.53501   4.59704
 Alpha virt. eigenvalues --    4.64668   4.65251   4.73177   4.77900   4.82065
          Condensed to atoms (all electrons):
               1          2          3          4          5          6
     1  C    4.796586   0.328617  -0.028072  -0.011324  -0.006760   0.382967
     2  C    0.328617   5.095030   0.328912  -0.051242  -0.017744  -0.046481
     3  C   -0.028072   0.328912   4.836087   0.297263  -0.013448  -0.010498
     4  C   -0.011324  -0.051242   0.297263   5.336611   0.286172   0.001067
     5  C   -0.006760  -0.017744  -0.013448   0.286172   4.365785  -0.001282
     6  H    0.382967  -0.046481  -0.010498   0.001067  -0.001282   0.636321
     7  H   -0.041116   0.377852  -0.042389  -0.007187   0.000609   0.006572
     8  H   -0.000093  -0.007219  -0.026965   0.363217  -0.025325   0.000040
     9  H    0.000190   0.005607  -0.028721   0.360077  -0.022785   0.000048
    10  O    0.167610  -0.026229   0.001366  -0.097833   0.255719  -0.042891
    11  O    0.001632   0.000033   0.001090  -0.084049   0.577376   0.000111
    12  C    0.378781  -0.035221   0.004764  -0.000809   0.001190  -0.052561
    13  C   -0.039034   0.004210  -0.000089  -0.000006   0.000112  -0.006204
    14  C   -0.035321   0.349759  -0.030963   0.005194   0.000461  -0.004905
    15  O    0.002740  -0.043011   0.189377  -0.026679   0.001472  -0.000047
    16  Si   0.000590  -0.004916  -0.013668   0.002208  -0.000486  -0.000071
    17  C    0.000000  -0.000089   0.001018  -0.000057   0.000000   0.000000
    18  C    0.000001  -0.000114  -0.002297   0.000059   0.000112   0.000000
    19  C    0.000026  -0.000848  -0.000840  -0.002486  -0.000025  -0.000001
    20  H    0.000000   0.000003   0.000031  -0.000312  -0.000003   0.000000
    21  H    0.000000  -0.000021  -0.000161   0.000126   0.000011   0.000000
    22  H    0.000000   0.000001   0.000047   0.000026  -0.000001   0.000000
    23  H   -0.000015  -0.001082   0.000513  -0.001193  -0.000029   0.000000
    24  H    0.000004  -0.000607  -0.000374   0.000150   0.000004   0.000000
    25  H   -0.000001   0.000090   0.000003   0.000040   0.000000   0.000000
    26  H    0.000000  -0.000009  -0.000044   0.000003   0.000000   0.000000
    27  H    0.000000   0.000002  -0.000038  -0.000004   0.000000   0.000000
    28  H    0.000000   0.000001  -0.000012   0.000001   0.000000   0.000000
    29  H   -0.003566  -0.028961   0.004312  -0.000130  -0.000011  -0.000184
    30  H   -0.006466  -0.034126  -0.006937   0.000066  -0.000015   0.006501
    31  H    0.003612  -0.025758  -0.007749   0.000229  -0.000019  -0.000037
    32  H   -0.032055  -0.007572  -0.000150  -0.000004   0.000172   0.006107
    33  H   -0.030920  -0.003827   0.000024   0.000032  -0.000033  -0.000286
    34  H    0.004100  -0.000104   0.000001   0.000001  -0.000003  -0.000052
    35  H   -0.007792   0.000153  -0.000004   0.000040   0.000237   0.000069
    36  H   -0.005195   0.000087  -0.000002   0.000001  -0.000018   0.005733
    37  C   -0.001674  -0.056380   0.346613  -0.069584   0.001484   0.003708
    38  C    0.000016   0.004649  -0.037434  -0.006248  -0.001126  -0.000045
    39  C    0.000002   0.000005  -0.003077  -0.000322   0.000059   0.000002
    40  H    0.002371  -0.004555  -0.030219  -0.003718   0.004146   0.000856
    41  H   -0.000265  -0.007216  -0.024350   0.005414  -0.000126   0.000114
    42  H   -0.000035  -0.000070  -0.003474   0.000383   0.000916   0.000020
    43  H    0.000000   0.000003   0.000000   0.000007  -0.000003   0.000000
    44  H    0.000000  -0.000022  -0.000106   0.000033  -0.000001   0.000000
               7          8          9         10         11         12
     1  C   -0.041116  -0.000093   0.000190   0.167610   0.001632   0.378781
     2  C    0.377852  -0.007219   0.005607  -0.026229   0.000033  -0.035221
     3  C   -0.042389  -0.026965  -0.028721   0.001366   0.001090   0.004764
     4  C   -0.007187   0.363217   0.360077  -0.097833  -0.084049  -0.000809
     5  C    0.000609  -0.025325  -0.022785   0.255719   0.577376   0.001190
     6  H    0.006572   0.000040   0.000048  -0.042891   0.000111  -0.052561
     7  H    0.640612   0.004115   0.000076   0.000143  -0.000007  -0.009816
     8  H    0.004115   0.558427  -0.028872   0.000767   0.000115  -0.000037
     9  H    0.000076  -0.028872   0.560867   0.003207   0.001683   0.000008
    10  O    0.000143   0.000767   0.003207   8.334678  -0.075480  -0.045502
    11  O   -0.000007   0.000115   0.001683  -0.075480   8.078153  -0.000063
    12  C   -0.009816  -0.000037   0.000008  -0.045502  -0.000063   4.939433
    13  C    0.000084   0.000001   0.000000  -0.003387  -0.000007   0.361588
    14  C   -0.043712   0.000045  -0.000135   0.002288   0.000002  -0.005011
    15  O   -0.002486  -0.003285   0.000038  -0.000015  -0.000013  -0.000035
    16  Si  -0.002237   0.004281   0.000658  -0.000128  -0.000049  -0.000038
    17  C   -0.000009   0.000000  -0.000007   0.000000   0.000000   0.000000
    18  C   -0.000017  -0.001512  -0.000858   0.000000   0.000000   0.000000
    19  C    0.001824  -0.000008   0.000128   0.000003   0.000000  -0.000006
    20  H    0.000000   0.000044   0.000650   0.000000   0.000000   0.000000
    21  H   -0.000011   0.000830   0.000923   0.000000  -0.000003   0.000000
    22  H    0.000001   0.000036   0.000046   0.000000   0.000000   0.000000
    23  H    0.001844   0.003082  -0.000006  -0.000003   0.000000   0.000001
    24  H    0.001111  -0.000109   0.000000   0.000000   0.000000   0.000001
    25  H    0.000039  -0.000012   0.000000   0.000000   0.000000   0.000000
    26  H   -0.000006   0.000000   0.000000   0.000000   0.000000   0.000000
    27  H    0.000000   0.000001  -0.000001   0.000000   0.000000   0.000000
    28  H    0.000000   0.000001   0.000000   0.000000   0.000000   0.000000
    29  H   -0.005925  -0.000008   0.000003  -0.000006   0.000000   0.000897
    30  H    0.005691   0.000002   0.000004   0.000019   0.000000  -0.000395
    31  H   -0.002300   0.000007  -0.000005  -0.000045   0.000000   0.000064
    32  H    0.006750   0.000060   0.000001  -0.000515  -0.000011   0.376472
    33  H    0.000058  -0.000002   0.000000   0.002980   0.000001   0.378214
    34  H   -0.000007   0.000000   0.000000   0.000123   0.000000  -0.028058
    35  H    0.000001  -0.000001   0.000000   0.008191   0.000011  -0.033040
    36  H    0.000017   0.000000   0.000000  -0.000333   0.000000  -0.037622
    37  C    0.005624   0.005615  -0.009273  -0.002659   0.000293   0.000031
    38  C   -0.000116   0.000035   0.006524   0.000013  -0.000349  -0.000002
    39  C   -0.000001  -0.000008   0.000598  -0.000001   0.000005   0.000000
    40  H   -0.000014  -0.000048   0.000322   0.000863  -0.000330   0.000155
    41  H    0.000004  -0.000125   0.000022   0.000046   0.000002  -0.000023
    42  H    0.000004   0.000095   0.001107   0.000000   0.001363   0.000000
    43  H    0.000000   0.000000   0.000019   0.000000   0.000000   0.000000
    44  H    0.000000   0.000001   0.000006   0.000000   0.000000   0.000000
              13         14         15         16         17         18
     1  C   -0.039034  -0.035321   0.002740   0.000590   0.000000   0.000001
     2  C    0.004210   0.349759  -0.043011  -0.004916  -0.000089  -0.000114
     3  C   -0.000089  -0.030963   0.189377  -0.013668   0.001018  -0.002297
     4  C   -0.000006   0.005194  -0.026679   0.002208  -0.000057   0.000059
     5  C    0.000112   0.000461   0.001472  -0.000486   0.000000   0.000112
     6  H   -0.006204  -0.004905  -0.000047  -0.000071   0.000000   0.000000
     7  H    0.000084  -0.043712  -0.002486  -0.002237  -0.000009  -0.000017
     8  H    0.000001   0.000045  -0.003285   0.004281   0.000000  -0.001512
     9  H    0.000000  -0.000135   0.000038   0.000658  -0.000007  -0.000858
    10  O   -0.003387   0.002288  -0.000015  -0.000128   0.000000   0.000000
    11  O   -0.000007   0.000002  -0.000013  -0.000049   0.000000   0.000000
    12  C    0.361588  -0.005011  -0.000035  -0.000038   0.000000   0.000000
    13  C    4.932909   0.000060   0.000000   0.000003   0.000000   0.000000
    14  C    0.000060   4.969381  -0.006259   0.001011  -0.000023   0.000002
    15  O    0.000000  -0.006259   8.293480   0.335608  -0.018877  -0.016773
    16  Si   0.000003   0.001011   0.335608  11.852039   0.377477   0.368174
    17  C    0.000000  -0.000023  -0.018877   0.377477   5.118632  -0.032462
    18  C    0.000000   0.000002  -0.016773   0.368174  -0.032462   5.144756
    19  C    0.000000  -0.000092  -0.015762   0.366883  -0.031801  -0.035244
    20  H    0.000000   0.000000  -0.000610  -0.024886  -0.000984   0.378723
    21  H    0.000000   0.000000  -0.000395  -0.026915   0.001452   0.375169
    22  H    0.000000   0.000000   0.000551  -0.013358  -0.000990   0.369226
    23  H    0.000000  -0.000004  -0.000519  -0.029083   0.001482  -0.001480
    24  H    0.000000   0.000428  -0.000460  -0.027804  -0.001115   0.001333
    25  H    0.000000  -0.000004   0.000540  -0.014091  -0.000984  -0.000187
    26  H    0.000000  -0.000014  -0.000376  -0.025255   0.375262   0.001388
    27  H    0.000000  -0.000001  -0.000419  -0.024834   0.376826  -0.001212
    28  H    0.000000   0.000000   0.000478  -0.014932   0.373477  -0.000603
    29  H   -0.000143   0.378517   0.000171  -0.000163   0.000000   0.000000
    30  H   -0.000020   0.382752  -0.000014  -0.000278   0.000001   0.000000
    31  H    0.000002   0.380359   0.007618   0.003338  -0.000142   0.000010
    32  H   -0.040739   0.000032  -0.000001  -0.000046   0.000000   0.000000
    33  H   -0.037049   0.000525   0.000000  -0.000003   0.000000   0.000000
    34  H    0.380217  -0.000002   0.000000   0.000000   0.000000   0.000000
    35  H    0.389168  -0.000009   0.000000   0.000000   0.000000   0.000000
    36  H    0.386323  -0.000007   0.000000   0.000000   0.000000   0.000000
    37  C    0.000001  -0.009573  -0.060847  -0.002690  -0.000012   0.000034
    38  C    0.000000   0.000084  -0.001264   0.004030  -0.000024  -0.000310
    39  C    0.000000  -0.000007   0.001465   0.003725  -0.000039  -0.000193
    40  H    0.000001   0.000122   0.003709   0.000351   0.000000  -0.000001
    41  H    0.000000   0.002202  -0.001670   0.000504  -0.000011   0.000002
    42  H    0.000000  -0.000002  -0.000031  -0.000070   0.000000  -0.000007
    43  H    0.000000   0.000000   0.000013   0.000011   0.000000  -0.000002
    44  H    0.000000  -0.000004   0.000321   0.000312  -0.000006  -0.000004
              19         20         21         22         23         24
     1  C    0.000026   0.000000   0.000000   0.000000  -0.000015   0.000004
     2  C   -0.000848   0.000003  -0.000021   0.000001  -0.001082  -0.000607
     3  C   -0.000840   0.000031  -0.000161   0.000047   0.000513  -0.000374
     4  C   -0.002486  -0.000312   0.000126   0.000026  -0.001193   0.000150
     5  C   -0.000025  -0.000003   0.000011  -0.000001  -0.000029   0.000004
     6  H   -0.000001   0.000000   0.000000   0.000000   0.000000   0.000000
     7  H    0.001824   0.000000  -0.000011   0.000001   0.001844   0.001111
     8  H   -0.000008   0.000044   0.000830   0.000036   0.003082  -0.000109
     9  H    0.000128   0.000650   0.000923   0.000046  -0.000006   0.000000
    10  O    0.000003   0.000000   0.000000   0.000000  -0.000003   0.000000
    11  O    0.000000   0.000000  -0.000003   0.000000   0.000000   0.000000
    12  C   -0.000006   0.000000   0.000000   0.000000   0.000001   0.000001
    13  C    0.000000   0.000000   0.000000   0.000000   0.000000   0.000000
    14  C   -0.000092   0.000000   0.000000   0.000000  -0.000004   0.000428
    15  O   -0.015762  -0.000610  -0.000395   0.000551  -0.000519  -0.000460
    16  Si   0.366883  -0.024886  -0.026915  -0.013358  -0.029083  -0.027804
    17  C   -0.031801  -0.000984   0.001452  -0.000990   0.001482  -0.001115
    18  C   -0.035244   0.378723   0.375169   0.369226  -0.001480   0.001333
    19  C    5.149432   0.001283  -0.001670  -0.000080   0.374392   0.378363
    20  H    0.001283   0.568770  -0.022917  -0.023210   0.000006  -0.000024
    21  H   -0.001670  -0.022917   0.584111  -0.023655   0.000651   0.000007
    22  H   -0.000080  -0.023210  -0.023655   0.572151  -0.000020   0.000004
    23  H    0.374392   0.000006   0.000651  -0.000020   0.583615  -0.023705
    24  H    0.378363  -0.000024   0.000007   0.000004  -0.023705   0.575423
    25  H    0.370962   0.000015  -0.000033   0.000023  -0.022709  -0.022851
    26  H   -0.001260   0.000000  -0.000028   0.000018   0.000004   0.000632
    27  H    0.001380   0.000518   0.000007  -0.000054  -0.000028   0.000002
    28  H   -0.000653  -0.000025  -0.000001   0.000045   0.000001  -0.000042
    29  H    0.000000   0.000000   0.000000   0.000000   0.000001   0.000073
    30  H    0.000006   0.000000   0.000000   0.000000   0.000000  -0.000005
    31  H   -0.000290   0.000000   0.000000   0.000000  -0.000001   0.000223
    32  H   -0.000007   0.000000   0.000000   0.000000   0.000019   0.000002
    33  H    0.000000   0.000000   0.000000   0.000000   0.000000   0.000000
    34  H    0.000000   0.000000   0.000000   0.000000   0.000000   0.000000
    35  H    0.000000   0.000000   0.000000   0.000000   0.000000   0.000000
    36  H    0.000000   0.000000   0.000000   0.000000   0.000000   0.000000
    37  C   -0.000049   0.000012   0.000011   0.000001  -0.000005  -0.000005
    38  C    0.000002   0.000296  -0.000038   0.000002   0.000000   0.000000
    39  C    0.000001   0.000281  -0.000010   0.000000   0.000000   0.000000
    40  H    0.000002   0.000000  -0.000001   0.000000   0.000000   0.000000
    41  H   -0.000002   0.000001   0.000000   0.000000   0.000000   0.000000
    42  H    0.000000   0.000004  -0.000006   0.000000   0.000000   0.000000
    43  H    0.000000   0.000009   0.000000   0.000000   0.000000   0.000000
    44  H    0.000000  -0.000001   0.000000   0.000000   0.000000   0.000000
              25         26         27         28         29         30
     1  C   -0.000001   0.000000   0.000000   0.000000  -0.003566  -0.006466
     2  C    0.000090  -0.000009   0.000002   0.000001  -0.028961  -0.034126
     3  C    0.000003  -0.000044  -0.000038  -0.000012   0.004312  -0.006937
     4  C    0.000040   0.000003  -0.000004   0.000001  -0.000130   0.000066
     5  C    0.000000   0.000000   0.000000   0.000000  -0.000011  -0.000015
     6  H    0.000000   0.000000   0.000000   0.000000  -0.000184   0.006501
     7  H    0.000039  -0.000006   0.000000   0.000000  -0.005925   0.005691
     8  H   -0.000012   0.000000   0.000001   0.000001  -0.000008   0.000002
     9  H    0.000000   0.000000  -0.000001   0.000000   0.000003   0.000004
    10  O    0.000000   0.000000   0.000000   0.000000  -0.000006   0.000019
    11  O    0.000000   0.000000   0.000000   0.000000   0.000000   0.000000
    12  C    0.000000   0.000000   0.000000   0.000000   0.000897  -0.000395
    13  C    0.000000   0.000000   0.000000   0.000000  -0.000143  -0.000020
    14  C   -0.000004  -0.000014  -0.000001   0.000000   0.378517   0.382752
    15  O    0.000540  -0.000376  -0.000419   0.000478   0.000171  -0.000014
    16  Si  -0.014091  -0.025255  -0.024834  -0.014932  -0.000163  -0.000278
    17  C   -0.000984   0.375262   0.376826   0.373477   0.000000   0.000001
    18  C   -0.000187   0.001388  -0.001212  -0.000603   0.000000   0.000000
    19  C    0.370962  -0.001260   0.001380  -0.000653   0.000000   0.000006
    20  H    0.000015   0.000000   0.000518  -0.000025   0.000000   0.000000
    21  H   -0.000033  -0.000028   0.000007  -0.000001   0.000000   0.000000
    22  H    0.000023   0.000018  -0.000054   0.000045   0.000000   0.000000
    23  H   -0.022709   0.000004  -0.000028   0.000001   0.000001   0.000000
    24  H   -0.022851   0.000632   0.000002  -0.000042   0.000073  -0.000005
    25  H    0.566157  -0.000034   0.000012   0.000117   0.000000   0.000000
    26  H   -0.000034   0.579137  -0.022032  -0.023646   0.000000   0.000000
    27  H    0.000012  -0.022032   0.573305  -0.023558   0.000000   0.000000
    28  H    0.000117  -0.023646  -0.023558   0.567873   0.000000   0.000000
    29  H    0.000000   0.000000   0.000000   0.000000   0.601309  -0.031542
    30  H    0.000000   0.000000   0.000000   0.000000  -0.031542   0.594485
    31  H    0.000002   0.000234  -0.000003   0.000001  -0.029199  -0.027643
    32  H    0.000000   0.000000   0.000000   0.000000   0.000300   0.000042
    33  H    0.000000   0.000000   0.000000   0.000000   0.002974   0.000383
    34  H    0.000000   0.000000   0.000000   0.000000   0.000005   0.000000
    35  H    0.000000   0.000000   0.000000   0.000000   0.000000   0.000001
    36  H    0.000000   0.000000   0.000000   0.000000   0.000014  -0.000003
    37  C    0.000001  -0.000002   0.000006   0.000000   0.000061   0.002645
    38  C    0.000000   0.000000  -0.000002   0.000000  -0.000002  -0.000013
    39  C    0.000000  -0.000001   0.000000   0.000000   0.000000  -0.000003
    40  H    0.000000   0.000000   0.000000   0.000000  -0.000016   0.000143
    41  H    0.000000   0.000000  -0.000001   0.000000  -0.000073   0.002211
    42  H    0.000000   0.000000   0.000000   0.000000   0.000000   0.000001
    43  H    0.000000   0.000000   0.000000   0.000000   0.000000   0.000000
    44  H    0.000000  -0.000001   0.000016   0.000000   0.000000  -0.000001
              31         32         33         34         35         36
     1  C    0.003612  -0.032055  -0.030920   0.004100  -0.007792  -0.005195
     2  C   -0.025758  -0.007572  -0.003827  -0.000104   0.000153   0.000087
     3  C   -0.007749  -0.000150   0.000024   0.000001  -0.000004  -0.000002
     4  C    0.000229  -0.000004   0.000032   0.000001   0.000040   0.000001
     5  C   -0.000019   0.000172  -0.000033  -0.000003   0.000237  -0.000018
     6  H   -0.000037   0.006107  -0.000286  -0.000052   0.000069   0.005733
     7  H   -0.002300   0.006750   0.000058  -0.000007   0.000001   0.000017
     8  H    0.000007   0.000060  -0.000002   0.000000  -0.000001   0.000000
     9  H   -0.000005   0.000001   0.000000   0.000000   0.000000   0.000000
    10  O   -0.000045  -0.000515   0.002980   0.000123   0.008191  -0.000333
    11  O    0.000000  -0.000011   0.000001   0.000000   0.000011   0.000000
    12  C    0.000064   0.376472   0.378214  -0.028058  -0.033040  -0.037622
    13  C    0.000002  -0.040739  -0.037049   0.380217   0.389168   0.386323
    14  C    0.380359   0.000032   0.000525  -0.000002  -0.000009  -0.000007
[...]
    14  C   -0.000015   0.000000   0.000000   0.000000  -0.000002   0.000075
    15  O   -0.017021  -0.000715  -0.000387   0.000545  -0.000600  -0.000598
    16  Si   0.363386  -0.024179  -0.023471  -0.013825  -0.026844  -0.025405
    17  C   -0.028528  -0.001068   0.001211  -0.000752   0.001223  -0.001117
    18  C   -0.033322   0.377091   0.376545   0.367131  -0.001135   0.001212
    19  C    5.149976   0.001189  -0.001374  -0.000032   0.375810   0.377855
    20  H    0.001189   0.568289  -0.023552  -0.023151   0.000000  -0.000020
    21  H   -0.001374  -0.023552   0.575464  -0.024092   0.000548   0.000005
    22  H   -0.000032  -0.023151  -0.024092   0.575098  -0.000030   0.000002
    23  H    0.375810   0.000000   0.000548  -0.000030   0.577822  -0.023327
    24  H    0.377855  -0.000020   0.000005   0.000002  -0.023327   0.573921
    25  H    0.368261   0.000010  -0.000048   0.000041  -0.023618  -0.023761
    26  H   -0.001325  -0.000004  -0.000021   0.000010   0.000006   0.000517
    27  H    0.001186   0.000423   0.000006  -0.000035  -0.000021  -0.000002
    28  H   -0.000326  -0.000038  -0.000001   0.000025  -0.000001  -0.000042
    29  H    0.000000   0.000000   0.000000   0.000000   0.000000   0.000008
    30  H    0.000001   0.000000   0.000000   0.000000   0.000000   0.000000
    31  H   -0.000147   0.000000   0.000000   0.000000  -0.000001   0.000028
    32  H   -0.000001   0.000000   0.000000   0.000000   0.000001   0.000000
    33  H    0.000000   0.000000   0.000000   0.000000   0.000000   0.000000
    34  H    0.000000   0.000000   0.000000   0.000000   0.000000   0.000000
    35  H    0.000000   0.000000   0.000000   0.000000   0.000000   0.000000
    36  H    0.000000   0.000000   0.000000   0.000000   0.000000   0.000000
    37  C   -0.000052   0.000007   0.000022   0.000001  -0.000005  -0.000003
    38  C    0.000003   0.001160  -0.000054   0.000008   0.000001   0.000000
    39  C    0.000001   0.001199  -0.000017   0.000004   0.000000   0.000000
    40  H    0.000002   0.000002  -0.000001   0.000000   0.000000   0.000000
    41  H    0.000000   0.000002  -0.000001   0.000000   0.000000   0.000000
    42  H    0.000000   0.000036  -0.000013   0.000001   0.000000   0.000000
    43  H    0.000000   0.000077   0.000000   0.000000   0.000000   0.000000
    44  H    0.000000  -0.000006   0.000000   0.000000   0.000000   0.000000
              25         26         27         28         29         30
     1  C    0.000000   0.000000   0.000000   0.000000  -0.003058  -0.007031
     2  C    0.000020  -0.000001   0.000002   0.000000  -0.027895  -0.034157
     3  C   -0.000009  -0.000053  -0.000050  -0.000014   0.004126  -0.006345
     4  C    0.000055   0.000002  -0.000005   0.000002  -0.000134   0.000049
     5  C    0.000000   0.000000   0.000000   0.000000  -0.000009  -0.000011
     6  H    0.000000   0.000000   0.000000   0.000000  -0.000181   0.007167
     7  H    0.000012  -0.000007   0.000000   0.000000  -0.006263   0.005424
     8  H   -0.000027   0.000000   0.000001   0.000001  -0.000007   0.000003
     9  H    0.000000   0.000000   0.000000   0.000000   0.000002   0.000004
    10  O    0.000000   0.000000   0.000000   0.000000  -0.000015   0.000034
    11  O    0.000000   0.000000   0.000000   0.000000   0.000000   0.000000
    12  C    0.000000   0.000000   0.000000   0.000000   0.000552  -0.000433
    13  C    0.000000   0.000000   0.000000   0.000000  -0.000120  -0.000022
    14  C   -0.000001  -0.000024   0.000000   0.000000   0.379542   0.383195
    15  O    0.000552  -0.000592  -0.000556   0.000678   0.000107   0.000082
    16  Si  -0.013743  -0.023814  -0.022971  -0.014920  -0.000064  -0.000176
    17  C   -0.000643   0.376855   0.377670   0.368054   0.000000   0.000001
    18  C   -0.000130   0.001195  -0.001223  -0.000317   0.000000   0.000000
    19  C    0.368261  -0.001325   0.001186  -0.000326   0.000000   0.000001
    20  H    0.000010  -0.000004   0.000423  -0.000038   0.000000   0.000000
    21  H   -0.000048  -0.000021   0.000006  -0.000001   0.000000   0.000000
    22  H    0.000041   0.000010  -0.000035   0.000025   0.000000   0.000000
    23  H   -0.023618   0.000006  -0.000021  -0.000001   0.000000   0.000000
    24  H   -0.023761   0.000517  -0.000002  -0.000042   0.000008   0.000000
    25  H    0.571106  -0.000023   0.000008   0.000067   0.000000   0.000000
    26  H   -0.000023   0.574088  -0.022477  -0.024303   0.000000  -0.000001
    27  H    0.000008  -0.022477   0.568723  -0.024086   0.000000   0.000000
    28  H    0.000067  -0.024303  -0.024086   0.577645   0.000000   0.000000
    29  H    0.000000   0.000000   0.000000   0.000000   0.597308  -0.032118
    30  H    0.000000  -0.000001   0.000000   0.000000  -0.032118   0.595176
    31  H    0.000001   0.000367  -0.000007   0.000001  -0.027441  -0.027835
    32  H    0.000000   0.000000   0.000000   0.000000   0.000257   0.000048
    33  H    0.000000   0.000000   0.000000   0.000000   0.002819   0.000397
    34  H    0.000000   0.000000   0.000000   0.000000   0.000004   0.000000
    35  H    0.000000   0.000000   0.000000   0.000000   0.000000   0.000001
    36  H    0.000000   0.000000   0.000000   0.000000   0.000013  -0.000002
    37  C    0.000001  -0.000002   0.000012   0.000000   0.000097   0.002078
    38  C    0.000000   0.000000   0.000002   0.000000  -0.000002  -0.000007
    39  C    0.000000  -0.000002   0.000062  -0.000001   0.000000  -0.000003
    40  H    0.000000   0.000000   0.000000   0.000000  -0.000015   0.000077
    41  H    0.000000   0.000000   0.000000   0.000000  -0.000099   0.002084
    42  H    0.000000   0.000000   0.000000   0.000000   0.000000   0.000001
    43  H    0.000000   0.000000  -0.000001   0.000000   0.000000   0.000000
    44  H    0.000000  -0.000001   0.000068   0.000000   0.000000  -0.000002
              31         32         33         34         35         36
     1  C    0.003891  -0.033762  -0.034759   0.003872  -0.008055  -0.004701
     2  C   -0.029670  -0.007341  -0.003859  -0.000099   0.000170   0.000060
     3  C   -0.008550  -0.000178   0.000023   0.000001  -0.000004  -0.000002
     4  C    0.000326  -0.000005   0.000044   0.000001   0.000045   0.000000
     5  C   -0.000024   0.000378  -0.000042  -0.000003   0.000317  -0.000012
     6  H   -0.000008   0.006335  -0.000259  -0.000032   0.000089   0.005312
     7  H   -0.001640   0.006742   0.000064  -0.000005   0.000001   0.000014
     8  H    0.000006   0.000052  -0.000005   0.000000  -0.000002   0.000000
     9  H   -0.000006   0.000002   0.000000   0.000000   0.000000   0.000000
    10  O   -0.000047  -0.000568   0.003421   0.000115   0.009071  -0.000239
    11  O    0.000000  -0.000037   0.000001   0.000000   0.000019   0.000000
    12  C    0.000054   0.375651   0.374714  -0.027179  -0.033720  -0.036141
    13  C    0.000002  -0.038021  -0.035542   0.380606   0.388624   0.385748
    14  C    0.379520   0.000003   0.001004  -0.000001  -0.000009  -0.000006
    15  O    0.010435  -0.000002   0.000000   0.000000   0.000000   0.000000
    16  Si   0.002640  -0.000026  -0.000001   0.000000   0.000000   0.000000
    17  C   -0.000076   0.000000   0.000000   0.000000   0.000000   0.000000
    18  C    0.000009   0.000000   0.000000   0.000000   0.000000   0.000000
    19  C   -0.000147  -0.000001   0.000000   0.000000   0.000000   0.000000
    20  H    0.000000   0.000000   0.000000   0.000000   0.000000   0.000000
    21  H    0.000000   0.000000   0.000000   0.000000   0.000000   0.000000
    22  H    0.000000   0.000000   0.000000   0.000000   0.000000   0.000000
    23  H   -0.000001   0.000001   0.000000   0.000000   0.000000   0.000000
    24  H    0.000028   0.000000   0.000000   0.000000   0.000000   0.000000
    25  H    0.000001   0.000000   0.000000   0.000000   0.000000   0.000000
    26  H    0.000367   0.000000   0.000000   0.000000   0.000000   0.000000
    27  H   -0.000007   0.000000   0.000000   0.000000   0.000000   0.000000
    28  H    0.000001   0.000000   0.000000   0.000000   0.000000   0.000000
    29  H   -0.027441   0.000257   0.002819   0.000004   0.000000   0.000013
    30  H   -0.027835   0.000048   0.000397   0.000000   0.000001  -0.000002
    31  H    0.563991  -0.000018  -0.000030   0.000000   0.000000   0.000000
    32  H   -0.000018   0.615597  -0.031976  -0.003199  -0.003723   0.005136
    33  H   -0.000030  -0.031976   0.615158  -0.003435   0.004998  -0.004246
    34  H    0.000000  -0.003199  -0.003435   0.603203  -0.029974  -0.031205
    35  H    0.000000  -0.003723   0.004998  -0.029974   0.576895  -0.030592
    36  H    0.000000   0.005136  -0.004246  -0.031205  -0.030592   0.603747
    37  C   -0.000684   0.000008  -0.000003   0.000000   0.000000  -0.000001
    38  C   -0.000055   0.000000   0.000000   0.000000   0.000000   0.000000
    39  C    0.000000   0.000000   0.000000   0.000000   0.000000   0.000000
    40  H    0.000043  -0.000004  -0.000003   0.000000   0.000000  -0.000005
    41  H    0.001257   0.000000  -0.000001   0.000000   0.000000   0.000000
    42  H    0.000000   0.000000   0.000000   0.000000   0.000000   0.000000
    43  H    0.000000   0.000000   0.000000   0.000000   0.000000   0.000000
    44  H    0.000003   0.000000   0.000000   0.000000   0.000000   0.000000
              37         38         39         40         41         42
     1  C   -0.001272   0.000011   0.000004   0.002148  -0.000358  -0.000022
     2  C   -0.056846   0.004827  -0.000035  -0.004857  -0.008384  -0.000076
     3  C    0.342930  -0.037546  -0.002814  -0.031104  -0.026760  -0.003862
     4  C   -0.070460  -0.006586   0.000022  -0.003844   0.005774   0.000991
     5  C    0.001657  -0.000579   0.000020   0.002673  -0.000093   0.000533
     6  H    0.003980  -0.000044   0.000001   0.000045   0.000069   0.000010
     7  H    0.005967  -0.000126  -0.000001  -0.000044   0.000011   0.000003
     8  H    0.005715   0.000015  -0.000010  -0.000011  -0.000151   0.000044
     9  H   -0.008896   0.005378   0.000314   0.000265   0.000024   0.001731
    10  O   -0.003059   0.000001  -0.000001   0.002368   0.000063  -0.000006
    11  O    0.000198  -0.000098   0.000000  -0.000306   0.000001   0.000235
    12  C   -0.000011  -0.000001   0.000000   0.000194  -0.000018   0.000000
    13  C    0.000000   0.000000   0.000000   0.000002   0.000000   0.000000
    14  C   -0.009488   0.000068  -0.000009   0.000069   0.003082  -0.000001
    15  O   -0.063387  -0.000107   0.000934   0.003866  -0.001272  -0.000031
    16  Si  -0.003037   0.005437   0.004855   0.000400   0.000397  -0.000185
    17  C   -0.000010  -0.000091  -0.000120   0.000000  -0.000017   0.000000
    18  C    0.000057  -0.000768  -0.000602  -0.000003   0.000003   0.000000
    19  C   -0.000052   0.000003   0.000001   0.000002   0.000000   0.000000
    20  H    0.000007   0.001160   0.001199   0.000002   0.000002   0.000036
    21  H    0.000022  -0.000054  -0.000017  -0.000001  -0.000001  -0.000013
    22  H    0.000001   0.000008   0.000004   0.000000   0.000000   0.000001
    23  H   -0.000005   0.000001   0.000000   0.000000   0.000000   0.000000
    24  H   -0.000003   0.000000   0.000000   0.000000   0.000000   0.000000
    25  H    0.000001   0.000000   0.000000   0.000000   0.000000   0.000000
    26  H   -0.000002   0.000000  -0.000002   0.000000   0.000000   0.000000
    27  H    0.000012   0.000002   0.000062   0.000000   0.000000   0.000000
    28  H    0.000000   0.000000  -0.000001   0.000000   0.000000   0.000000
    29  H    0.000097  -0.000002   0.000000  -0.000015  -0.000099   0.000000
    30  H    0.002078  -0.000007  -0.000003   0.000077   0.002084   0.000001
    31  H   -0.000684  -0.000055   0.000000   0.000043   0.001257   0.000000
    32  H    0.000008   0.000000   0.000000  -0.000004   0.000000   0.000000
    33  H   -0.000003   0.000000   0.000000  -0.000003  -0.000001   0.000000
    34  H    0.000000   0.000000   0.000000   0.000000   0.000000   0.000000
    35  H    0.000000   0.000000   0.000000   0.000000   0.000000   0.000000
    36  H   -0.000001   0.000000   0.000000  -0.000005   0.000000   0.000000
    37  C    5.062530   0.384155  -0.035874   0.356117   0.373707  -0.050976
    38  C    0.384155   4.748067   0.672874  -0.032711  -0.037521   0.381594
    39  C   -0.035874   0.672874   4.906175   0.001585  -0.007784  -0.044573
    40  H    0.356117  -0.032711   0.001585   0.625296  -0.030847  -0.003095
    41  H    0.373707  -0.037521  -0.007784  -0.030847   0.599701   0.004964
    42  H   -0.050976   0.381594  -0.044573  -0.003095   0.004964   0.615583
    43  H    0.004730  -0.025426   0.375291  -0.000207   0.000076  -0.008640
    44  H   -0.012297  -0.034346   0.381980   0.000148   0.006644   0.005921
              43         44
     1  C    0.000000   0.000000
     2  C    0.000002  -0.000019
     3  C    0.000000  -0.000021
     4  C    0.000004   0.000024
     5  C   -0.000001   0.000000
     6  H    0.000000   0.000000
     7  H    0.000000   0.000000
     8  H    0.000000   0.000001
     9  H    0.000014   0.000005
    10  O    0.000000   0.000000
    11  O    0.000000   0.000000
    12  C    0.000000   0.000000
    13  C    0.000000   0.000000
    14  C    0.000000  -0.000006
    15  O    0.000006   0.000114
    16  Si   0.000010   0.000230
    17  C    0.000000  -0.000009
    18  C   -0.000013  -0.000004
    19  C    0.000000   0.000000
    20  H    0.000077  -0.000006
    21  H    0.000000   0.000000
    22  H    0.000000   0.000000
    23  H    0.000000   0.000000
    24  H    0.000000   0.000000
    25  H    0.000000   0.000000
    26  H    0.000000  -0.000001
    27  H   -0.000001   0.000068
    28  H    0.000000   0.000000
    29  H    0.000000   0.000000
    30  H    0.000000  -0.000002
    31  H    0.000000   0.000003
    32  H    0.000000   0.000000
    33  H    0.000000   0.000000
    34  H    0.000000   0.000000
    35  H    0.000000   0.000000
    36  H    0.000000   0.000000
    37  C    0.004730  -0.012297
    38  C   -0.025426  -0.034346
    39  C    0.375291   0.381980
    40  H   -0.000207   0.000148
    41  H    0.000076   0.006644
    42  H   -0.008640   0.005921
    43  H    0.593458  -0.043872
    44  H   -0.043872   0.592730
 Mulliken charges:
               1
     1  C    0.179100
     2  C   -0.093546
     3  C    0.316296
     4  C   -0.311269
     5  C    0.590389
     6  H    0.113067
     7  H    0.102116
     8  H    0.151296
     9  H    0.146630
    10  O   -0.485431
    11  O   -0.499749
    12  C   -0.187333
    13  C   -0.328730
    14  C   -0.339342
    15  O   -0.644471
    16  Si   0.906115
    17  C   -0.534360
    18  C   -0.550458
    19  C   -0.555001
    20  H    0.123019
    21  H    0.117909
    22  H    0.118951
    23  H    0.117694
    24  H    0.120113
    25  H    0.121867
    26  H    0.119609
    27  H    0.123271
    28  H    0.117575
    29  H    0.112586
    30  H    0.112323
    31  H    0.133665
    32  H    0.108650
    33  H    0.111519
    34  H    0.107330
    35  H    0.125850
    36  H    0.107122
    37  C   -0.227609
    38  C   -0.027534
    39  C   -0.253474
    40  H    0.111759
    41  H    0.115447
    42  H    0.099832
    43  H    0.104492
    44  H    0.102713
 Sum of Mulliken charges =   0.00000
 Mulliken charges with hydrogens summed into heavy atoms:
               1
     1  C    0.292166
     2  C    0.008570
     3  C    0.316296
     4  C   -0.013342
     5  C    0.590389
    10  O   -0.485431
    11  O   -0.499749
    12  C    0.032836
    13  C    0.011573
    14  C    0.019232
    15  O   -0.644471
    16  Si   0.906115
    17  C   -0.173904
    18  C   -0.190580
    19  C   -0.195325
    37  C   -0.000403
    38  C    0.072298
    39  C   -0.046269
 Electronic spatial extent (au):  <R**2>=           5577.3588
 Charge=              0.0000 electrons
 Dipole moment (field-independent basis, Debye):
    X=              1.7596    Y=             -3.3927    Z=             -2.8954  Tot=              4.7948
 Quadrupole moment (field-independent basis, Debye-Ang):
   XX=           -118.8971   YY=           -119.5383   ZZ=           -124.1742
   XY=              7.7025   XZ=             11.8231   YZ=             -6.9642
 Traceless Quadrupole moment (field-independent basis, Debye-Ang):
   XX=              1.9728   YY=              1.3315   ZZ=             -3.3043
   XY=              7.7025   XZ=             11.8231   YZ=             -6.9642
 Octapole moment (field-independent basis, Debye-Ang**2):
  XXX=              8.6087  YYY=             -5.8294  ZZZ=            -18.2770  XYY=             10.8545
  XXY=            -22.6347  XXZ=            -17.6408  XZZ=             14.5795  YZZ=            -19.6917
  YYZ=             -8.8142  XYZ=             10.7492
 Hexadecapole moment (field-independent basis, Debye-Ang**3):
 XXXX=          -4447.4866 YYYY=          -1784.6181 ZZZZ=          -1287.3001 XXXY=             29.8844
 XXXZ=             55.2522 YYYX=             35.1888 YYYZ=             21.4819 ZZZX=             21.7111
 ZZZY=            -36.2961 XXYY=          -1021.6890 XXZZ=           -984.3489 YYZZ=           -547.9358
 XXYZ=            -51.3046 YYXZ=             19.9297 ZZXY=             36.9056
 N-N= 1.621524493402D+03 E-N=-5.733389780453D+03  KE= 1.055902443106D+03
 1\1\GINC-CPU-E-532\FOpt\RB3LYP\6-31G(d,p)\C14H26O3Si1\KE291\06-Feb-201
 9\0\\# b3lyp/6-31g(d,p) Opt=(maxcycles=25) scrf=(solvent=chloroform)\\
 P_ng_correct1ginp009\\0,1\C,0.9449000261,-0.4838526329,0.3432744254\C,
 -0.5838190103,-0.5139803683,0.5171084413\C,-1.0829393704,0.6352044412,
 1.4404026865\C,-0.6136800827,1.9463708976,0.7913627024\C,0.8742147246,
 2.0071517664,0.5100327442\H,1.4124786495,-0.9087005928,1.2409205212\H,
 -1.0412000961,-0.3151913902,-0.4618873057\H,-1.1097840695,2.0611863584
 ,-0.180383286\H,-0.869964639,2.8233884825,1.3864339891\O,1.5197629036,
 0.8578235762,0.2315646357\O,1.4939801483,3.0497761626,0.4748383454\C,1
 .4386093589,-1.2500018074,-0.886612327\C,2.9643402225,-1.3236533057,-0
 .9973985925\C,-1.0455377234,-1.9054702618,0.978094858\O,-2.4985481833,
 0.56305349,1.5249441958\Si,-3.8306081889,1.3180260272,0.8335515792\C,-
 5.2883779535,0.3851405426,1.5696977246\C,-3.9259916807,3.1412117414,1.
 3092911626\C,-3.8465227215,1.1423703765,-1.0477871734\H,-3.8234472529,
 3.2664959334,2.3920211428\H,-3.1528076391,3.7458703737,0.8248228031\H,
 -4.897896756,3.5544146792,1.0149483402\H,-3.033184148,1.6896947558,-1.
 5358432466\H,-3.7754293816,0.0924005102,-1.3512545248\H,-4.7874408026,
 1.5387862598,-1.4475396636\H,-5.2541820647,-0.6760055915,1.3017557524\
 H,-5.2906916974,0.4557557996,2.6622119677\H,-6.2379796804,0.7925413265
 ,1.2050750432\H,-0.9156098707,-2.6483246433,0.1872246972\H,-0.48660131
 53,-2.2525234361,1.8533354299\H,-2.1047071469,-1.8750770142,1.24075777
 73\H,1.0158339722,-0.7717665062,-1.7790932745\H,1.0261033644,-2.263588
 0074,-0.845926045\H,3.2584745251,-1.8837214433,-1.8900855204\H,3.40423
 26011,-0.3254475755,-1.0610803683\H,3.3991162,-1.8293454273,-0.1279448
 583\C,-0.5447073572,0.4902838096,2.8922020693\C,-0.9229681169,1.608323
 3621,3.8261899892\C,-1.7618445667,1.484320568,4.8558371976\H,0.5501417
 735,0.4140247779,2.8566305938\H,-0.9214406594,-0.4557060588,3.29103768
 07\H,-0.4511315012,2.574701364,3.6499230874\H,-1.9874625155,2.32028888
 9,5.511583012\H,-2.2483222781,0.5387637913,5.0836085907\\Version=ES64L
 -G09RevD.01\State=1-A\HF=-1064.423561\RMSD=6.075e-09\RMSF=4.126e-06\Di
 pole=-1.2503612,-1.401558,-0.1754983\Quadrupole=-4.3330924,0.239942,4.
 0931503,-10.5641558,2.3203472,2.583464\PG=C01 [X(C14H26O3Si1)]\\@


 WHERE THERE IS MUCH DESIRE TO LEARN, THERE OF NECESSITY WILL BE
 MUCH ARGUING, MUCH WRITING, MANY OPINIONS; FOR OPINION IN GOOD MEN
 IS BUT KNOWLEDGE IN THE MAKING. -- JOHN MILTON.
 Job cpu time:       0 days  2 hours 46 minutes 54.0 seconds.
 File lengths (MBytes):  RWF=    381 Int=      0 D2E=      0 Chk=     17 Scr=      1
 Normal termination of Gaussian 09 at Wed Feb  6 11:34:28 2019.
