 Entering Gaussian System, Link 0=/usr/local/Cluster-Apps/gaussian/g09/g09
 Initial command:
 /usr/local/Cluster-Apps/gaussian/g09/l1.exe "/home/ke291/rds/hpc-work/06Feb0927IP1/Gau-371401.inp" -scrdir="/home/ke291/rds/hpc-work/06Feb0927IP1/"
 Entering Link 1 = /usr/local/Cluster-Apps/gaussian/g09/l1.exe PID=    371411.
  
 Copyright (c) 1988,1990,1992,1993,1995,1998,2003,2009,2013,
            Gaussian, Inc.  All Rights Reserved.
  
 This is part of the Gaussian(R) 09 program.  It is based on
 the Gaussian(R) 03 system (copyright 2003, Gaussian, Inc.),
 the Gaussian(R) 98 system (copyright 1998, Gaussian, Inc.),
 the Gaussian(R) 94 system (copyright 1995, Gaussian, Inc.),
 the Gaussian 92(TM) system (copyright 1992, Gaussian, Inc.),
 the Gaussian 90(TM) system (copyright 1990, Gaussian, Inc.),
 the Gaussian 88(TM) system (copyright 1988, Gaussian, Inc.),
 the Gaussian 86(TM) system (copyright 1986, Carnegie Mellon
 University), and the Gaussian 82(TM) system (copyright 1983,
 Carnegie Mellon University). Gaussian is a federally registered
 trademark of Gaussian, Inc.
  
 This software contains proprietary and confidential information,
 including trade secrets, belonging to Gaussian, Inc.
  
 This software is provided under written license and may be
 used, copied, transmitted, or stored only in accord with that
 written license.
  
 The following legend is applicable only to US Government
 contracts under FAR:
  
                    RESTRICTED RIGHTS LEGEND
  
 Use, reproduction and disclosure by the US Government is
 subject to restrictions as set forth in subparagraphs (a)
 and (c) of the Commercial Computer Software - Restricted
 Rights clause in FAR 52.227-19.
  
 Gaussian, Inc.
 340 Quinnipiac St., Bldg. 40, Wallingford CT 06492
  
  
 ---------------------------------------------------------------
 Warning -- This program may not be used in any manner that
 competes with the business of Gaussian, Inc. or will provide
 assistance to any competitor of Gaussian, Inc.  The licensee
 of this program is prohibited from giving any competitor of
 Gaussian, Inc. access to this program.  By using this program,
 the user acknowledges that Gaussian, Inc. is engaged in the
 business of creating and licensing software in the field of
 computational chemistry and represents and warrants to the
 licensee that it is not a competitor of Gaussian, Inc. and that
 it will not use this program in any manner prohibited above.
 ---------------------------------------------------------------
  

 Cite this work as:
 Gaussian 09, Revision D.01,
 M. J. Frisch, G. W. Trucks, H. B. Schlegel, G. E. Scuseria, 
 M. A. Robb, J. R. Cheeseman, G. Scalmani, V. Barone, B. Mennucci, 
 G. A. Petersson, H. Nakatsuji, M. Caricato, X. Li, H. P. Hratchian, 
 A. F. Izmaylov, J. Bloino, G. Zheng, J. L. Sonnenberg, M. Hada, 
 M. Ehara, K. Toyota, R. Fukuda, J. Hasegawa, M. Ishida, T. Nakajima, 
 Y. Honda, O. Kitao, H. Nakai, T. Vreven, J. A. Montgomery, Jr., 
 J. E. Peralta, F. Ogliaro, M. Bearpark, J. J. Heyd, E. Brothers, 
 K. N. Kudin, V. N. Staroverov, T. Keith, R. Kobayashi, J. Normand, 
 K. Raghavachari, A. Rendell, J. C. Burant, S. S. Iyengar, J. Tomasi, 
 M. Cossi, N. Rega, J. M. Millam, M. Klene, J. E. Knox, J. B. Cross, 
 V. Bakken, C. Adamo, J. Jaramillo, R. Gomperts, R. E. Stratmann, 
 O. Yazyev, A. J. Austin, R. Cammi, C. Pomelli, J. W. Ochterski, 
 R. L. Martin, K. Morokuma, V. G. Zakrzewski, G. A. Voth, 
 P. Salvador, J. J. Dannenberg, S. Dapprich, A. D. Daniels, 
 O. Farkas, J. B. Foresman, J. V. Ortiz, J. Cioslowski, 
 and D. J. Fox, Gaussian, Inc., Wallingford CT, 2013.
 
 ******************************************
 Gaussian 09:  ES64L-G09RevD.01 24-Apr-2013
                 6-Feb-2019 
 ******************************************
 %nprocshared=2
 Will use up to    2 processors via shared memory.
 %mem=6000MB
 %chk=/home/ke291/rds/hpc-work/06Feb0927IP1/P_ng_correct1ginp017.chk
 ---------------------------------------------------------------
 # b3lyp/6-31g(d,p) Opt=(maxcycles=25) scrf=(solvent=chloroform)
 ---------------------------------------------------------------
 1/6=25,14=-1,18=20,19=15,26=3,38=1/1,3;
 2/9=110,12=2,17=6,18=5,40=1/2;
 3/5=1,6=6,7=101,11=2,16=1,25=1,30=1,70=2201,71=1,72=7,74=-5/1,2,3;
 4//1;
 5/5=2,38=5,53=7/2;
 6/7=2,8=2,9=2,10=2,28=1/1;
 7//1,2,3,16;
 1/6=25,14=-1,18=20,19=15,26=3/3(2);
 2/9=110/2;
 99//99;
 2/9=110/2;
 3/5=1,6=6,7=101,11=2,16=1,25=1,30=1,70=2205,71=1,72=7,74=-5/1,2,3;
 4/5=5,16=3,69=1/1;
 5/5=2,38=5,53=7/2;
 7//1,2,3,16;
 1/6=25,14=-1,18=20,19=15,26=3/3(-5);
 2/9=110/2;
 6/7=2,8=2,9=2,10=2,19=2,28=1/1;
 99/9=1/99;
 --------------------
 P_ng_correct1ginp017
 --------------------
 Symbolic Z-matrix:
 Charge =  0 Multiplicity = 1
 C                     0.83138  -0.41045   0.50931 
 C                     0.24582  -0.15143   1.91302 
 C                    -0.81174   0.99871   1.87616 
 C                    -0.1597    2.2235    1.22468 
 C                     0.5827    1.94704  -0.05349 
 H                     1.72948  -1.02917   0.63511 
 H                    -0.24097  -1.07959   2.24189 
 H                    -0.90697   2.99408   1.01029 
 H                     0.56732   2.68415   1.90489 
 O                     1.28785   0.79909  -0.12696 
 O                     0.67208   2.79985  -0.93269 
 C                    -0.08737  -1.17302  -0.45913 
 C                     0.67698  -1.6988   -1.67033 
 C                     1.42018   0.10717   2.87881 
 O                    -1.93026   0.47157   1.13072 
 Si                   -3.25995   1.25835   0.48136 
 C                    -3.99845   2.59412   1.56681 
 C                    -2.8554    2.01608  -1.19259 
 C                    -4.61854  -0.02898   0.18784 
 H                    -2.37601   1.28012  -1.84426 
 H                    -3.76948   2.36346  -1.68355 
 H                    -2.18537   2.87276  -1.08526 
 H                    -5.49882   0.44     -0.26101 
 H                    -4.25841  -0.81252  -0.48507 
 H                    -4.91285  -0.49076   1.1347 
 H                    -4.89244   3.01443   1.09552 
 H                    -4.29315   2.19052   2.53979 
 H                    -3.29145   3.41306   1.72588 
 H                     2.12945  -0.72813   2.84943 
 H                     1.97467   1.01502   2.62373 
 H                     1.08867   0.18798   3.91638 
 H                    -0.87486  -0.52243  -0.84597 
 H                    -0.55954  -2.01829   0.05337 
 H                    -0.00131  -2.24076  -2.33705 
 H                     1.12863  -0.88116  -2.24078 
 H                     1.4716   -2.38679  -1.36466 
 C                    -1.28174   1.38173   3.32092 
 C                    -1.91991   0.25692   4.09771 
 C                    -1.54766  -0.11955   5.32763 
 H                    -2.01749   2.18895   3.26975 
 H                    -0.44438   1.80496   3.88962 
 H                    -2.74516  -0.26661   3.61802 
 H                    -2.05512  -0.93544   5.83412 
 H                    -0.73912   0.37206   5.8594 
 

 GradGradGradGradGradGradGradGradGradGradGradGradGradGradGradGradGradGrad
 Berny optimization.
 Initialization pass.
                           ----------------------------
                           !    Initial Parameters    !
                           ! (Angstroms and Degrees)  !
 --------------------------                            --------------------------
 ! Name  Definition              Value          Derivative Info.                !
 --------------------------------------------------------------------------------
 ! R1    R(1,2)                  1.5428         estimate D2E/DX2                !
 ! R2    R(1,6)                  1.0978         estimate D2E/DX2                !
 ! R3    R(1,10)                 1.4409         estimate D2E/DX2                !
 ! R4    R(1,12)                 1.5374         estimate D2E/DX2                !
 ! R5    R(2,3)                  1.5629         estimate D2E/DX2                !
 ! R6    R(2,7)                  1.0985         estimate D2E/DX2                !
 ! R7    R(2,14)                 1.5423         estimate D2E/DX2                !
 ! R8    R(3,4)                  1.5329         estimate D2E/DX2                !
 ! R9    R(3,15)                 1.4438         estimate D2E/DX2                !
 ! R10   R(3,37)                 1.5668         estimate D2E/DX2                !
 ! R11   R(4,5)                  1.5038         estimate D2E/DX2                !
 ! R12   R(4,8)                  1.0946         estimate D2E/DX2                !
 ! R13   R(4,9)                  1.097          estimate D2E/DX2                !
 ! R14   R(5,10)                 1.3492         estimate D2E/DX2                !
 ! R15   R(5,11)                 1.2281         estimate D2E/DX2                !
 ! R16   R(12,13)                1.5257         estimate D2E/DX2                !
 ! R17   R(12,32)                1.0923         estimate D2E/DX2                !
 ! R18   R(12,33)                1.0955         estimate D2E/DX2                !
 ! R19   R(13,34)                1.0947         estimate D2E/DX2                !
 ! R20   R(13,35)                1.0945         estimate D2E/DX2                !
 ! R21   R(13,36)                1.0946         estimate D2E/DX2                !
 ! R22   R(14,29)                1.0962         estimate D2E/DX2                !
 ! R23   R(14,30)                1.0939         estimate D2E/DX2                !
 ! R24   R(14,31)                1.0922         estimate D2E/DX2                !
 ! R25   R(15,16)                1.6759         estimate D2E/DX2                !
 ! R26   R(16,17)                1.8729         estimate D2E/DX2                !
 ! R27   R(16,18)                1.8815         estimate D2E/DX2                !
 ! R28   R(16,19)                1.8945         estimate D2E/DX2                !
 ! R29   R(17,26)                1.0945         estimate D2E/DX2                !
 ! R30   R(17,27)                1.0938         estimate D2E/DX2                !
 ! R31   R(17,28)                1.0935         estimate D2E/DX2                !
 ! R32   R(18,20)                1.0937         estimate D2E/DX2                !
 ! R33   R(18,21)                1.0942         estimate D2E/DX2                !
 ! R34   R(18,22)                1.0929         estimate D2E/DX2                !
 ! R35   R(19,23)                1.0938         estimate D2E/DX2                !
 ! R36   R(19,24)                1.0938         estimate D2E/DX2                !
 ! R37   R(19,25)                1.0938         estimate D2E/DX2                !
 ! R38   R(37,38)                1.5086         estimate D2E/DX2                !
 ! R39   R(37,40)                1.0934         estimate D2E/DX2                !
 ! R40   R(37,41)                1.0971         estimate D2E/DX2                !
 ! R41   R(38,39)                1.339          estimate D2E/DX2                !
 ! R42   R(38,42)                1.0887         estimate D2E/DX2                !
 ! R43   R(39,43)                1.0861         estimate D2E/DX2                !
 ! R44   R(39,44)                1.0854         estimate D2E/DX2                !
 ! A1    A(2,1,6)              107.5086         estimate D2E/DX2                !
 ! A2    A(2,1,10)             112.3996         estimate D2E/DX2                !
 ! A3    A(2,1,12)             115.4415         estimate D2E/DX2                !
 ! A4    A(6,1,10)             105.3391         estimate D2E/DX2                !
 ! A5    A(6,1,12)             106.3507         estimate D2E/DX2                !
 ! A6    A(10,1,12)            109.1193         estimate D2E/DX2                !
 ! A7    A(1,2,3)              111.0331         estimate D2E/DX2                !
 ! A8    A(1,2,7)              107.3812         estimate D2E/DX2                !
 ! A9    A(1,2,14)             107.9921         estimate D2E/DX2                !
 ! A10   A(3,2,7)              109.2087         estimate D2E/DX2                !
 ! A11   A(3,2,14)             113.9926         estimate D2E/DX2                !
 ! A12   A(7,2,14)             106.9552         estimate D2E/DX2                !
 ! A13   A(2,3,4)              108.0707         estimate D2E/DX2                !
 ! A14   A(2,3,15)             105.5281         estimate D2E/DX2                !
 ! A15   A(2,3,37)             111.1698         estimate D2E/DX2                !
 ! A16   A(4,3,15)             113.6923         estimate D2E/DX2                !
 ! A17   A(4,3,37)             108.915          estimate D2E/DX2                !
 ! A18   A(15,3,37)            109.4471         estimate D2E/DX2                !
 ! A19   A(3,4,5)              115.1097         estimate D2E/DX2                !
 ! A20   A(3,4,8)              110.8143         estimate D2E/DX2                !
 ! A21   A(3,4,9)              110.7258         estimate D2E/DX2                !
 ! A22   A(5,4,8)              107.4564         estimate D2E/DX2                !
 ! A23   A(5,4,9)              106.084          estimate D2E/DX2                !
 ! A24   A(8,4,9)              106.157          estimate D2E/DX2                !
 ! A25   A(4,5,10)             117.4337         estimate D2E/DX2                !
 ! A26   A(4,5,11)             121.1154         estimate D2E/DX2                !
 ! A27   A(10,5,11)            120.9169         estimate D2E/DX2                !
 ! A28   A(1,10,5)             121.6407         estimate D2E/DX2                !
 ! A29   A(1,12,13)            111.8165         estimate D2E/DX2                !
 ! A30   A(1,12,32)            111.0084         estimate D2E/DX2                !
 ! A31   A(1,12,33)            110.2189         estimate D2E/DX2                !
 ! A32   A(13,12,32)           106.5775         estimate D2E/DX2                !
 ! A33   A(13,12,33)           108.7495         estimate D2E/DX2                !
 ! A34   A(32,12,33)           108.3318         estimate D2E/DX2                !
 ! A35   A(12,13,34)           110.1025         estimate D2E/DX2                !
 ! A36   A(12,13,35)           111.2878         estimate D2E/DX2                !
 ! A37   A(12,13,36)           111.0138         estimate D2E/DX2                !
 ! A38   A(34,13,35)           107.9454         estimate D2E/DX2                !
 ! A39   A(34,13,36)           107.982          estimate D2E/DX2                !
 ! A40   A(35,13,36)           108.3923         estimate D2E/DX2                !
 ! A41   A(2,14,29)            110.3719         estimate D2E/DX2                !
 ! A42   A(2,14,30)            112.2767         estimate D2E/DX2                !
 ! A43   A(2,14,31)            112.0959         estimate D2E/DX2                !
 ! A44   A(29,14,30)           107.347          estimate D2E/DX2                !
 ! A45   A(29,14,31)           106.1541         estimate D2E/DX2                !
 ! A46   A(30,14,31)           108.2973         estimate D2E/DX2                !
 ! A47   A(3,15,16)            130.037          estimate D2E/DX2                !
 ! A48   A(15,16,17)           115.0307         estimate D2E/DX2                !
 ! A49   A(15,16,18)           111.2967         estimate D2E/DX2                !
 ! A50   A(15,16,19)           108.0589         estimate D2E/DX2                !
 ! A51   A(17,16,18)           108.251          estimate D2E/DX2                !
 ! A52   A(17,16,19)           106.9565         estimate D2E/DX2                !
 ! A53   A(18,16,19)           106.8588         estimate D2E/DX2                !
 ! A54   A(16,17,26)           110.2663         estimate D2E/DX2                !
 ! A55   A(16,17,27)           111.0141         estimate D2E/DX2                !
 ! A56   A(16,17,28)           111.314          estimate D2E/DX2                !
 ! A57   A(26,17,27)           107.7374         estimate D2E/DX2                !
 ! A58   A(26,17,28)           107.6457         estimate D2E/DX2                !
 ! A59   A(27,17,28)           108.7313         estimate D2E/DX2                !
 ! A60   A(16,18,20)           110.6938         estimate D2E/DX2                !
 ! A61   A(16,18,21)           110.3306         estimate D2E/DX2                !
 ! A62   A(16,18,22)           111.109          estimate D2E/DX2                !
 ! A63   A(20,18,21)           108.2071         estimate D2E/DX2                !
 ! A64   A(20,18,22)           108.4984         estimate D2E/DX2                !
 ! A65   A(21,18,22)           107.9014         estimate D2E/DX2                !
 ! A66   A(16,19,23)           110.4491         estimate D2E/DX2                !
 ! A67   A(16,19,24)           110.2401         estimate D2E/DX2                !
 ! A68   A(16,19,25)           110.2249         estimate D2E/DX2                !
 ! A69   A(23,19,24)           108.6431         estimate D2E/DX2                !
 ! A70   A(23,19,25)           108.6461         estimate D2E/DX2                !
 ! A71   A(24,19,25)           108.5856         estimate D2E/DX2                !
 ! A72   A(3,37,38)            114.798          estimate D2E/DX2                !
 ! A73   A(3,37,40)            109.8267         estimate D2E/DX2                !
 ! A74   A(3,37,41)            110.0796         estimate D2E/DX2                !
 ! A75   A(38,37,40)           106.8516         estimate D2E/DX2                !
 ! A76   A(38,37,41)           110.0946         estimate D2E/DX2                !
 ! A77   A(40,37,41)           104.6572         estimate D2E/DX2                !
 ! A78   A(37,38,39)           124.401          estimate D2E/DX2                !
 ! A79   A(37,38,42)           116.8933         estimate D2E/DX2                !
 ! A80   A(39,38,42)           118.7014         estimate D2E/DX2                !
 ! A81   A(38,39,43)           120.6389         estimate D2E/DX2                !
 ! A82   A(38,39,44)           121.9872         estimate D2E/DX2                !
 ! A83   A(43,39,44)           117.3733         estimate D2E/DX2                !
 ! D1    D(6,1,2,3)            165.8277         estimate D2E/DX2                !
 ! D2    D(6,1,2,7)            -74.8497         estimate D2E/DX2                !
 ! D3    D(6,1,2,14)            40.1712         estimate D2E/DX2                !
 ! D4    D(10,1,2,3)            50.3576         estimate D2E/DX2                !
 ! D5    D(10,1,2,7)           169.6802         estimate D2E/DX2                !
 ! D6    D(10,1,2,14)          -75.299          estimate D2E/DX2                !
 ! D7    D(12,1,2,3)           -75.6848         estimate D2E/DX2                !
 ! D8    D(12,1,2,7)            43.6378         estimate D2E/DX2                !
 ! D9    D(12,1,2,14)          158.6586         estimate D2E/DX2                !
 ! D10   D(2,1,10,5)           -41.3767         estimate D2E/DX2                !
 ! D11   D(6,1,10,5)          -158.151          estimate D2E/DX2                !
 ! D12   D(12,1,10,5)           88.0176         estimate D2E/DX2                !
 ! D13   D(2,1,12,13)         -165.2267         estimate D2E/DX2                !
 ! D14   D(2,1,12,32)           75.896          estimate D2E/DX2                !
 ! D15   D(2,1,12,33)          -44.1358         estimate D2E/DX2                !
 ! D16   D(6,1,12,13)          -46.0984         estimate D2E/DX2                !
 ! D17   D(6,1,12,32)         -164.9757         estimate D2E/DX2                !
 ! D18   D(6,1,12,33)           74.9925         estimate D2E/DX2                !
 ! D19   D(10,1,12,13)          67.0727         estimate D2E/DX2                !
 ! D20   D(10,1,12,32)         -51.8046         estimate D2E/DX2                !
 ! D21   D(10,1,12,33)        -171.8363         estimate D2E/DX2                !
 ! D22   D(1,2,3,4)            -53.7007         estimate D2E/DX2                !
 ! D23   D(1,2,3,15)            68.2606         estimate D2E/DX2                !
 ! D24   D(1,2,3,37)          -173.1741         estimate D2E/DX2                !
 ! D25   D(7,2,3,4)           -171.9229         estimate D2E/DX2                !
 ! D26   D(7,2,3,15)           -49.9617         estimate D2E/DX2                !
 ! D27   D(7,2,3,37)            68.6037         estimate D2E/DX2                !
 ! D28   D(14,2,3,4)            68.5332         estimate D2E/DX2                !
 ! D29   D(14,2,3,15)         -169.5056         estimate D2E/DX2                !
 ! D30   D(14,2,3,37)          -50.9402         estimate D2E/DX2                !
 ! D31   D(1,2,14,29)          -55.469          estimate D2E/DX2                !
 ! D32   D(1,2,14,30)           64.2552         estimate D2E/DX2                !
 ! D33   D(1,2,14,31)         -173.5723         estimate D2E/DX2                !
 ! D34   D(3,2,14,29)         -179.3586         estimate D2E/DX2                !
 ! D35   D(3,2,14,30)          -59.6345         estimate D2E/DX2                !
 ! D36   D(3,2,14,31)           62.5381         estimate D2E/DX2                !
 ! D37   D(7,2,14,29)           59.8321         estimate D2E/DX2                !
 ! D38   D(7,2,14,30)          179.5562         estimate D2E/DX2                !
 ! D39   D(7,2,14,31)          -58.2713         estimate D2E/DX2                !
 ! D40   D(2,3,4,5)             47.5565         estimate D2E/DX2                !
 ! D41   D(2,3,4,8)            169.7359         estimate D2E/DX2                !
 ! D42   D(2,3,4,9)            -72.7388         estimate D2E/DX2                !
 ! D43   D(15,3,4,5)           -69.2318         estimate D2E/DX2                !
 ! D44   D(15,3,4,8)            52.9476         estimate D2E/DX2                !
 ! D45   D(15,3,4,9)           170.4729         estimate D2E/DX2                !
 ! D46   D(37,3,4,5)           168.4445         estimate D2E/DX2                !
 ! D47   D(37,3,4,8)           -69.3761         estimate D2E/DX2                !
 ! D48   D(37,3,4,9)            48.1492         estimate D2E/DX2                !
 ! D49   D(2,3,15,16)         -167.1731         estimate D2E/DX2                !
 ! D50   D(4,3,15,16)          -48.9116         estimate D2E/DX2                !
 ! D51   D(37,3,15,16)          73.1178         estimate D2E/DX2                !
 ! D52   D(2,3,37,38)          -59.7815         estimate D2E/DX2                !
 ! D53   D(2,3,37,40)          179.8179         estimate D2E/DX2                !
 ! D54   D(2,3,37,41)           65.0979         estimate D2E/DX2                !
 ! D55   D(4,3,37,38)         -178.7501         estimate D2E/DX2                !
 ! D56   D(4,3,37,40)           60.8493         estimate D2E/DX2                !
 ! D57   D(4,3,37,41)          -53.8707         estimate D2E/DX2                !
 ! D58   D(15,3,37,38)          56.3984         estimate D2E/DX2                !
 ! D59   D(15,3,37,40)         -64.0021         estimate D2E/DX2                !
 ! D60   D(15,3,37,41)        -178.7222         estimate D2E/DX2                !
 ! D61   D(3,4,5,10)           -38.3951         estimate D2E/DX2                !
 ! D62   D(3,4,5,11)           149.9126         estimate D2E/DX2                !
 ! D63   D(8,4,5,10)          -162.3639         estimate D2E/DX2                !
 ! D64   D(8,4,5,11)            25.9438         estimate D2E/DX2                !
 ! D65   D(9,4,5,10)            84.4164         estimate D2E/DX2                !
 ! D66   D(9,4,5,11)           -87.2759         estimate D2E/DX2                !
 ! D67   D(4,5,10,1)            34.9821         estimate D2E/DX2                !
 ! D68   D(11,5,10,1)         -153.3082         estimate D2E/DX2                !
 ! D69   D(1,12,13,34)         179.6806         estimate D2E/DX2                !
 ! D70   D(1,12,13,35)         -60.6674         estimate D2E/DX2                !
 ! D71   D(1,12,13,36)          60.1583         estimate D2E/DX2                !
 ! D72   D(32,12,13,34)        -58.8479         estimate D2E/DX2                !
 ! D73   D(32,12,13,35)         60.8042         estimate D2E/DX2                !
 ! D74   D(32,12,13,36)       -178.3702         estimate D2E/DX2                !
 ! D75   D(33,12,13,34)         57.7417         estimate D2E/DX2                !
 ! D76   D(33,12,13,35)        177.3938         estimate D2E/DX2                !
 ! D77   D(33,12,13,36)        -61.7805         estimate D2E/DX2                !
 ! D78   D(3,15,16,17)         -40.6518         estimate D2E/DX2                !
 ! D79   D(3,15,16,18)          82.9217         estimate D2E/DX2                !
 ! D80   D(3,15,16,19)        -160.0455         estimate D2E/DX2                !
 ! D81   D(15,16,17,26)       -176.712          estimate D2E/DX2                !
 ! D82   D(15,16,17,27)        -57.3885         estimate D2E/DX2                !
 ! D83   D(15,16,17,28)         63.8866         estimate D2E/DX2                !
 ! D84   D(18,16,17,26)         58.1136         estimate D2E/DX2                !
 ! D85   D(18,16,17,27)        177.4371         estimate D2E/DX2                !
 ! D86   D(18,16,17,28)        -61.2878         estimate D2E/DX2                !
 ! D87   D(19,16,17,26)        -56.7086         estimate D2E/DX2                !
 ! D88   D(19,16,17,27)         62.6149         estimate D2E/DX2                !
 ! D89   D(19,16,17,28)       -176.11           estimate D2E/DX2                !
 ! D90   D(15,16,18,20)         49.9228         estimate D2E/DX2                !
 ! D91   D(15,16,18,21)        169.6686         estimate D2E/DX2                !
 ! D92   D(15,16,18,22)        -70.7            estimate D2E/DX2                !
 ! D93   D(17,16,18,20)        177.2755         estimate D2E/DX2                !
 ! D94   D(17,16,18,21)        -62.9787         estimate D2E/DX2                !
 ! D95   D(17,16,18,22)         56.6526         estimate D2E/DX2                !
 ! D96   D(19,16,18,20)        -67.8382         estimate D2E/DX2                !
 ! D97   D(19,16,18,21)         51.9075         estimate D2E/DX2                !
 ! D98   D(19,16,18,22)        171.5389         estimate D2E/DX2                !
 ! D99   D(15,16,19,23)       -178.5506         estimate D2E/DX2                !
 ! D100  D(15,16,19,24)        -58.477          estimate D2E/DX2                !
 ! D101  D(15,16,19,25)         61.3818         estimate D2E/DX2                !
 ! D102  D(17,16,19,23)         57.0702         estimate D2E/DX2                !
 ! D103  D(17,16,19,24)        177.1439         estimate D2E/DX2                !
 ! D104  D(17,16,19,25)        -62.9973         estimate D2E/DX2                !
 ! D105  D(18,16,19,23)        -58.6842         estimate D2E/DX2                !
 ! D106  D(18,16,19,24)         61.3894         estimate D2E/DX2                !
 ! D107  D(18,16,19,25)       -178.7518         estimate D2E/DX2                !
 ! D108  D(3,37,38,39)         127.683          estimate D2E/DX2                !
 ! D109  D(3,37,38,42)         -53.0942         estimate D2E/DX2                !
 ! D110  D(40,37,38,39)       -110.2887         estimate D2E/DX2                !
 ! D111  D(40,37,38,42)         68.9341         estimate D2E/DX2                !
 ! D112  D(41,37,38,39)          2.8115         estimate D2E/DX2                !
 ! D113  D(41,37,38,42)       -177.9658         estimate D2E/DX2                !
 ! D114  D(37,38,39,43)        179.5927         estimate D2E/DX2                !
 ! D115  D(37,38,39,44)         -0.1376         estimate D2E/DX2                !
 ! D116  D(42,38,39,43)          0.383          estimate D2E/DX2                !
 ! D117  D(42,38,39,44)       -179.3473         estimate D2E/DX2                !
 --------------------------------------------------------------------------------
 Trust Radius=3.00D-01 FncErr=1.00D-07 GrdErr=1.00D-06
 Number of steps in this run=     25 maximum allowed number of steps=    264.
 GradGradGradGradGradGradGradGradGradGradGradGradGradGradGradGradGradGrad

                          Input orientation:                          
 ---------------------------------------------------------------------
 Center     Atomic      Atomic             Coordinates (Angstroms)
 Number     Number       Type             X           Y           Z
 ---------------------------------------------------------------------
      1          6           0        0.831383   -0.410446    0.509313
      2          6           0        0.245822   -0.151426    1.913021
      3          6           0       -0.811740    0.998707    1.876157
      4          6           0       -0.159702    2.223500    1.224680
      5          6           0        0.582697    1.947041   -0.053488
      6          1           0        1.729479   -1.029166    0.635110
      7          1           0       -0.240965   -1.079594    2.241893
      8          1           0       -0.906969    2.994077    1.010288
      9          1           0        0.567319    2.684147    1.904886
     10          8           0        1.287854    0.799087   -0.126955
     11          8           0        0.672078    2.799850   -0.932687
     12          6           0       -0.087368   -1.173022   -0.459133
     13          6           0        0.676982   -1.698799   -1.670333
     14          6           0        1.420177    0.107171    2.878810
     15          8           0       -1.930256    0.471566    1.130721
     16         14           0       -3.259946    1.258352    0.481356
     17          6           0       -3.998454    2.594123    1.566814
     18          6           0       -2.855395    2.016081   -1.192587
     19          6           0       -4.618544   -0.028981    0.187840
     20          1           0       -2.376006    1.280123   -1.844258
     21          1           0       -3.769481    2.363455   -1.683549
     22          1           0       -2.185374    2.872756   -1.085255
     23          1           0       -5.498817    0.439999   -0.261010
     24          1           0       -4.258410   -0.812515   -0.485069
     25          1           0       -4.912845   -0.490756    1.134700
     26          1           0       -4.892439    3.014426    1.095523
     27          1           0       -4.293153    2.190519    2.539788
     28          1           0       -3.291452    3.413060    1.725883
     29          1           0        2.129445   -0.728128    2.849425
     30          1           0        1.974670    1.015020    2.623730
     31          1           0        1.088670    0.187980    3.916380
     32          1           0       -0.874864   -0.522430   -0.845965
     33          1           0       -0.559542   -2.018294    0.053370
     34          1           0       -0.001314   -2.240762   -2.337048
     35          1           0        1.128628   -0.881157   -2.240780
     36          1           0        1.471599   -2.386785   -1.364656
     37          6           0       -1.281744    1.381734    3.320916
     38          6           0       -1.919912    0.256919    4.097711
     39          6           0       -1.547664   -0.119549    5.327635
     40          1           0       -2.017493    2.188953    3.269752
     41          1           0       -0.444379    1.804962    3.889624
     42          1           0       -2.745163   -0.266608    3.618021
     43          1           0       -2.055118   -0.935436    5.834116
     44          1           0       -0.739122    0.372062    5.859404
 ---------------------------------------------------------------------
                    Distance matrix (angstroms):
                    1          2          3          4          5
     1  C    0.000000
     2  C    1.542845   0.000000
     3  C    2.560045   1.562883   0.000000
     4  C    2.903734   2.505701   1.532871   0.000000
     5  C    2.436459   2.895549   2.562679   1.503762   0.000000
     6  H    1.097823   2.145862   3.479980   3.807418   3.262987
     7  H    2.144650   1.098460   2.186065   3.457131   3.886864
     8  H    3.855337   3.469588   2.177223   1.094605   2.108793
     9  H    3.404976   2.853752   2.177920   1.097012   2.092556
    10  O    1.440893   2.480082   2.908711   2.439526   1.349238
    11  O    3.522888   4.121866   3.651772   2.382912   1.228114
    12  C    1.537372   2.604187   3.270275   3.791678   3.216882
    13  C    2.536641   3.926918   4.697917   4.946268   3.989389
    14  C    2.495821   1.542313   2.604151   3.116250   3.561582
    15  O    2.964919   2.394875   1.443825   2.492581   3.145522
    16  Si   4.418670   4.040736   2.829593   3.330999   3.940337
    17  C    5.785591   5.066732   3.577176   3.871748   4.902146
    18  C    4.730415   4.894940   3.824757   3.626701   3.622539
    19  C    5.472711   5.162683   4.289326   5.101958   5.569184
    20  H    4.322576   4.800048   4.045690   3.901326   3.522153
    21  H    5.802682   5.948328   4.825171   4.637660   4.666043
    22  H    4.735281   4.903677   3.764159   3.140172   3.095757
    23  H    6.433357   6.170662   5.181537   5.821881   6.268896
    24  H    5.201581   5.145482   4.553619   5.379594   5.589072
    25  H    5.778729   5.228076   4.425757   5.474272   6.128265
    26  H    6.695934   6.090373   4.617858   4.800109   5.695318
    27  H    6.094975   5.145856   3.739125   4.337743   5.527954
    28  H    5.753000   5.025225   3.464196   3.387346   4.508259
    29  H    2.694812   2.181163   3.546798   4.073340   4.239795
    30  H    2.794605   2.203320   2.884998   2.823705   3.158124
    31  H    3.468777   2.199781   2.903678   3.598197   4.371516
    32  H    2.181879   3.000931   3.118941   3.512714   2.975028
    33  H    2.174335   2.755378   3.533900   4.418671   4.127955
    34  H    3.484998   4.742308   5.376062   5.713198   4.805560
    35  H    2.805875   4.308818   4.924235   4.827847   3.616765
    36  H    2.797776   4.152412   5.213258   5.533582   4.614256
    37  C    3.947446   2.581900   1.566825   2.522252   3.896449
    38  C    4.570733   3.103227   2.591061   3.901293   5.133422
    39  C    5.381516   3.857097   3.701997   4.924485   6.145382
    40  H    4.742678   3.527136   2.193771   2.763132   4.226516
    41  H    4.238172   2.865448   2.199784   2.712589   4.077156
    42  H    4.740932   3.444747   2.893655   4.314317   5.427234
    43  H    6.079558   4.613457   4.577372   5.900710   7.066160
    44  H    5.630478   4.100987   4.032892   5.024362   6.260196
                    6          7          8          9         10
     6  H    0.000000
     7  H    2.543019   0.000000
     8  H    4.824738   4.307576   0.000000
     9  H    4.092877   3.864278   1.752109   0.000000
    10  O    2.029356   3.387945   3.305836   2.863739   0.000000
    11  O    4.270533   5.095262   2.511228   2.841862   2.243086
    12  C    2.125793   2.707002   4.493958   4.571100   2.427095
    13  C    2.621302   4.065901   5.631848   5.657246   2.999102
    14  C    2.533993   2.138567   4.152254   2.883869   3.087212
    15  O    3.986413   2.548432   2.724827   3.425307   3.470627
    16  Si   5.490969   4.204727   2.971365   4.325192   4.611231
    17  C    6.841455   5.298174   3.166538   4.579157   5.834043
    18  C    5.799575   5.311695   3.099274   4.664292   4.447826
    19  C    6.441880   4.948345   4.857066   6.099384   5.972464
    20  H    5.323071   5.179121   3.639250   4.968956   4.074849
    21  H    6.864737   6.301913   3.981007   5.638044   5.517868
    22  H    5.788845   5.520119   2.457710   4.068640   4.157133
    23  H    7.430326   6.018197   5.405976   6.820947   6.797486
    24  H    6.095618   4.862871   5.287570   6.420762   5.786757
    25  H    6.682810   4.837258   5.310987   6.380078   6.457874
    26  H    7.772542   6.301696   3.986433   5.529296   6.678188
    27  H    7.089871   5.215612   3.801489   4.926556   6.339972
    28  H    6.792121   5.454876   2.524556   3.931090   5.588909
    29  H    2.270195   2.472138   5.143641   3.869885   3.449565
    30  H    2.862416   3.072824   3.850156   2.298556   2.843345
    31  H    3.557923   2.485675   4.505788   3.247886   4.094104
    32  H    3.038580   3.201113   3.976497   4.464214   2.634527
    33  H    2.560549   2.402557   5.114710   5.177922   3.373874
    34  H    3.646551   4.729952   6.279204   6.524728   3.973304
    35  H    2.941712   4.691430   5.452572   5.496636   2.704964
    36  H    2.430781   4.201050   6.344416   6.100982   3.422783
    37  C    4.700368   2.881952   2.842377   2.668418   4.339369
    38  C    5.192463   2.837110   4.248561   4.109286   5.332121
    39  C    5.795417   3.485822   5.361403   4.903986   6.215835
    40  H    5.597984   3.859527   2.643230   2.964680   4.939096
    41  H    4.832163   3.328221   3.149375   2.394929   4.488354
    42  H    5.431544   2.970805   4.561940   4.755452   5.605870
    43  H    6.431300   4.026909   6.326819   5.951252   7.051128
    44  H    5.945644   3.929612   5.515166   4.763480   6.334625
                   11         12         13         14         15
    11  O    0.000000
    12  C    4.072435   0.000000
    13  C    4.558727   1.525673   0.000000
    14  C    4.726276   3.879878   4.950613   0.000000
    15  O    4.055946   2.937438   4.399327   3.796577   0.000000
    16  Si   4.453824   4.106257   5.373445   5.382988   1.675942
    17  C    5.301292   5.795898   7.125167   6.104738   2.995475
    18  C    3.622831   4.286060   5.148423   6.204895   2.939246
    19  C    6.103159   4.717940   5.855228   6.612564   2.892484
    20  H    3.525812   3.629650   4.269070   6.172049   3.114957
    21  H    4.525669   5.250126   6.022717   7.269009   3.857734
    22  H    2.862451   4.600215   5.425358   6.030114   3.277400
    23  H    6.640782   5.650210   6.685891   7.605375   3.830475
    24  H    6.128561   4.186673   5.152518   6.663922   3.111261
    25  H    6.803936   5.127477   6.369752   6.595954   3.133994
    26  H    5.926511   6.560517   7.802749   7.175052   3.904088
    27  H    6.089572   6.164054   7.586445   6.090765   3.244002
    28  H    4.811818   6.006047   7.308478   5.870059   3.295369
    29  H    5.373539   4.007337   4.845623   1.096198   4.568849
    30  H    4.186940   4.306225   5.242879   1.093946   4.215788
    31  H    5.523483   4.730804   5.911073   1.092236   4.117552
    32  H    3.665801   1.092272   2.114628   4.420131   2.451360
    33  H    5.069882   1.095487   2.145279   4.052160   3.039563
    34  H    5.275742   2.161953   1.094677   5.893946   4.806554
    35  H    3.933110   2.176717   1.094501   5.222260   4.749068
    36  H    5.265645   2.173378   1.094614   4.922343   5.096047
    37  C    4.890972   4.716151   6.183758   3.019991   2.458847
    38  C    6.204016   5.115445   6.621104   3.558699   2.974762
    39  C    7.255465   6.060442   7.510968   3.854378   4.255571
    40  H    5.026677   5.378926   6.839536   4.037849   2.744537
    41  H    5.048857   5.282758   6.666852   2.716764   3.405484
    42  H    6.464491   4.950621   6.459794   4.246905   2.719492
    43  H    8.196315   6.597990   8.022708   4.679587   4.910924
    44  H    7.349703   6.537276   7.936672   3.690079   4.877412
                   16         17         18         19         20
    16  Si   0.000000
    17  C    1.872938   0.000000
    18  C    1.881462   3.042205   0.000000
    19  C    1.894510   3.027665   3.032582   0.000000
    20  H    2.488032   3.999293   1.093674   3.297295   0.000000
    21  H    2.483484   3.266573   1.094196   3.153848   1.772345
    22  H    2.493045   3.224650   1.092859   3.995143   1.774516
    23  H    2.496668   3.198794   3.215517   1.093750   3.600615
    24  H    2.493872   3.985346   3.235736   1.093814   3.125696
    25  H    2.493654   3.246431   3.991691   1.093798   4.294852
    26  H    2.475082   1.094522   3.222063   3.187669   4.240584
    27  H    2.484672   1.093811   4.003523   3.250188   4.870743
    28  H    2.488495   1.093532   3.264837   3.996798   4.258329
    29  H    6.212841   7.087566   6.979769   7.287537   6.809025
    30  H    5.661288   6.268082   6.236660   7.105911   6.241921
    31  H    5.644072   6.098263   6.708140   6.820658   6.810412
    32  H    3.259077   5.029038   3.238316   3.915020   2.549356
    33  H    4.267524   5.949035   4.806197   4.522272   4.216644
    34  H    5.550305   7.388733   5.251312   5.708401   4.275352
    35  H    5.589911   7.270647   5.036381   6.297173   4.136523
    36  H    6.251584   7.957666   6.175574   6.712624   5.336693
    37  C    3.462890   3.453589   4.821875   4.789626   5.280791
    38  C    3.984543   4.023469   5.653055   4.759353   6.046649
    39  C    5.321366   5.245394   6.984581   5.987988   7.353998
    40  H    3.191373   2.643552   4.543615   4.602486   5.206496
    41  H    4.454491   4.318526   5.629071   5.872836   6.073223
    42  H    3.525503   3.736572   5.325859   3.915631   5.689037
    43  H    5.909006   5.868919   7.663319   6.266837   7.998068
    44  H    6.005286   5.829848   7.544003   6.883123   7.927823
                   21         22         23         24         25
    21  H    0.000000
    22  H    1.768259   0.000000
    23  H    2.951932   4.192445   0.000000
    24  H    3.429605   4.270705   1.776965   0.000000
    25  H    4.170891   4.866263   1.776985   1.776363   0.000000
    26  H    3.067253   3.479090   2.972465   4.188764   3.505460
    27  H    4.259192   4.248425   3.516023   4.262532   3.089907
    28  H    3.599223   3.068849   4.202296   4.866087   4.268277
    29  H    8.056244   6.860447   8.320439   7.206293   7.251929
    30  H    7.305217   5.874838   8.031524   7.201097   7.205722
    31  H    7.726159   6.553147   7.804427   6.997500   6.649557
    32  H    4.172372   3.647189   4.759137   3.415081   4.497702
    33  H    5.702659   5.278463   5.526163   3.927524   4.738554
    34  H    5.985395   5.699576   6.459021   4.857220   6.264079
    35  H    5.901651   5.139038   7.041873   5.666340   6.931499
    36  H    7.080635   6.412042   7.602331   6.007079   7.113567
    37  C    5.674265   4.738569   5.612554   5.306674   4.633644
    38  C    6.425058   5.811730   5.642741   5.254915   4.277394
    39  C    7.762634   7.105330   6.867143   6.451037   5.389150
    40  H    5.256910   4.411559   5.257826   5.303697   4.485794
    41  H    6.513714   5.377794   6.681185   6.366785   5.729495
    42  H    6.006089   5.682409   4.809240   4.407185   3.303933
    43  H    8.386716   7.899176   7.134525   6.693408   5.518048
    44  H    8.369281   7.521529   7.753630   7.351255   6.362959
                   26         27         28         29         30
    26  H    0.000000
    27  H    1.767447   0.000000
    28  H    1.766189   1.777766   0.000000
    29  H    8.147990   7.061455   6.913603   0.000000
    30  H    7.313701   6.377652   5.855661   1.764499   0.000000
    31  H    7.191641   5.905014   5.863863   1.749531   1.771986
    32  H    5.693824   5.523415   5.286055   4.766979   4.745775
    33  H    6.722228   6.151116   6.305572   4.088166   4.714867
    34  H    7.957553   7.863820   7.700527   5.807555   6.254114
    35  H    7.909471   7.853963   7.328835   5.189917   5.289114
    36  H    8.702100   8.332392   8.116421   4.576285   5.266173
    37  C    4.544797   3.214479   3.272513   4.038568   3.350340
    38  C    5.045086   3.434852   4.179464   4.350382   4.232624
    39  C    6.238597   4.543811   5.337859   4.475827   4.583141
    40  H    3.697836   2.389870   2.346261   5.087547   4.211037
    41  H    5.390273   4.096800   3.920916   3.758075   2.842234
    42  H    4.662507   3.097795   4.173557   4.956364   4.990792
    43  H    6.790145   5.062904   6.108643   5.144116   5.509088
    44  H    6.850306   5.192087   5.731322   4.301054   4.271727
                   31         32         33         34         35
    31  H    0.000000
    32  H    5.200008   0.000000
    33  H    4.744164   1.773652   0.000000
    34  H    6.796485   2.437023   2.464794   0.000000
    35  H    6.249422   2.467423   3.066940   1.770469   0.000000
    36  H    5.887732   3.041504   2.504420   1.770972   1.775426
    37  C    2.720016   4.599379   4.770600   6.839191   6.470165
    38  C    3.014830   5.112675   4.835690   7.164185   7.124976
    39  C    3.006072   6.223207   5.692055   8.101735   8.063714
    40  H    3.751036   5.059281   5.492874   7.424524   7.049086
    41  H    2.228359   5.294136   5.417323   7.438792   6.875423
    42  H    3.872201   4.846714   4.533440   6.847542   7.050495
    43  H    3.850088   6.796106   6.068472   8.525838   8.680042
    44  H    2.673958   6.766130   6.281408   8.634410   8.406666
                   36         37         38         39         40
    36  H    0.000000
    37  C    6.613412   0.000000
    38  C    6.951904   1.508601   0.000000
    39  C    7.683949   2.520215   1.339033   0.000000
    40  H    7.388429   1.093411   2.104232   3.128067   0.000000
    41  H    6.989218   1.097147   2.148705   2.643644   1.733891
    42  H    6.863185   2.224162   1.088679   2.092465   2.584681
    43  H    8.146562   3.504791   2.110709   1.086142   4.042176
    44  H    8.042734   2.785282   2.123932   1.085449   3.411982
                   41         42         43         44
    41  H    0.000000
    42  H    3.107857   0.000000
    43  H    3.726300   2.415485   0.000000
    44  H    2.453591   3.075044   1.855272   0.000000
 Stoichiometry    C14H26O3Si
 Framework group  C1[X(C14H26O3Si)]
 Deg. of freedom   126
 Full point group                 C1      NOp   1
 Largest Abelian subgroup         C1      NOp   1
 Largest concise Abelian subgroup C1      NOp   1
                         Standard orientation:                         
 ---------------------------------------------------------------------
 Center     Atomic      Atomic             Coordinates (Angstroms)
 Number     Number       Type             X           Y           Z
 ---------------------------------------------------------------------
      1          6           0        2.189079    0.483330    0.590455
      2          6           0        1.013040    1.467062    0.418486
      3          6           0       -0.160907    0.805033   -0.372822
      4          6           0        0.402927    0.254043   -1.687430
      5          6           0        1.665604   -0.551379   -1.552367
      6          1           0        3.061840    1.065304    0.914198
      7          1           0        0.663227    1.739207    1.423564
      8          1           0       -0.335552   -0.375541   -2.193823
      9          1           0        0.635976    1.070316   -2.382285
     10          8           0        2.579447   -0.128715   -0.654208
     11          8           0        1.923883   -1.462503   -2.334292
     12          6           0        1.983560   -0.613267    1.648164
     13          6           0        3.294595   -1.304285    2.010602
     14          6           0        1.559947    2.754454   -0.231318
     15          8           0       -0.691576   -0.213000    0.502751
     16         14           0       -1.753937   -1.467799    0.177709
     17          6           0       -3.176988   -1.027326   -0.957547
     18          6           0       -0.856093   -2.951773   -0.551397
     19          6           0       -2.511585   -2.035794    1.818599
     20          1           0        0.014270   -3.213971    0.056751
     21          1           0       -1.522098   -3.819201   -0.587047
     22          1           0       -0.517995   -2.745756   -1.570017
     23          1           0       -3.194615   -2.874093    1.654239
     24          1           0       -1.724925   -2.355702    2.507985
     25          1           0       -3.068783   -1.216295    2.281572
     26          1           0       -3.850951   -1.882380   -1.069964
     27          1           0       -3.759350   -0.195091   -0.551762
     28          1           0       -2.820171   -0.753218   -1.954221
     29          1           0        2.385504    3.161422    0.364066
     30          1           0        1.941691    2.579249   -1.241413
     31          1           0        0.804761    3.541924   -0.281944
     32          1           0        1.312333   -1.392089    1.279451
     33          1           0        1.547985   -0.185208    2.557632
     34          1           0        3.117149   -2.074282    2.768187
     35          1           0        3.743701   -1.787583    1.137299
     36          1           0        4.015737   -0.588847    2.418379
     37          6           0       -1.282821    1.848905   -0.699290
     38          6           0       -1.911901    2.499931    0.507483
     39          6           0       -2.030044    3.822799    0.677985
     40          1           0       -2.090183    1.364081   -1.254860
     41          1           0       -0.896794    2.615413   -1.382796
     42          1           0       -2.302380    1.836606    1.277385
     43          1           0       -2.500622    4.226099    1.569954
     44          1           0       -1.669148    4.532179   -0.060077
 ---------------------------------------------------------------------
 Rotational constants (GHZ):      0.4055905      0.3543737      0.2664451
 Standard basis: 6-31G(d,p) (6D, 7F)
 There are   404 symmetry adapted cartesian basis functions of A   symmetry.
 There are   404 symmetry adapted basis functions of A   symmetry.
   404 basis functions,   710 primitive gaussians,   404 cartesian basis functions
    74 alpha electrons       74 beta electrons
       nuclear repulsion energy      1661.6934422426 Hartrees.
 NAtoms=   44 NActive=   44 NUniq=   44 SFac= 1.00D+00 NAtFMM=   60 NAOKFM=F Big=F
 Integral buffers will be    131072 words long.
 Raffenetti 2 integral format.
 Two-electron integral symmetry is turned on.
 ------------------------------------------------------------------------------
 Polarizable Continuum Model (PCM)
 =================================
 Model                : PCM (using non-symmetric T matrix).
 Atomic radii         : UFF (Universal Force Field).
 Polarization charges : Total charges.
 Charge compensation  : None.
 Solution method      : On-the-fly selection.
 Cavity type          : Scaled VdW (van der Waals Surface) (Alpha=1.100).
 Cavity algorithm     : GePol (No added spheres)
                        Default sphere list used, NSphG=   44.
                        Lebedev-Laikov grids with approx.  5.0 points / Ang**2.
                        Smoothing algorithm: Karplus/York (Gamma=1.0000).
                        Polarization charges: spherical gaussians, with
                                              point-specific exponents (IZeta= 3).
                        Self-potential: point-specific (ISelfS= 7).
                        Self-field    : sphere-specific E.n sum rule (ISelfD= 2).
 1st derivatives      : Analytical E(r).r(x)/FMM algorithm (CHGder, D1EAlg=3).
                        Cavity 1st derivative terms included.
 Solvent              : Chloroform, Eps=   4.711300 Eps(inf)=   2.090627
 ------------------------------------------------------------------------------
 One-electron integrals computed using PRISM.
 NBasis=   404 RedAO= T EigKep=  2.17D-03  NBF=   404
 NBsUse=   404 1.00D-06 EigRej= -1.00D+00 NBFU=   404
 ExpMin= 7.78D-02 ExpMax= 1.61D+04 ExpMxC= 2.43D+03 IAcc=2 IRadAn=         4 AccDes= 0.00D+00
 Harris functional with IExCor=  402 and IRadAn=       4 diagonalized for initial guess.
 HarFok:  IExCor=  402 AccDes= 0.00D+00 IRadAn=         4 IDoV= 1 UseB2=F ITyADJ=14
 ICtDFT=  3500011 ScaDFX=  1.000000  1.000000  1.000000  1.000000
 FoFCou: FMM=F IPFlag=           0 FMFlag=      100000 FMFlg1=           0
         NFxFlg=           0 DoJE=T BraDBF=F KetDBF=T FulRan=T
         wScrn=  0.000000 ICntrl=     500 IOpCl=  0 I1Cent=   200000004 NGrid=           0
         NMat0=    1 NMatS0=      1 NMatT0=    0 NMatD0=    1 NMtDS0=    0 NMtDT0=    0
 Petite list used in FoFCou.
 Requested convergence on RMS density matrix=1.00D-08 within 128 cycles.
 Requested convergence on MAX density matrix=1.00D-06.
 Requested convergence on             energy=1.00D-06.
 No special actions if energy rises.
 Inv3:  Mode=1 IEnd=    23637747.
 Iteration    1 A*A^-1 deviation from unit magnitude is 4.66D-15 for   2766.
 Iteration    1 A*A^-1 deviation from orthogonality  is 4.06D-15 for   2803   1587.
 Iteration    1 A^-1*A deviation from unit magnitude is 4.77D-15 for   2801.
 Iteration    1 A^-1*A deviation from orthogonality  is 3.19D-13 for   1988   1947.
 Error on total polarization charges =  0.00918
 SCF Done:  E(RB3LYP) =  -1064.41434142     A.U. after   13 cycles
            NFock= 13  Conv=0.50D-08     -V/T= 2.0080

 **********************************************************************

            Population analysis using the SCF density.

 **********************************************************************

 Orbital symmetries:
       Occupied  (A) (A) (A) (A) (A) (A) (A) (A) (A) (A) (A) (A)
                 (A) (A) (A) (A) (A) (A) (A) (A) (A) (A) (A) (A)
                 (A) (A) (A) (A) (A) (A) (A) (A) (A) (A) (A) (A)
                 (A) (A) (A) (A) (A) (A) (A) (A) (A) (A) (A) (A)
                 (A) (A) (A) (A) (A) (A) (A) (A) (A) (A) (A) (A)
                 (A) (A) (A) (A) (A) (A) (A) (A) (A) (A) (A) (A)
                 (A) (A)
       Virtual   (A) (A) (A) (A) (A) (A) (A) (A) (A) (A) (A) (A)
                 (A) (A) (A) (A) (A) (A) (A) (A) (A) (A) (A) (A)
                 (A) (A) (A) (A) (A) (A) (A) (A) (A) (A) (A) (A)
                 (A) (A) (A) (A) (A) (A) (A) (A) (A) (A) (A) (A)
                 (A) (A) (A) (A) (A) (A) (A) (A) (A) (A) (A) (A)
                 (A) (A) (A) (A) (A) (A) (A) (A) (A) (A) (A) (A)
                 (A) (A) (A) (A) (A) (A) (A) (A) (A) (A) (A) (A)
                 (A) (A) (A) (A) (A) (A) (A) (A) (A) (A) (A) (A)
                 (A) (A) (A) (A) (A) (A) (A) (A) (A) (A) (A) (A)
                 (A) (A) (A) (A) (A) (A) (A) (A) (A) (A) (A) (A)
                 (A) (A) (A) (A) (A) (A) (A) (A) (A) (A) (A) (A)
                 (A) (A) (A) (A) (A) (A) (A) (A) (A) (A) (A) (A)
                 (A) (A) (A) (A) (A) (A) (A) (A) (A) (A) (A) (A)
                 (A) (A) (A) (A) (A) (A) (A) (A) (A) (A) (A) (A)
                 (A) (A) (A) (A) (A) (A) (A) (A) (A) (A) (A) (A)
                 (A) (A) (A) (A) (A) (A) (A) (A) (A) (A) (A) (A)
                 (A) (A) (A) (A) (A) (A) (A) (A) (A) (A) (A) (A)
                 (A) (A) (A) (A) (A) (A) (A) (A) (A) (A) (A) (A)
                 (A) (A) (A) (A) (A) (A) (A) (A) (A) (A) (A) (A)
                 (A) (A) (A) (A) (A) (A) (A) (A) (A) (A) (A) (A)
                 (A) (A) (A) (A) (A) (A) (A) (A) (A) (A) (A) (A)
                 (A) (A) (A) (A) (A) (A) (A) (A) (A) (A) (A) (A)
                 (A) (A) (A) (A) (A) (A) (A) (A) (A) (A) (A) (A)
                 (A) (A) (A) (A) (A) (A) (A) (A) (A) (A) (A) (A)
                 (A) (A) (A) (A) (A) (A) (A) (A) (A) (A) (A) (A)
                 (A) (A) (A) (A) (A) (A) (A) (A) (A) (A) (A) (A)
                 (A) (A) (A) (A) (A) (A) (A) (A) (A) (A) (A) (A)
                 (A) (A) (A) (A) (A) (A)
 The electronic state is 1-A.
 Alpha  occ. eigenvalues --  -66.14011 -19.19076 -19.14537 -19.13572 -10.32210
 Alpha  occ. eigenvalues --  -10.26752 -10.24960 -10.20457 -10.19955 -10.19286
 Alpha  occ. eigenvalues --  -10.19250 -10.18143 -10.18060 -10.17985 -10.16958
 Alpha  occ. eigenvalues --  -10.16053 -10.15722 -10.15361  -5.28152  -3.64211
 Alpha  occ. eigenvalues --   -3.63977  -3.63940  -1.09835  -1.01415  -1.00831
 Alpha  occ. eigenvalues --   -0.82719  -0.79925  -0.77887  -0.75216  -0.71294
 Alpha  occ. eigenvalues --   -0.70097  -0.68990  -0.67639  -0.67217  -0.64567
 Alpha  occ. eigenvalues --   -0.61734  -0.59064  -0.55733  -0.52688  -0.51841
 Alpha  occ. eigenvalues --   -0.50198  -0.48704  -0.47577  -0.46833  -0.45436
 Alpha  occ. eigenvalues --   -0.44199  -0.43161  -0.42239  -0.42114  -0.41314
 Alpha  occ. eigenvalues --   -0.41020  -0.40653  -0.40418  -0.39840  -0.39407
 Alpha  occ. eigenvalues --   -0.38921  -0.38538  -0.38152  -0.37761  -0.37670
 Alpha  occ. eigenvalues --   -0.36815  -0.35739  -0.35293  -0.34940  -0.34242
 Alpha  occ. eigenvalues --   -0.33699  -0.32438  -0.31225  -0.30199  -0.28832
 Alpha  occ. eigenvalues --   -0.28141  -0.27622  -0.26777  -0.25161
 Alpha virt. eigenvalues --   -0.00467   0.01363   0.06110   0.07339   0.08348
 Alpha virt. eigenvalues --    0.09390   0.09924   0.10516   0.11351   0.11595
 Alpha virt. eigenvalues --    0.12408   0.12720   0.13284   0.13792   0.14687
 Alpha virt. eigenvalues --    0.14842   0.15396   0.16268   0.16405   0.17167
 Alpha virt. eigenvalues --    0.17405   0.17454   0.18414   0.18937   0.19340
 Alpha virt. eigenvalues --    0.19708   0.20083   0.20593   0.20891   0.21229
 Alpha virt. eigenvalues --    0.21921   0.22504   0.23345   0.24188   0.25046
 Alpha virt. eigenvalues --    0.25505   0.26017   0.26892   0.27210   0.28020
 Alpha virt. eigenvalues --    0.28745   0.29228   0.32415   0.36312   0.36502
 Alpha virt. eigenvalues --    0.37454   0.39448   0.39731   0.40716   0.42965
 Alpha virt. eigenvalues --    0.45934   0.46527   0.49480   0.49746   0.50978
 Alpha virt. eigenvalues --    0.51825   0.52812   0.53530   0.54931   0.56428
 Alpha virt. eigenvalues --    0.57120   0.57853   0.59245   0.60748   0.61486
 Alpha virt. eigenvalues --    0.61855   0.62459   0.64032   0.64261   0.65070
 Alpha virt. eigenvalues --    0.65759   0.66400   0.67336   0.68208   0.69095
 Alpha virt. eigenvalues --    0.69775   0.70286   0.72274   0.74211   0.74845
 Alpha virt. eigenvalues --    0.75525   0.76147   0.76520   0.76864   0.77544
 Alpha virt. eigenvalues --    0.78716   0.79742   0.81463   0.82152   0.82641
 Alpha virt. eigenvalues --    0.83813   0.84660   0.84803   0.85990   0.86400
 Alpha virt. eigenvalues --    0.87074   0.87480   0.87781   0.88278   0.88935
 Alpha virt. eigenvalues --    0.89463   0.90428   0.90957   0.91501   0.91610
 Alpha virt. eigenvalues --    0.92175   0.92398   0.92987   0.93660   0.94400
 Alpha virt. eigenvalues --    0.94707   0.95287   0.95441   0.96084   0.98114
 Alpha virt. eigenvalues --    0.98939   1.00048   1.00096   1.01014   1.01361
 Alpha virt. eigenvalues --    1.02942   1.03977   1.05851   1.07393   1.08370
 Alpha virt. eigenvalues --    1.10864   1.12326   1.13349   1.14936   1.16014
 Alpha virt. eigenvalues --    1.19916   1.21149   1.22260   1.22880   1.24806
 Alpha virt. eigenvalues --    1.29961   1.30623   1.32454   1.34500   1.36221
 Alpha virt. eigenvalues --    1.37255   1.38754   1.40564   1.40821   1.43023
 Alpha virt. eigenvalues --    1.43485   1.44953   1.45876   1.46854   1.48590
 Alpha virt. eigenvalues --    1.49352   1.50547   1.52982   1.55595   1.55771
 Alpha virt. eigenvalues --    1.59501   1.60830   1.62889   1.63951   1.64992
 Alpha virt. eigenvalues --    1.66567   1.67696   1.68479   1.72075   1.72399
 Alpha virt. eigenvalues --    1.74221   1.74523   1.76553   1.77093   1.79881
 Alpha virt. eigenvalues --    1.80797   1.82400   1.83379   1.84022   1.85840
 Alpha virt. eigenvalues --    1.87272   1.87486   1.89535   1.89899   1.90255
 Alpha virt. eigenvalues --    1.92941   1.93422   1.96127   1.97223   1.97910
 Alpha virt. eigenvalues --    1.98338   1.98825   2.00958   2.02435   2.03168
 Alpha virt. eigenvalues --    2.04005   2.04872   2.05353   2.05563   2.06235
 Alpha virt. eigenvalues --    2.06659   2.07324   2.07850   2.08509   2.09051
 Alpha virt. eigenvalues --    2.09323   2.10514   2.11498   2.11978   2.12349
 Alpha virt. eigenvalues --    2.12759   2.13471   2.13772   2.14532   2.14569
 Alpha virt. eigenvalues --    2.15958   2.16434   2.16764   2.17222   2.18366
 Alpha virt. eigenvalues --    2.19937   2.21457   2.22595   2.23690   2.24330
 Alpha virt. eigenvalues --    2.27940   2.29076   2.30396   2.31518   2.33602
 Alpha virt. eigenvalues --    2.33879   2.35190   2.35343   2.35963   2.37579
 Alpha virt. eigenvalues --    2.38857   2.39360   2.40508   2.42020   2.42379
 Alpha virt. eigenvalues --    2.44630   2.46141   2.47500   2.48665   2.50453
 Alpha virt. eigenvalues --    2.51205   2.54152   2.56099   2.56991   2.57936
 Alpha virt. eigenvalues --    2.59342   2.61455   2.62899   2.63121   2.64047
 Alpha virt. eigenvalues --    2.65154   2.67734   2.68177   2.68772   2.70346
 Alpha virt. eigenvalues --    2.71407   2.72476   2.74512   2.75232   2.75476
 Alpha virt. eigenvalues --    2.77545   2.78095   2.79887   2.81213   2.81511
 Alpha virt. eigenvalues --    2.82221   2.82269   2.84142   2.85135   2.85359
 Alpha virt. eigenvalues --    2.85813   2.86239   2.86997   2.88955   2.89524
 Alpha virt. eigenvalues --    2.90224   2.90582   2.91161   2.92879   2.94012
 Alpha virt. eigenvalues --    2.96762   3.00729   3.02297   3.09327   3.10841
 Alpha virt. eigenvalues --    3.16172   3.17739   3.20565   3.21030   3.21405
 Alpha virt. eigenvalues --    3.21923   3.22699   3.26818   3.32700   3.32845
 Alpha virt. eigenvalues --    3.33969   3.37075   3.39517   3.43579   3.43854
 Alpha virt. eigenvalues --    3.44670   3.45156   3.45481   3.45629   3.46053
 Alpha virt. eigenvalues --    3.47018   3.47569   3.48197   3.49050   3.50754
 Alpha virt. eigenvalues --    3.52354   3.59031   3.66508   4.00075   4.11743
 Alpha virt. eigenvalues --    4.22964   4.24279   4.36060   4.39929   4.47665
 Alpha virt. eigenvalues --    4.48259   4.49101   4.51715   4.55779   4.59175
 Alpha virt. eigenvalues --    4.63334   4.66381   4.72458   4.80011   4.86415
          Condensed to atoms (all electrons):
               1          2          3          4          5          6
     1  C    4.794093   0.340841  -0.019671  -0.014089  -0.011481   0.396560
     2  C    0.340841   5.093722   0.342108  -0.051974  -0.020576  -0.048840
     3  C   -0.019671   0.342108   4.803834   0.279939  -0.014748   0.005044
     4  C   -0.014089  -0.051974   0.279939   5.325397   0.301617  -0.000647
     5  C   -0.011481  -0.020576  -0.014748   0.301617   4.356315   0.001927
     6  H    0.396560  -0.048840   0.005044  -0.000647   0.001927   0.630828
     7  H   -0.036072   0.370682  -0.029089   0.005775   0.000415   0.000444
     8  H    0.000133   0.005374  -0.029027   0.360446  -0.027648   0.000017
     9  H    0.000085  -0.001822  -0.022111   0.363314  -0.027115   0.000033
    10  O    0.182550  -0.032744  -0.000793  -0.094555   0.262648  -0.036334
    11  O    0.002157   0.000046   0.002338  -0.083523   0.556580  -0.000103
    12  C    0.365039  -0.038299  -0.011479   0.000969  -0.001855  -0.059310
    13  C   -0.039097   0.004691   0.000039   0.000030  -0.000266  -0.008522
    14  C   -0.047018   0.333940  -0.041220  -0.001866  -0.000085  -0.010448
    15  O   -0.001505  -0.050790   0.209442  -0.043220   0.003820  -0.000105
    16  Si   0.000029  -0.002150  -0.010736   0.001253   0.000000   0.000007
    17  C   -0.000002  -0.000031  -0.000993  -0.001709   0.000076   0.000000
    18  C    0.000007   0.000006  -0.001785   0.000463   0.000065  -0.000001
    19  C    0.000009  -0.000019   0.000940  -0.000059  -0.000006   0.000000
    20  H   -0.000026   0.000021   0.000003   0.000048   0.000337   0.000001
    21  H    0.000000   0.000001   0.000018   0.000012   0.000030   0.000000
    22  H   -0.000014   0.000002  -0.000081  -0.001955   0.000849   0.000000
    23  H    0.000000   0.000000  -0.000011   0.000001   0.000000   0.000000
    24  H    0.000001   0.000004  -0.000034  -0.000004   0.000000   0.000000
    25  H    0.000000  -0.000002  -0.000034   0.000001   0.000000   0.000000
    26  H    0.000000   0.000001   0.000014   0.000021  -0.000001   0.000000
    27  H    0.000000  -0.000007  -0.000234   0.000093   0.000000   0.000000
    28  H    0.000000  -0.000004   0.000344  -0.000525   0.000002   0.000000
    29  H   -0.006554  -0.026057   0.004192  -0.000172   0.000027   0.005806
    30  H   -0.006715  -0.032244  -0.007775   0.002937  -0.000004  -0.000420
    31  H    0.004274  -0.025548  -0.006854   0.000006  -0.000056   0.000179
    32  H   -0.025234  -0.003782   0.001294  -0.000774   0.003233   0.005575
    33  H   -0.031285  -0.003314   0.000109  -0.000010   0.000066   0.000896
    34  H    0.004145  -0.000139   0.000000   0.000001  -0.000008   0.000056
    35  H   -0.007495   0.000235  -0.000007   0.000057   0.000716  -0.000211
    36  H   -0.006164   0.000003   0.000004  -0.000002   0.000009   0.006896
    37  C    0.004521  -0.057813   0.349062  -0.054021   0.002999  -0.000146
    38  C    0.000171  -0.006152  -0.035889   0.004611  -0.000084  -0.000001
    39  C    0.000017   0.001123  -0.001400  -0.000050   0.000001   0.000000
    40  H   -0.000097   0.005760  -0.030580  -0.006201   0.000090   0.000002
    41  H    0.000027  -0.005921  -0.023134  -0.002525  -0.000057   0.000002
    42  H   -0.000017  -0.000861  -0.003968   0.000156   0.000001   0.000000
    43  H    0.000000  -0.000039  -0.000063   0.000002   0.000000   0.000000
    44  H    0.000000  -0.000057   0.000166  -0.000009   0.000000   0.000000
               7          8          9         10         11         12
     1  C   -0.036072   0.000133   0.000085   0.182550   0.002157   0.365039
     2  C    0.370682   0.005374  -0.001822  -0.032744   0.000046  -0.038299
     3  C   -0.029089  -0.029027  -0.022111  -0.000793   0.002338  -0.011479
     4  C    0.005775   0.360446   0.363314  -0.094555  -0.083523   0.000969
     5  C    0.000415  -0.027648  -0.027115   0.262648   0.556580  -0.001855
     6  H    0.000444   0.000017   0.000033  -0.036334  -0.000103  -0.059310
     7  H    0.608618  -0.000114  -0.000026   0.002650   0.000004  -0.003380
     8  H   -0.000114   0.566142  -0.022142   0.003298   0.002994  -0.000001
     9  H   -0.000026  -0.022142   0.548571  -0.000147  -0.000710  -0.000021
    10  O    0.002650   0.003298  -0.000147   8.307171  -0.074201  -0.049368
    11  O    0.000004   0.002994  -0.000710  -0.074201   8.098091   0.000086
    12  C   -0.003380  -0.000001  -0.000021  -0.049368   0.000086   4.953634
    13  C    0.000061   0.000000  -0.000001  -0.001962  -0.000016   0.346912
    14  C   -0.037849   0.000064   0.000038  -0.000445   0.000003   0.005774
    15  O   -0.000803  -0.004621   0.002852  -0.000695   0.000027   0.001117
    16  Si   0.000510   0.004349  -0.000127  -0.000205  -0.001684   0.001698
    17  C   -0.000001  -0.000083  -0.000011   0.000000   0.000004   0.000003
    18  C    0.000002  -0.000945   0.000030  -0.000062  -0.001462  -0.000672
    19  C   -0.000014  -0.000010   0.000001   0.000000   0.000000  -0.000052
    20  H    0.000000   0.000038  -0.000003  -0.000017   0.000066  -0.000186
    21  H    0.000000   0.000008   0.000000   0.000000   0.000043   0.000010
    22  H    0.000000   0.001819   0.000056   0.000033   0.005953   0.000030
    23  H    0.000000   0.000001   0.000000   0.000000   0.000000   0.000000
    24  H   -0.000001   0.000001   0.000000   0.000000   0.000000   0.000064
    25  H   -0.000001   0.000000   0.000000   0.000000   0.000000  -0.000005
    26  H    0.000000   0.000000   0.000000   0.000000   0.000000   0.000000
    27  H   -0.000001  -0.000048   0.000002   0.000000   0.000000   0.000000
    28  H    0.000000   0.001937  -0.000010   0.000000  -0.000004   0.000000
    29  H   -0.003614   0.000001  -0.000009  -0.000117   0.000000   0.000069
    30  H    0.005257  -0.000013   0.002812   0.004478  -0.000032   0.000181
    31  H   -0.003478  -0.000013   0.000085  -0.000003   0.000000  -0.000157
    32  H   -0.000030   0.000003   0.000019  -0.003416  -0.000232   0.381566
    33  H    0.002881  -0.000003   0.000001   0.003177  -0.000002   0.377446
    34  H   -0.000010   0.000000   0.000000   0.000032   0.000000  -0.027705
    35  H   -0.000008  -0.000001   0.000000   0.007195   0.000040  -0.033200
    36  H    0.000010   0.000000   0.000000  -0.000141   0.000000  -0.035445
    37  C   -0.008651  -0.005338  -0.004598  -0.000104  -0.000073   0.000023
    38  C    0.008206   0.000000   0.000072   0.000001   0.000000  -0.000011
    39  C    0.001218   0.000002  -0.000016   0.000000   0.000000  -0.000001
    40  H    0.000059   0.002760   0.000185   0.000000   0.000000  -0.000003
    41  H    0.000199  -0.000006   0.002563  -0.000006   0.000001  -0.000006
    42  H    0.000590   0.000002  -0.000002   0.000000   0.000000  -0.000001
    43  H    0.000024   0.000000   0.000000   0.000000   0.000000   0.000000
    44  H    0.000007   0.000000  -0.000001   0.000000   0.000000   0.000000
              13         14         15         16         17         18
     1  C   -0.039097  -0.047018  -0.001505   0.000029  -0.000002   0.000007
     2  C    0.004691   0.333940  -0.050790  -0.002150  -0.000031   0.000006
     3  C    0.000039  -0.041220   0.209442  -0.010736  -0.000993  -0.001785
     4  C    0.000030  -0.001866  -0.043220   0.001253  -0.001709   0.000463
     5  C   -0.000266  -0.000085   0.003820   0.000000   0.000076   0.000065
     6  H   -0.008522  -0.010448  -0.000105   0.000007   0.000000  -0.000001
     7  H    0.000061  -0.037849  -0.000803   0.000510  -0.000001   0.000002
     8  H    0.000000   0.000064  -0.004621   0.004349  -0.000083  -0.000945
     9  H   -0.000001   0.000038   0.002852  -0.000127  -0.000011   0.000030
    10  O   -0.001962  -0.000445  -0.000695  -0.000205   0.000000  -0.000062
    11  O   -0.000016   0.000003   0.000027  -0.001684   0.000004  -0.001462
    12  C    0.346912   0.005774   0.001117   0.001698   0.000003  -0.000672
    13  C    4.965119  -0.000174   0.000348  -0.000167   0.000000   0.000006
    14  C   -0.000174   5.005248   0.002948   0.000215   0.000001   0.000000
    15  O    0.000348   0.002948   8.306324   0.315749  -0.013527  -0.015881
    16  Si  -0.000167   0.000215   0.315749  11.849063   0.368061   0.373531
    17  C    0.000000   0.000001  -0.013527   0.368061   5.146471  -0.034901
    18  C    0.000006   0.000000  -0.015881   0.373531  -0.034901   5.157532
    19  C    0.000000   0.000000  -0.018761   0.380404  -0.031561  -0.034714
    20  H    0.000022   0.000000  -0.001132  -0.030031   0.001322   0.379462
    21  H    0.000000   0.000000   0.000591  -0.013324  -0.000227   0.366170
    22  H    0.000000   0.000000  -0.000242  -0.027389  -0.001458   0.372444
    23  H    0.000000   0.000000   0.000508  -0.014954  -0.000733  -0.000442
    24  H   -0.000003   0.000000  -0.000445  -0.024031   0.001411  -0.001416
    25  H    0.000000   0.000000  -0.000425  -0.026535  -0.001232   0.001399
    26  H    0.000000   0.000000   0.000458  -0.013524   0.371709  -0.000468
    27  H    0.000000   0.000000  -0.000263  -0.025443   0.376976   0.001379
    28  H    0.000000   0.000000  -0.000429  -0.029436   0.375444  -0.001486
    29  H   -0.000020   0.378480  -0.000052  -0.000006   0.000000   0.000000
    30  H    0.000000   0.381819   0.000001   0.000000   0.000000   0.000000
    31  H    0.000002   0.375823  -0.000003  -0.000019   0.000000   0.000000
    32  H   -0.042269  -0.000119  -0.000417   0.003678  -0.000004   0.000437
    33  H   -0.040605   0.000039   0.000088   0.000861   0.000000  -0.000007
    34  H    0.380337   0.000002  -0.000001   0.000007   0.000000   0.000000
    35  H    0.386846   0.000000  -0.000001   0.000034   0.000000  -0.000001
    36  H    0.381542  -0.000018  -0.000005   0.000010   0.000000   0.000000
    37  C    0.000003  -0.001639  -0.055428  -0.006086  -0.001553  -0.000138
    38  C    0.000000  -0.003401   0.000843   0.001530  -0.000457   0.000007
    39  C    0.000000  -0.001723   0.000361  -0.000228   0.000002   0.000000
    40  H    0.000000  -0.000041  -0.002571  -0.002292   0.002209  -0.000029
    41  H    0.000000   0.001418   0.003013   0.000686   0.000007   0.000001
    42  H    0.000000  -0.000001   0.004451   0.003093  -0.000324   0.000006
    43  H    0.000000   0.000037   0.000004   0.000017   0.000000   0.000000
    44  H    0.000000  -0.000369  -0.000003   0.000024  -0.000001   0.000000
              19         20         21         22         23         24
     1  C    0.000009  -0.000026   0.000000  -0.000014   0.000000   0.000001
     2  C   -0.000019   0.000021   0.000001   0.000002   0.000000   0.000004
     3  C    0.000940   0.000003   0.000018  -0.000081  -0.000011  -0.000034
     4  C   -0.000059   0.000048   0.000012  -0.001955   0.000001  -0.000004
     5  C   -0.000006   0.000337   0.000030   0.000849   0.000000   0.000000
     6  H    0.000000   0.000001   0.000000   0.000000   0.000000   0.000000
     7  H   -0.000014   0.000000   0.000000   0.000000   0.000000  -0.000001
     8  H   -0.000010   0.000038   0.000008   0.001819   0.000001   0.000001
     9  H    0.000001  -0.000003   0.000000   0.000056   0.000000   0.000000
    10  O    0.000000  -0.000017   0.000000   0.000033   0.000000   0.000000
    11  O    0.000000   0.000066   0.000043   0.005953   0.000000   0.000000
    12  C   -0.000052  -0.000186   0.000010   0.000030   0.000000   0.000064
    13  C    0.000000   0.000022   0.000000   0.000000   0.000000  -0.000003
    14  C    0.000000   0.000000   0.000000   0.000000   0.000000   0.000000
    15  O   -0.018761  -0.001132   0.000591  -0.000242   0.000508  -0.000445
    16  Si   0.380404  -0.030031  -0.013324  -0.027389  -0.014954  -0.024031
    17  C   -0.031561   0.001322  -0.000227  -0.001458  -0.000733   0.001411
    18  C   -0.034714   0.379462   0.366170   0.372444  -0.000442  -0.001416
    19  C    5.117054  -0.000861  -0.000948   0.001382   0.373413   0.376015
    20  H   -0.000861   0.571832  -0.022698  -0.021732  -0.000019   0.000582
    21  H   -0.000948  -0.022698   0.573914  -0.022076   0.000004  -0.000052
    22  H    0.001382  -0.021732  -0.022076   0.569227   0.000000   0.000005
    23  H    0.373413  -0.000019   0.000004   0.000000   0.567932  -0.023570
    24  H    0.376015   0.000582  -0.000052   0.000005  -0.023570   0.574679
    25  H    0.375555  -0.000001   0.000021  -0.000027  -0.023452  -0.021979
    26  H   -0.001084   0.000017   0.000081  -0.000018   0.000088   0.000016
    27  H   -0.001218  -0.000026   0.000003   0.000012  -0.000067   0.000007
    28  H    0.001495   0.000007  -0.000021   0.000552  -0.000003  -0.000028
    29  H    0.000000   0.000000   0.000000   0.000000   0.000000   0.000000
    30  H    0.000000   0.000000   0.000000   0.000000   0.000000   0.000000
    31  H    0.000000   0.000000   0.000000   0.000000   0.000000   0.000000
    32  H   -0.000335   0.002432   0.000005  -0.000028   0.000006   0.000014
    33  H   -0.000021  -0.000006   0.000000  -0.000001   0.000000   0.000036
    34  H    0.000000   0.000007   0.000000   0.000000   0.000000   0.000001
    35  H    0.000000   0.000020   0.000000  -0.000001   0.000000   0.000000
    36  H    0.000000   0.000000   0.000000   0.000000   0.000000   0.000000
    37  C   -0.000080  -0.000001   0.000001  -0.000026   0.000000   0.000006
    38  C   -0.000085   0.000000   0.000000   0.000001   0.000001  -0.000001
    39  C    0.000000   0.000000   0.000000   0.000000   0.000000   0.000000
    40  H   -0.000006   0.000000   0.000002  -0.000010   0.000001   0.000000
    41  H    0.000000   0.000000   0.000000   0.000000   0.000000   0.000000
    42  H   -0.000079   0.000000   0.000000   0.000000   0.000000  -0.000003
    43  H    0.000000   0.000000   0.000000   0.000000   0.000000   0.000000
    44  H    0.000000   0.000000   0.000000   0.000000   0.000000   0.000000
              25         26         27         28         29         30
     1  C    0.000000   0.000000   0.000000   0.000000  -0.006554  -0.006715
     2  C   -0.000002   0.000001  -0.000007  -0.000004  -0.026057  -0.032244
     3  C   -0.000034   0.000014  -0.000234   0.000344   0.004192  -0.007775
     4  C    0.000001   0.000021   0.000093  -0.000525  -0.000172   0.002937
     5  C    0.000000  -0.000001   0.000000   0.000002   0.000027  -0.000004
     6  H    0.000000   0.000000   0.000000   0.000000   0.005806  -0.000420
     7  H   -0.000001   0.000000  -0.000001   0.000000  -0.003614   0.005257
     8  H    0.000000   0.000000  -0.000048   0.001937   0.000001  -0.000013
     9  H    0.000000   0.000000   0.000002  -0.000010  -0.000009   0.002812
    10  O    0.000000   0.000000   0.000000   0.000000  -0.000117   0.004478
    11  O    0.000000   0.000000   0.000000  -0.000004   0.000000  -0.000032
    12  C   -0.000005   0.000000   0.000000   0.000000   0.000069   0.000181
    13  C    0.000000   0.000000   0.000000   0.000000  -0.000020   0.000000
    14  C    0.000000   0.000000   0.000000   0.000000   0.378480   0.381819
    15  O   -0.000425   0.000458  -0.000263  -0.000429  -0.000052   0.000001
    16  Si  -0.026535  -0.013524  -0.025443  -0.029436  -0.000006   0.000000
    17  C   -0.001232   0.371709   0.376976   0.375444   0.000000   0.000000
    18  C    0.001399  -0.000468   0.001379  -0.001486   0.000000   0.000000
    19  C    0.375555  -0.001084  -0.001218   0.001495   0.000000   0.000000
    20  H   -0.000001   0.000017  -0.000026   0.000007   0.000000   0.000000
    21  H    0.000021   0.000081   0.000003  -0.000021   0.000000   0.000000
    22  H   -0.000027  -0.000018   0.000012   0.000552   0.000000   0.000000
    23  H   -0.023452   0.000088  -0.000067  -0.000003   0.000000   0.000000
    24  H   -0.021979   0.000016   0.000007  -0.000028   0.000000   0.000000
    25  H    0.580618  -0.000036   0.000662   0.000000   0.000000   0.000000
    26  H   -0.000036   0.562430  -0.023222  -0.022390   0.000000   0.000000
    27  H    0.000662  -0.023222   0.573092  -0.024144   0.000000   0.000000
    28  H    0.000000  -0.022390  -0.024144   0.580428   0.000000   0.000000
    29  H    0.000000   0.000000   0.000000   0.000000   0.594138  -0.029940
    30  H    0.000000   0.000000   0.000000   0.000000  -0.029940   0.598765
    31  H    0.000000   0.000000   0.000000   0.000000  -0.029476  -0.030856
    32  H    0.000012   0.000000   0.000001  -0.000001  -0.000001   0.000001
    33  H   -0.000002   0.000000   0.000000   0.000000   0.000014  -0.000008
    34  H    0.000000   0.000000   0.000000   0.000000   0.000000   0.000000
    35  H    0.000000   0.000000   0.000000   0.000000   0.000000  -0.000002
    36  H    0.000000   0.000000   0.000000   0.000000  -0.000005   0.000000
    37  C   -0.000024   0.000157  -0.001500  -0.001617   0.000091  -0.001203
    38  C   -0.000051  -0.000006   0.000975  -0.000012  -0.000010   0.000227
    39  C   -0.000001   0.000000   0.000033  -0.000001  -0.000007   0.000015
    40  H   -0.000008   0.000103   0.000888   0.002668  -0.000004  -0.000007
    41  H    0.000000  -0.000002   0.000022   0.000003   0.000051   0.000270
    42  H    0.000438   0.000002   0.000228   0.000015   0.000004  -0.000002
    43  H    0.000000   0.000000   0.000001   0.000000  -0.000001   0.000000
    44  H    0.000000   0.000000   0.000000   0.000000   0.000009  -0.000002
              31         32         33         34         35         36
     1  C    0.004274  -0.025234  -0.031285   0.004145  -0.007495  -0.006164
     2  C   -0.025548  -0.003782  -0.003314  -0.000139   0.000235   0.000003
     3  C   -0.006854   0.001294   0.000109   0.000000  -0.000007   0.000004
     4  C    0.000006  -0.000774  -0.000010   0.000001   0.000057  -0.000002
     5  C   -0.000056   0.003233   0.000066  -0.000008   0.000716   0.000009
     6  H    0.000179   0.005575   0.000896   0.000056  -0.000211   0.006896
     7  H   -0.003478  -0.000030   0.002881  -0.000010  -0.000008   0.000010
     8  H   -0.000013   0.000003  -0.000003   0.000000  -0.000001   0.000000
     9  H    0.000085   0.000019   0.000001   0.000000   0.000000   0.000000
    10  O   -0.000003  -0.003416   0.003177   0.000032   0.007195  -0.000141
    11  O    0.000000  -0.000232  -0.000002   0.000000   0.000040   0.000000
    12  C   -0.000157   0.381566   0.377446  -0.027705  -0.033200  -0.035445
    13  C    0.000002  -0.042269  -0.040605   0.380337   0.386846   0.381542
    14  C    0.375823  -0.000119   0.000039   0.000002   0.000000  -0.000018
[...]
    16  Si   0.381820  -0.025868  -0.014545  -0.024786  -0.014915  -0.024022
    17  C   -0.027744   0.001192  -0.000382  -0.000930  -0.000440   0.001194
    18  C   -0.030538   0.379301   0.363949   0.370165  -0.000084  -0.001295
    19  C    5.116245  -0.001325  -0.000278   0.001146   0.368406   0.377753
    20  H   -0.001325   0.571409  -0.024122  -0.022962  -0.000056   0.000529
    21  H   -0.000278  -0.024122   0.579207  -0.021104  -0.000066  -0.000003
    22  H    0.001146  -0.022962  -0.021104   0.559898   0.000005   0.000005
    23  H    0.368406  -0.000056  -0.000066   0.000005   0.576136  -0.024013
    24  H    0.377753   0.000529  -0.000003   0.000005  -0.024013   0.570811
    25  H    0.377506   0.000009   0.000003  -0.000020  -0.024047  -0.022454
    26  H   -0.000710   0.000009   0.000129  -0.000014   0.000084   0.000008
    27  H   -0.001172  -0.000022   0.000007   0.000000  -0.000060   0.000000
    28  H    0.001223   0.000002  -0.000048   0.000285  -0.000004  -0.000021
    29  H    0.000000   0.000000   0.000000   0.000000   0.000000   0.000000
    30  H    0.000000   0.000000   0.000000   0.000000   0.000000   0.000000
    31  H    0.000000   0.000000   0.000000   0.000000   0.000000   0.000000
    32  H   -0.000294   0.000542   0.000011  -0.000013   0.000003   0.000724
    33  H   -0.000003   0.000001   0.000000  -0.000001   0.000000   0.000009
    34  H    0.000000  -0.000001   0.000000   0.000000   0.000000   0.000001
    35  H    0.000000   0.000113   0.000000  -0.000005   0.000000   0.000000
    36  H    0.000000   0.000000   0.000000   0.000000   0.000000   0.000000
    37  C   -0.000072  -0.000001   0.000001  -0.000022   0.000000   0.000006
    38  C   -0.000138   0.000000   0.000000   0.000000   0.000002  -0.000002
    39  C    0.000000   0.000000   0.000000   0.000000   0.000000   0.000000
    40  H   -0.000024   0.000001   0.000002  -0.000009   0.000001   0.000001
    41  H    0.000000   0.000000   0.000000   0.000000   0.000000   0.000000
    42  H    0.000000   0.000000   0.000000   0.000000  -0.000001  -0.000005
    43  H    0.000000   0.000000   0.000000   0.000000   0.000000   0.000000
    44  H    0.000000   0.000000   0.000000   0.000000   0.000000   0.000000
              25         26         27         28         29         30
     1  C    0.000001   0.000000   0.000000   0.000000  -0.006432  -0.005683
     2  C   -0.000002   0.000001  -0.000006  -0.000004  -0.025831  -0.032106
     3  C   -0.000038   0.000004  -0.000229   0.000245   0.004210  -0.007206
     4  C   -0.000001   0.000020   0.000085  -0.000482  -0.000101   0.002426
     5  C    0.000000  -0.000001   0.000001  -0.000003   0.000001   0.000221
     6  H    0.000000   0.000000   0.000000   0.000000   0.005115   0.000052
     7  H   -0.000002   0.000000   0.000000   0.000000  -0.003969   0.005201
     8  H    0.000000  -0.000006  -0.000069   0.001877   0.000001  -0.000037
     9  H    0.000000   0.000000   0.000000  -0.000003  -0.000023   0.003223
    10  O    0.000000   0.000000   0.000000   0.000000  -0.000019   0.001822
    11  O    0.000000   0.000000   0.000000  -0.000005   0.000000  -0.000025
    12  C   -0.000002   0.000000   0.000000   0.000000   0.000066   0.000135
    13  C    0.000000   0.000000   0.000000   0.000000  -0.000023   0.000004
    14  C    0.000000   0.000000   0.000000   0.000000   0.378070   0.381610
    15  O   -0.000591   0.000490  -0.000359  -0.000475  -0.000056  -0.000001
    16  Si  -0.024840  -0.014240  -0.023794  -0.026138  -0.000006   0.000002
    17  C   -0.001224   0.368393   0.377066   0.376764   0.000000   0.000000
    18  C    0.001176  -0.000466   0.001211  -0.001006   0.000000   0.000000
    19  C    0.377506  -0.000710  -0.001172   0.001223   0.000000   0.000000
    20  H    0.000009   0.000009  -0.000022   0.000002   0.000000   0.000000
    21  H    0.000003   0.000129   0.000007  -0.000048   0.000000   0.000000
    22  H   -0.000020  -0.000014   0.000000   0.000285   0.000000   0.000000
    23  H   -0.024047   0.000084  -0.000060  -0.000004   0.000000   0.000000
    24  H   -0.022454   0.000008   0.000000  -0.000021   0.000000   0.000000
    25  H    0.574457  -0.000022   0.000566   0.000005   0.000000   0.000000
    26  H   -0.000022   0.569758  -0.023514  -0.023185   0.000000   0.000000
    27  H    0.000566  -0.023514   0.571759  -0.024474   0.000000   0.000000
    28  H    0.000005  -0.023185  -0.024474   0.574808   0.000000   0.000000
    29  H    0.000000   0.000000   0.000000   0.000000   0.591840  -0.030585
    30  H    0.000000   0.000000   0.000000   0.000000  -0.030585   0.599597
    31  H    0.000000   0.000000   0.000000   0.000000  -0.028023  -0.031082
    32  H    0.000006   0.000000   0.000000   0.000000  -0.000004  -0.000005
    33  H    0.000000   0.000000   0.000000   0.000000   0.000084  -0.000008
    34  H    0.000000   0.000000   0.000000   0.000000   0.000000   0.000000
    35  H    0.000000   0.000000   0.000000   0.000000   0.000000  -0.000001
    36  H    0.000000   0.000000   0.000000   0.000000  -0.000003   0.000000
    37  C   -0.000026   0.000105  -0.000934  -0.000774   0.000081  -0.001091
    38  C   -0.000083  -0.000004   0.000655   0.000000  -0.000025   0.000226
    39  C   -0.000001   0.000000   0.000022   0.000000  -0.000008   0.000012
    40  H   -0.000011   0.000049   0.000981   0.001695  -0.000003  -0.000010
    41  H    0.000000  -0.000001   0.000011  -0.000010   0.000046   0.000233
    42  H    0.000751   0.000002   0.000077   0.000010   0.000004  -0.000002
    43  H   -0.000001   0.000000   0.000000   0.000000   0.000000   0.000000
    44  H    0.000000   0.000000   0.000000   0.000000   0.000007  -0.000002
              31         32         33         34         35         36
     1  C    0.004236  -0.029583  -0.032769   0.003888  -0.008035  -0.004254
     2  C   -0.025930  -0.005409  -0.004897  -0.000107   0.000136   0.000004
     3  C   -0.007278   0.000167   0.000517  -0.000001   0.000016  -0.000001
     4  C   -0.000134  -0.000188  -0.000031   0.000001   0.000039  -0.000001
     5  C   -0.000049   0.000918   0.000006  -0.000004   0.000564  -0.000012
     6  H    0.000277   0.005800  -0.000825  -0.000007  -0.000069   0.005970
     7  H   -0.003240   0.000498   0.003264  -0.000013  -0.000004   0.000007
     8  H   -0.000021   0.000002  -0.000001   0.000000  -0.000001   0.000000
     9  H    0.000084   0.000002   0.000001   0.000000   0.000000   0.000000
    10  O   -0.000059  -0.002405   0.003337   0.000130   0.008515  -0.000235
    11  O    0.000000  -0.000049   0.000001   0.000000   0.000017   0.000000
    12  C   -0.000169   0.381709   0.370681  -0.026812  -0.033427  -0.035678
    13  C    0.000002  -0.035477  -0.037040   0.379569   0.387938   0.383127
    14  C    0.376726   0.000001  -0.000072   0.000002  -0.000003  -0.000009
    15  O   -0.000003   0.005394   0.000036  -0.000001   0.000006  -0.000003
    16  Si  -0.000012   0.004076   0.000087   0.000006   0.000058   0.000003
    17  C    0.000000   0.000008   0.000000   0.000000   0.000000   0.000000
    18  C    0.000000  -0.000214   0.000001   0.000000   0.000003   0.000000
    19  C    0.000000  -0.000294  -0.000003   0.000000   0.000000   0.000000
    20  H    0.000000   0.000542   0.000001  -0.000001   0.000113   0.000000
    21  H    0.000000   0.000011   0.000000   0.000000   0.000000   0.000000
    22  H    0.000000  -0.000013  -0.000001   0.000000  -0.000005   0.000000
    23  H    0.000000   0.000003   0.000000   0.000000   0.000000   0.000000
    24  H    0.000000   0.000724   0.000009   0.000001   0.000000   0.000000
    25  H    0.000000   0.000006   0.000000   0.000000   0.000000   0.000000
    26  H    0.000000   0.000000   0.000000   0.000000   0.000000   0.000000
    27  H    0.000000   0.000000   0.000000   0.000000   0.000000   0.000000
    28  H    0.000000   0.000000   0.000000   0.000000   0.000000   0.000000
    29  H   -0.028023  -0.000004   0.000084   0.000000   0.000000  -0.000003
    30  H   -0.031082  -0.000005  -0.000008   0.000000  -0.000001   0.000000
    31  H    0.587401   0.000006  -0.000008   0.000000   0.000000   0.000000
    32  H    0.000006   0.570506  -0.031574  -0.003006  -0.004058   0.004773
    33  H   -0.000008  -0.031574   0.630469  -0.003554   0.005240  -0.004374
    34  H    0.000000  -0.003006  -0.003554   0.607940  -0.030309  -0.031612
    35  H    0.000000  -0.004058   0.005240  -0.030309   0.581601  -0.031392
    36  H    0.000000   0.004773  -0.004374  -0.031612  -0.031392   0.610874
    37  C    0.001166  -0.000008   0.000017   0.000000   0.000000   0.000000
    38  C    0.002425  -0.000007  -0.000010   0.000000   0.000000   0.000000
    39  C    0.003977   0.000000   0.000000   0.000000   0.000000   0.000000
    40  H    0.000202   0.000003   0.000000   0.000000   0.000000   0.000000
    41  H    0.000102  -0.000001   0.000000   0.000000   0.000000   0.000000
    42  H    0.000009  -0.000003  -0.000002   0.000000   0.000000   0.000000
    43  H   -0.000053   0.000000   0.000000   0.000000   0.000000   0.000000
    44  H    0.001024   0.000000   0.000000   0.000000   0.000000   0.000000
              37         38         39         40         41         42
     1  C    0.005213   0.000156   0.000016  -0.000099  -0.000055  -0.000034
     2  C   -0.058959  -0.007178   0.000888   0.006166  -0.005028  -0.001462
     3  C    0.356609  -0.035379  -0.001136  -0.032347  -0.025208  -0.004383
     4  C   -0.053388   0.004818  -0.000067  -0.007818  -0.001963   0.000243
     5  C    0.003006  -0.000086   0.000001   0.000072  -0.000026   0.000001
     6  H   -0.000128  -0.000001   0.000000   0.000003   0.000000   0.000000
     7  H   -0.010078   0.009493   0.001142   0.000087   0.000251   0.001065
     8  H   -0.005487   0.000029   0.000003   0.003456   0.000018   0.000003
     9  H   -0.003973  -0.000026  -0.000014   0.000211   0.002323  -0.000006
    10  O   -0.000035   0.000002   0.000000  -0.000001  -0.000001   0.000000
    11  O   -0.000069   0.000000   0.000000  -0.000001   0.000001   0.000000
    12  C   -0.000067  -0.000013  -0.000001  -0.000003  -0.000002   0.000002
    13  C    0.000002   0.000000   0.000000   0.000000   0.000000   0.000000
    14  C   -0.002077  -0.003408  -0.001406  -0.000042   0.001074   0.000015
    15  O   -0.057769  -0.000232   0.000421  -0.003284   0.003364   0.006002
    16  Si  -0.004935   0.001197  -0.000154  -0.001418   0.000535   0.002697
    17  C   -0.001402  -0.000298  -0.000002   0.002415   0.000001  -0.000273
    18  C   -0.000100   0.000005   0.000000  -0.000035   0.000001   0.000007
    19  C   -0.000072  -0.000138   0.000000  -0.000024   0.000000   0.000000
    20  H   -0.000001   0.000000   0.000000   0.000001   0.000000   0.000000
    21  H    0.000001   0.000000   0.000000   0.000002   0.000000   0.000000
    22  H   -0.000022   0.000000   0.000000  -0.000009   0.000000   0.000000
    23  H    0.000000   0.000002   0.000000   0.000001   0.000000  -0.000001
    24  H    0.000006  -0.000002   0.000000   0.000001   0.000000  -0.000005
    25  H   -0.000026  -0.000083  -0.000001  -0.000011   0.000000   0.000751
    26  H    0.000105  -0.000004   0.000000   0.000049  -0.000001   0.000002
    27  H   -0.000934   0.000655   0.000022   0.000981   0.000011   0.000077
    28  H   -0.000774   0.000000   0.000000   0.001695  -0.000010   0.000010
    29  H    0.000081  -0.000025  -0.000008  -0.000003   0.000046   0.000004
    30  H   -0.001091   0.000226   0.000012  -0.000010   0.000233  -0.000002
    31  H    0.001166   0.002425   0.003977   0.000202   0.000102   0.000009
    32  H   -0.000008  -0.000007   0.000000   0.000003  -0.000001  -0.000003
    33  H    0.000017  -0.000010   0.000000   0.000000   0.000000  -0.000002
    34  H    0.000000   0.000000   0.000000   0.000000   0.000000   0.000000
    35  H    0.000000   0.000000   0.000000   0.000000   0.000000   0.000000
    36  H    0.000000   0.000000   0.000000   0.000000   0.000000   0.000000
    37  C    5.048198   0.378973  -0.039335   0.370479   0.364525  -0.053000
    38  C    0.378973   4.771015   0.654114  -0.035385  -0.038286   0.384368
    39  C   -0.039335   0.654114   4.939861  -0.000302  -0.006439  -0.044167
    40  H    0.370479  -0.035385  -0.000302   0.609914  -0.031866  -0.001350
    41  H    0.364525  -0.038286  -0.006439  -0.031866   0.620537   0.005184
    42  H   -0.053000   0.384368  -0.044167  -0.001350   0.005184   0.600622
    43  H    0.004572  -0.024693   0.376218  -0.000206   0.000109  -0.007974
    44  H   -0.011819  -0.034665   0.381440   0.000183   0.005594   0.005576
              43         44
     1  C    0.000000   0.000000
     2  C   -0.000037  -0.000055
     3  C   -0.000072   0.000186
     4  C    0.000002  -0.000008
     5  C    0.000000   0.000000
     6  H    0.000000   0.000000
     7  H    0.000027   0.000013
     8  H    0.000000   0.000000
     9  H    0.000000   0.000000
    10  O    0.000000   0.000000
    11  O    0.000000   0.000000
    12  C    0.000000   0.000000
    13  C    0.000000   0.000000
    14  C    0.000028  -0.000268
    15  O    0.000004  -0.000003
    16  Si   0.000016   0.000018
    17  C    0.000000   0.000000
    18  C    0.000000   0.000000
    19  C    0.000000   0.000000
    20  H    0.000000   0.000000
    21  H    0.000000   0.000000
    22  H    0.000000   0.000000
    23  H    0.000000   0.000000
    24  H    0.000000   0.000000
    25  H   -0.000001   0.000000
    26  H    0.000000   0.000000
    27  H    0.000000   0.000000
    28  H    0.000000   0.000000
    29  H    0.000000   0.000007
    30  H    0.000000  -0.000002
    31  H   -0.000053   0.001024
    32  H    0.000000   0.000000
    33  H    0.000000   0.000000
    34  H    0.000000   0.000000
    35  H    0.000000   0.000000
    36  H    0.000000   0.000000
    37  C    0.004572  -0.011819
    38  C   -0.024693  -0.034665
    39  C    0.376218   0.381440
    40  H   -0.000206   0.000183
    41  H    0.000109   0.005594
    42  H   -0.007974   0.005576
    43  H    0.589855  -0.043632
    44  H   -0.043632   0.595522
 Mulliken charges:
               1
     1  C    0.176806
     2  C   -0.095946
     3  C    0.293406
     4  C   -0.300584
     5  C    0.614213
     6  H    0.109677
     7  H    0.116555
     8  H    0.140302
     9  H    0.150038
    10  O   -0.479653
    11  O   -0.512127
    12  C   -0.192935
    13  C   -0.329716
    14  C   -0.341792
    15  O   -0.651384
    16  Si   0.939975
    17  C   -0.558986
    18  C   -0.559566
    19  C   -0.540208
    20  H    0.121557
    21  H    0.116554
    22  H    0.128699
    23  H    0.118359
    24  H    0.121465
    25  H    0.118886
    26  H    0.123110
    27  H    0.122190
    28  H    0.119718
    29  H    0.115583
    30  H    0.113082
    31  H    0.118421
    32  H    0.137149
    33  H    0.101421
    34  H    0.103889
    35  H    0.123058
    36  H    0.102815
    37  C   -0.227406
    38  C   -0.027559
    39  C   -0.265083
    40  H    0.118297
    41  H    0.104975
    42  H    0.106020
    43  H    0.105836
    44  H    0.100888
 Sum of Mulliken charges =   0.00000
 Mulliken charges with hydrogens summed into heavy atoms:
               1
     1  C    0.286483
     2  C    0.020609
     3  C    0.293406
     4  C   -0.010245
     5  C    0.614213
    10  O   -0.479653
    11  O   -0.512127
    12  C    0.045635
    13  C    0.000046
    14  C    0.005294
    15  O   -0.651384
    16  Si   0.939975
    17  C   -0.193968
    18  C   -0.192756
    19  C   -0.181498
    37  C   -0.004134
    38  C    0.078462
    39  C   -0.058359
 Electronic spatial extent (au):  <R**2>=           4987.8824
 Charge=              0.0000 electrons
 Dipole moment (field-independent basis, Debye):
    X=             -2.9604    Y=              3.1475    Z=              2.2213  Tot=              4.8585
 Quadrupole moment (field-independent basis, Debye-Ang):
   XX=           -122.7467   YY=           -114.6062   ZZ=           -122.2991
   XY=              9.2697   XZ=              9.2239   YZ=             -7.1328
 Traceless Quadrupole moment (field-independent basis, Debye-Ang):
   XX=             -2.8627   YY=              5.2778   ZZ=             -2.4151
   XY=              9.2697   XZ=              9.2239   YZ=             -7.1328
 Octapole moment (field-independent basis, Debye-Ang**2):
  XXX=             -1.8065  YYY=              3.0736  ZZZ=             11.7599  XYY=             -8.7655
  XXY=              9.0149  XXZ=             22.3555  XZZ=            -13.3982  YZZ=             19.1245
  YYZ=              5.3444  XYZ=            -15.0516
 Hexadecapole moment (field-independent basis, Debye-Ang**3):
 XXXX=          -2944.6708 YYYY=          -2522.8135 ZZZZ=          -1315.9205 XXXY=             66.2676
 XXXZ=              9.6078 YYYX=             10.1505 YYYZ=            -11.0859 ZZZX=             31.7431
 ZZZY=            -31.7863 XXYY=           -893.4677 XXZZ=           -719.7691 YYZZ=           -653.3996
 XXYZ=             -7.0426 YYXZ=              6.7763 ZZXY=             20.1255
 N-N= 1.658677777602D+03 E-N=-5.807947176715D+03  KE= 1.055902767468D+03
 1\1\GINC-CPU-E-532\FOpt\RB3LYP\6-31G(d,p)\C14H26O3Si1\KE291\06-Feb-201
 9\0\\# b3lyp/6-31g(d,p) Opt=(maxcycles=25) scrf=(solvent=chloroform)\\
 P_ng_correct1ginp017\\0,1\C,0.7637715338,-0.3874991744,0.4698268617\C,
 0.2354938761,-0.1190239212,1.8993696601\C,-0.7908673594,1.0449061315,1
 .9293565247\C,-0.1332037007,2.2826117228,1.3078652176\C,0.5102069025,2
 .0463653457,-0.0428652323\H,1.7754076581,-0.8005632553,0.5588175876\H,
 -0.3118890549,-1.017049193,2.2051040653\H,-0.8425812706,3.1056447251,1
 .1956864655\H,0.6586522408,2.6522505588,1.9703817567\O,0.9796227395,0.
 821005454,-0.3322303233\O,0.6660781825,2.9396596183,-0.8523322808\C,-0
 .0603008356,-1.3674382127,-0.3709620774\C,0.5882935178,-1.7098395853,-
 1.7152638075\C,1.4136420301,0.0659031664,2.8738338669\O,-1.9087221746,
 0.6155400214,1.1448025355\Si,-3.2525324482,1.3471171549,0.4339424802\C
 ,-4.0141409163,2.7098957997,1.4985407561\C,-2.8083337882,2.0470006193,
 -1.2590764033\C,-4.4819162869,-0.0645137957,0.2431517321\H,-2.45360621
 69,1.2577622033,-1.9305687961\H,-3.6937850659,2.5008596846,-1.71952534
 25\H,-2.0275884772,2.8117086566,-1.2094860055\H,-5.3905016877,0.278037
 876,-0.2646871232\H,-4.0573784146,-0.8825613208,-0.3480252749\H,-4.775
 0810664,-0.4709004468,1.2168339582\H,-4.9142406187,3.0871378815,0.9984
 585991\H,-4.3170187297,2.3405216353,2.4836642296\H,-3.3460760485,3.564
 8595572,1.6463789704\H,2.0697388883,-0.8085016958,2.8253276407\H,2.023
 4958481,0.9415331674,2.6275192164\H,1.0765121528,0.1612833974,3.907565
 1433\H,-1.0630559537,-0.9600447469,-0.5167128482\H,-0.1749281083,-2.28
 09477151,0.2262598533\H,-0.0215543209,-2.4333855677,-2.2649526028\H,0.
 7004285656,-0.8183669957,-2.3379311659\H,1.5830948322,-2.1492129729,-1
 .5770676048\C,-1.2771673,1.371997248,3.3647721142\C,-1.9179850896,0.21
 34994296,4.078637328\C,-1.6158684827,-0.1808296374,5.3168820367\H,-2.0
 03911187,2.1886464226,3.271794615\H,-0.4479290814,1.7674795327,3.95938
 42053\H,-2.6898850499,-0.3170954373,3.5235863145\H,-2.1258890535,-1.01
 51069176,5.7896660199\H,-0.8533291807,0.3214695817,5.9083711342\\Versi
 on=ES64L-G09RevD.01\State=1-A\HF=-1064.4223325\RMSD=9.380e-09\RMSF=5.3
 22e-06\Dipole=-0.6520261,-0.8479529,1.5841535\Quadrupole=2.557332,-0.0
 232247,-2.5341073,-5.5539314,7.879315,5.9002809\PG=C01 [X(C14H26O3Si1)
 ]\\@


 SOME PHYSICISTS WOULD PREFER TO COME BACK TO THE IDEA OF AN OBJECTIVE
 REAL WORLD WHOSE SMALLEST PARTS EXIST OBJECTIVELY IN THE SAME SENSE AS
 STONES OR TREES EXIST INDEPENDENTLY OF WHETHER WE OBSERVE THEM.
 THIS, HOWEVER, IS IMPOSSIBLE.  -- WERNER HEISENBERG
 Job cpu time:       0 days  2 hours 43 minutes  8.3 seconds.
 File lengths (MBytes):  RWF=    359 Int=      0 D2E=      0 Chk=     17 Scr=      1
 Normal termination of Gaussian 09 at Wed Feb  6 11:32:32 2019.
