 Entering Gaussian System, Link 0=/usr/local/Cluster-Apps/gaussian/g09/g09
 Initial command:
 /usr/local/Cluster-Apps/gaussian/g09/l1.exe "/home/ke291/rds/hpc-work/06Feb0927IP1/Gau-172999.inp" -scrdir="/home/ke291/rds/hpc-work/06Feb0927IP1/"
 Entering Link 1 = /usr/local/Cluster-Apps/gaussian/g09/l1.exe PID=    173005.
  
 Copyright (c) 1988,1990,1992,1993,1995,1998,2003,2009,2013,
            Gaussian, Inc.  All Rights Reserved.
  
 This is part of the Gaussian(R) 09 program.  It is based on
 the Gaussian(R) 03 system (copyright 2003, Gaussian, Inc.),
 the Gaussian(R) 98 system (copyright 1998, Gaussian, Inc.),
 the Gaussian(R) 94 system (copyright 1995, Gaussian, Inc.),
 the Gaussian 92(TM) system (copyright 1992, Gaussian, Inc.),
 the Gaussian 90(TM) system (copyright 1990, Gaussian, Inc.),
 the Gaussian 88(TM) system (copyright 1988, Gaussian, Inc.),
 the Gaussian 86(TM) system (copyright 1986, Carnegie Mellon
 University), and the Gaussian 82(TM) system (copyright 1983,
 Carnegie Mellon University). Gaussian is a federally registered
 trademark of Gaussian, Inc.
  
 This software contains proprietary and confidential information,
 including trade secrets, belonging to Gaussian, Inc.
  
 This software is provided under written license and may be
 used, copied, transmitted, or stored only in accord with that
 written license.
  
 The following legend is applicable only to US Government
 contracts under FAR:
  
                    RESTRICTED RIGHTS LEGEND
  
 Use, reproduction and disclosure by the US Government is
 subject to restrictions as set forth in subparagraphs (a)
 and (c) of the Commercial Computer Software - Restricted
 Rights clause in FAR 52.227-19.
  
 Gaussian, Inc.
 340 Quinnipiac St., Bldg. 40, Wallingford CT 06492
  
  
 ---------------------------------------------------------------
 Warning -- This program may not be used in any manner that
 competes with the business of Gaussian, Inc. or will provide
 assistance to any competitor of Gaussian, Inc.  The licensee
 of this program is prohibited from giving any competitor of
 Gaussian, Inc. access to this program.  By using this program,
 the user acknowledges that Gaussian, Inc. is engaged in the
 business of creating and licensing software in the field of
 computational chemistry and represents and warrants to the
 licensee that it is not a competitor of Gaussian, Inc. and that
 it will not use this program in any manner prohibited above.
 ---------------------------------------------------------------
  

 Cite this work as:
 Gaussian 09, Revision D.01,
 M. J. Frisch, G. W. Trucks, H. B. Schlegel, G. E. Scuseria, 
 M. A. Robb, J. R. Cheeseman, G. Scalmani, V. Barone, B. Mennucci, 
 G. A. Petersson, H. Nakatsuji, M. Caricato, X. Li, H. P. Hratchian, 
 A. F. Izmaylov, J. Bloino, G. Zheng, J. L. Sonnenberg, M. Hada, 
 M. Ehara, K. Toyota, R. Fukuda, J. Hasegawa, M. Ishida, T. Nakajima, 
 Y. Honda, O. Kitao, H. Nakai, T. Vreven, J. A. Montgomery, Jr., 
 J. E. Peralta, F. Ogliaro, M. Bearpark, J. J. Heyd, E. Brothers, 
 K. N. Kudin, V. N. Staroverov, T. Keith, R. Kobayashi, J. Normand, 
 K. Raghavachari, A. Rendell, J. C. Burant, S. S. Iyengar, J. Tomasi, 
 M. Cossi, N. Rega, J. M. Millam, M. Klene, J. E. Knox, J. B. Cross, 
 V. Bakken, C. Adamo, J. Jaramillo, R. Gomperts, R. E. Stratmann, 
 O. Yazyev, A. J. Austin, R. Cammi, C. Pomelli, J. W. Ochterski, 
 R. L. Martin, K. Morokuma, V. G. Zakrzewski, G. A. Voth, 
 P. Salvador, J. J. Dannenberg, S. Dapprich, A. D. Daniels, 
 O. Farkas, J. B. Foresman, J. V. Ortiz, J. Cioslowski, 
 and D. J. Fox, Gaussian, Inc., Wallingford CT, 2013.
 
 ******************************************
 Gaussian 09:  ES64L-G09RevD.01 24-Apr-2013
                 6-Feb-2019 
 ******************************************
 %nprocshared=2
 Will use up to    2 processors via shared memory.
 %mem=6000MB
 %chk=/home/ke291/rds/hpc-work/06Feb0927IP1/P_ng_2ginp017.chk
 ---------------------------------------------------------------
 # b3lyp/6-31g(d,p) Opt=(maxcycles=25) scrf=(solvent=chloroform)
 ---------------------------------------------------------------
 1/6=25,14=-1,18=20,19=15,26=3,38=1/1,3;
 2/9=110,12=2,17=6,18=5,40=1/2;
 3/5=1,6=6,7=101,11=2,16=1,25=1,30=1,70=2201,71=1,72=7,74=-5/1,2,3;
 4//1;
 5/5=2,38=5,53=7/2;
 6/7=2,8=2,9=2,10=2,28=1/1;
 7//1,2,3,16;
 1/6=25,14=-1,18=20,19=15,26=3/3(2);
 2/9=110/2;
 99//99;
 2/9=110/2;
 3/5=1,6=6,7=101,11=2,16=1,25=1,30=1,70=2205,71=1,72=7,74=-5/1,2,3;
 4/5=5,16=3,69=1/1;
 5/5=2,38=5,53=7/2;
 7//1,2,3,16;
 1/6=25,14=-1,18=20,19=15,26=3/3(-5);
 2/9=110/2;
 6/7=2,8=2,9=2,10=2,19=2,28=1/1;
 99/9=1/99;
 -------------
 P_ng_2ginp017
 -------------
 Symbolic Z-matrix:
 Charge =  0 Multiplicity = 1
 C                    -0.12367   0.18325   0.99095 
 C                    -1.64862  -0.02932   1.0896 
 C                    -2.33988   1.18411   1.79128 
 C                    -1.64304   1.41541   3.13687 
 C                    -0.14035   1.43254   3.08267 
 H                     0.32862  -0.78351   0.734 
 H                    -2.03398  -0.12192   0.06514 
 H                    -1.96624   2.36037   3.58492 
 H                    -1.91236   0.62983   3.85364 
 O                     0.46185   0.55427   2.25415 
 O                     0.51555   2.10668   3.87236 
 C                     0.33621   1.17675  -0.0884 
 C                     1.83214   1.06117  -0.36501 
 C                    -1.89689  -1.38208   1.78754 
 O                    -2.20722   2.28928   0.8717 
 Si                   -2.46664   3.9277    1.11063 
 C                    -3.96788   4.3493    2.14814 
 C                    -0.96372   4.75145   1.88688 
 C                    -2.72175   4.73519  -0.58408 
 H                    -1.07473   5.83984   1.86825 
 H                    -0.84048   4.44413   2.92837 
 H                    -0.05401   4.49132   1.33835 
 H                    -1.84831   4.5644   -1.21996 
 H                    -3.60052   4.30977  -1.07721 
 H                    -2.86955   5.81343  -0.47525 
 H                    -4.09631   5.43473   2.20563 
 H                    -4.87783   3.92879   1.71043 
 H                    -3.86339   3.9733    3.16966 
 H                    -1.37784  -2.1873    1.25476 
 H                    -1.5357   -1.38843   2.82012 
 H                    -2.9548   -1.65371   1.79265 
 H                     0.15606   2.20727   0.22565 
 H                    -0.20916   1.00074  -1.02204 
 H                     2.12773   1.77547  -1.14007 
 H                     2.42001   1.27548   0.533 
 H                     2.09011   0.05665  -0.71511 
 C                    -3.85892   0.89887   2.04838 
 C                    -4.66962   0.62149   0.80673 
 C                    -5.45642  -0.44917   0.64045 
 H                    -4.31941   1.759     2.54201 
 H                    -3.97161   0.07492   2.76401 
 H                    -4.61027   1.35618   0.00553 
 H                    -6.01943  -0.58501  -0.27839 
 H                    -5.56338  -1.20894   1.40825 
 

 GradGradGradGradGradGradGradGradGradGradGradGradGradGradGradGradGradGrad
 Berny optimization.
 Initialization pass.
                           ----------------------------
                           !    Initial Parameters    !
                           ! (Angstroms and Degrees)  !
 --------------------------                            --------------------------
 ! Name  Definition              Value          Derivative Info.                !
 --------------------------------------------------------------------------------
 ! R1    R(1,2)                  1.5428         estimate D2E/DX2                !
 ! R2    R(1,6)                  1.0978         estimate D2E/DX2                !
 ! R3    R(1,10)                 1.4409         estimate D2E/DX2                !
 ! R4    R(1,12)                 1.5374         estimate D2E/DX2                !
 ! R5    R(2,3)                  1.5629         estimate D2E/DX2                !
 ! R6    R(2,7)                  1.0985         estimate D2E/DX2                !
 ! R7    R(2,14)                 1.5423         estimate D2E/DX2                !
 ! R8    R(3,4)                  1.5329         estimate D2E/DX2                !
 ! R9    R(3,15)                 1.4438         estimate D2E/DX2                !
 ! R10   R(3,37)                 1.5668         estimate D2E/DX2                !
 ! R11   R(4,5)                  1.5038         estimate D2E/DX2                !
 ! R12   R(4,8)                  1.0946         estimate D2E/DX2                !
 ! R13   R(4,9)                  1.097          estimate D2E/DX2                !
 ! R14   R(5,10)                 1.3492         estimate D2E/DX2                !
 ! R15   R(5,11)                 1.2281         estimate D2E/DX2                !
 ! R16   R(12,13)                1.5257         estimate D2E/DX2                !
 ! R17   R(12,32)                1.0923         estimate D2E/DX2                !
 ! R18   R(12,33)                1.0955         estimate D2E/DX2                !
 ! R19   R(13,34)                1.0947         estimate D2E/DX2                !
 ! R20   R(13,35)                1.0945         estimate D2E/DX2                !
 ! R21   R(13,36)                1.0946         estimate D2E/DX2                !
 ! R22   R(14,29)                1.0962         estimate D2E/DX2                !
 ! R23   R(14,30)                1.0939         estimate D2E/DX2                !
 ! R24   R(14,31)                1.0922         estimate D2E/DX2                !
 ! R25   R(15,16)                1.6759         estimate D2E/DX2                !
 ! R26   R(16,17)                1.8729         estimate D2E/DX2                !
 ! R27   R(16,18)                1.8815         estimate D2E/DX2                !
 ! R28   R(16,19)                1.8945         estimate D2E/DX2                !
 ! R29   R(17,26)                1.0945         estimate D2E/DX2                !
 ! R30   R(17,27)                1.0938         estimate D2E/DX2                !
 ! R31   R(17,28)                1.0935         estimate D2E/DX2                !
 ! R32   R(18,20)                1.0942         estimate D2E/DX2                !
 ! R33   R(18,21)                1.0929         estimate D2E/DX2                !
 ! R34   R(18,22)                1.0937         estimate D2E/DX2                !
 ! R35   R(19,23)                1.0938         estimate D2E/DX2                !
 ! R36   R(19,24)                1.0938         estimate D2E/DX2                !
 ! R37   R(19,25)                1.0938         estimate D2E/DX2                !
 ! R38   R(37,38)                1.5086         estimate D2E/DX2                !
 ! R39   R(37,40)                1.0934         estimate D2E/DX2                !
 ! R40   R(37,41)                1.0971         estimate D2E/DX2                !
 ! R41   R(38,39)                1.339          estimate D2E/DX2                !
 ! R42   R(38,42)                1.0887         estimate D2E/DX2                !
 ! R43   R(39,43)                1.0861         estimate D2E/DX2                !
 ! R44   R(39,44)                1.0854         estimate D2E/DX2                !
 ! A1    A(2,1,6)              107.5085         estimate D2E/DX2                !
 ! A2    A(2,1,10)             112.3995         estimate D2E/DX2                !
 ! A3    A(2,1,12)             115.4415         estimate D2E/DX2                !
 ! A4    A(6,1,10)             105.3392         estimate D2E/DX2                !
 ! A5    A(6,1,12)             106.3508         estimate D2E/DX2                !
 ! A6    A(10,1,12)            109.1193         estimate D2E/DX2                !
 ! A7    A(1,2,3)              111.0331         estimate D2E/DX2                !
 ! A8    A(1,2,7)              107.3813         estimate D2E/DX2                !
 ! A9    A(1,2,14)             107.9923         estimate D2E/DX2                !
 ! A10   A(3,2,7)              109.2086         estimate D2E/DX2                !
 ! A11   A(3,2,14)             113.9925         estimate D2E/DX2                !
 ! A12   A(7,2,14)             106.9552         estimate D2E/DX2                !
 ! A13   A(2,3,4)              108.0707         estimate D2E/DX2                !
 ! A14   A(2,3,15)             105.528          estimate D2E/DX2                !
 ! A15   A(2,3,37)             111.1698         estimate D2E/DX2                !
 ! A16   A(4,3,15)             113.6923         estimate D2E/DX2                !
 ! A17   A(4,3,37)             108.9149         estimate D2E/DX2                !
 ! A18   A(15,3,37)            109.4472         estimate D2E/DX2                !
 ! A19   A(3,4,5)              115.1098         estimate D2E/DX2                !
 ! A20   A(3,4,8)              110.8144         estimate D2E/DX2                !
 ! A21   A(3,4,9)              110.7259         estimate D2E/DX2                !
 ! A22   A(5,4,8)              107.4562         estimate D2E/DX2                !
 ! A23   A(5,4,9)              106.0839         estimate D2E/DX2                !
 ! A24   A(8,4,9)              106.1571         estimate D2E/DX2                !
 ! A25   A(4,5,10)             117.4336         estimate D2E/DX2                !
 ! A26   A(4,5,11)             121.1154         estimate D2E/DX2                !
 ! A27   A(10,5,11)            120.9169         estimate D2E/DX2                !
 ! A28   A(1,10,5)             121.6403         estimate D2E/DX2                !
 ! A29   A(1,12,13)            111.8165         estimate D2E/DX2                !
 ! A30   A(1,12,32)            111.0085         estimate D2E/DX2                !
 ! A31   A(1,12,33)            110.219          estimate D2E/DX2                !
 ! A32   A(13,12,32)           106.5775         estimate D2E/DX2                !
 ! A33   A(13,12,33)           108.7494         estimate D2E/DX2                !
 ! A34   A(32,12,33)           108.3318         estimate D2E/DX2                !
 ! A35   A(12,13,34)           110.1024         estimate D2E/DX2                !
 ! A36   A(12,13,35)           111.2878         estimate D2E/DX2                !
 ! A37   A(12,13,36)           111.0137         estimate D2E/DX2                !
 ! A38   A(34,13,35)           107.9455         estimate D2E/DX2                !
 ! A39   A(34,13,36)           107.9821         estimate D2E/DX2                !
 ! A40   A(35,13,36)           108.3923         estimate D2E/DX2                !
 ! A41   A(2,14,29)            110.372          estimate D2E/DX2                !
 ! A42   A(2,14,30)            112.2766         estimate D2E/DX2                !
 ! A43   A(2,14,31)            112.0959         estimate D2E/DX2                !
 ! A44   A(29,14,30)           107.347          estimate D2E/DX2                !
 ! A45   A(29,14,31)           106.154          estimate D2E/DX2                !
 ! A46   A(30,14,31)           108.2974         estimate D2E/DX2                !
 ! A47   A(3,15,16)            130.0369         estimate D2E/DX2                !
 ! A48   A(15,16,17)           115.0308         estimate D2E/DX2                !
 ! A49   A(15,16,18)           111.2965         estimate D2E/DX2                !
 ! A50   A(15,16,19)           108.059          estimate D2E/DX2                !
 ! A51   A(17,16,18)           108.2509         estimate D2E/DX2                !
 ! A52   A(17,16,19)           106.9564         estimate D2E/DX2                !
 ! A53   A(18,16,19)           106.8589         estimate D2E/DX2                !
 ! A54   A(16,17,26)           110.2663         estimate D2E/DX2                !
 ! A55   A(16,17,27)           111.0142         estimate D2E/DX2                !
 ! A56   A(16,17,28)           111.314          estimate D2E/DX2                !
 ! A57   A(26,17,27)           107.7374         estimate D2E/DX2                !
 ! A58   A(26,17,28)           107.6457         estimate D2E/DX2                !
 ! A59   A(27,17,28)           108.7312         estimate D2E/DX2                !
 ! A60   A(16,18,20)           110.3305         estimate D2E/DX2                !
 ! A61   A(16,18,21)           111.1089         estimate D2E/DX2                !
 ! A62   A(16,18,22)           110.6939         estimate D2E/DX2                !
 ! A63   A(20,18,21)           107.9015         estimate D2E/DX2                !
 ! A64   A(20,18,22)           108.2071         estimate D2E/DX2                !
 ! A65   A(21,18,22)           108.4985         estimate D2E/DX2                !
 ! A66   A(16,19,23)           110.2401         estimate D2E/DX2                !
 ! A67   A(16,19,24)           110.2249         estimate D2E/DX2                !
 ! A68   A(16,19,25)           110.4491         estimate D2E/DX2                !
 ! A69   A(23,19,24)           108.5856         estimate D2E/DX2                !
 ! A70   A(23,19,25)           108.6432         estimate D2E/DX2                !
 ! A71   A(24,19,25)           108.646          estimate D2E/DX2                !
 ! A72   A(3,37,38)            114.798          estimate D2E/DX2                !
 ! A73   A(3,37,40)            109.8266         estimate D2E/DX2                !
 ! A74   A(3,37,41)            110.0796         estimate D2E/DX2                !
 ! A75   A(38,37,40)           106.8516         estimate D2E/DX2                !
 ! A76   A(38,37,41)           110.0946         estimate D2E/DX2                !
 ! A77   A(40,37,41)           104.6572         estimate D2E/DX2                !
 ! A78   A(37,38,39)           124.4009         estimate D2E/DX2                !
 ! A79   A(37,38,42)           116.8933         estimate D2E/DX2                !
 ! A80   A(39,38,42)           118.7014         estimate D2E/DX2                !
 ! A81   A(38,39,43)           120.6389         estimate D2E/DX2                !
 ! A82   A(38,39,44)           121.9872         estimate D2E/DX2                !
 ! A83   A(43,39,44)           117.3733         estimate D2E/DX2                !
 ! D1    D(6,1,2,3)            165.8282         estimate D2E/DX2                !
 ! D2    D(6,1,2,7)            -74.8493         estimate D2E/DX2                !
 ! D3    D(6,1,2,14)            40.1717         estimate D2E/DX2                !
 ! D4    D(10,1,2,3)            50.3581         estimate D2E/DX2                !
 ! D5    D(10,1,2,7)           169.6807         estimate D2E/DX2                !
 ! D6    D(10,1,2,14)          -75.2984         estimate D2E/DX2                !
 ! D7    D(12,1,2,3)           -75.6843         estimate D2E/DX2                !
 ! D8    D(12,1,2,7)            43.6382         estimate D2E/DX2                !
 ! D9    D(12,1,2,14)          158.6592         estimate D2E/DX2                !
 ! D10   D(2,1,10,5)           -41.3782         estimate D2E/DX2                !
 ! D11   D(6,1,10,5)          -158.1524         estimate D2E/DX2                !
 ! D12   D(12,1,10,5)           88.016          estimate D2E/DX2                !
 ! D13   D(2,1,12,13)         -165.2265         estimate D2E/DX2                !
 ! D14   D(2,1,12,32)           75.8962         estimate D2E/DX2                !
 ! D15   D(2,1,12,33)          -44.1357         estimate D2E/DX2                !
 ! D16   D(6,1,12,13)          -46.0982         estimate D2E/DX2                !
 ! D17   D(6,1,12,32)         -164.9756         estimate D2E/DX2                !
 ! D18   D(6,1,12,33)           74.9926         estimate D2E/DX2                !
 ! D19   D(10,1,12,13)          67.073          estimate D2E/DX2                !
 ! D20   D(10,1,12,32)         -51.8043         estimate D2E/DX2                !
 ! D21   D(10,1,12,33)        -171.8361         estimate D2E/DX2                !
 ! D22   D(1,2,3,4)            -53.7002         estimate D2E/DX2                !
 ! D23   D(1,2,3,15)            68.261          estimate D2E/DX2                !
 ! D24   D(1,2,3,37)          -173.1736         estimate D2E/DX2                !
 ! D25   D(7,2,3,4)           -171.9225         estimate D2E/DX2                !
 ! D26   D(7,2,3,15)           -49.9613         estimate D2E/DX2                !
 ! D27   D(7,2,3,37)            68.6041         estimate D2E/DX2                !
 ! D28   D(14,2,3,4)            68.5338         estimate D2E/DX2                !
 ! D29   D(14,2,3,15)         -169.505          estimate D2E/DX2                !
 ! D30   D(14,2,3,37)          -50.9397         estimate D2E/DX2                !
 ! D31   D(1,2,14,29)          -55.4686         estimate D2E/DX2                !
 ! D32   D(1,2,14,30)           64.2556         estimate D2E/DX2                !
 ! D33   D(1,2,14,31)         -173.5719         estimate D2E/DX2                !
 ! D34   D(3,2,14,29)         -179.3582         estimate D2E/DX2                !
 ! D35   D(3,2,14,30)          -59.6341         estimate D2E/DX2                !
 ! D36   D(3,2,14,31)           62.5385         estimate D2E/DX2                !
 ! D37   D(7,2,14,29)           59.8326         estimate D2E/DX2                !
 ! D38   D(7,2,14,30)          179.5567         estimate D2E/DX2                !
 ! D39   D(7,2,14,31)          -58.2707         estimate D2E/DX2                !
 ! D40   D(2,3,4,5)             47.556          estimate D2E/DX2                !
 ! D41   D(2,3,4,8)            169.7353         estimate D2E/DX2                !
 ! D42   D(2,3,4,9)            -72.7392         estimate D2E/DX2                !
 ! D43   D(15,3,4,5)           -69.2323         estimate D2E/DX2                !
 ! D44   D(15,3,4,8)            52.947          estimate D2E/DX2                !
 ! D45   D(15,3,4,9)           170.4725         estimate D2E/DX2                !
 ! D46   D(37,3,4,5)           168.444          estimate D2E/DX2                !
 ! D47   D(37,3,4,8)           -69.3767         estimate D2E/DX2                !
 ! D48   D(37,3,4,9)            48.1488         estimate D2E/DX2                !
 ! D49   D(2,3,15,16)         -167.1735         estimate D2E/DX2                !
 ! D50   D(4,3,15,16)          -48.9119         estimate D2E/DX2                !
 ! D51   D(37,3,15,16)          73.1175         estimate D2E/DX2                !
 ! D52   D(2,3,37,38)          -59.7818         estimate D2E/DX2                !
 ! D53   D(2,3,37,40)          179.8176         estimate D2E/DX2                !
 ! D54   D(2,3,37,41)           65.0977         estimate D2E/DX2                !
 ! D55   D(4,3,37,38)         -178.7505         estimate D2E/DX2                !
 ! D56   D(4,3,37,40)           60.849          estimate D2E/DX2                !
 ! D57   D(4,3,37,41)          -53.8709         estimate D2E/DX2                !
 ! D58   D(15,3,37,38)          56.398          estimate D2E/DX2                !
 ! D59   D(15,3,37,40)         -64.0025         estimate D2E/DX2                !
 ! D60   D(15,3,37,41)        -178.7224         estimate D2E/DX2                !
 ! D61   D(3,4,5,10)           -38.3956         estimate D2E/DX2                !
 ! D62   D(3,4,5,11)           149.9123         estimate D2E/DX2                !
 ! D63   D(8,4,5,10)          -162.3644         estimate D2E/DX2                !
 ! D64   D(8,4,5,11)            25.9435         estimate D2E/DX2                !
 ! D65   D(9,4,5,10)            84.416          estimate D2E/DX2                !
 ! D66   D(9,4,5,11)           -87.2761         estimate D2E/DX2                !
 ! D67   D(4,5,10,1)            34.9836         estimate D2E/DX2                !
 ! D68   D(11,5,10,1)         -153.3068         estimate D2E/DX2                !
 ! D69   D(1,12,13,34)         179.6797         estimate D2E/DX2                !
 ! D70   D(1,12,13,35)         -60.6683         estimate D2E/DX2                !
 ! D71   D(1,12,13,36)          60.1574         estimate D2E/DX2                !
 ! D72   D(32,12,13,34)        -58.8488         estimate D2E/DX2                !
 ! D73   D(32,12,13,35)         60.8033         estimate D2E/DX2                !
 ! D74   D(32,12,13,36)       -178.371          estimate D2E/DX2                !
 ! D75   D(33,12,13,34)         57.7408         estimate D2E/DX2                !
 ! D76   D(33,12,13,35)        177.3929         estimate D2E/DX2                !
 ! D77   D(33,12,13,36)        -61.7815         estimate D2E/DX2                !
 ! D78   D(3,15,16,17)         -40.6496         estimate D2E/DX2                !
 ! D79   D(3,15,16,18)          82.9236         estimate D2E/DX2                !
 ! D80   D(3,15,16,19)        -160.0434         estimate D2E/DX2                !
 ! D81   D(15,16,17,26)       -176.7127         estimate D2E/DX2                !
 ! D82   D(15,16,17,27)        -57.3891         estimate D2E/DX2                !
 ! D83   D(15,16,17,28)         63.886          estimate D2E/DX2                !
 ! D84   D(18,16,17,26)         58.1132         estimate D2E/DX2                !
 ! D85   D(18,16,17,27)        177.4368         estimate D2E/DX2                !
 ! D86   D(18,16,17,28)        -61.2882         estimate D2E/DX2                !
 ! D87   D(19,16,17,26)        -56.709          estimate D2E/DX2                !
 ! D88   D(19,16,17,27)         62.6146         estimate D2E/DX2                !
 ! D89   D(19,16,17,28)       -176.1104         estimate D2E/DX2                !
 ! D90   D(15,16,18,20)        169.6704         estimate D2E/DX2                !
 ! D91   D(15,16,18,21)        -70.6983         estimate D2E/DX2                !
 ! D92   D(15,16,18,22)         49.9246         estimate D2E/DX2                !
 ! D93   D(17,16,18,20)        -62.977          estimate D2E/DX2                !
 ! D94   D(17,16,18,21)         56.6543         estimate D2E/DX2                !
 ! D95   D(17,16,18,22)        177.2772         estimate D2E/DX2                !
 ! D96   D(19,16,18,20)         51.9092         estimate D2E/DX2                !
 ! D97   D(19,16,18,21)        171.5405         estimate D2E/DX2                !
 ! D98   D(19,16,18,22)        -67.8366         estimate D2E/DX2                !
 ! D99   D(15,16,19,23)        -58.478          estimate D2E/DX2                !
 ! D100  D(15,16,19,24)         61.3808         estimate D2E/DX2                !
 ! D101  D(15,16,19,25)       -178.5518         estimate D2E/DX2                !
 ! D102  D(17,16,19,23)        177.1426         estimate D2E/DX2                !
 ! D103  D(17,16,19,24)        -62.9986         estimate D2E/DX2                !
 ! D104  D(17,16,19,25)         57.0689         estimate D2E/DX2                !
 ! D105  D(18,16,19,23)         61.3883         estimate D2E/DX2                !
 ! D106  D(18,16,19,24)       -178.7529         estimate D2E/DX2                !
 ! D107  D(18,16,19,25)        -58.6854         estimate D2E/DX2                !
 ! D108  D(3,37,38,39)         127.6847         estimate D2E/DX2                !
 ! D109  D(3,37,38,42)         -53.0928         estimate D2E/DX2                !
 ! D110  D(40,37,38,39)       -110.2871         estimate D2E/DX2                !
 ! D111  D(40,37,38,42)         68.9354         estimate D2E/DX2                !
 ! D112  D(41,37,38,39)          2.8131         estimate D2E/DX2                !
 ! D113  D(41,37,38,42)       -177.9644         estimate D2E/DX2                !
 ! D114  D(37,38,39,43)        179.5925         estimate D2E/DX2                !
 ! D115  D(37,38,39,44)         -0.1377         estimate D2E/DX2                !
 ! D116  D(42,38,39,43)          0.383          estimate D2E/DX2                !
 ! D117  D(42,38,39,44)       -179.3471         estimate D2E/DX2                !
 --------------------------------------------------------------------------------
 Trust Radius=3.00D-01 FncErr=1.00D-07 GrdErr=1.00D-06
 Number of steps in this run=     25 maximum allowed number of steps=    264.
 GradGradGradGradGradGradGradGradGradGradGradGradGradGradGradGradGradGrad

                          Input orientation:                          
 ---------------------------------------------------------------------
 Center     Atomic      Atomic             Coordinates (Angstroms)
 Number     Number       Type             X           Y           Z
 ---------------------------------------------------------------------
      1          6           0       -0.123671    0.183249    0.990949
      2          6           0       -1.648615   -0.029316    1.089605
      3          6           0       -2.339878    1.184114    1.791281
      4          6           0       -1.643037    1.415406    3.136870
      5          6           0       -0.140349    1.432541    3.082670
      6          1           0        0.328618   -0.783512    0.733997
      7          1           0       -2.033978   -0.121924    0.065138
      8          1           0       -1.966243    2.360368    3.584915
      9          1           0       -1.912364    0.629827    3.853644
     10          8           0        0.461848    0.554272    2.254151
     11          8           0        0.515546    2.106680    3.872355
     12          6           0        0.336207    1.176746   -0.088397
     13          6           0        1.832137    1.061169   -0.365010
     14          6           0       -1.896893   -1.382080    1.787543
     15          8           0       -2.207217    2.289284    0.871699
     16         14           0       -2.466638    3.927696    1.110631
     17          6           0       -3.967882    4.349296    2.148136
     18          6           0       -0.963717    4.751453    1.886875
     19          6           0       -2.721753    4.735187   -0.584077
     20          1           0       -1.074735    5.839844    1.868250
     21          1           0       -0.840476    4.444130    2.928366
     22          1           0       -0.054008    4.491315    1.338352
     23          1           0       -1.848308    4.564397   -1.219964
     24          1           0       -3.600521    4.309765   -1.077209
     25          1           0       -2.869548    5.813428   -0.475252
     26          1           0       -4.096315    5.434735    2.205627
     27          1           0       -4.877830    3.928788    1.710425
     28          1           0       -3.863387    3.973298    3.169664
     29          1           0       -1.377837   -2.187297    1.254761
     30          1           0       -1.535696   -1.388427    2.820119
     31          1           0       -2.954802   -1.653707    1.792646
     32          1           0        0.156063    2.207271    0.225650
     33          1           0       -0.209155    1.000739   -1.022043
     34          1           0        2.127729    1.775471   -1.140068
     35          1           0        2.420008    1.275476    0.532995
     36          1           0        2.090113    0.056651   -0.715113
     37          6           0       -3.858918    0.898871    2.048377
     38          6           0       -4.669623    0.621488    0.806727
     39          6           0       -5.456421   -0.449172    0.640453
     40          1           0       -4.319408    1.758999    2.542012
     41          1           0       -3.971605    0.074920    2.764014
     42          1           0       -4.610266    1.356182    0.005526
     43          1           0       -6.019429   -0.585011   -0.278391
     44          1           0       -5.563380   -1.208935    1.408254
 ---------------------------------------------------------------------
                    Distance matrix (angstroms):
                    1          2          3          4          5
     1  C    0.000000
     2  C    1.542845   0.000000
     3  C    2.560046   1.562884   0.000000
     4  C    2.903732   2.505703   1.532871   0.000000
     5  C    2.436453   2.895548   2.562680   1.503763   0.000000
     6  H    1.097824   2.145861   3.479982   3.807422   3.262987
     7  H    2.144651   1.098460   2.186065   3.457131   3.886861
     8  H    3.855331   3.469589   2.177223   1.094605   2.108792
     9  H    3.404978   2.853760   2.177922   1.097012   2.092555
    10  O    1.440892   2.480080   2.908714   2.439526   1.349237
    11  O    3.522880   4.121865   3.651773   2.382914   1.228114
    12  C    1.537372   2.604188   3.270271   3.791664   3.216862
    13  C    2.536642   3.926920   4.697916   4.946259   3.989375
    14  C    2.495823   1.542313   2.604151   3.116256   3.561586
    15  O    2.964923   2.394875   1.443825   2.492581   3.145528
    16  Si   4.418676   4.040736   2.829593   3.331000   3.940350
    17  C    5.785584   5.066728   3.577166   3.871719   4.902124
    18  C    4.730417   4.894944   3.824770   3.626730   3.622573
    19  C    5.472739   5.162686   4.289321   5.101962   5.569215
    20  H    5.802693   5.948333   4.825177   4.637673   4.666070
    21  H    4.735240   4.903657   3.764156   3.140183   3.095748
    22  H    4.322612   4.800078   4.045729   3.901397   3.522243
    23  H    5.201631   5.145501   4.553630   5.379617   5.589124
    24  H    5.778745   5.228063   4.425737   5.474260   6.128279
    25  H    6.433390   6.170665   5.181532   5.821886   6.268932
    26  H    6.695928   6.090369   4.617849   4.800083   5.695299
    27  H    6.094976   5.145856   3.739114   4.337709   5.527932
    28  H    5.752977   5.025214   3.464183   3.387306   4.508218
    29  H    2.694813   2.181165   3.546800   4.073344   4.239794
    30  H    2.794610   2.203318   2.884993   2.823709   3.158130
    31  H    3.468779   2.199781   2.903681   3.598211   4.371525
    32  H    2.181880   3.000934   3.118938   3.512693   2.975001
    33  H    2.174335   2.755379   3.533893   4.418656   4.127936
    34  H    3.484997   4.742307   5.376060   5.713188   4.805548
    35  H    2.805884   4.308827   4.924241   4.827844   3.616758
    36  H    2.797770   4.152407   5.213253   5.533570   4.614238
    37  C    3.947447   2.581901   1.566826   2.522252   3.896450
    38  C    4.570741   3.103233   2.591063   3.901294   5.133424
    39  C    5.381545   3.857124   3.702009   4.924495   6.145396
    40  H    4.742678   3.527136   2.193770   2.763128   4.226514
    41  H    4.238171   2.865448   2.199785   2.712592   4.077156
    42  H    4.740924   3.444736   2.893646   4.314310   5.427228
    43  H    6.079590   4.613483   4.577384   5.900719   7.066175
    44  H    5.630520   4.101027   4.032909   5.024377   6.260218
                    6          7          8          9         10
     6  H    0.000000
     7  H    2.543016   0.000000
     8  H    4.824739   4.307574   0.000000
     9  H    4.092887   3.864285   1.752110   0.000000
    10  O    2.029356   3.387944   3.305834   2.863733   0.000000
    11  O    4.270532   5.095258   2.511226   2.841864   2.243087
    12  C    2.125794   2.707008   4.493936   4.571092   2.427095
    13  C    2.621304   4.065905   5.631831   5.657242   2.999107
    14  C    2.533997   2.138566   4.152261   2.883883   3.087206
    15  O    3.986414   2.548426   2.724823   3.425308   3.470641
    16  Si   5.490974   4.204720   2.971362   4.325191   4.611253
    17  C    6.841449   5.298176   3.166501   4.579122   5.834034
    18  C    5.799577   5.311684   3.099304   4.664323   4.447860
    19  C    6.441904   4.948337   4.857062   6.099382   5.972512
    20  H    6.864749   6.301907   3.981015   5.638057   5.517905
    21  H    5.788806   5.520088   2.457737   4.068660   4.157115
    22  H    5.323105   5.179124   3.639316   4.969031   4.074936
    23  H    6.095662   4.862876   5.287581   6.420782   5.786830
    24  H    6.682819   4.837239   5.310971   6.380057   6.457904
    25  H    7.430354   6.018189   5.405973   6.820943   6.797541
    26  H    7.772536   6.301697   3.986399   5.529262   6.678183
    27  H    7.089872   5.215624   3.801446   4.926512   6.339965
    28  H    6.792100   5.454875   2.524506   3.931045   5.588878
    29  H    2.270197   2.472143   5.143646   3.869897   3.449554
    30  H    2.862428   3.072822   3.850162   2.298565   2.843340
    31  H    3.557924   2.485671   4.505805   3.247910   4.094100
    32  H    3.038581   3.201124   3.976466   4.464198   2.634526
    33  H    2.560552   2.402564   5.114686   5.177917   3.373874
    34  H    3.646548   4.729951   6.279186   6.524723   3.973312
    35  H    2.941725   4.691440   5.452559   5.496637   2.704978
    36  H    2.430773   4.201048   6.344397   6.100975   3.422777
    37  C    4.700369   2.881955   2.842383   2.668416   4.339367
    38  C    5.192468   2.837118   4.248564   4.109288   5.332124
    39  C    5.795447   3.485856   5.361410   4.903996   6.215853
    40  H    5.597984   3.859529   2.643232   2.964670   4.939093
    41  H    4.832162   3.328224   3.149385   2.394930   4.488345
    42  H    5.431532   2.970793   4.561937   4.755447   5.605864
    43  H    6.431332   4.026944   6.326824   5.951263   7.051148
    44  H    5.945692   3.929661   5.515176   4.763496   6.334652
                   11         12         13         14         15
    11  O    0.000000
    12  C    4.072407   0.000000
    13  C    4.558702   1.525673   0.000000
    14  C    4.726283   3.879881   4.950618   0.000000
    15  O    4.055949   2.937436   4.399329   3.796575   0.000000
    16  Si   4.453834   4.106255   5.373450   5.382986   1.675942
    17  C    5.301263   5.795890   7.125160   6.104727   2.995477
    18  C    3.622868   4.286028   5.148396   6.204910   2.939243
    19  C    6.103191   4.717978   5.855281   6.612559   2.892486
    20  H    4.525698   5.250115   6.022714   7.269019   3.857733
    21  H    2.862444   4.600135   5.425275   6.030109   3.277380
    22  H    3.525911   3.629635   4.269062   6.172096   3.114966
    23  H    6.128613   4.186732   5.152594   6.663936   3.111271
    24  H    6.803953   5.127513   6.369802   6.595927   3.133988
    25  H    6.640823   5.650251   6.685952   7.605369   3.830477
    26  H    5.926482   6.560508   7.802743   7.175041   3.904090
    27  H    6.089542   6.164063   7.586457   6.090751   3.244011
    28  H    4.811766   6.006018   7.308448   5.870045   3.295367
    29  H    5.373540   4.007344   4.845629   1.096198   4.568849
    30  H    4.186952   4.306228   5.242887   1.093945   4.215785
    31  H    5.523497   4.730806   5.911076   1.092236   4.117548
    32  H    3.665761   1.092272   2.114628   4.420133   2.451367
    33  H    5.069855   1.095488   2.145278   4.052167   3.039549
    34  H    5.275720   2.161952   1.094677   5.893947   4.806555
    35  H    3.933090   2.176718   1.094501   5.222272   4.749078
    36  H    5.265619   2.173378   1.094614   4.922342   5.096044
    37  C    4.890975   4.716152   6.183760   3.019986   2.458848
    38  C    6.204019   5.115456   6.621115   3.558696   2.974762
    39  C    7.255478   6.060476   7.511003   3.854397   4.255578
    40  H    5.026676   5.378924   6.839536   4.037843   2.744540
    41  H    5.048861   5.282756   6.666851   2.716758   3.405485
    42  H    6.464485   4.950618   6.459790   4.246888   2.719481
    43  H    8.196328   6.598030   8.022749   4.679605   4.910931
    44  H    7.349724   6.537321   7.936719   3.690117   4.877423
                   16         17         18         19         20
    16  Si   0.000000
    17  C    1.872938   0.000000
    18  C    1.881463   3.042202   0.000000
    19  C    1.894508   3.027662   3.032583   0.000000
    20  H    2.483484   3.266553   1.094197   3.153862   0.000000
    21  H    2.493044   3.224658   1.092858   3.995144   1.768259
    22  H    2.488033   3.999291   1.093673   3.297282   1.772345
    23  H    2.493871   3.985343   3.235729   1.093813   3.429613
    24  H    2.493654   3.246439   3.991694   1.093799   4.170907
    25  H    2.496667   3.198779   3.215529   1.093750   2.951958
    26  H    2.475082   1.094522   3.222056   3.187669   3.067227
    27  H    2.484673   1.093811   4.003523   3.250183   4.259175
    28  H    2.488494   1.093532   3.264837   3.996796   3.599202
    29  H    6.212842   7.087560   6.979779   7.287539   8.056254
    30  H    5.661287   6.268058   6.236684   7.105908   7.305234
    31  H    5.644068   6.098258   6.708157   6.820637   7.726168
    32  H    3.259082   5.029030   3.238277   3.915079   4.172360
    33  H    4.267506   5.949025   4.806144   4.522285   5.702627
    34  H    5.550309   7.388730   5.251275   5.708460   5.985389
    35  H    5.589923   7.270639   5.036368   6.297234   5.901660
    36  H    6.251585   7.957657   6.175547   6.712669   7.080632
    37  C    3.462888   3.453586   4.821894   4.789601   5.674270
    38  C    3.984534   4.023477   5.653058   4.759312   6.425052
    39  C    5.321357   5.245393   6.984587   5.987943   7.762627
    40  H    3.191372   2.643548   4.543638   4.602459   5.256915
    41  H    4.454490   4.318519   5.629096   5.872813   6.513724
    42  H    3.525490   3.736598   5.325848   3.915583   6.006076
    43  H    5.908996   5.868924   7.663318   6.266787   8.386705
    44  H    6.005278   5.829835   7.544018   6.883082   8.369278
                   21         22         23         24         25
    21  H    0.000000
    22  H    1.774515   0.000000
    23  H    4.270694   3.125673   0.000000
    24  H    4.866265   4.294840   1.776363   0.000000
    25  H    4.192461   3.600612   1.776965   1.776985   0.000000
    26  H    3.479100   4.240572   4.188758   3.505479   2.972453
    27  H    4.248433   4.870743   4.262532   3.089913   3.515999
    28  H    3.068859   4.258335   4.866084   4.268283   4.202286
    29  H    6.860433   6.809065   7.206315   7.251912   8.320442
    30  H    5.874842   6.241987   7.201119   7.205696   8.031522
    31  H    6.553156   6.810454   6.997497   6.649513   7.804405
    32  H    3.647095   2.549332   3.415164   4.497760   4.759197
    33  H    5.278375   4.216593   3.927551   4.738571   5.526178
    34  H    5.699486   4.275319   4.857300   6.264140   6.459091
    35  H    5.138962   4.136541   5.666426   6.931554   7.041944
    36  H    6.411962   5.336686   6.007146   7.113607   7.602385
    37  C    4.738590   5.280827   5.306664   4.633601   5.612524
    38  C    5.811739   6.046659   5.254886   4.277333   5.642693
    39  C    7.105343   7.354015   6.451008   5.389082   6.867086
    40  H    4.411594   5.206533   5.303683   4.485751   5.257791
    41  H    5.377823   6.073271   6.366779   5.729451   6.681156
    42  H    5.682406   5.689022   4.407140   3.303869   4.809188
    43  H    7.899184   7.998074   6.693371   5.517976   7.134460
    44  H    7.521549   7.927857   7.351235   6.362892   7.753574
                   26         27         28         29         30
    26  H    0.000000
    27  H    1.767446   0.000000
    28  H    1.766188   1.777767   0.000000
    29  H    8.147984   7.061450   6.913591   0.000000
    30  H    7.313680   6.377621   5.855632   1.764499   0.000000
    31  H    7.191635   5.905002   5.863863   1.749531   1.771986
    32  H    5.693817   5.523428   5.286024   4.766985   4.745773
    33  H    6.722216   6.151128   6.305547   4.088181   4.714874
    34  H    7.957551   7.863838   7.700500   5.807558   6.254120
    35  H    7.909463   7.853970   7.328801   5.189930   5.289131
    36  H    8.702092   8.332401   8.116389   4.576285   5.266176
    37  C    4.544793   3.214466   3.272523   4.038567   3.350325
    38  C    5.045092   3.434859   4.179488   4.350387   4.232612
    39  C    6.238591   4.543803   5.337875   4.475857   4.583146
    40  H    3.697832   2.389844   2.346278   5.087544   4.211020
    41  H    5.390266   4.096778   3.920920   3.758072   2.842215
    42  H    4.662530   3.097834   4.173595   4.956352   4.990771
    43  H    6.790144   5.062906   6.108664   5.144147   5.509093
    44  H    6.850287   5.192060   5.731324   4.301107   4.271747
                   31         32         33         34         35
    31  H    0.000000
    32  H    5.200010   0.000000
    33  H    4.744169   1.773652   0.000000
    34  H    6.796484   2.437028   2.464785   0.000000
    35  H    6.249433   2.467418   3.066940   1.770469   0.000000
    36  H    5.887729   3.041505   2.504424   1.770973   1.775426
    37  C    2.720014   4.599382   4.770600   6.839192   6.470172
    38  C    3.014823   5.112690   4.835701   7.164194   7.124991
    39  C    3.006086   6.223241   5.692094   8.101767   8.063752
    40  H    3.751035   5.059281   5.492870   7.424524   7.049090
    41  H    2.228362   5.294134   5.417324   7.438791   6.875427
    42  H    3.872182   4.846720   4.533433   6.847537   7.050496
    43  H    3.850097   6.796146   6.068518   8.525875   8.680084
    44  H    2.673997   6.766169   6.281459   8.634453   8.406715
                   36         37         38         39         40
    36  H    0.000000
    37  C    6.613409   0.000000
    38  C    6.951911   1.508602   0.000000
    39  C    7.683983   2.520215   1.339034   0.000000
    40  H    7.388424   1.093411   2.104233   3.128058   0.000000
    41  H    6.989212   1.097146   2.148706   2.643646   1.733890
    42  H    6.863176   2.224162   1.088679   2.092466   2.584690
    43  H    8.146602   3.504791   2.110710   1.086142   4.042169
    44  H    8.042783   2.785282   2.123931   1.085448   3.411965
                   41         42         43         44
    41  H    0.000000
    42  H    3.107857   0.000000
    43  H    3.726301   2.415487   0.000000
    44  H    2.453593   3.075044   1.855272   0.000000
 Stoichiometry    C14H26O3Si
 Framework group  C1[X(C14H26O3Si)]
 Deg. of freedom   126
 Full point group                 C1      NOp   1
 Largest Abelian subgroup         C1      NOp   1
 Largest concise Abelian subgroup C1      NOp   1
                         Standard orientation:                         
 ---------------------------------------------------------------------
 Center     Atomic      Atomic             Coordinates (Angstroms)
 Number     Number       Type             X           Y           Z
 ---------------------------------------------------------------------
      1          6           0        2.189076    0.483365    0.590461
      2          6           0        1.013018    1.467075    0.418498
      3          6           0       -0.160916    0.805029   -0.372818
      4          6           0        0.402932    0.254050   -1.687425
      5          6           0        1.665628   -0.551343   -1.552361
      6          1           0        3.061822    1.065354    0.914219
      7          1           0        0.663196    1.739206    1.423577
      8          1           0       -0.335531   -0.375554   -2.193816
      9          1           0        0.635964    1.070327   -2.382281
     10          8           0        2.579464   -0.128651   -0.654209
     11          8           0        1.923926   -1.462467   -2.334282
     12          6           0        1.983573   -0.613253    1.648151
     13          6           0        3.294621   -1.304246    2.010592
     14          6           0        1.559897    2.754484   -0.231295
     15          8           0       -0.691571   -0.213015    0.502752
     16         14           0       -1.753917   -1.467825    0.177706
     17          6           0       -3.176940   -1.027387   -0.957598
     18          6           0       -0.856039   -2.951804   -0.551351
     19          6           0       -2.511607   -2.035797    1.818582
     20          1           0       -1.522047   -3.819229   -0.587033
     21          1           0       -0.517891   -2.745788   -1.569955
     22          1           0        0.014291   -3.214004    0.056839
     23          1           0       -1.724966   -2.355705    2.507990
     24          1           0       -3.068808   -1.216287    2.281536
     25          1           0       -3.194643   -2.874089    1.654214
     26          1           0       -3.850886   -1.882451   -1.070025
     27          1           0       -3.759326   -0.195154   -0.551843
     28          1           0       -2.820096   -0.753288   -1.954265
     29          1           0        2.385449    3.161463    0.364089
     30          1           0        1.941639    2.579296   -1.241393
     31          1           0        0.804696    3.541942   -0.281908
     32          1           0        1.312368   -1.392086    1.279421
     33          1           0        1.547980   -0.185219    2.557623
     34          1           0        3.117187   -2.074247    2.768176
     35          1           0        3.743740   -1.787534    1.137290
     36          1           0        4.015748   -0.588794    2.418372
     37          6           0       -1.282845    1.848885   -0.699289
     38          6           0       -1.911948    2.499893    0.507482
     39          6           0       -2.030144    3.822758    0.677974
     40          1           0       -2.090194    1.364047   -1.254868
     41          1           0       -0.896827    2.615401   -1.382789
     42          1           0       -2.302401    1.836558    1.277388
     43          1           0       -2.500739    4.226046    1.569940
     44          1           0       -1.669279    4.532146   -0.060093
 ---------------------------------------------------------------------
 Rotational constants (GHZ):      0.4055920      0.3543725      0.2664442
 Standard basis: 6-31G(d,p) (6D, 7F)
 There are   404 symmetry adapted cartesian basis functions of A   symmetry.
 There are   404 symmetry adapted basis functions of A   symmetry.
   404 basis functions,   710 primitive gaussians,   404 cartesian basis functions
    74 alpha electrons       74 beta electrons
       nuclear repulsion energy      1661.6929799299 Hartrees.
 NAtoms=   44 NActive=   44 NUniq=   44 SFac= 1.00D+00 NAtFMM=   60 NAOKFM=F Big=F
 Integral buffers will be    131072 words long.
 Raffenetti 2 integral format.
 Two-electron integral symmetry is turned on.
 ------------------------------------------------------------------------------
 Polarizable Continuum Model (PCM)
 =================================
 Model                : PCM (using non-symmetric T matrix).
 Atomic radii         : UFF (Universal Force Field).
 Polarization charges : Total charges.
 Charge compensation  : None.
 Solution method      : On-the-fly selection.
 Cavity type          : Scaled VdW (van der Waals Surface) (Alpha=1.100).
 Cavity algorithm     : GePol (No added spheres)
                        Default sphere list used, NSphG=   44.
                        Lebedev-Laikov grids with approx.  5.0 points / Ang**2.
                        Smoothing algorithm: Karplus/York (Gamma=1.0000).
                        Polarization charges: spherical gaussians, with
                                              point-specific exponents (IZeta= 3).
                        Self-potential: point-specific (ISelfS= 7).
                        Self-field    : sphere-specific E.n sum rule (ISelfD= 2).
 1st derivatives      : Analytical E(r).r(x)/FMM algorithm (CHGder, D1EAlg=3).
                        Cavity 1st derivative terms included.
 Solvent              : Chloroform, Eps=   4.711300 Eps(inf)=   2.090627
 ------------------------------------------------------------------------------
 One-electron integrals computed using PRISM.
 NBasis=   404 RedAO= T EigKep=  2.17D-03  NBF=   404
 NBsUse=   404 1.00D-06 EigRej= -1.00D+00 NBFU=   404
 ExpMin= 7.78D-02 ExpMax= 1.61D+04 ExpMxC= 2.43D+03 IAcc=2 IRadAn=         4 AccDes= 0.00D+00
 Harris functional with IExCor=  402 and IRadAn=       4 diagonalized for initial guess.
 HarFok:  IExCor=  402 AccDes= 0.00D+00 IRadAn=         4 IDoV= 1 UseB2=F ITyADJ=14
 ICtDFT=  3500011 ScaDFX=  1.000000  1.000000  1.000000  1.000000
 FoFCou: FMM=F IPFlag=           0 FMFlag=      100000 FMFlg1=           0
         NFxFlg=           0 DoJE=T BraDBF=F KetDBF=T FulRan=T
         wScrn=  0.000000 ICntrl=     500 IOpCl=  0 I1Cent=   200000004 NGrid=           0
         NMat0=    1 NMatS0=      1 NMatT0=    0 NMatD0=    1 NMtDS0=    0 NMtDT0=    0
 Petite list used in FoFCou.
 Requested convergence on RMS density matrix=1.00D-08 within 128 cycles.
 Requested convergence on MAX density matrix=1.00D-06.
 Requested convergence on             energy=1.00D-06.
 No special actions if energy rises.
 Inv3:  Mode=1 IEnd=    23637747.
 Iteration    1 A*A^-1 deviation from unit magnitude is 5.33D-15 for   2805.
 Iteration    1 A*A^-1 deviation from orthogonality  is 5.63D-15 for   2805   1133.
 Iteration    1 A^-1*A deviation from unit magnitude is 3.55D-15 for   1519.
 Iteration    1 A^-1*A deviation from orthogonality  is 4.64D-13 for   1949   1947.
 Error on total polarization charges =  0.00918
 SCF Done:  E(RB3LYP) =  -1064.41434125     A.U. after   13 cycles
            NFock= 13  Conv=0.50D-08     -V/T= 2.0080

 **********************************************************************

            Population analysis using the SCF density.

 **********************************************************************

 Orbital symmetries:
       Occupied  (A) (A) (A) (A) (A) (A) (A) (A) (A) (A) (A) (A)
                 (A) (A) (A) (A) (A) (A) (A) (A) (A) (A) (A) (A)
                 (A) (A) (A) (A) (A) (A) (A) (A) (A) (A) (A) (A)
                 (A) (A) (A) (A) (A) (A) (A) (A) (A) (A) (A) (A)
                 (A) (A) (A) (A) (A) (A) (A) (A) (A) (A) (A) (A)
                 (A) (A) (A) (A) (A) (A) (A) (A) (A) (A) (A) (A)
                 (A) (A)
       Virtual   (A) (A) (A) (A) (A) (A) (A) (A) (A) (A) (A) (A)
                 (A) (A) (A) (A) (A) (A) (A) (A) (A) (A) (A) (A)
                 (A) (A) (A) (A) (A) (A) (A) (A) (A) (A) (A) (A)
                 (A) (A) (A) (A) (A) (A) (A) (A) (A) (A) (A) (A)
                 (A) (A) (A) (A) (A) (A) (A) (A) (A) (A) (A) (A)
                 (A) (A) (A) (A) (A) (A) (A) (A) (A) (A) (A) (A)
                 (A) (A) (A) (A) (A) (A) (A) (A) (A) (A) (A) (A)
                 (A) (A) (A) (A) (A) (A) (A) (A) (A) (A) (A) (A)
                 (A) (A) (A) (A) (A) (A) (A) (A) (A) (A) (A) (A)
                 (A) (A) (A) (A) (A) (A) (A) (A) (A) (A) (A) (A)
                 (A) (A) (A) (A) (A) (A) (A) (A) (A) (A) (A) (A)
                 (A) (A) (A) (A) (A) (A) (A) (A) (A) (A) (A) (A)
                 (A) (A) (A) (A) (A) (A) (A) (A) (A) (A) (A) (A)
                 (A) (A) (A) (A) (A) (A) (A) (A) (A) (A) (A) (A)
                 (A) (A) (A) (A) (A) (A) (A) (A) (A) (A) (A) (A)
                 (A) (A) (A) (A) (A) (A) (A) (A) (A) (A) (A) (A)
                 (A) (A) (A) (A) (A) (A) (A) (A) (A) (A) (A) (A)
                 (A) (A) (A) (A) (A) (A) (A) (A) (A) (A) (A) (A)
                 (A) (A) (A) (A) (A) (A) (A) (A) (A) (A) (A) (A)
                 (A) (A) (A) (A) (A) (A) (A) (A) (A) (A) (A) (A)
                 (A) (A) (A) (A) (A) (A) (A) (A) (A) (A) (A) (A)
                 (A) (A) (A) (A) (A) (A) (A) (A) (A) (A) (A) (A)
                 (A) (A) (A) (A) (A) (A) (A) (A) (A) (A) (A) (A)
                 (A) (A) (A) (A) (A) (A) (A) (A) (A) (A) (A) (A)
                 (A) (A) (A) (A) (A) (A) (A) (A) (A) (A) (A) (A)
                 (A) (A) (A) (A) (A) (A) (A) (A) (A) (A) (A) (A)
                 (A) (A) (A) (A) (A) (A) (A) (A) (A) (A) (A) (A)
                 (A) (A) (A) (A) (A) (A)
 The electronic state is 1-A.
 Alpha  occ. eigenvalues --  -66.14011 -19.19076 -19.14537 -19.13572 -10.32210
 Alpha  occ. eigenvalues --  -10.26752 -10.24960 -10.20457 -10.19955 -10.19286
 Alpha  occ. eigenvalues --  -10.19250 -10.18143 -10.18060 -10.17985 -10.16958
 Alpha  occ. eigenvalues --  -10.16053 -10.15722 -10.15361  -5.28152  -3.64211
 Alpha  occ. eigenvalues --   -3.63977  -3.63940  -1.09835  -1.01415  -1.00831
 Alpha  occ. eigenvalues --   -0.82719  -0.79925  -0.77887  -0.75216  -0.71294
 Alpha  occ. eigenvalues --   -0.70097  -0.68990  -0.67639  -0.67217  -0.64567
 Alpha  occ. eigenvalues --   -0.61734  -0.59064  -0.55733  -0.52688  -0.51841
 Alpha  occ. eigenvalues --   -0.50198  -0.48704  -0.47577  -0.46833  -0.45436
 Alpha  occ. eigenvalues --   -0.44199  -0.43161  -0.42239  -0.42114  -0.41314
 Alpha  occ. eigenvalues --   -0.41020  -0.40653  -0.40418  -0.39840  -0.39407
 Alpha  occ. eigenvalues --   -0.38921  -0.38538  -0.38152  -0.37761  -0.37670
 Alpha  occ. eigenvalues --   -0.36815  -0.35739  -0.35293  -0.34940  -0.34242
 Alpha  occ. eigenvalues --   -0.33699  -0.32438  -0.31225  -0.30199  -0.28832
 Alpha  occ. eigenvalues --   -0.28141  -0.27622  -0.26777  -0.25161
 Alpha virt. eigenvalues --   -0.00467   0.01363   0.06110   0.07339   0.08348
 Alpha virt. eigenvalues --    0.09390   0.09924   0.10516   0.11351   0.11595
 Alpha virt. eigenvalues --    0.12409   0.12720   0.13284   0.13792   0.14687
 Alpha virt. eigenvalues --    0.14842   0.15396   0.16268   0.16405   0.17167
 Alpha virt. eigenvalues --    0.17405   0.17454   0.18414   0.18937   0.19340
 Alpha virt. eigenvalues --    0.19708   0.20083   0.20593   0.20891   0.21229
 Alpha virt. eigenvalues --    0.21921   0.22504   0.23345   0.24188   0.25046
 Alpha virt. eigenvalues --    0.25505   0.26017   0.26892   0.27210   0.28020
 Alpha virt. eigenvalues --    0.28745   0.29228   0.32415   0.36312   0.36502
 Alpha virt. eigenvalues --    0.37453   0.39448   0.39731   0.40716   0.42965
 Alpha virt. eigenvalues --    0.45934   0.46527   0.49480   0.49746   0.50978
 Alpha virt. eigenvalues --    0.51825   0.52812   0.53530   0.54931   0.56428
 Alpha virt. eigenvalues --    0.57120   0.57852   0.59245   0.60748   0.61486
 Alpha virt. eigenvalues --    0.61855   0.62459   0.64032   0.64261   0.65070
 Alpha virt. eigenvalues --    0.65759   0.66400   0.67336   0.68208   0.69095
 Alpha virt. eigenvalues --    0.69775   0.70286   0.72274   0.74211   0.74845
 Alpha virt. eigenvalues --    0.75525   0.76147   0.76520   0.76864   0.77544
 Alpha virt. eigenvalues --    0.78716   0.79742   0.81463   0.82152   0.82641
 Alpha virt. eigenvalues --    0.83813   0.84660   0.84803   0.85990   0.86400
 Alpha virt. eigenvalues --    0.87074   0.87480   0.87781   0.88278   0.88935
 Alpha virt. eigenvalues --    0.89463   0.90428   0.90957   0.91501   0.91610
 Alpha virt. eigenvalues --    0.92175   0.92398   0.92987   0.93660   0.94400
 Alpha virt. eigenvalues --    0.94707   0.95287   0.95442   0.96084   0.98114
 Alpha virt. eigenvalues --    0.98939   1.00048   1.00096   1.01014   1.01361
 Alpha virt. eigenvalues --    1.02942   1.03978   1.05851   1.07393   1.08370
 Alpha virt. eigenvalues --    1.10864   1.12326   1.13349   1.14936   1.16014
 Alpha virt. eigenvalues --    1.19916   1.21149   1.22260   1.22880   1.24807
 Alpha virt. eigenvalues --    1.29961   1.30623   1.32453   1.34500   1.36221
 Alpha virt. eigenvalues --    1.37255   1.38754   1.40564   1.40821   1.43023
 Alpha virt. eigenvalues --    1.43485   1.44953   1.45875   1.46854   1.48589
 Alpha virt. eigenvalues --    1.49352   1.50547   1.52982   1.55595   1.55770
 Alpha virt. eigenvalues --    1.59501   1.60830   1.62889   1.63951   1.64991
 Alpha virt. eigenvalues --    1.66568   1.67696   1.68479   1.72075   1.72399
 Alpha virt. eigenvalues --    1.74221   1.74523   1.76553   1.77093   1.79881
 Alpha virt. eigenvalues --    1.80797   1.82400   1.83379   1.84022   1.85840
 Alpha virt. eigenvalues --    1.87272   1.87486   1.89535   1.89899   1.90255
 Alpha virt. eigenvalues --    1.92941   1.93422   1.96127   1.97223   1.97910
 Alpha virt. eigenvalues --    1.98338   1.98825   2.00958   2.02435   2.03168
 Alpha virt. eigenvalues --    2.04005   2.04872   2.05352   2.05563   2.06235
 Alpha virt. eigenvalues --    2.06659   2.07324   2.07850   2.08509   2.09051
 Alpha virt. eigenvalues --    2.09323   2.10514   2.11498   2.11978   2.12349
 Alpha virt. eigenvalues --    2.12759   2.13471   2.13772   2.14532   2.14569
 Alpha virt. eigenvalues --    2.15958   2.16434   2.16764   2.17222   2.18366
 Alpha virt. eigenvalues --    2.19937   2.21457   2.22594   2.23690   2.24330
 Alpha virt. eigenvalues --    2.27940   2.29076   2.30396   2.31518   2.33602
 Alpha virt. eigenvalues --    2.33879   2.35190   2.35343   2.35963   2.37579
 Alpha virt. eigenvalues --    2.38857   2.39360   2.40508   2.42020   2.42379
 Alpha virt. eigenvalues --    2.44630   2.46141   2.47500   2.48665   2.50453
 Alpha virt. eigenvalues --    2.51205   2.54152   2.56099   2.56991   2.57936
 Alpha virt. eigenvalues --    2.59342   2.61455   2.62899   2.63121   2.64047
 Alpha virt. eigenvalues --    2.65154   2.67734   2.68177   2.68772   2.70346
 Alpha virt. eigenvalues --    2.71407   2.72476   2.74512   2.75232   2.75476
 Alpha virt. eigenvalues --    2.77545   2.78095   2.79887   2.81213   2.81511
 Alpha virt. eigenvalues --    2.82221   2.82269   2.84142   2.85135   2.85359
 Alpha virt. eigenvalues --    2.85813   2.86239   2.86997   2.88955   2.89524
 Alpha virt. eigenvalues --    2.90224   2.90582   2.91161   2.92879   2.94012
 Alpha virt. eigenvalues --    2.96762   3.00729   3.02297   3.09326   3.10840
 Alpha virt. eigenvalues --    3.16171   3.17739   3.20565   3.21030   3.21405
 Alpha virt. eigenvalues --    3.21923   3.22699   3.26818   3.32701   3.32845
 Alpha virt. eigenvalues --    3.33969   3.37075   3.39517   3.43579   3.43854
 Alpha virt. eigenvalues --    3.44670   3.45157   3.45481   3.45629   3.46053
 Alpha virt. eigenvalues --    3.47018   3.47569   3.48197   3.49050   3.50754
 Alpha virt. eigenvalues --    3.52354   3.59031   3.66508   4.00075   4.11743
 Alpha virt. eigenvalues --    4.22964   4.24279   4.36060   4.39929   4.47664
 Alpha virt. eigenvalues --    4.48259   4.49101   4.51714   4.55778   4.59174
 Alpha virt. eigenvalues --    4.63334   4.66381   4.72458   4.80011   4.86415
          Condensed to atoms (all electrons):
               1          2          3          4          5          6
     1  C    4.794092   0.340842  -0.019671  -0.014089  -0.011482   0.396560
     2  C    0.340842   5.093721   0.342109  -0.051974  -0.020576  -0.048840
     3  C   -0.019671   0.342109   4.803834   0.279939  -0.014747   0.005044
     4  C   -0.014089  -0.051974   0.279939   5.325396   0.301617  -0.000647
     5  C   -0.011482  -0.020576  -0.014747   0.301617   4.356317   0.001927
     6  H    0.396560  -0.048840   0.005044  -0.000647   0.001927   0.630828
     7  H   -0.036072   0.370682  -0.029089   0.005775   0.000415   0.000444
     8  H    0.000133   0.005374  -0.029027   0.360446  -0.027648   0.000017
     9  H    0.000085  -0.001822  -0.022111   0.363314  -0.027115   0.000033
    10  O    0.182551  -0.032745  -0.000793  -0.094555   0.262647  -0.036334
    11  O    0.002157   0.000046   0.002338  -0.083523   0.556579  -0.000103
    12  C    0.365039  -0.038299  -0.011479   0.000969  -0.001855  -0.059310
    13  C   -0.039097   0.004691   0.000039   0.000030  -0.000266  -0.008522
    14  C   -0.047018   0.333940  -0.041220  -0.001866  -0.000085  -0.010448
    15  O   -0.001505  -0.050790   0.209441  -0.043219   0.003820  -0.000105
    16  Si   0.000029  -0.002150  -0.010736   0.001252   0.000000   0.000007
    17  C   -0.000002  -0.000031  -0.000993  -0.001709   0.000076   0.000000
    18  C    0.000007   0.000006  -0.001785   0.000463   0.000065  -0.000001
    19  C    0.000009  -0.000019   0.000940  -0.000059  -0.000006   0.000000
    20  H    0.000000   0.000001   0.000018   0.000012   0.000030   0.000000
    21  H   -0.000014   0.000002  -0.000081  -0.001955   0.000849   0.000000
    22  H   -0.000026   0.000021   0.000003   0.000048   0.000337   0.000001
    23  H    0.000001   0.000004  -0.000034  -0.000004   0.000000   0.000000
    24  H    0.000000  -0.000002  -0.000034   0.000001   0.000000   0.000000
    25  H    0.000000   0.000000  -0.000011   0.000001   0.000000   0.000000
    26  H    0.000000   0.000001   0.000014   0.000021  -0.000001   0.000000
    27  H    0.000000  -0.000007  -0.000234   0.000093   0.000000   0.000000
    28  H    0.000000  -0.000004   0.000344  -0.000525   0.000002   0.000000
    29  H   -0.006554  -0.026057   0.004192  -0.000172   0.000027   0.005806
    30  H   -0.006715  -0.032244  -0.007775   0.002937  -0.000004  -0.000420
    31  H    0.004274  -0.025548  -0.006854   0.000006  -0.000056   0.000179
    32  H   -0.025234  -0.003782   0.001294  -0.000774   0.003233   0.005575
    33  H   -0.031285  -0.003314   0.000109  -0.000010   0.000066   0.000896
    34  H    0.004145  -0.000139   0.000000   0.000001  -0.000008   0.000056
    35  H   -0.007495   0.000235  -0.000007   0.000057   0.000716  -0.000211
    36  H   -0.006164   0.000003   0.000004  -0.000002   0.000009   0.006896
    37  C    0.004521  -0.057813   0.349062  -0.054021   0.002999  -0.000146
    38  C    0.000171  -0.006152  -0.035889   0.004611  -0.000084  -0.000001
    39  C    0.000017   0.001123  -0.001400  -0.000051   0.000001   0.000000
    40  H   -0.000097   0.005760  -0.030580  -0.006201   0.000090   0.000002
    41  H    0.000027  -0.005921  -0.023134  -0.002524  -0.000057   0.000002
    42  H   -0.000017  -0.000861  -0.003968   0.000156   0.000001   0.000000
    43  H    0.000000  -0.000039  -0.000063   0.000002   0.000000   0.000000
    44  H    0.000000  -0.000057   0.000166  -0.000009   0.000000   0.000000
               7          8          9         10         11         12
     1  C   -0.036072   0.000133   0.000085   0.182551   0.002157   0.365039
     2  C    0.370682   0.005374  -0.001822  -0.032745   0.000046  -0.038299
     3  C   -0.029089  -0.029027  -0.022111  -0.000793   0.002338  -0.011479
     4  C    0.005775   0.360446   0.363314  -0.094555  -0.083523   0.000969
     5  C    0.000415  -0.027648  -0.027115   0.262647   0.556579  -0.001855
     6  H    0.000444   0.000017   0.000033  -0.036334  -0.000103  -0.059310
     7  H    0.608618  -0.000114  -0.000026   0.002650   0.000004  -0.003380
     8  H   -0.000114   0.566142  -0.022142   0.003298   0.002994  -0.000001
     9  H   -0.000026  -0.022142   0.548571  -0.000147  -0.000710  -0.000021
    10  O    0.002650   0.003298  -0.000147   8.307170  -0.074202  -0.049368
    11  O    0.000004   0.002994  -0.000710  -0.074202   8.098091   0.000086
    12  C   -0.003380  -0.000001  -0.000021  -0.049368   0.000086   4.953634
    13  C    0.000061   0.000000  -0.000001  -0.001962  -0.000016   0.346912
    14  C   -0.037849   0.000064   0.000038  -0.000445   0.000003   0.005774
    15  O   -0.000803  -0.004621   0.002852  -0.000694   0.000027   0.001117
    16  Si   0.000510   0.004349  -0.000127  -0.000205  -0.001684   0.001698
    17  C   -0.000001  -0.000083  -0.000011   0.000000   0.000004   0.000003
    18  C    0.000002  -0.000945   0.000030  -0.000062  -0.001462  -0.000673
    19  C   -0.000014  -0.000010   0.000001   0.000000   0.000000  -0.000052
    20  H    0.000000   0.000008   0.000000   0.000000   0.000043   0.000010
    21  H    0.000000   0.001819   0.000056   0.000033   0.005954   0.000030
    22  H    0.000000   0.000038  -0.000003  -0.000017   0.000066  -0.000187
    23  H   -0.000001   0.000001   0.000000   0.000000   0.000000   0.000064
    24  H   -0.000001   0.000000   0.000000   0.000000   0.000000  -0.000005
    25  H    0.000000   0.000001   0.000000   0.000000   0.000000   0.000000
    26  H    0.000000   0.000000   0.000000   0.000000   0.000000   0.000000
    27  H   -0.000001  -0.000048   0.000002   0.000000   0.000000   0.000000
    28  H    0.000000   0.001937  -0.000010   0.000000  -0.000004   0.000000
    29  H   -0.003614   0.000001  -0.000009  -0.000117   0.000000   0.000069
    30  H    0.005257  -0.000013   0.002812   0.004478  -0.000032   0.000181
    31  H   -0.003478  -0.000013   0.000085  -0.000003   0.000000  -0.000157
    32  H   -0.000030   0.000003   0.000019  -0.003416  -0.000232   0.381566
    33  H    0.002881  -0.000003   0.000001   0.003177  -0.000002   0.377446
    34  H   -0.000010   0.000000   0.000000   0.000032   0.000000  -0.027705
    35  H   -0.000008  -0.000001   0.000000   0.007195   0.000040  -0.033200
    36  H    0.000010   0.000000   0.000000  -0.000141   0.000000  -0.035445
    37  C   -0.008650  -0.005338  -0.004598  -0.000104  -0.000073   0.000023
    38  C    0.008206   0.000000   0.000072   0.000001   0.000000  -0.000011
    39  C    0.001217   0.000002  -0.000016   0.000000   0.000000  -0.000001
    40  H    0.000059   0.002760   0.000185   0.000000   0.000000  -0.000003
    41  H    0.000199  -0.000006   0.002563  -0.000006   0.000001  -0.000006
    42  H    0.000590   0.000002  -0.000002   0.000000   0.000000  -0.000001
    43  H    0.000024   0.000000   0.000000   0.000000   0.000000   0.000000
    44  H    0.000007   0.000000  -0.000001   0.000000   0.000000   0.000000
              13         14         15         16         17         18
     1  C   -0.039097  -0.047018  -0.001505   0.000029  -0.000002   0.000007
     2  C    0.004691   0.333940  -0.050790  -0.002150  -0.000031   0.000006
     3  C    0.000039  -0.041220   0.209441  -0.010736  -0.000993  -0.001785
     4  C    0.000030  -0.001866  -0.043219   0.001252  -0.001709   0.000463
     5  C   -0.000266  -0.000085   0.003820   0.000000   0.000076   0.000065
     6  H   -0.008522  -0.010448  -0.000105   0.000007   0.000000  -0.000001
     7  H    0.000061  -0.037849  -0.000803   0.000510  -0.000001   0.000002
     8  H    0.000000   0.000064  -0.004621   0.004349  -0.000083  -0.000945
     9  H   -0.000001   0.000038   0.002852  -0.000127  -0.000011   0.000030
    10  O   -0.001962  -0.000445  -0.000694  -0.000205   0.000000  -0.000062
    11  O   -0.000016   0.000003   0.000027  -0.001684   0.000004  -0.001462
    12  C    0.346912   0.005774   0.001117   0.001698   0.000003  -0.000673
    13  C    4.965119  -0.000174   0.000348  -0.000167   0.000000   0.000006
    14  C   -0.000174   5.005248   0.002948   0.000215   0.000001   0.000000
    15  O    0.000348   0.002948   8.306324   0.315749  -0.013527  -0.015881
    16  Si  -0.000167   0.000215   0.315749  11.849063   0.368061   0.373532
    17  C    0.000000   0.000001  -0.013527   0.368061   5.146473  -0.034901
    18  C    0.000006   0.000000  -0.015881   0.373532  -0.034901   5.157532
    19  C    0.000000   0.000000  -0.018761   0.380404  -0.031561  -0.034714
    20  H    0.000000   0.000000   0.000591  -0.013324  -0.000227   0.366170
    21  H    0.000000   0.000000  -0.000243  -0.027389  -0.001458   0.372443
    22  H    0.000022   0.000000  -0.001132  -0.030031   0.001322   0.379463
    23  H   -0.000003   0.000000  -0.000445  -0.024031   0.001412  -0.001416
    24  H    0.000000   0.000000  -0.000425  -0.026535  -0.001232   0.001399
    25  H    0.000000   0.000000   0.000508  -0.014954  -0.000733  -0.000442
    26  H    0.000000   0.000000   0.000458  -0.013524   0.371709  -0.000468
    27  H    0.000000   0.000000  -0.000263  -0.025443   0.376976   0.001379
    28  H    0.000000   0.000000  -0.000429  -0.029437   0.375444  -0.001486
    29  H   -0.000020   0.378479  -0.000052  -0.000006   0.000000   0.000000
    30  H    0.000000   0.381819   0.000001   0.000000   0.000000   0.000000
    31  H    0.000002   0.375823  -0.000003  -0.000019   0.000000   0.000000
    32  H   -0.042269  -0.000119  -0.000417   0.003678  -0.000004   0.000437
    33  H   -0.040605   0.000039   0.000088   0.000861   0.000000  -0.000007
    34  H    0.380337   0.000002  -0.000001   0.000007   0.000000   0.000000
    35  H    0.386846   0.000000  -0.000001   0.000034   0.000000  -0.000001
    36  H    0.381542  -0.000018  -0.000005   0.000010   0.000000   0.000000
    37  C    0.000003  -0.001639  -0.055428  -0.006086  -0.001553  -0.000138
    38  C    0.000000  -0.003401   0.000843   0.001530  -0.000457   0.000007
    39  C    0.000000  -0.001723   0.000361  -0.000228   0.000002   0.000000
    40  H    0.000000  -0.000041  -0.002571  -0.002292   0.002209  -0.000029
    41  H    0.000000   0.001418   0.003012   0.000686   0.000007   0.000001
    42  H    0.000000  -0.000001   0.004451   0.003093  -0.000324   0.000006
    43  H    0.000000   0.000037   0.000004   0.000017   0.000000   0.000000
    44  H    0.000000  -0.000369  -0.000003   0.000024  -0.000001   0.000000
              19         20         21         22         23         24
     1  C    0.000009   0.000000  -0.000014  -0.000026   0.000001   0.000000
     2  C   -0.000019   0.000001   0.000002   0.000021   0.000004  -0.000002
     3  C    0.000940   0.000018  -0.000081   0.000003  -0.000034  -0.000034
     4  C   -0.000059   0.000012  -0.001955   0.000048  -0.000004   0.000001
     5  C   -0.000006   0.000030   0.000849   0.000337   0.000000   0.000000
     6  H    0.000000   0.000000   0.000000   0.000001   0.000000   0.000000
     7  H   -0.000014   0.000000   0.000000   0.000000  -0.000001  -0.000001
     8  H   -0.000010   0.000008   0.001819   0.000038   0.000001   0.000000
     9  H    0.000001   0.000000   0.000056  -0.000003   0.000000   0.000000
    10  O    0.000000   0.000000   0.000033  -0.000017   0.000000   0.000000
    11  O    0.000000   0.000043   0.005954   0.000066   0.000000   0.000000
    12  C   -0.000052   0.000010   0.000030  -0.000187   0.000064  -0.000005
    13  C    0.000000   0.000000   0.000000   0.000022  -0.000003   0.000000
    14  C    0.000000   0.000000   0.000000   0.000000   0.000000   0.000000
    15  O   -0.018761   0.000591  -0.000243  -0.001132  -0.000445  -0.000425
    16  Si   0.380404  -0.013324  -0.027389  -0.030031  -0.024031  -0.026535
    17  C   -0.031561  -0.000227  -0.001458   0.001322   0.001412  -0.001232
    18  C   -0.034714   0.366170   0.372443   0.379463  -0.001416   0.001399
    19  C    5.117055  -0.000948   0.001382  -0.000861   0.376015   0.375555
    20  H   -0.000948   0.573915  -0.022076  -0.022698  -0.000052   0.000021
    21  H    0.001382  -0.022076   0.569227  -0.021731   0.000005  -0.000027
    22  H   -0.000861  -0.022698  -0.021731   0.571832   0.000582  -0.000001
    23  H    0.376015  -0.000052   0.000005   0.000582   0.574678  -0.021979
    24  H    0.375555   0.000021  -0.000027  -0.000001  -0.021979   0.580618
    25  H    0.373413   0.000004   0.000000  -0.000019  -0.023570  -0.023452
    26  H   -0.001084   0.000081  -0.000018   0.000017   0.000016  -0.000036
    27  H   -0.001218   0.000003   0.000012  -0.000026   0.000007   0.000662
    28  H    0.001495  -0.000021   0.000552   0.000007  -0.000028   0.000000
    29  H    0.000000   0.000000   0.000000   0.000000   0.000000   0.000000
    30  H    0.000000   0.000000   0.000000   0.000000   0.000000   0.000000
    31  H    0.000000   0.000000   0.000000   0.000000   0.000000   0.000000
    32  H   -0.000335   0.000005  -0.000028   0.002432   0.000014   0.000012
    33  H   -0.000021   0.000000  -0.000001  -0.000006   0.000036  -0.000002
    34  H    0.000000   0.000000   0.000000   0.000007   0.000001   0.000000
    35  H    0.000000   0.000000  -0.000001   0.000020   0.000000   0.000000
    36  H    0.000000   0.000000   0.000000   0.000000   0.000000   0.000000
    37  C   -0.000080   0.000001  -0.000026  -0.000001   0.000006  -0.000024
    38  C   -0.000085   0.000000   0.000001   0.000000  -0.000001  -0.000051
    39  C    0.000000   0.000000   0.000000   0.000000   0.000000  -0.000001
    40  H   -0.000006   0.000002  -0.000010   0.000000   0.000000  -0.000008
    41  H    0.000000   0.000000   0.000000   0.000000   0.000000   0.000000
    42  H   -0.000079   0.000000   0.000000   0.000000  -0.000003   0.000438
    43  H    0.000000   0.000000   0.000000   0.000000   0.000000   0.000000
    44  H    0.000000   0.000000   0.000000   0.000000   0.000000   0.000000
              25         26         27         28         29         30
     1  C    0.000000   0.000000   0.000000   0.000000  -0.006554  -0.006715
     2  C    0.000000   0.000001  -0.000007  -0.000004  -0.026057  -0.032244
     3  C   -0.000011   0.000014  -0.000234   0.000344   0.004192  -0.007775
     4  C    0.000001   0.000021   0.000093  -0.000525  -0.000172   0.002937
     5  C    0.000000  -0.000001   0.000000   0.000002   0.000027  -0.000004
     6  H    0.000000   0.000000   0.000000   0.000000   0.005806  -0.000420
     7  H    0.000000   0.000000  -0.000001   0.000000  -0.003614   0.005257
     8  H    0.000001   0.000000  -0.000048   0.001937   0.000001  -0.000013
     9  H    0.000000   0.000000   0.000002  -0.000010  -0.000009   0.002812
    10  O    0.000000   0.000000   0.000000   0.000000  -0.000117   0.004478
    11  O    0.000000   0.000000   0.000000  -0.000004   0.000000  -0.000032
    12  C    0.000000   0.000000   0.000000   0.000000   0.000069   0.000181
    13  C    0.000000   0.000000   0.000000   0.000000  -0.000020   0.000000
    14  C    0.000000   0.000000   0.000000   0.000000   0.378479   0.381819
    15  O    0.000508   0.000458  -0.000263  -0.000429  -0.000052   0.000001
    16  Si  -0.014954  -0.013524  -0.025443  -0.029437  -0.000006   0.000000
    17  C   -0.000733   0.371709   0.376976   0.375444   0.000000   0.000000
    18  C   -0.000442  -0.000468   0.001379  -0.001486   0.000000   0.000000
    19  C    0.373413  -0.001084  -0.001218   0.001495   0.000000   0.000000
    20  H    0.000004   0.000081   0.000003  -0.000021   0.000000   0.000000
    21  H    0.000000  -0.000018   0.000012   0.000552   0.000000   0.000000
    22  H   -0.000019   0.000017  -0.000026   0.000007   0.000000   0.000000
    23  H   -0.023570   0.000016   0.000007  -0.000028   0.000000   0.000000
    24  H   -0.023452  -0.000036   0.000662   0.000000   0.000000   0.000000
    25  H    0.567932   0.000088  -0.000067  -0.000003   0.000000   0.000000
    26  H    0.000088   0.562429  -0.023222  -0.022390   0.000000   0.000000
    27  H   -0.000067  -0.023222   0.573092  -0.024144   0.000000   0.000000
    28  H   -0.000003  -0.022390  -0.024144   0.580428   0.000000   0.000000
    29  H    0.000000   0.000000   0.000000   0.000000   0.594139  -0.029940
    30  H    0.000000   0.000000   0.000000   0.000000  -0.029940   0.598764
    31  H    0.000000   0.000000   0.000000   0.000000  -0.029476  -0.030856
    32  H    0.000006   0.000000   0.000001  -0.000001  -0.000001   0.000001
    33  H    0.000000   0.000000   0.000000   0.000000   0.000014  -0.000008
    34  H    0.000000   0.000000   0.000000   0.000000   0.000000   0.000000
    35  H    0.000000   0.000000   0.000000   0.000000   0.000000  -0.000002
    36  H    0.000000   0.000000   0.000000   0.000000  -0.000005   0.000000
    37  C    0.000000   0.000157  -0.001501  -0.001617   0.000091  -0.001203
    38  C    0.000001  -0.000006   0.000975  -0.000012  -0.000010   0.000227
    39  C    0.000000   0.000000   0.000033  -0.000001  -0.000007   0.000015
    40  H    0.000001   0.000103   0.000888   0.002668  -0.000004  -0.000007
    41  H    0.000000  -0.000002   0.000022   0.000003   0.000051   0.000270
    42  H    0.000000   0.000002   0.000228   0.000015   0.000004  -0.000002
    43  H    0.000000   0.000000   0.000001   0.000000  -0.000001   0.000000
    44  H    0.000000   0.000000   0.000000   0.000000   0.000009  -0.000002
              31         32         33         34         35         36
     1  C    0.004274  -0.025234  -0.031285   0.004145  -0.007495  -0.006164
     2  C   -0.025548  -0.003782  -0.003314  -0.000139   0.000235   0.000003
     3  C   -0.006854   0.001294   0.000109   0.000000  -0.000007   0.000004
     4  C    0.000006  -0.000774  -0.000010   0.000001   0.000057  -0.000002
     5  C   -0.000056   0.003233   0.000066  -0.000008   0.000716   0.000009
     6  H    0.000179   0.005575   0.000896   0.000056  -0.000211   0.006896
     7  H   -0.003478  -0.000030   0.002881  -0.000010  -0.000008   0.000010
     8  H   -0.000013   0.000003  -0.000003   0.000000  -0.000001   0.000000
     9  H    0.000085   0.000019   0.000001   0.000000   0.000000   0.000000
    10  O   -0.000003  -0.003416   0.003177   0.000032   0.007195  -0.000141
    11  O    0.000000  -0.000232  -0.000002   0.000000   0.000040   0.000000
    12  C   -0.000157   0.381566   0.377446  -0.027705  -0.033200  -0.035445
    13  C    0.000002  -0.042269  -0.040605   0.380337   0.386846   0.381542
    14  C    0.375823  -0.000119   0.000039   0.000002   0.000000  -0.000018
[...]
    16  Si   0.381821  -0.014546  -0.024783  -0.025870  -0.024021  -0.024841
    17  C   -0.027744  -0.000383  -0.000929   0.001192   0.001194  -0.001225
    18  C   -0.030543   0.363948   0.370158   0.379301  -0.001294   0.001176
    19  C    5.116248  -0.000278   0.001146  -0.001325   0.377750   0.377507
    20  H   -0.000278   0.579212  -0.021102  -0.024124  -0.000003   0.000003
    21  H    0.001146  -0.021102   0.559886  -0.022960   0.000005  -0.000020
    22  H   -0.001325  -0.024124  -0.022960   0.571418   0.000529   0.000009
    23  H    0.377750  -0.000003   0.000005   0.000529   0.570813  -0.022455
    24  H    0.377507   0.000003  -0.000020   0.000009  -0.022455   0.574461
    25  H    0.368406  -0.000066   0.000005  -0.000056  -0.024012  -0.024048
    26  H   -0.000708   0.000129  -0.000014   0.000009   0.000008  -0.000022
    27  H   -0.001174   0.000007  -0.000001  -0.000022   0.000000   0.000567
    28  H    0.001223  -0.000048   0.000285   0.000002  -0.000021   0.000005
    29  H    0.000000   0.000000   0.000000   0.000000   0.000000   0.000000
    30  H    0.000000   0.000000   0.000000   0.000000   0.000000   0.000000
    31  H    0.000000   0.000000   0.000000   0.000000   0.000000   0.000000
    32  H   -0.000295   0.000011  -0.000013   0.000543   0.000723   0.000006
    33  H   -0.000003   0.000000  -0.000001   0.000001   0.000009   0.000000
    34  H    0.000000   0.000000   0.000000  -0.000001   0.000001   0.000000
    35  H    0.000000   0.000000  -0.000005   0.000113   0.000000   0.000000
    36  H    0.000000   0.000000   0.000000   0.000000   0.000000   0.000000
    37  C   -0.000073   0.000001  -0.000022  -0.000001   0.000006  -0.000026
    38  C   -0.000138   0.000000   0.000000   0.000000  -0.000002  -0.000082
    39  C    0.000000   0.000000   0.000000   0.000000   0.000000  -0.000001
    40  H   -0.000024   0.000002  -0.000009   0.000001   0.000001  -0.000011
    41  H    0.000000   0.000000   0.000000   0.000000   0.000000   0.000000
    42  H    0.000000   0.000000   0.000000   0.000000  -0.000005   0.000751
    43  H    0.000000   0.000000   0.000000   0.000000   0.000000  -0.000001
    44  H    0.000000   0.000000   0.000000   0.000000   0.000000   0.000000
              25         26         27         28         29         30
     1  C    0.000000   0.000000   0.000000   0.000000  -0.006431  -0.005684
     2  C    0.000000   0.000001  -0.000006  -0.000004  -0.025831  -0.032106
     3  C   -0.000015   0.000004  -0.000229   0.000245   0.004210  -0.007206
     4  C    0.000002   0.000020   0.000085  -0.000483  -0.000101   0.002425
     5  C    0.000000  -0.000001   0.000001  -0.000003   0.000001   0.000221
     6  H    0.000000   0.000000   0.000000   0.000000   0.005114   0.000052
     7  H    0.000000   0.000000   0.000000   0.000000  -0.003969   0.005201
     8  H    0.000001  -0.000006  -0.000069   0.001879   0.000001  -0.000037
     9  H    0.000000   0.000000   0.000000  -0.000003  -0.000023   0.003223
    10  O    0.000000   0.000000   0.000000   0.000000  -0.000019   0.001823
    11  O    0.000000   0.000000   0.000000  -0.000005   0.000000  -0.000025
    12  C    0.000002   0.000000   0.000000   0.000000   0.000066   0.000135
    13  C    0.000000   0.000000   0.000000   0.000000  -0.000023   0.000004
    14  C    0.000000   0.000000   0.000000   0.000000   0.378070   0.381610
    15  O    0.000698   0.000490  -0.000358  -0.000476  -0.000056  -0.000001
    16  Si  -0.014916  -0.014241  -0.023791  -0.026140  -0.000006   0.000002
    17  C   -0.000439   0.368389   0.377070   0.376759   0.000000   0.000000
    18  C   -0.000084  -0.000467   0.001211  -0.001004   0.000000   0.000000
    19  C    0.368406  -0.000708  -0.001174   0.001223   0.000000   0.000000
    20  H   -0.000066   0.000129   0.000007  -0.000048   0.000000   0.000000
    21  H    0.000005  -0.000014  -0.000001   0.000285   0.000000   0.000000
    22  H   -0.000056   0.000009  -0.000022   0.000002   0.000000   0.000000
    23  H   -0.024012   0.000008   0.000000  -0.000021   0.000000   0.000000
    24  H   -0.024048  -0.000022   0.000567   0.000005   0.000000   0.000000
    25  H    0.576136   0.000084  -0.000060  -0.000004   0.000000   0.000000
    26  H    0.000084   0.569767  -0.023517  -0.023183   0.000000   0.000000
    27  H   -0.000060  -0.023517   0.571756  -0.024473   0.000000   0.000000
    28  H   -0.000004  -0.023183  -0.024473   0.574812   0.000000   0.000000
    29  H    0.000000   0.000000   0.000000   0.000000   0.591839  -0.030584
    30  H    0.000000   0.000000   0.000000   0.000000  -0.030584   0.599596
    31  H    0.000000   0.000000   0.000000   0.000000  -0.028023  -0.031082
    32  H    0.000003   0.000000   0.000000   0.000000  -0.000004  -0.000005
    33  H    0.000000   0.000000   0.000000   0.000000   0.000084  -0.000008
    34  H    0.000000   0.000000   0.000000   0.000000   0.000000   0.000000
    35  H    0.000000   0.000000   0.000000   0.000000   0.000000  -0.000001
    36  H    0.000000   0.000000   0.000000   0.000000  -0.000003   0.000000
    37  C    0.000000   0.000105  -0.000932  -0.000775   0.000081  -0.001091
    38  C    0.000002  -0.000004   0.000653   0.000000  -0.000025   0.000226
    39  C    0.000000   0.000000   0.000022   0.000000  -0.000008   0.000012
    40  H    0.000001   0.000049   0.000980   0.001696  -0.000003  -0.000010
    41  H    0.000000  -0.000001   0.000011  -0.000010   0.000046   0.000232
    42  H   -0.000001   0.000002   0.000077   0.000010   0.000004  -0.000002
    43  H    0.000000   0.000000   0.000000   0.000000   0.000000   0.000000
    44  H    0.000000   0.000000   0.000000   0.000000   0.000007  -0.000002
              31         32         33         34         35         36
     1  C    0.004236  -0.029582  -0.032770   0.003888  -0.008037  -0.004252
     2  C   -0.025930  -0.005409  -0.004897  -0.000107   0.000136   0.000004
     3  C   -0.007278   0.000167   0.000517  -0.000001   0.000016  -0.000001
     4  C   -0.000134  -0.000188  -0.000031   0.000001   0.000039  -0.000001
     5  C   -0.000049   0.000918   0.000006  -0.000004   0.000565  -0.000012
     6  H    0.000277   0.005799  -0.000826  -0.000007  -0.000069   0.005969
     7  H   -0.003240   0.000498   0.003264  -0.000013  -0.000004   0.000007
     8  H   -0.000021   0.000002  -0.000001   0.000000  -0.000001   0.000000
     9  H    0.000085   0.000002   0.000001   0.000000   0.000000   0.000000
    10  O   -0.000059  -0.002405   0.003337   0.000130   0.008516  -0.000234
    11  O    0.000000  -0.000049   0.000001   0.000000   0.000017   0.000000
    12  C   -0.000169   0.381711   0.370681  -0.026813  -0.033427  -0.035677
    13  C    0.000002  -0.035478  -0.037040   0.379569   0.387938   0.383127
    14  C    0.376727   0.000001  -0.000072   0.000002  -0.000003  -0.000009
    15  O   -0.000003   0.005393   0.000036  -0.000001   0.000006  -0.000003
    16  Si  -0.000012   0.004077   0.000087   0.000006   0.000058   0.000003
    17  C    0.000000   0.000008   0.000000   0.000000   0.000000   0.000000
    18  C    0.000000  -0.000213   0.000001   0.000000   0.000003   0.000000
    19  C    0.000000  -0.000295  -0.000003   0.000000   0.000000   0.000000
    20  H    0.000000   0.000011   0.000000   0.000000   0.000000   0.000000
    21  H    0.000000  -0.000013  -0.000001   0.000000  -0.000005   0.000000
    22  H    0.000000   0.000543   0.000001  -0.000001   0.000113   0.000000
    23  H    0.000000   0.000723   0.000009   0.000001   0.000000   0.000000
    24  H    0.000000   0.000006   0.000000   0.000000   0.000000   0.000000
    25  H    0.000000   0.000003   0.000000   0.000000   0.000000   0.000000
    26  H    0.000000   0.000000   0.000000   0.000000   0.000000   0.000000
    27  H    0.000000   0.000000   0.000000   0.000000   0.000000   0.000000
    28  H    0.000000   0.000000   0.000000   0.000000   0.000000   0.000000
    29  H   -0.028023  -0.000004   0.000084   0.000000   0.000000  -0.000003
    30  H   -0.031082  -0.000005  -0.000008   0.000000  -0.000001   0.000000
    31  H    0.587399   0.000006  -0.000008   0.000000   0.000000   0.000000
    32  H    0.000006   0.570503  -0.031574  -0.003008  -0.004057   0.004774
    33  H   -0.000008  -0.031574   0.630469  -0.003553   0.005240  -0.004376
    34  H    0.000000  -0.003008  -0.003553   0.607941  -0.030308  -0.031613
    35  H    0.000000  -0.004057   0.005240  -0.030308   0.581598  -0.031391
    36  H    0.000000   0.004774  -0.004376  -0.031613  -0.031391   0.610873
    37  C    0.001167  -0.000008   0.000017   0.000000   0.000000   0.000000
    38  C    0.002425  -0.000007  -0.000010   0.000000   0.000000   0.000000
    39  C    0.003977   0.000000   0.000000   0.000000   0.000000   0.000000
    40  H    0.000202   0.000003   0.000000   0.000000   0.000000   0.000000
    41  H    0.000103  -0.000001   0.000000   0.000000   0.000000   0.000000
    42  H    0.000009  -0.000003  -0.000002   0.000000   0.000000   0.000000
    43  H   -0.000053   0.000000   0.000000   0.000000   0.000000   0.000000
    44  H    0.001024   0.000000   0.000000   0.000000   0.000000   0.000000
              37         38         39         40         41         42
     1  C    0.005213   0.000156   0.000016  -0.000099  -0.000055  -0.000034
     2  C   -0.058955  -0.007179   0.000888   0.006165  -0.005026  -0.001462
     3  C    0.356609  -0.035378  -0.001136  -0.032345  -0.025209  -0.004383
     4  C   -0.053385   0.004818  -0.000067  -0.007817  -0.001962   0.000243
     5  C    0.003006  -0.000086   0.000001   0.000072  -0.000026   0.000001
     6  H   -0.000128  -0.000001   0.000000   0.000003   0.000000   0.000000
     7  H   -0.010078   0.009493   0.001142   0.000087   0.000251   0.001065
     8  H   -0.005487   0.000029   0.000003   0.003455   0.000018   0.000003
     9  H   -0.003973  -0.000026  -0.000014   0.000211   0.002323  -0.000006
    10  O   -0.000035   0.000002   0.000000  -0.000001  -0.000001   0.000000
    11  O   -0.000069   0.000000   0.000000  -0.000001   0.000001   0.000000
    12  C   -0.000067  -0.000013  -0.000001  -0.000003  -0.000002   0.000002
    13  C    0.000002   0.000000   0.000000   0.000000   0.000000   0.000000
    14  C   -0.002077  -0.003408  -0.001406  -0.000042   0.001073   0.000015
    15  O   -0.057774  -0.000234   0.000421  -0.003286   0.003364   0.006003
    16  Si  -0.004936   0.001197  -0.000154  -0.001417   0.000535   0.002696
    17  C   -0.001403  -0.000297  -0.000002   0.002415   0.000001  -0.000273
    18  C   -0.000100   0.000005   0.000000  -0.000035   0.000001   0.000007
    19  C   -0.000073  -0.000138   0.000000  -0.000024   0.000000   0.000000
    20  H    0.000001   0.000000   0.000000   0.000002   0.000000   0.000000
    21  H   -0.000022   0.000000   0.000000  -0.000009   0.000000   0.000000
    22  H   -0.000001   0.000000   0.000000   0.000001   0.000000   0.000000
    23  H    0.000006  -0.000002   0.000000   0.000001   0.000000  -0.000005
    24  H   -0.000026  -0.000082  -0.000001  -0.000011   0.000000   0.000751
    25  H    0.000000   0.000002   0.000000   0.000001   0.000000  -0.000001
    26  H    0.000105  -0.000004   0.000000   0.000049  -0.000001   0.000002
    27  H   -0.000932   0.000653   0.000022   0.000980   0.000011   0.000077
    28  H   -0.000775   0.000000   0.000000   0.001696  -0.000010   0.000010
    29  H    0.000081  -0.000025  -0.000008  -0.000003   0.000046   0.000004
    30  H   -0.001091   0.000226   0.000012  -0.000010   0.000232  -0.000002
    31  H    0.001167   0.002425   0.003977   0.000202   0.000103   0.000009
    32  H   -0.000008  -0.000007   0.000000   0.000003  -0.000001  -0.000003
    33  H    0.000017  -0.000010   0.000000   0.000000   0.000000  -0.000002
    34  H    0.000000   0.000000   0.000000   0.000000   0.000000   0.000000
    35  H    0.000000   0.000000   0.000000   0.000000   0.000000   0.000000
    36  H    0.000000   0.000000   0.000000   0.000000   0.000000   0.000000
    37  C    5.048192   0.378974  -0.039336   0.370479   0.364524  -0.053001
    38  C    0.378974   4.771013   0.654115  -0.035382  -0.038286   0.384367
    39  C   -0.039336   0.654115   4.939862  -0.000302  -0.006439  -0.044167
    40  H    0.370479  -0.035382  -0.000302   0.609905  -0.031865  -0.001350
    41  H    0.364524  -0.038286  -0.006439  -0.031865   0.620541   0.005185
    42  H   -0.053001   0.384367  -0.044167  -0.001350   0.005185   0.600624
    43  H    0.004572  -0.024693   0.376217  -0.000206   0.000109  -0.007974
    44  H   -0.011819  -0.034665   0.381440   0.000183   0.005594   0.005576
              43         44
     1  C    0.000000   0.000000
     2  C   -0.000037  -0.000055
     3  C   -0.000072   0.000186
     4  C    0.000002  -0.000008
     5  C    0.000000   0.000000
     6  H    0.000000   0.000000
     7  H    0.000027   0.000013
     8  H    0.000000   0.000000
     9  H    0.000000   0.000000
    10  O    0.000000   0.000000
    11  O    0.000000   0.000000
    12  C    0.000000   0.000000
    13  C    0.000000   0.000000
    14  C    0.000028  -0.000268
    15  O    0.000004  -0.000003
    16  Si   0.000016   0.000018
    17  C    0.000000   0.000000
    18  C    0.000000   0.000000
    19  C    0.000000   0.000000
    20  H    0.000000   0.000000
    21  H    0.000000   0.000000
    22  H    0.000000   0.000000
    23  H    0.000000   0.000000
    24  H   -0.000001   0.000000
    25  H    0.000000   0.000000
    26  H    0.000000   0.000000
    27  H    0.000000   0.000000
    28  H    0.000000   0.000000
    29  H    0.000000   0.000007
    30  H    0.000000  -0.000002
    31  H   -0.000053   0.001024
    32  H    0.000000   0.000000
    33  H    0.000000   0.000000
    34  H    0.000000   0.000000
    35  H    0.000000   0.000000
    36  H    0.000000   0.000000
    37  C    0.004572  -0.011819
    38  C   -0.024693  -0.034665
    39  C    0.376217   0.381440
    40  H   -0.000206   0.000183
    41  H    0.000109   0.005594
    42  H   -0.007974   0.005576
    43  H    0.589856  -0.043632
    44  H   -0.043632   0.595523
 Mulliken charges:
               1
     1  C    0.176803
     2  C   -0.095945
     3  C    0.293403
     4  C   -0.300589
     5  C    0.614219
     6  H    0.109682
     7  H    0.116556
     8  H    0.140302
     9  H    0.150041
    10  O   -0.479652
    11  O   -0.512132
    12  C   -0.192938
    13  C   -0.329717
    14  C   -0.341792
    15  O   -0.651375
    16  Si   0.939980
    17  C   -0.558988
    18  C   -0.559577
    19  C   -0.540208
    20  H    0.116553
    21  H    0.128704
    22  H    0.121551
    23  H    0.121463
    24  H    0.118882
    25  H    0.118360
    26  H    0.123109
    27  H    0.122190
    28  H    0.119716
    29  H    0.115584
    30  H    0.113083
    31  H    0.118421
    32  H    0.137152
    33  H    0.101423
    34  H    0.103889
    35  H    0.123060
    36  H    0.102816
    37  C   -0.227398
    38  C   -0.027558
    39  C   -0.265084
    40  H    0.118300
    41  H    0.104971
    42  H    0.106020
    43  H    0.105835
    44  H    0.100887
 Sum of Mulliken charges =   0.00000
 Mulliken charges with hydrogens summed into heavy atoms:
               1
     1  C    0.286485
     2  C    0.020611
     3  C    0.293403
     4  C   -0.010247
     5  C    0.614219
    10  O   -0.479652
    11  O   -0.512132
    12  C    0.045637
    13  C    0.000047
    14  C    0.005297
    15  O   -0.651375
    16  Si   0.939980
    17  C   -0.193973
    18  C   -0.192770
    19  C   -0.181502
    37  C   -0.004127
    38  C    0.078461
    39  C   -0.058362
 Electronic spatial extent (au):  <R**2>=           4987.8352
 Charge=              0.0000 electrons
 Dipole moment (field-independent basis, Debye):
    X=             -2.9602    Y=              3.1475    Z=              2.2212  Tot=              4.8583
 Quadrupole moment (field-independent basis, Debye-Ang):
   XX=           -122.7474   YY=           -114.6055   ZZ=           -122.2988
   XY=              9.2689   XZ=              9.2245   YZ=             -7.1324
 Traceless Quadrupole moment (field-independent basis, Debye-Ang):
   XX=             -2.8635   YY=              5.2784   ZZ=             -2.4149
   XY=              9.2689   XZ=              9.2245   YZ=             -7.1324
 Octapole moment (field-independent basis, Debye-Ang**2):
  XXX=             -1.8046  YYY=              3.0711  ZZZ=             11.7604  XYY=             -8.7642
  XXY=              9.0189  XXZ=             22.3535  XZZ=            -13.3971  YZZ=             19.1246
  YYZ=              5.3412  XYZ=            -15.0496
 Hexadecapole moment (field-independent basis, Debye-Ang**3):
 XXXX=          -2944.5458 YYYY=          -2522.8992 ZZZZ=          -1315.8959 XXXY=             66.2442
 XXXZ=              9.6116 YYYX=             10.1555 YYYZ=            -11.0811 ZZZX=             31.7402
 ZZZY=            -31.7870 XXYY=           -893.4645 XXZZ=           -719.7430 YYZZ=           -653.4064
 XXYZ=             -7.0371 YYXZ=              6.7835 ZZXY=             20.1208
 N-N= 1.658683383176D+03 E-N=-5.807958373425D+03  KE= 1.055902816762D+03
 1\1\GINC-CPU-E-609\FOpt\RB3LYP\6-31G(d,p)\C14H26O3Si1\KE291\06-Feb-201
 9\0\\# b3lyp/6-31g(d,p) Opt=(maxcycles=25) scrf=(solvent=chloroform)\\
 P_ng_2ginp017\\0,1\C,-0.1288001181,0.2645731293,0.9869364556\C,-1.6474
 303952,-0.0036122854,1.1156997292\C,-2.3811268302,1.1540034992,1.84416
 71871\C,-1.7087052672,1.3689894449,3.2051652544\C,-0.2021080249,1.5152
 893532,3.1505515822\H,0.3814667969,-0.7054172539,0.9606562318\H,-2.049
 1465608,-0.0269023764,0.0970607281\H,-2.1066640371,2.2462635181,3.7201
 414036\H,-1.9156863784,0.513153176,3.8588449531\O,0.4724769394,0.91223
 30728,2.1571536959\O,0.4230089063,2.1130864563,4.0045901839\C,0.305757
 7336,1.0461844699,-0.2566643367\C,1.8259608631,1.1511612823,-0.4083923
 242\C,-1.8897087416,-1.3875176201,1.7465197144\O,-2.2302157418,2.31085
 13981,1.0144814271\Si,-2.4364783354,3.9756260417,1.1941172192\C,-3.936
 0081833,4.4351786751,2.2480695317\C,-0.8879679532,4.760159353,1.929031
 4724\C,-2.6926830891,4.5874669447,-0.5667121269\H,-1.0263803995,5.8438
 22091,2.0214772319\H,-0.6444970221,4.3679034974,2.9208238142\H,-0.0178
 107408,4.5911334622,1.2856866068\H,-1.8498926787,4.3111503578,-1.20880
 29728\H,-3.6022966774,4.1648838935,-1.0062357169\H,-2.7854226596,5.679
 1105992,-0.5886234166\H,-4.0360692055,5.527130243,2.2625574418\H,-4.86
 58910118,4.0262808497,1.8397026618\H,-3.8479617502,4.1064454287,3.2888
 924639\H,-1.3759614356,-2.1534363149,1.1575951261\H,-1.5023354956,-1.4
 520913243,2.7688156275\H,-2.9495219232,-1.6480415098,1.76315852\H,-0.1
 51250538,2.037854414,-0.235103611\H,-0.1160299471,0.5235152257,-1.1245
 485196\H,2.0861325895,1.6913273364,-1.3238844165\H,2.2713281086,1.6822
 752329,0.4369359277\H,2.2901724754,0.1595535926,-0.4631435282\C,-3.892
 1043874,0.868639072,2.0427210072\C,-4.6458298052,0.6161991208,0.765795
 9285\C,-5.4730300292,-0.4098595467,0.5585276982\H,-4.3142025523,1.7472
 309764,2.5463421513\H,-4.0266133798,0.0283500416,2.7307793698\H,-4.494
 2961635,1.3473226698,-0.0266287463\H,-6.0060576677,-0.5315612469,-0.37
 99467284\H,-5.6557532863,-1.1622334409,1.3228410978\\Version=ES64L-G09
 RevD.01\State=1-A\HF=-1064.4223325\RMSD=5.872e-09\RMSF=4.482e-06\Dipol
 e=-1.5407952,-0.6112412,-0.9517352\Quadrupole=-5.5567613,8.1819169,-2.
 6251556,-1.850225,-8.6608601,-1.8524157\PG=C01 [X(C14H26O3Si1)]\\@


 SCIENCE IS A VERY HUMAN FORM OF KNOWLEDGE.
 WE ARE ALWAYS AT THE BRINK OF THE KNOWN,
 WE ALWAYS FEEL FORWARD FOR WHAT IS HOPED.
 EVERY JUDGEMENT IN SCIENCE STANDS ON THE EDGE OF ERROR, AND IS PERSONAL.
 SCIENCE IS A TRIBUTE TO WHAT WE CAN KNOW ALTHOUGH WE ARE FALLIBLE.

                     -- J. BRONOWSKI
 Job cpu time:       0 days  2 hours 46 minutes 47.4 seconds.
 File lengths (MBytes):  RWF=    359 Int=      0 D2E=      0 Chk=     17 Scr=      1
 Normal termination of Gaussian 09 at Wed Feb  6 11:34:26 2019.
