 Entering Gaussian System, Link 0=/usr/local/Cluster-Apps/gaussian/g09/g09
 Initial command:
 /usr/local/Cluster-Apps/gaussian/g09/l1.exe "/home/ke291/rds/hpc-work/06Feb0927IP1/Gau-371644.inp" -scrdir="/home/ke291/rds/hpc-work/06Feb0927IP1/"
 Entering Link 1 = /usr/local/Cluster-Apps/gaussian/g09/l1.exe PID=    371649.
  
 Copyright (c) 1988,1990,1992,1993,1995,1998,2003,2009,2013,
            Gaussian, Inc.  All Rights Reserved.
  
 This is part of the Gaussian(R) 09 program.  It is based on
 the Gaussian(R) 03 system (copyright 2003, Gaussian, Inc.),
 the Gaussian(R) 98 system (copyright 1998, Gaussian, Inc.),
 the Gaussian(R) 94 system (copyright 1995, Gaussian, Inc.),
 the Gaussian 92(TM) system (copyright 1992, Gaussian, Inc.),
 the Gaussian 90(TM) system (copyright 1990, Gaussian, Inc.),
 the Gaussian 88(TM) system (copyright 1988, Gaussian, Inc.),
 the Gaussian 86(TM) system (copyright 1986, Carnegie Mellon
 University), and the Gaussian 82(TM) system (copyright 1983,
 Carnegie Mellon University). Gaussian is a federally registered
 trademark of Gaussian, Inc.
  
 This software contains proprietary and confidential information,
 including trade secrets, belonging to Gaussian, Inc.
  
 This software is provided under written license and may be
 used, copied, transmitted, or stored only in accord with that
 written license.
  
 The following legend is applicable only to US Government
 contracts under FAR:
  
                    RESTRICTED RIGHTS LEGEND
  
 Use, reproduction and disclosure by the US Government is
 subject to restrictions as set forth in subparagraphs (a)
 and (c) of the Commercial Computer Software - Restricted
 Rights clause in FAR 52.227-19.
  
 Gaussian, Inc.
 340 Quinnipiac St., Bldg. 40, Wallingford CT 06492
  
  
 ---------------------------------------------------------------
 Warning -- This program may not be used in any manner that
 competes with the business of Gaussian, Inc. or will provide
 assistance to any competitor of Gaussian, Inc.  The licensee
 of this program is prohibited from giving any competitor of
 Gaussian, Inc. access to this program.  By using this program,
 the user acknowledges that Gaussian, Inc. is engaged in the
 business of creating and licensing software in the field of
 computational chemistry and represents and warrants to the
 licensee that it is not a competitor of Gaussian, Inc. and that
 it will not use this program in any manner prohibited above.
 ---------------------------------------------------------------
  

 Cite this work as:
 Gaussian 09, Revision D.01,
 M. J. Frisch, G. W. Trucks, H. B. Schlegel, G. E. Scuseria, 
 M. A. Robb, J. R. Cheeseman, G. Scalmani, V. Barone, B. Mennucci, 
 G. A. Petersson, H. Nakatsuji, M. Caricato, X. Li, H. P. Hratchian, 
 A. F. Izmaylov, J. Bloino, G. Zheng, J. L. Sonnenberg, M. Hada, 
 M. Ehara, K. Toyota, R. Fukuda, J. Hasegawa, M. Ishida, T. Nakajima, 
 Y. Honda, O. Kitao, H. Nakai, T. Vreven, J. A. Montgomery, Jr., 
 J. E. Peralta, F. Ogliaro, M. Bearpark, J. J. Heyd, E. Brothers, 
 K. N. Kudin, V. N. Staroverov, T. Keith, R. Kobayashi, J. Normand, 
 K. Raghavachari, A. Rendell, J. C. Burant, S. S. Iyengar, J. Tomasi, 
 M. Cossi, N. Rega, J. M. Millam, M. Klene, J. E. Knox, J. B. Cross, 
 V. Bakken, C. Adamo, J. Jaramillo, R. Gomperts, R. E. Stratmann, 
 O. Yazyev, A. J. Austin, R. Cammi, C. Pomelli, J. W. Ochterski, 
 R. L. Martin, K. Morokuma, V. G. Zakrzewski, G. A. Voth, 
 P. Salvador, J. J. Dannenberg, S. Dapprich, A. D. Daniels, 
 O. Farkas, J. B. Foresman, J. V. Ortiz, J. Cioslowski, 
 and D. J. Fox, Gaussian, Inc., Wallingford CT, 2013.
 
 ******************************************
 Gaussian 09:  ES64L-G09RevD.01 24-Apr-2013
                 6-Feb-2019 
 ******************************************
 %nprocshared=2
 Will use up to    2 processors via shared memory.
 %mem=6000MB
 %chk=/home/ke291/rds/hpc-work/06Feb0927IP1/P_ng_correct1ginp008.chk
 ---------------------------------------------------------------
 # b3lyp/6-31g(d,p) Opt=(maxcycles=25) scrf=(solvent=chloroform)
 ---------------------------------------------------------------
 1/6=25,14=-1,18=20,19=15,26=3,38=1/1,3;
 2/9=110,12=2,17=6,18=5,40=1/2;
 3/5=1,6=6,7=101,11=2,16=1,25=1,30=1,70=2201,71=1,72=7,74=-5/1,2,3;
 4//1;
 5/5=2,38=5,53=7/2;
 6/7=2,8=2,9=2,10=2,28=1/1;
 7//1,2,3,16;
 1/6=25,14=-1,18=20,19=15,26=3/3(2);
 2/9=110/2;
 99//99;
 2/9=110/2;
 3/5=1,6=6,7=101,11=2,16=1,25=1,30=1,70=2205,71=1,72=7,74=-5/1,2,3;
 4/5=5,16=3,69=1/1;
 5/5=2,38=5,53=7/2;
 7//1,2,3,16;
 1/6=25,14=-1,18=20,19=15,26=3/3(-5);
 2/9=110/2;
 6/7=2,8=2,9=2,10=2,19=2,28=1/1;
 99/9=1/99;
 --------------------
 P_ng_correct1ginp008
 --------------------
 Symbolic Z-matrix:
 Charge =  0 Multiplicity = 1
 C                     0.7405   -0.36618   0.44331 
 C                    -0.75715  -0.44964   0.77952 
 C                    -1.09603   0.67341   1.81634 
 C                    -0.25023   1.94668   1.58043 
 C                     0.41132   2.0287    0.23394 
 H                     1.36125  -0.38246   1.34701 
 H                    -1.29535  -0.22733  -0.14964 
 H                    -0.85908   2.84698   1.72139 
 H                     0.586     2.01109   2.28821 
 O                     0.96724   0.88869  -0.23459 
 O                     0.52233   3.08649  -0.3764 
 C                     1.2259   -1.47962  -0.49788 
 C                     2.6982   -1.33176  -0.86514 
 C                    -1.2248   -1.84628   1.20284 
 O                    -2.51168   0.95302   1.87343 
 Si                   -3.55834   1.41826   0.65742 
 C                    -4.36716  -0.09546  -0.1229 
 C                    -4.94303   2.45775   1.41798 
 C                    -2.78542   2.43554  -0.70676 
 H                    -5.46673   1.88695   2.19022 
 H                    -4.53123   3.3627    1.87403 
 H                    -5.6661    2.75185   0.65175 
 H                    -2.32252   3.3421   -0.30756 
 H                    -2.02951   1.86368  -1.25102 
 H                    -3.54812   2.74358  -1.42896 
 H                    -4.84011  -0.71357   0.64578 
 H                    -5.13446   0.20933  -0.84069 
 H                    -3.62895  -0.70552  -0.65034 
 H                    -1.20338  -2.53649   0.3528 
 H                    -0.58752  -2.26772   1.9868 
 H                    -2.25703  -1.82705   1.56665 
 H                     0.63924  -1.46514  -1.42439 
 H                     1.08926  -2.46026  -0.03009 
 H                     3.01333  -2.16767  -1.49787 
 H                     2.88273  -0.40605  -1.41885 
 H                     3.32638  -1.32929   0.03128 
 C                    -0.78252   0.16836   3.27891 
 C                    -0.99195   1.19956   4.36396 
 C                    -0.05091   1.58439   5.23538 
 H                     0.24167  -0.21987   3.33188 
 H                    -1.45542  -0.66071   3.53231 
 H                    -1.98805   1.63513   4.43237 
 H                    -0.27351   2.32634   5.99689 
 H                     0.95335   1.17333   5.21721 
 

 GradGradGradGradGradGradGradGradGradGradGradGradGradGradGradGradGradGrad
 Berny optimization.
 Initialization pass.
                           ----------------------------
                           !    Initial Parameters    !
                           ! (Angstroms and Degrees)  !
 --------------------------                            --------------------------
 ! Name  Definition              Value          Derivative Info.                !
 --------------------------------------------------------------------------------
 ! R1    R(1,2)                  1.5372         estimate D2E/DX2                !
 ! R2    R(1,6)                  1.0965         estimate D2E/DX2                !
 ! R3    R(1,10)                 1.4442         estimate D2E/DX2                !
 ! R4    R(1,12)                 1.5366         estimate D2E/DX2                !
 ! R5    R(2,3)                  1.5656         estimate D2E/DX2                !
 ! R6    R(2,7)                  1.0966         estimate D2E/DX2                !
 ! R7    R(2,14)                 1.5325         estimate D2E/DX2                !
 ! R8    R(3,4)                  1.5467         estimate D2E/DX2                !
 ! R9    R(3,15)                 1.4441         estimate D2E/DX2                !
 ! R10   R(3,37)                 1.5788         estimate D2E/DX2                !
 ! R11   R(4,5)                  1.5025         estimate D2E/DX2                !
 ! R12   R(4,8)                  1.096          estimate D2E/DX2                !
 ! R13   R(4,9)                  1.0974         estimate D2E/DX2                !
 ! R14   R(5,10)                 1.3521         estimate D2E/DX2                !
 ! R15   R(5,11)                 1.2263         estimate D2E/DX2                !
 ! R16   R(12,13)                1.5246         estimate D2E/DX2                !
 ! R17   R(12,32)                1.0967         estimate D2E/DX2                !
 ! R18   R(12,33)                1.0951         estimate D2E/DX2                !
 ! R19   R(13,34)                1.0947         estimate D2E/DX2                !
 ! R20   R(13,35)                1.0943         estimate D2E/DX2                !
 ! R21   R(13,36)                1.0946         estimate D2E/DX2                !
 ! R22   R(14,29)                1.0952         estimate D2E/DX2                !
 ! R23   R(14,30)                1.0947         estimate D2E/DX2                !
 ! R24   R(14,31)                1.0946         estimate D2E/DX2                !
 ! R25   R(15,16)                1.6705         estimate D2E/DX2                !
 ! R26   R(16,17)                1.8853         estimate D2E/DX2                !
 ! R27   R(16,18)                1.8911         estimate D2E/DX2                !
 ! R28   R(16,19)                1.869          estimate D2E/DX2                !
 ! R29   R(17,26)                1.0939         estimate D2E/DX2                !
 ! R30   R(17,27)                1.094          estimate D2E/DX2                !
 ! R31   R(17,28)                1.0933         estimate D2E/DX2                !
 ! R32   R(18,20)                1.0938         estimate D2E/DX2                !
 ! R33   R(18,21)                1.0938         estimate D2E/DX2                !
 ! R34   R(18,22)                1.0938         estimate D2E/DX2                !
 ! R35   R(19,23)                1.0934         estimate D2E/DX2                !
 ! R36   R(19,24)                1.093          estimate D2E/DX2                !
 ! R37   R(19,25)                1.0946         estimate D2E/DX2                !
 ! R38   R(37,38)                1.5115         estimate D2E/DX2                !
 ! R39   R(37,40)                1.0966         estimate D2E/DX2                !
 ! R40   R(37,41)                1.0974         estimate D2E/DX2                !
 ! R41   R(38,39)                1.339          estimate D2E/DX2                !
 ! R42   R(38,42)                1.0893         estimate D2E/DX2                !
 ! R43   R(39,43)                1.0863         estimate D2E/DX2                !
 ! R44   R(39,44)                1.0853         estimate D2E/DX2                !
 ! A1    A(2,1,6)              111.7462         estimate D2E/DX2                !
 ! A2    A(2,1,10)             107.6268         estimate D2E/DX2                !
 ! A3    A(2,1,12)             113.7274         estimate D2E/DX2                !
 ! A4    A(6,1,10)             108.1127         estimate D2E/DX2                !
 ! A5    A(6,1,12)             108.3739         estimate D2E/DX2                !
 ! A6    A(10,1,12)            107.0087         estimate D2E/DX2                !
 ! A7    A(1,2,3)              108.4689         estimate D2E/DX2                !
 ! A8    A(1,2,7)              106.3702         estimate D2E/DX2                !
 ! A9    A(1,2,14)             114.0298         estimate D2E/DX2                !
 ! A10   A(3,2,7)              108.0286         estimate D2E/DX2                !
 ! A11   A(3,2,14)             113.8758         estimate D2E/DX2                !
 ! A12   A(7,2,14)             105.6082         estimate D2E/DX2                !
 ! A13   A(2,3,4)              111.7863         estimate D2E/DX2                !
 ! A14   A(2,3,15)             112.1644         estimate D2E/DX2                !
 ! A15   A(2,3,37)             109.9413         estimate D2E/DX2                !
 ! A16   A(4,3,15)             112.5007         estimate D2E/DX2                !
 ! A17   A(4,3,37)             107.2208         estimate D2E/DX2                !
 ! A18   A(15,3,37)            102.7077         estimate D2E/DX2                !
 ! A19   A(3,4,5)              114.9869         estimate D2E/DX2                !
 ! A20   A(3,4,8)              110.6619         estimate D2E/DX2                !
 ! A21   A(3,4,9)              111.508          estimate D2E/DX2                !
 ! A22   A(5,4,8)              108.3624         estimate D2E/DX2                !
 ! A23   A(5,4,9)              103.8437         estimate D2E/DX2                !
 ! A24   A(8,4,9)              106.9866         estimate D2E/DX2                !
 ! A25   A(4,5,10)             116.4585         estimate D2E/DX2                !
 ! A26   A(4,5,11)             122.2083         estimate D2E/DX2                !
 ! A27   A(10,5,11)            121.1716         estimate D2E/DX2                !
 ! A28   A(1,10,5)             120.3581         estimate D2E/DX2                !
 ! A29   A(1,12,13)            112.4778         estimate D2E/DX2                !
 ! A30   A(1,12,32)            109.8095         estimate D2E/DX2                !
 ! A31   A(1,12,33)            110.3544         estimate D2E/DX2                !
 ! A32   A(13,12,32)           108.1665         estimate D2E/DX2                !
 ! A33   A(13,12,33)           108.0751         estimate D2E/DX2                !
 ! A34   A(32,12,33)           107.8161         estimate D2E/DX2                !
 ! A35   A(12,13,34)           110.0699         estimate D2E/DX2                !
 ! A36   A(12,13,35)           111.5167         estimate D2E/DX2                !
 ! A37   A(12,13,36)           110.9243         estimate D2E/DX2                !
 ! A38   A(34,13,35)           107.7547         estimate D2E/DX2                !
 ! A39   A(34,13,36)           108.0503         estimate D2E/DX2                !
 ! A40   A(35,13,36)           108.4015         estimate D2E/DX2                !
 ! A41   A(2,14,29)            110.7316         estimate D2E/DX2                !
 ! A42   A(2,14,30)            111.7799         estimate D2E/DX2                !
 ! A43   A(2,14,31)            111.3189         estimate D2E/DX2                !
 ! A44   A(29,14,30)           107.568          estimate D2E/DX2                !
 ! A45   A(29,14,31)           106.7067         estimate D2E/DX2                !
 ! A46   A(30,14,31)           108.5248         estimate D2E/DX2                !
 ! A47   A(3,15,16)            129.7424         estimate D2E/DX2                !
 ! A48   A(15,16,17)           110.2719         estimate D2E/DX2                !
 ! A49   A(15,16,18)           108.608          estimate D2E/DX2                !
 ! A50   A(15,16,19)           115.0738         estimate D2E/DX2                !
 ! A51   A(17,16,18)           107.0773         estimate D2E/DX2                !
 ! A52   A(17,16,19)           108.1993         estimate D2E/DX2                !
 ! A53   A(18,16,19)           107.2868         estimate D2E/DX2                !
 ! A54   A(16,17,26)           110.3849         estimate D2E/DX2                !
 ! A55   A(16,17,27)           110.4118         estimate D2E/DX2                !
 ! A56   A(16,17,28)           110.9779         estimate D2E/DX2                !
 ! A57   A(26,17,27)           108.3748         estimate D2E/DX2                !
 ! A58   A(26,17,28)           108.3989         estimate D2E/DX2                !
 ! A59   A(27,17,28)           108.21           estimate D2E/DX2                !
 ! A60   A(16,18,20)           110.3443         estimate D2E/DX2                !
 ! A61   A(16,18,21)           110.2901         estimate D2E/DX2                !
 ! A62   A(16,18,22)           110.4931         estimate D2E/DX2                !
 ! A63   A(20,18,21)           108.5187         estimate D2E/DX2                !
 ! A64   A(20,18,22)           108.5646         estimate D2E/DX2                !
 ! A65   A(21,18,22)           108.5715         estimate D2E/DX2                !
 ! A66   A(16,19,23)           111.0926         estimate D2E/DX2                !
 ! A67   A(16,19,24)           111.3878         estimate D2E/DX2                !
 ! A68   A(16,19,25)           110.2789         estimate D2E/DX2                !
 ! A69   A(23,19,24)           108.8332         estimate D2E/DX2                !
 ! A70   A(23,19,25)           107.6112         estimate D2E/DX2                !
 ! A71   A(24,19,25)           107.4924         estimate D2E/DX2                !
 ! A72   A(3,37,38)            114.7889         estimate D2E/DX2                !
 ! A73   A(3,37,40)            110.0886         estimate D2E/DX2                !
 ! A74   A(3,37,41)            109.5009         estimate D2E/DX2                !
 ! A75   A(38,37,40)           109.6501         estimate D2E/DX2                !
 ! A76   A(38,37,41)           105.3489         estimate D2E/DX2                !
 ! A77   A(40,37,41)           107.1017         estimate D2E/DX2                !
 ! A78   A(37,38,39)           124.463          estimate D2E/DX2                !
 ! A79   A(37,38,42)           116.3971         estimate D2E/DX2                !
 ! A80   A(39,38,42)           119.1333         estimate D2E/DX2                !
 ! A81   A(38,39,43)           120.5644         estimate D2E/DX2                !
 ! A82   A(38,39,44)           122.0437         estimate D2E/DX2                !
 ! A83   A(43,39,44)           117.3914         estimate D2E/DX2                !
 ! D1    D(6,1,2,3)             53.0167         estimate D2E/DX2                !
 ! D2    D(6,1,2,7)            169.0054         estimate D2E/DX2                !
 ! D3    D(6,1,2,14)           -75.0179         estimate D2E/DX2                !
 ! D4    D(10,1,2,3)           -65.5339         estimate D2E/DX2                !
 ! D5    D(10,1,2,7)            50.4549         estimate D2E/DX2                !
 ! D6    D(10,1,2,14)          166.4315         estimate D2E/DX2                !
 ! D7    D(12,1,2,3)           176.1116         estimate D2E/DX2                !
 ! D8    D(12,1,2,7)           -67.8996         estimate D2E/DX2                !
 ! D9    D(12,1,2,14)           48.077          estimate D2E/DX2                !
 ! D10   D(2,1,10,5)            44.7898         estimate D2E/DX2                !
 ! D11   D(6,1,10,5)           -76.0704         estimate D2E/DX2                !
 ! D12   D(12,1,10,5)          167.386          estimate D2E/DX2                !
 ! D13   D(2,1,12,13)          177.2758         estimate D2E/DX2                !
 ! D14   D(2,1,12,32)           56.7667         estimate D2E/DX2                !
 ! D15   D(2,1,12,33)          -61.9513         estimate D2E/DX2                !
 ! D16   D(6,1,12,13)          -57.8037         estimate D2E/DX2                !
 ! D17   D(6,1,12,32)         -178.3128         estimate D2E/DX2                !
 ! D18   D(6,1,12,33)           62.9692         estimate D2E/DX2                !
 ! D19   D(10,1,12,13)          58.5669         estimate D2E/DX2                !
 ! D20   D(10,1,12,32)         -61.9422         estimate D2E/DX2                !
 ! D21   D(10,1,12,33)         179.3397         estimate D2E/DX2                !
 ! D22   D(1,2,3,4)             34.2044         estimate D2E/DX2                !
 ! D23   D(1,2,3,15)           161.6378         estimate D2E/DX2                !
 ! D24   D(1,2,3,37)           -84.7542         estimate D2E/DX2                !
 ! D25   D(7,2,3,4)            -80.7057         estimate D2E/DX2                !
 ! D26   D(7,2,3,15)            46.7277         estimate D2E/DX2                !
 ! D27   D(7,2,3,37)           160.3358         estimate D2E/DX2                !
 ! D28   D(14,2,3,4)           162.3263         estimate D2E/DX2                !
 ! D29   D(14,2,3,15)          -70.2403         estimate D2E/DX2                !
 ! D30   D(14,2,3,37)           43.3677         estimate D2E/DX2                !
 ! D31   D(1,2,14,29)          -69.5288         estimate D2E/DX2                !
 ! D32   D(1,2,14,30)           50.3905         estimate D2E/DX2                !
 ! D33   D(1,2,14,31)          171.938          estimate D2E/DX2                !
 ! D34   D(3,2,14,29)          165.2554         estimate D2E/DX2                !
 ! D35   D(3,2,14,30)          -74.8254         estimate D2E/DX2                !
 ! D36   D(3,2,14,31)           46.7222         estimate D2E/DX2                !
 ! D37   D(7,2,14,29)           46.8917         estimate D2E/DX2                !
 ! D38   D(7,2,14,30)          166.8109         estimate D2E/DX2                !
 ! D39   D(7,2,14,31)          -71.6416         estimate D2E/DX2                !
 ! D40   D(2,3,4,5)             16.6381         estimate D2E/DX2                !
 ! D41   D(2,3,4,8)            139.8125         estimate D2E/DX2                !
 ! D42   D(2,3,4,9)           -101.2269         estimate D2E/DX2                !
 ! D43   D(15,3,4,5)          -110.6143         estimate D2E/DX2                !
 ! D44   D(15,3,4,8)            12.5602         estimate D2E/DX2                !
 ! D45   D(15,3,4,9)           131.5207         estimate D2E/DX2                !
 ! D46   D(37,3,4,5)           137.1964         estimate D2E/DX2                !
 ! D47   D(37,3,4,8)           -99.6292         estimate D2E/DX2                !
 ! D48   D(37,3,4,9)            19.3314         estimate D2E/DX2                !
 ! D49   D(2,3,15,16)          -56.9968         estimate D2E/DX2                !
 ! D50   D(4,3,15,16)           70.0542         estimate D2E/DX2                !
 ! D51   D(37,3,15,16)        -174.9908         estimate D2E/DX2                !
 ! D52   D(2,3,37,38)          176.4697         estimate D2E/DX2                !
 ! D53   D(2,3,37,40)           52.1854         estimate D2E/DX2                !
 ! D54   D(2,3,37,41)          -65.3106         estimate D2E/DX2                !
 ! D55   D(4,3,37,38)           54.7475         estimate D2E/DX2                !
 ! D56   D(4,3,37,40)          -69.5368         estimate D2E/DX2                !
 ! D57   D(4,3,37,41)          172.9671         estimate D2E/DX2                !
 ! D58   D(15,3,37,38)         -63.9779         estimate D2E/DX2                !
 ! D59   D(15,3,37,40)         171.7379         estimate D2E/DX2                !
 ! D60   D(15,3,37,41)          54.2418         estimate D2E/DX2                !
 ! D61   D(3,4,5,10)           -41.8345         estimate D2E/DX2                !
 ! D62   D(3,4,5,11)           142.7398         estimate D2E/DX2                !
 ! D63   D(8,4,5,10)          -166.227          estimate D2E/DX2                !
 ! D64   D(8,4,5,11)            18.3472         estimate D2E/DX2                !
 ! D65   D(9,4,5,10)            80.2681         estimate D2E/DX2                !
 ! D66   D(9,4,5,11)           -95.1577         estimate D2E/DX2                !
 ! D67   D(4,5,10,1)             9.2675         estimate D2E/DX2                !
 ! D68   D(11,5,10,1)         -175.2558         estimate D2E/DX2                !
 ! D69   D(1,12,13,34)         177.4411         estimate D2E/DX2                !
 ! D70   D(1,12,13,35)         -63.0199         estimate D2E/DX2                !
 ! D71   D(1,12,13,36)          57.912          estimate D2E/DX2                !
 ! D72   D(32,12,13,34)        -61.108          estimate D2E/DX2                !
 ! D73   D(32,12,13,35)         58.4309         estimate D2E/DX2                !
 ! D74   D(32,12,13,36)        179.3628         estimate D2E/DX2                !
 ! D75   D(33,12,13,34)         55.3679         estimate D2E/DX2                !
 ! D76   D(33,12,13,35)        174.9069         estimate D2E/DX2                !
 ! D77   D(33,12,13,36)        -64.1613         estimate D2E/DX2                !
 ! D78   D(3,15,16,17)          92.1621         estimate D2E/DX2                !
 ! D79   D(3,15,16,18)        -150.7937         estimate D2E/DX2                !
 ! D80   D(3,15,16,19)         -30.5487         estimate D2E/DX2                !
 ! D81   D(15,16,17,26)         53.8528         estimate D2E/DX2                !
 ! D82   D(15,16,17,27)        173.6615         estimate D2E/DX2                !
 ! D83   D(15,16,17,28)        -66.3524         estimate D2E/DX2                !
 ! D84   D(18,16,17,26)        -64.1373         estimate D2E/DX2                !
 ! D85   D(18,16,17,27)         55.6714         estimate D2E/DX2                !
 ! D86   D(18,16,17,28)        175.6574         estimate D2E/DX2                !
 ! D87   D(19,16,17,26)       -179.4926         estimate D2E/DX2                !
 ! D88   D(19,16,17,27)        -59.684          estimate D2E/DX2                !
 ! D89   D(19,16,17,28)         60.3021         estimate D2E/DX2                !
 ! D90   D(15,16,18,20)        -58.0515         estimate D2E/DX2                !
 ! D91   D(15,16,18,21)         61.8323         estimate D2E/DX2                !
 ! D92   D(15,16,18,22)       -178.1228         estimate D2E/DX2                !
 ! D93   D(17,16,18,20)         61.0189         estimate D2E/DX2                !
 ! D94   D(17,16,18,21)       -179.0973         estimate D2E/DX2                !
 ! D95   D(17,16,18,22)        -59.0524         estimate D2E/DX2                !
 ! D96   D(19,16,18,20)        176.9819         estimate D2E/DX2                !
 ! D97   D(19,16,18,21)        -63.1343         estimate D2E/DX2                !
 ! D98   D(19,16,18,22)         56.9107         estimate D2E/DX2                !
 ! D99   D(15,16,19,23)        -57.6147         estimate D2E/DX2                !
 ! D100  D(15,16,19,24)         63.8957         estimate D2E/DX2                !
 ! D101  D(15,16,19,25)       -176.8391         estimate D2E/DX2                !
 ! D102  D(17,16,19,23)        178.5719         estimate D2E/DX2                !
 ! D103  D(17,16,19,24)        -59.9177         estimate D2E/DX2                !
 ! D104  D(17,16,19,25)         59.3475         estimate D2E/DX2                !
 ! D105  D(18,16,19,23)         63.3538         estimate D2E/DX2                !
 ! D106  D(18,16,19,24)       -175.1358         estimate D2E/DX2                !
 ! D107  D(18,16,19,25)        -55.8707         estimate D2E/DX2                !
 ! D108  D(3,37,38,39)        -123.5103         estimate D2E/DX2                !
 ! D109  D(3,37,38,42)          57.4338         estimate D2E/DX2                !
 ! D110  D(40,37,38,39)          1.0054         estimate D2E/DX2                !
 ! D111  D(40,37,38,42)       -178.0505         estimate D2E/DX2                !
 ! D112  D(41,37,38,39)        115.9545         estimate D2E/DX2                !
 ! D113  D(41,37,38,42)        -63.1014         estimate D2E/DX2                !
 ! D114  D(37,38,39,43)       -179.4701         estimate D2E/DX2                !
 ! D115  D(37,38,39,44)          0.2778         estimate D2E/DX2                !
 ! D116  D(42,38,39,43)         -0.4382         estimate D2E/DX2                !
 ! D117  D(42,38,39,44)        179.3097         estimate D2E/DX2                !
 --------------------------------------------------------------------------------
 Trust Radius=3.00D-01 FncErr=1.00D-07 GrdErr=1.00D-06
 Number of steps in this run=     25 maximum allowed number of steps=    264.
 GradGradGradGradGradGradGradGradGradGradGradGradGradGradGradGradGradGrad

                          Input orientation:                          
 ---------------------------------------------------------------------
 Center     Atomic      Atomic             Coordinates (Angstroms)
 Number     Number       Type             X           Y           Z
 ---------------------------------------------------------------------
      1          6           0        0.740499   -0.366175    0.443306
      2          6           0       -0.757147   -0.449641    0.779522
      3          6           0       -1.096033    0.673405    1.816339
      4          6           0       -0.250232    1.946678    1.580433
      5          6           0        0.411316    2.028703    0.233936
      6          1           0        1.361254   -0.382456    1.347008
      7          1           0       -1.295346   -0.227330   -0.149642
      8          1           0       -0.859076    2.846982    1.721392
      9          1           0        0.585998    2.011086    2.288214
     10          8           0        0.967244    0.888692   -0.234593
     11          8           0        0.522330    3.086488   -0.376397
     12          6           0        1.225903   -1.479624   -0.497875
     13          6           0        2.698196   -1.331760   -0.865144
     14          6           0       -1.224795   -1.846277    1.202844
     15          8           0       -2.511680    0.953023    1.873434
     16         14           0       -3.558339    1.418257    0.657422
     17          6           0       -4.367163   -0.095462   -0.122901
     18          6           0       -4.943026    2.457753    1.417976
     19          6           0       -2.785423    2.435544   -0.706758
     20          1           0       -5.466726    1.886954    2.190224
     21          1           0       -4.531232    3.362697    1.874027
     22          1           0       -5.666099    2.751848    0.651750
     23          1           0       -2.322520    3.342099   -0.307556
     24          1           0       -2.029515    1.863681   -1.251024
     25          1           0       -3.548120    2.743580   -1.428957
     26          1           0       -4.840113   -0.713574    0.645775
     27          1           0       -5.134456    0.209326   -0.840688
     28          1           0       -3.628950   -0.705518   -0.650337
     29          1           0       -1.203380   -2.536486    0.352803
     30          1           0       -0.587522   -2.267719    1.986799
     31          1           0       -2.257033   -1.827046    1.566653
     32          1           0        0.639244   -1.465140   -1.424385
     33          1           0        1.089257   -2.460257   -0.030085
     34          1           0        3.013327   -2.167673   -1.497865
     35          1           0        2.882734   -0.406052   -1.418850
     36          1           0        3.326378   -1.329287    0.031279
     37          6           0       -0.782523    0.168359    3.278911
     38          6           0       -0.991950    1.199558    4.363957
     39          6           0       -0.050908    1.584387    5.235375
     40          1           0        0.241674   -0.219868    3.331877
     41          1           0       -1.455417   -0.660705    3.532309
     42          1           0       -1.988047    1.635134    4.432372
     43          1           0       -0.273512    2.326339    5.996887
     44          1           0        0.953354    1.173326    5.217214
 ---------------------------------------------------------------------
                    Distance matrix (angstroms):
                    1          2          3          4          5
     1  C    0.000000
     2  C    1.537189   0.000000
     3  C    2.517697   1.565588   0.000000
     4  C    2.761140   2.576968   1.546692   0.000000
     5  C    2.426446   2.793771   2.571562   1.502474   0.000000
     6  H    1.096485   2.194123   2.715396   2.841873   2.820461
     7  H    2.124978   1.096552   2.171665   2.968456   2.854735
     8  H    3.810055   3.430048   2.188516   1.095951   2.120378
     9  H    3.013126   3.183609   2.200292   1.097444   2.061767
    10  O    1.444178   2.406884   2.917153   2.428148   1.352110
    11  O    3.555333   3.934135   3.640077   2.392740   1.226271
    12  C    1.536622   2.573926   3.922054   4.270584   3.675249
    13  C    2.544990   3.927143   5.060357   5.042046   4.210761
    14  C    2.574875   1.532478   2.596489   3.934317   4.316377
    15  O    3.789752   2.498499   1.444127   2.487438   3.519794
    16  Si   4.659405   3.369069   2.821497   3.474874   4.038582
    17  C    5.146075   3.737917   3.879704   4.901102   5.241495
    18  C    6.420826   5.136355   4.259336   4.723336   5.500456
    19  C    4.648054   3.827169   3.510725   3.449265   3.357017
    20  H    6.830663   5.443335   4.551423   5.252354   6.196655
    21  H    6.613819   5.474996   4.363051   4.518658   5.375706
    22  H    7.128114   5.862053   5.153804   5.553590   6.134532
    23  H    4.867974   4.243751   3.624518   3.131466   3.080922
    24  H    3.939034   3.330690   3.420067   3.345129   2.861817
    25  H    5.618558   4.781587   4.564022   4.535146   4.353550
    26  H    5.595079   4.093673   4.160777   5.386793   5.938619
    27  H    6.041104   4.713826   4.856338   5.721526   5.934689
    28  H    4.517000   3.218264   3.794942   4.840063   4.957989
    29  H    2.914980   2.176266   3.529428   4.744926   4.843792
    30  H    2.786015   2.188995   2.989624   4.247357   4.746520
    31  H    3.518700   2.183226   2.768126   4.274159   4.874733
    32  H    2.169388   2.799706   4.252864   4.632559   3.874135
    33  H    2.175066   2.847323   4.243184   4.879454   4.547535
    34  H    3.489884   4.728065   5.995207   6.087251   5.232511
    35  H    2.838730   4.252467   5.240445   4.934219   3.842869
    36  H    2.790004   4.243680   5.172517   5.091558   4.451377
    37  C    3.262818   2.574784   1.578758   2.516064   3.762712
    38  C    4.563376   3.952615   2.603465   2.975960   4.440012
    39  C    5.234018   4.948805   3.689442   3.678259   5.042366
    40  H    2.934974   2.750446   2.210034   2.829037   3.831721
    41  H    3.801412   2.847800   2.203080   3.472857   4.647243
    42  H    5.230951   4.382318   2.926472   3.354194   4.851670
    43  H    6.254607   5.929660   4.570089   4.432804   5.811126
    44  H    5.020515   5.025231   4.001982   3.908052   5.085129
                    6          7          8          9         10
     6  H    0.000000
     7  H    3.053121   0.000000
     8  H    3.936915   3.625258   0.000000
     9  H    2.686249   3.806981   1.763022   0.000000
    10  O    2.067008   2.524289   3.316055   2.787413   0.000000
    11  O    3.963268   3.786391   2.523166   2.874142   2.246856
    12  C    2.150742   2.836583   5.290728   4.511854   2.396903
    13  C    2.753581   4.204769   6.066814   5.057634   2.885168
    14  C    2.975097   2.110731   4.735961   4.397300   3.788313
    15  O    4.130405   2.639231   2.518193   3.299568   4.068271
    16  Si   5.283984   2.912121   3.234085   4.492934   4.642955
    17  C    5.920959   3.074762   4.936200   5.897866   5.425581
    18  C    6.914895   4.792981   4.113661   5.614885   6.334369
    19  C    5.417934   3.101871   3.126661   4.529514   4.086343
    20  H    7.244484   5.229300   4.729894   6.054790   6.947822
    21  H    7.001808   5.239703   3.711333   5.308903   6.387505
    22  H    7.725991   5.349880   4.925511   6.505033   6.946812
    23  H    5.493640   3.717640   2.550184   4.119356   4.104519
    24  H    4.826201   2.474747   3.342464   4.403276   3.311238
    25  H    6.448258   3.941820   4.143229   5.607570   5.025498
    26  H    6.249666   3.665310   5.448226   6.289997   6.088325
    27  H    6.879714   3.925172   5.639181   6.764611   6.169249
    28  H    5.384783   2.434146   5.090929   5.812126   4.882555
    29  H    3.493657   2.364976   5.565367   5.256244   4.097376
    30  H    2.785907   3.037858   5.128777   4.447041   4.161107
    31  H    3.902190   2.535666   4.881062   4.830604   4.584286
    32  H    3.061719   2.626744   5.543940   5.086293   2.657765
    33  H    2.507514   3.269035   5.918653   5.061688   3.357405
    34  H    3.742946   4.913990   7.106749   6.139084   3.888917
    35  H    3.156807   4.370261   5.868943   4.985968   2.597678
    36  H    2.547419   4.754721   6.149450   4.874580   3.248943
    37  C    2.937929   3.489202   3.099475   2.499995   3.990648
    38  C    4.140328   4.743483   3.116859   2.730789   5.008167
    39  C    4.580619   5.816301   3.820387   3.045239   5.607243
    40  H    2.284644   3.805714   3.634678   2.486955   3.804611
    41  H    3.575835   3.710822   3.992357   3.585194   4.739142
    42  H    4.980759   4.994343   3.176880   3.371122   5.574180
    43  H    5.624180   6.733884   4.346701   3.820000   6.514418
    44  H    4.191102   5.985118   4.278644   3.068523   5.459250
                   11         12         13         14         15
    11  O    0.000000
    12  C    4.621596   0.000000
    13  C    4.949160   1.524597   0.000000
    14  C    5.466134   3.005462   4.464433   0.000000
    15  O    4.338044   5.050783   6.313703   3.153069   0.000000
    16  Si   4.528094   5.711514   7.001788   4.049703   1.670516
    17  C    5.839196   5.773985   7.211009   3.833723   2.920187
    18  C    5.786640   7.564992   8.829571   5.691766   2.895358
    19  C    3.387344   5.609181   6.654904   4.941268   2.988343
    20  H    6.625347   7.959335   9.293080   5.736367   3.115266
    21  H    5.538880   7.887876   9.044646   6.206160   3.144061
    22  H    6.282175   8.168640   9.430708   6.416513   3.831272
    23  H    2.857140   5.989703   6.882111   5.514123   3.240399
    24  H    2.961780   4.726803   5.719353   4.520269   3.289988
    25  H    4.218297   6.441557   7.479488   5.778495   3.896933
    26  H    6.651398   6.220235   7.713050   3.829343   3.115492
    27  H    6.363400   6.589707   7.982855   4.866927   3.846882
    28  H    5.629163   4.918545   6.361690   3.242772   3.220011
    29  H    5.926858   2.782450   4.261110   1.095179   4.025002
    30  H    5.956845   3.175407   4.450342   1.094676   3.753454
    31  H    5.970186   4.063720   5.541953   1.094642   2.808513
    32  H    4.672180   1.096722   2.137715   3.243800   5.162504
    33  H    5.586387   1.095053   2.135302   2.692939   5.314190
    34  H    5.921905   2.160619   1.094712   5.035752   7.185409
    35  H    4.342355   2.178495   1.094340   5.081272   6.464203
    36  H    5.246709   2.171313   1.094620   4.727898   6.533406
    37  C    4.855862   4.584074   5.615955   2.926503   2.362424
    38  C    5.322077   5.977817   6.882459   4.395903   2.927979
    39  C    5.837542   6.624845   7.299166   5.422986   4.213866
    40  H    4.976148   4.150023   4.988566   3.054262   3.329217
    41  H    5.764627   4.909429   6.086083   2.623962   2.543949
    42  H    5.615397   6.658718   7.669877   4.809639   2.699561
    43  H    6.467607   7.675645   8.324675   6.426392   4.888584
    44  H    5.927432   6.306716   6.805513   5.475171   4.820359
                   16         17         18         19         20
    16  Si   0.000000
    17  C    1.885324   0.000000
    18  C    1.891125   3.037240   0.000000
    19  C    1.869026   3.041181   3.028240   0.000000
    20  H    2.492208   3.238759   1.093819   3.985328   0.000000
    21  H    2.491485   3.996687   1.093837   3.250833   1.775654
    22  H    2.494223   3.224049   1.093814   3.200607   1.776146
    23  H    2.481854   4.003934   3.259844   1.093382   4.271110
    24  H    2.485532   3.252000   3.995626   1.093000   4.863862
    25  H    2.471753   3.230600   3.183157   1.094607   4.184893
    26  H    2.487526   1.093895   3.265609   3.996003   3.088804
    27  H    2.487970   1.094008   3.192747   3.239126   3.480125
    28  H    2.495123   1.093305   4.001374   3.252844   4.262290
    29  H    4.612875   4.024229   6.329452   5.324154   6.412414
    30  H    4.917257   4.843059   6.451671   5.848649   6.411655
    31  H    3.612768   3.210237   5.059265   4.859760   4.948208
    32  H    5.501600   5.351074   7.391200   5.240102   7.847598
    33  H    6.092264   5.947553   7.916574   6.280119   8.173673
    34  H    7.790440   7.788210   9.654028   7.445869  10.097193
    35  H    7.009025   7.371361   8.802925   6.380419   9.380660
    36  H    7.439112   7.793373   9.200415   7.216146   9.608534
    37  C    4.017413   4.948896   5.100411   5.003728   5.106914
    38  C    4.513600   5.762034   5.086537   5.518728   5.022076
    39  C    5.769517   7.082589   6.266428   6.596286   6.220577
    40  H    4.927095   5.761280   6.141155   5.703078   6.190953
    41  H    4.124238   4.707263   5.134063   5.415290   4.937850
    42  H    4.094277   5.422699   4.300603   5.261855   4.146305
    43  H    6.334397   7.750800   6.541258   7.159642   6.453930
    44  H    6.419273   7.644250   7.131007   7.117942   7.133678
                   21         22         23         24         25
    21  H    0.000000
    22  H    1.776238   0.000000
    23  H    3.104535   3.528199   0.000000
    24  H    4.274527   4.199301   1.778118   0.000000
    25  H    3.501360   2.969048   1.765746   1.764099   0.000000
    26  H    4.268489   3.562504   4.867812   4.259055   4.233872
    27  H    4.204439   2.995736   4.243287   3.542023   3.047124
    28  H    4.872053   4.218861   4.267020   3.085417   3.536815
    29  H    6.941836   6.926161   6.020491   4.755652   6.045790
    30  H    6.875111   7.264321   6.304311   5.443465   6.748752
    31  H    5.674495   5.781440   5.498819   4.648928   5.615266
    32  H    7.805213   7.864520   5.755771   4.270056   5.936949
    33  H    8.313984   8.559543   6.736805   5.469357   7.109292
    34  H    9.943592  10.205634   7.761809   6.460882   8.196203
    35  H    8.945021   9.345708   6.509860   5.413875   7.160738
    36  H    9.335549   9.894710   7.338031   6.365920   8.122762
    37  C    5.121554   6.117655   5.030603   4.994939   6.036912
    38  C    4.837917   6.167475   5.308854   5.748531   6.517351
    39  C    5.876593   7.341863   6.242905   6.787213   7.614955
    40  H    6.143348   7.135542   5.701594   5.522903   6.768316
    41  H    5.329006   6.137832   5.614167   5.438969   6.370457
    42  H    3.999674   5.391495   5.049012   5.688141   6.165846
    43  H    6.016660   7.604705   6.706430   7.471935   8.126519
    44  H    6.786083   8.194654   6.779234   7.156270   8.179276
                   26         27         28         29         30
    26  H    0.000000
    27  H    1.774248   0.000000
    28  H    1.773947   1.771926   0.000000
    29  H    4.078562   4.941383   3.200332   0.000000
    30  H    4.722101   5.899580   4.318014   1.766765   0.000000
    31  H    2.959753   4.268684   2.838138   1.756964   1.777071
    32  H    5.905402   6.039880   4.403823   2.775147   3.712851
    33  H    6.218128   6.820437   5.072011   2.325639   2.629920
    34  H    8.269590   8.512836   6.853907   4.619698   5.011886
    35  H    7.999976   8.061532   6.563712   4.936986   5.206431
    36  H    8.212690   8.643690   7.016429   4.698874   4.474743
    37  C    4.916833   5.992670   4.929990   4.006921   2.764427
    38  C    5.682720   6.725269   5.977142   5.485625   4.223322
    39  C    7.020081   8.040634   7.258626   6.492249   5.067536
    40  H    5.769181   6.818891   5.574551   4.041012   2.586599
    41  H    4.448712   5.780604   4.713892   3.700180   2.392559
    42  H    5.290466   6.303807   5.831393   5.887359   4.813996
    43  H    7.663505   8.652338   8.039696   7.507823   6.106126
    44  H    7.617264   8.642274   7.678263   6.486656   4.964944
                   31         32         33         34         35
    31  H    0.000000
    32  H    4.179199   0.000000
    33  H    3.761407   1.771113   0.000000
    34  H    6.106062   2.476938   2.437628   0.000000
    35  H    6.111437   2.480916   3.060226   1.768221   0.000000
    36  H    5.812023   3.059102   2.507503   1.771771   1.775403
    37  C    3.014573   5.177908   4.621973   6.533231   5.986068
    38  C    4.311111   6.577713   6.085497   7.857573   7.143670
    39  C    5.473973   7.357196   6.736779   8.294818   7.539683
    40  H    3.455803   4.932625   4.128017   5.899357   5.438683
    41  H    2.422136   5.440913   4.733329   6.895163   6.587745
    42  H    4.502376   7.128531   6.793788   8.639606   7.882116
    43  H    6.388422   8.383538   7.816203   9.336528   8.510053
    44  H    5.712741   7.153391   6.384007   7.778049   7.089026
                   36         37         38         39         40
    36  H    0.000000
    37  C    5.447304   0.000000
    38  C    6.619298   1.511475   0.000000
    39  C    6.854062   2.523519   1.339038   0.000000
    40  H    4.651898   1.096588   2.145178   2.638986   0.000000
    41  H    5.964040   1.097426   2.089741   3.148574   1.764831
    42  H    7.510028   2.221529   1.089319   2.097593   3.102221
    43  H    7.868373   3.507615   2.110035   1.086253   3.721675
    44  H    6.228020   2.789309   2.124369   1.085285   2.449893
                   41         42         43         44
    41  H    0.000000
    42  H    2.522833   0.000000
    43  H    4.048886   2.421797   0.000000
    44  H    3.464787   3.079137   1.855405   0.000000
 Stoichiometry    C14H26O3Si
 Framework group  C1[X(C14H26O3Si)]
 Deg. of freedom   126
 Full point group                 C1      NOp   1
 Largest Abelian subgroup         C1      NOp   1
 Largest concise Abelian subgroup C1      NOp   1
                         Standard orientation:                         
 ---------------------------------------------------------------------
 Center     Atomic      Atomic             Coordinates (Angstroms)
 Number     Number       Type             X           Y           Z
 ---------------------------------------------------------------------
      1          6           0       -2.209856   -0.239073   -0.281187
      2          6           0       -0.815069   -0.319496   -0.922322
      3          6           0        0.116298    0.721937   -0.215896
      4          6           0       -0.226420    0.873507    1.284712
      5          6           0       -1.066119   -0.232287    1.858780
      6          1           0       -2.597587    0.786568   -0.279337
      7          1           0       -0.430994   -1.322660   -0.701926
      8          1           0        0.687556    0.959359    1.883364
      9          1           0       -0.818982    1.777883    1.472746
     10          8           0       -2.086615   -0.674947    1.090118
     11          8           0       -0.897374   -0.657919    2.996366
     12          6           0       -3.251365   -1.149420   -0.950317
     13          6           0       -4.605531   -1.097473   -0.251795
     14          6           0       -0.823414   -0.207768   -2.450699
     15          8           0        1.515231    0.440254   -0.437580
     16         14           0        2.392895   -0.940863   -0.101652
     17          6           0        2.409148   -2.085065   -1.599978
     18          6           0        4.186362   -0.447914    0.240150
     19          6           0        1.795116   -1.919851    1.373984
     20          1           0        4.604780    0.084348   -0.618956
     21          1           0        4.239616    0.207339    1.114386
     22          1           0        4.797383   -1.334697    0.431714
     23          1           0        1.791210   -1.305444    2.278402
     24          1           0        0.788531   -2.313060    1.210204
     25          1           0        2.456069   -2.773152    1.556144
     26          1           0        2.763296   -1.548734   -2.485153
     27          1           0        3.073951   -2.935743   -1.423244
     28          1           0        1.407839   -2.471473   -1.808267
     29          1           0       -1.269045   -1.100479   -2.902248
     30          1           0       -1.400240    0.657926   -2.791525
     31          1           0        0.192859   -0.127356   -2.849403
     32          1           0       -2.899798   -2.188190   -0.937822
     33          1           0       -3.396877   -0.857505   -1.995665
     34          1           0       -5.327924   -1.723099   -0.785775
     35          1           0       -4.541036   -1.465828    0.776667
     36          1           0       -4.994510   -0.074558   -0.228711
     37          6           0       -0.061738    2.142284   -0.881775
     38          6           0        0.727869    3.252526   -0.227221
     39          6           0        0.191776    4.380248    0.256380
     40          1           0       -1.123809    2.413548   -0.912198
     41          1           0        0.292233    2.107144   -1.919953
     42          1           0        1.806345    3.110618   -0.169185
     43          1           0        0.821280    5.141879    0.707587
     44          1           0       -0.874942    4.575405    0.213153
 ---------------------------------------------------------------------
 Rotational constants (GHZ):      0.4305395      0.2919412      0.2522807
 Standard basis: 6-31G(d,p) (6D, 7F)
 There are   404 symmetry adapted cartesian basis functions of A   symmetry.
 There are   404 symmetry adapted basis functions of A   symmetry.
   404 basis functions,   710 primitive gaussians,   404 cartesian basis functions
    74 alpha electrons       74 beta electrons
       nuclear repulsion energy      1636.8572893382 Hartrees.
 NAtoms=   44 NActive=   44 NUniq=   44 SFac= 1.00D+00 NAtFMM=   60 NAOKFM=F Big=F
 Integral buffers will be    131072 words long.
 Raffenetti 2 integral format.
 Two-electron integral symmetry is turned on.
 ------------------------------------------------------------------------------
 Polarizable Continuum Model (PCM)
 =================================
 Model                : PCM (using non-symmetric T matrix).
 Atomic radii         : UFF (Universal Force Field).
 Polarization charges : Total charges.
 Charge compensation  : None.
 Solution method      : On-the-fly selection.
 Cavity type          : Scaled VdW (van der Waals Surface) (Alpha=1.100).
 Cavity algorithm     : GePol (No added spheres)
                        Default sphere list used, NSphG=   44.
                        Lebedev-Laikov grids with approx.  5.0 points / Ang**2.
                        Smoothing algorithm: Karplus/York (Gamma=1.0000).
                        Polarization charges: spherical gaussians, with
                                              point-specific exponents (IZeta= 3).
                        Self-potential: point-specific (ISelfS= 7).
                        Self-field    : sphere-specific E.n sum rule (ISelfD= 2).
 1st derivatives      : Analytical E(r).r(x)/FMM algorithm (CHGder, D1EAlg=3).
                        Cavity 1st derivative terms included.
 Solvent              : Chloroform, Eps=   4.711300 Eps(inf)=   2.090627
 ------------------------------------------------------------------------------
 One-electron integrals computed using PRISM.
 NBasis=   404 RedAO= T EigKep=  1.41D-03  NBF=   404
 NBsUse=   404 1.00D-06 EigRej= -1.00D+00 NBFU=   404
 ExpMin= 7.78D-02 ExpMax= 1.61D+04 ExpMxC= 2.43D+03 IAcc=2 IRadAn=         4 AccDes= 0.00D+00
 Harris functional with IExCor=  402 and IRadAn=       4 diagonalized for initial guess.
 HarFok:  IExCor=  402 AccDes= 0.00D+00 IRadAn=         4 IDoV= 1 UseB2=F ITyADJ=14
 ICtDFT=  3500011 ScaDFX=  1.000000  1.000000  1.000000  1.000000
 FoFCou: FMM=F IPFlag=           0 FMFlag=      100000 FMFlg1=           0
         NFxFlg=           0 DoJE=T BraDBF=F KetDBF=T FulRan=T
         wScrn=  0.000000 ICntrl=     500 IOpCl=  0 I1Cent=   200000004 NGrid=           0
         NMat0=    1 NMatS0=      1 NMatT0=    0 NMatD0=    1 NMtDS0=    0 NMtDT0=    0
 Petite list used in FoFCou.
 Requested convergence on RMS density matrix=1.00D-08 within 128 cycles.
 Requested convergence on MAX density matrix=1.00D-06.
 Requested convergence on             energy=1.00D-06.
 No special actions if energy rises.
 Inv3:  Mode=1 IEnd=    24043683.
 Iteration    1 A*A^-1 deviation from unit magnitude is 7.22D-15 for   2825.
 Iteration    1 A*A^-1 deviation from orthogonality  is 3.23D-15 for   2819   1723.
 Iteration    1 A^-1*A deviation from unit magnitude is 7.22D-15 for   2825.
 Iteration    1 A^-1*A deviation from orthogonality  is 1.57D-10 for   2470   2440.
 Iteration    2 A*A^-1 deviation from unit magnitude is 3.00D-15 for    959.
 Iteration    2 A*A^-1 deviation from orthogonality  is 4.26D-15 for   2824   1186.
 Iteration    2 A^-1*A deviation from unit magnitude is 8.88D-16 for    132.
 Iteration    2 A^-1*A deviation from orthogonality  is 8.18D-16 for   2824   1186.
 Error on total polarization charges =  0.00933
 SCF Done:  E(RB3LYP) =  -1064.41544526     A.U. after   13 cycles
            NFock= 13  Conv=0.48D-08     -V/T= 2.0081

 **********************************************************************

            Population analysis using the SCF density.

 **********************************************************************

 Orbital symmetries:
       Occupied  (A) (A) (A) (A) (A) (A) (A) (A) (A) (A) (A) (A)
                 (A) (A) (A) (A) (A) (A) (A) (A) (A) (A) (A) (A)
                 (A) (A) (A) (A) (A) (A) (A) (A) (A) (A) (A) (A)
                 (A) (A) (A) (A) (A) (A) (A) (A) (A) (A) (A) (A)
                 (A) (A) (A) (A) (A) (A) (A) (A) (A) (A) (A) (A)
                 (A) (A) (A) (A) (A) (A) (A) (A) (A) (A) (A) (A)
                 (A) (A)
       Virtual   (A) (A) (A) (A) (A) (A) (A) (A) (A) (A) (A) (A)
                 (A) (A) (A) (A) (A) (A) (A) (A) (A) (A) (A) (A)
                 (A) (A) (A) (A) (A) (A) (A) (A) (A) (A) (A) (A)
                 (A) (A) (A) (A) (A) (A) (A) (A) (A) (A) (A) (A)
                 (A) (A) (A) (A) (A) (A) (A) (A) (A) (A) (A) (A)
                 (A) (A) (A) (A) (A) (A) (A) (A) (A) (A) (A) (A)
                 (A) (A) (A) (A) (A) (A) (A) (A) (A) (A) (A) (A)
                 (A) (A) (A) (A) (A) (A) (A) (A) (A) (A) (A) (A)
                 (A) (A) (A) (A) (A) (A) (A) (A) (A) (A) (A) (A)
                 (A) (A) (A) (A) (A) (A) (A) (A) (A) (A) (A) (A)
                 (A) (A) (A) (A) (A) (A) (A) (A) (A) (A) (A) (A)
                 (A) (A) (A) (A) (A) (A) (A) (A) (A) (A) (A) (A)
                 (A) (A) (A) (A) (A) (A) (A) (A) (A) (A) (A) (A)
                 (A) (A) (A) (A) (A) (A) (A) (A) (A) (A) (A) (A)
                 (A) (A) (A) (A) (A) (A) (A) (A) (A) (A) (A) (A)
                 (A) (A) (A) (A) (A) (A) (A) (A) (A) (A) (A) (A)
                 (A) (A) (A) (A) (A) (A) (A) (A) (A) (A) (A) (A)
                 (A) (A) (A) (A) (A) (A) (A) (A) (A) (A) (A) (A)
                 (A) (A) (A) (A) (A) (A) (A) (A) (A) (A) (A) (A)
                 (A) (A) (A) (A) (A) (A) (A) (A) (A) (A) (A) (A)
                 (A) (A) (A) (A) (A) (A) (A) (A) (A) (A) (A) (A)
                 (A) (A) (A) (A) (A) (A) (A) (A) (A) (A) (A) (A)
                 (A) (A) (A) (A) (A) (A) (A) (A) (A) (A) (A) (A)
                 (A) (A) (A) (A) (A) (A) (A) (A) (A) (A) (A) (A)
                 (A) (A) (A) (A) (A) (A) (A) (A) (A) (A) (A) (A)
                 (A) (A) (A) (A) (A) (A) (A) (A) (A) (A) (A) (A)
                 (A) (A) (A) (A) (A) (A) (A) (A) (A) (A) (A) (A)
                 (A) (A) (A) (A) (A) (A)
 The electronic state is 1-A.
 Alpha  occ. eigenvalues --  -66.13702 -19.19365 -19.14395 -19.13216 -10.31900
 Alpha  occ. eigenvalues --  -10.26836 -10.25779 -10.20658 -10.20081 -10.19200
 Alpha  occ. eigenvalues --  -10.19089 -10.19062 -10.18420 -10.17967 -10.17554
 Alpha  occ. eigenvalues --  -10.15571 -10.15550 -10.15510  -5.27889  -3.63944
 Alpha  occ. eigenvalues --   -3.63707  -3.63678  -1.09973  -1.01369  -1.00700
 Alpha  occ. eigenvalues --   -0.83065  -0.80374  -0.77529  -0.75379  -0.71266
 Alpha  occ. eigenvalues --   -0.69833  -0.69508  -0.67431  -0.67210  -0.64396
 Alpha  occ. eigenvalues --   -0.61094  -0.59632  -0.56512  -0.54640  -0.51654
 Alpha  occ. eigenvalues --   -0.49695  -0.48835  -0.47049  -0.46593  -0.45056
 Alpha  occ. eigenvalues --   -0.44157  -0.43066  -0.42826  -0.42126  -0.41720
 Alpha  occ. eigenvalues --   -0.41025  -0.40564  -0.40299  -0.39854  -0.39463
 Alpha  occ. eigenvalues --   -0.38660  -0.38597  -0.37677  -0.37634  -0.37322
 Alpha  occ. eigenvalues --   -0.36895  -0.36389  -0.35103  -0.34923  -0.34520
 Alpha  occ. eigenvalues --   -0.34221  -0.33493  -0.31523  -0.30405  -0.29315
 Alpha  occ. eigenvalues --   -0.28557  -0.26707  -0.26392  -0.25352
 Alpha virt. eigenvalues --    0.00418   0.01646   0.06471   0.06952   0.08325
 Alpha virt. eigenvalues --    0.08913   0.10003   0.10605   0.11057   0.11802
 Alpha virt. eigenvalues --    0.12652   0.12740   0.13387   0.13690   0.14705
 Alpha virt. eigenvalues --    0.15011   0.15110   0.15922   0.16162   0.16506
 Alpha virt. eigenvalues --    0.16925   0.17162   0.17820   0.18139   0.18304
 Alpha virt. eigenvalues --    0.19268   0.19743   0.19820   0.20554   0.21090
 Alpha virt. eigenvalues --    0.21331   0.21903   0.22680   0.22800   0.23582
 Alpha virt. eigenvalues --    0.24149   0.24649   0.26350   0.27927   0.28853
 Alpha virt. eigenvalues --    0.30432   0.31627   0.32075   0.34883   0.37326
 Alpha virt. eigenvalues --    0.37555   0.38399   0.39007   0.41211   0.43320
 Alpha virt. eigenvalues --    0.45285   0.46972   0.48584   0.50012   0.52109
 Alpha virt. eigenvalues --    0.52541   0.53005   0.54832   0.55442   0.55858
 Alpha virt. eigenvalues --    0.56073   0.57637   0.58450   0.58551   0.60284
 Alpha virt. eigenvalues --    0.60904   0.61849   0.62531   0.64442   0.64867
 Alpha virt. eigenvalues --    0.65594   0.65995   0.66786   0.67960   0.68005
 Alpha virt. eigenvalues --    0.69734   0.70496   0.71768   0.73409   0.74216
 Alpha virt. eigenvalues --    0.75316   0.75731   0.76135   0.76862   0.77736
 Alpha virt. eigenvalues --    0.79485   0.80643   0.81585   0.82113   0.83035
 Alpha virt. eigenvalues --    0.83349   0.84413   0.84797   0.85438   0.85780
 Alpha virt. eigenvalues --    0.86639   0.86772   0.87076   0.88241   0.88890
 Alpha virt. eigenvalues --    0.89090   0.89479   0.89745   0.90242   0.91593
 Alpha virt. eigenvalues --    0.91694   0.91985   0.92532   0.93278   0.93333
 Alpha virt. eigenvalues --    0.94057   0.94576   0.95507   0.96568   0.97631
 Alpha virt. eigenvalues --    0.97999   0.99214   0.99614   1.00370   1.02329
 Alpha virt. eigenvalues --    1.03431   1.04558   1.05752   1.06143   1.08097
 Alpha virt. eigenvalues --    1.09703   1.10363   1.12188   1.13420   1.16420
 Alpha virt. eigenvalues --    1.18987   1.20930   1.21980   1.23532   1.27270
 Alpha virt. eigenvalues --    1.29617   1.30370   1.30941   1.32147   1.33910
 Alpha virt. eigenvalues --    1.35216   1.37971   1.39490   1.40383   1.42737
 Alpha virt. eigenvalues --    1.43468   1.44549   1.45644   1.46965   1.48223
 Alpha virt. eigenvalues --    1.48390   1.48887   1.51503   1.55132   1.57390
 Alpha virt. eigenvalues --    1.58193   1.60297   1.61899   1.62809   1.63489
 Alpha virt. eigenvalues --    1.65474   1.67369   1.68985   1.70954   1.72680
 Alpha virt. eigenvalues --    1.73795   1.74956   1.77407   1.77584   1.81071
 Alpha virt. eigenvalues --    1.81494   1.82395   1.83457   1.84422   1.84898
 Alpha virt. eigenvalues --    1.85686   1.86966   1.88262   1.89431   1.89639
 Alpha virt. eigenvalues --    1.92577   1.93671   1.94422   1.96010   1.98030
 Alpha virt. eigenvalues --    1.98372   1.98890   2.00201   2.00810   2.03239
 Alpha virt. eigenvalues --    2.03884   2.04733   2.05012   2.05101   2.05631
 Alpha virt. eigenvalues --    2.06047   2.07097   2.07405   2.08388   2.08861
 Alpha virt. eigenvalues --    2.09139   2.10634   2.11209   2.11594   2.11703
 Alpha virt. eigenvalues --    2.12462   2.12901   2.13690   2.14707   2.15623
 Alpha virt. eigenvalues --    2.16125   2.16854   2.17760   2.18217   2.20758
 Alpha virt. eigenvalues --    2.20903   2.21510   2.22872   2.25141   2.25919
 Alpha virt. eigenvalues --    2.27442   2.29730   2.32507   2.33794   2.34174
 Alpha virt. eigenvalues --    2.34972   2.35744   2.36025   2.36902   2.38003
 Alpha virt. eigenvalues --    2.39104   2.39736   2.39969   2.40713   2.41456
 Alpha virt. eigenvalues --    2.42759   2.44680   2.45857   2.47978   2.51825
 Alpha virt. eigenvalues --    2.52943   2.54375   2.55584   2.57025   2.57417
 Alpha virt. eigenvalues --    2.59483   2.60436   2.61788   2.63932   2.64393
 Alpha virt. eigenvalues --    2.65079   2.67079   2.68546   2.68729   2.69984
 Alpha virt. eigenvalues --    2.70942   2.71784   2.73669   2.74723   2.76205
 Alpha virt. eigenvalues --    2.77760   2.78864   2.79914   2.81891   2.82093
 Alpha virt. eigenvalues --    2.82895   2.83230   2.84214   2.85094   2.85278
 Alpha virt. eigenvalues --    2.85595   2.86355   2.87177   2.87591   2.90010
 Alpha virt. eigenvalues --    2.91131   2.91985   2.92335   2.92521   2.95711
 Alpha virt. eigenvalues --    2.97746   3.00795   3.02640   3.09135   3.09814
 Alpha virt. eigenvalues --    3.16082   3.16721   3.19922   3.20426   3.21466
 Alpha virt. eigenvalues --    3.21607   3.23229   3.25748   3.28467   3.31480
 Alpha virt. eigenvalues --    3.32112   3.35341   3.40552   3.43134   3.43482
 Alpha virt. eigenvalues --    3.44166   3.44760   3.44877   3.45377   3.46040
 Alpha virt. eigenvalues --    3.47018   3.47846   3.48474   3.48984   3.50337
 Alpha virt. eigenvalues --    3.53865   3.55505   3.66624   4.04402   4.13014
 Alpha virt. eigenvalues --    4.23034   4.25763   4.37994   4.38583   4.44415
 Alpha virt. eigenvalues --    4.45932   4.47101   4.49098   4.53580   4.56583
 Alpha virt. eigenvalues --    4.61560   4.62774   4.71548   4.77513   4.89981
          Condensed to atoms (all electrons):
               1          2          3          4          5          6
     1  C    4.829971   0.327777  -0.029844  -0.005032  -0.014520   0.375691
     2  C    0.327777   5.073250   0.361339  -0.069804  -0.005587  -0.050778
     3  C   -0.029844   0.361339   4.801077   0.283624  -0.016592  -0.007546
     4  C   -0.005032  -0.069804   0.283624   5.338256   0.304529   0.001393
     5  C   -0.014520  -0.005587  -0.016592   0.304529   4.363292  -0.005159
     6  H    0.375691  -0.050778  -0.007546   0.001393  -0.005159   0.637782
     7  H   -0.040003   0.372568  -0.040830  -0.003011   0.001491   0.006604
     8  H    0.000136   0.003501  -0.022970   0.360836  -0.022645  -0.000078
     9  H    0.000772   0.001769  -0.027341   0.358114  -0.027531   0.000417
    10  O    0.155122  -0.034392  -0.000448  -0.094265   0.251394  -0.036136
    11  O    0.002891  -0.000447   0.002965  -0.086197   0.562053  -0.000129
    12  C    0.384369  -0.033952   0.003660  -0.000386   0.002218  -0.048069
    13  C   -0.037927   0.004464  -0.000105   0.000008   0.000019  -0.006150
    14  C   -0.038983   0.344345  -0.033744   0.005174   0.000215  -0.000559
    15  O    0.002525  -0.032006   0.202120  -0.041485   0.000159   0.000029
    16  Si  -0.000242   0.001061  -0.011548  -0.003910  -0.000629   0.000063
    17  C    0.000031  -0.000769  -0.000820  -0.000138  -0.000009  -0.000001
    18  C    0.000001  -0.000051   0.000937  -0.000083   0.000002   0.000000
    19  C   -0.000047  -0.001713  -0.001670   0.000889  -0.000124  -0.000006
    20  H    0.000000  -0.000003  -0.000021   0.000003   0.000000   0.000000
    21  H    0.000000   0.000002  -0.000041  -0.000023   0.000000   0.000000
    22  H    0.000000   0.000001  -0.000009   0.000000   0.000000   0.000000
    23  H    0.000001   0.000132  -0.000162  -0.001584   0.000692   0.000000
    24  H   -0.000076  -0.000802   0.000153  -0.000249   0.003400   0.000006
    25  H    0.000001   0.000034  -0.000003   0.000030   0.000044   0.000000
    26  H   -0.000002   0.000008  -0.000026  -0.000001   0.000000   0.000000
    27  H    0.000000   0.000023   0.000011   0.000002   0.000000   0.000000
    28  H    0.000006  -0.000829  -0.000050  -0.000017  -0.000004   0.000000
    29  H   -0.004919  -0.026342   0.004385  -0.000148   0.000010  -0.000047
    30  H   -0.005571  -0.033466  -0.006965  -0.000048   0.000012   0.003075
    31  H    0.004476  -0.027044  -0.005997   0.000189  -0.000024  -0.000139
    32  H   -0.033841  -0.006437   0.000076  -0.000012   0.000009   0.006070
    33  H   -0.028019  -0.006198  -0.000059   0.000028  -0.000042  -0.000603
    34  H    0.004025  -0.000107   0.000001   0.000000  -0.000001  -0.000049
    35  H   -0.008109   0.000091  -0.000008   0.000045   0.000210   0.000131
    36  H   -0.005473   0.000092   0.000003   0.000000  -0.000030   0.005570
    37  C   -0.004613  -0.048758   0.343460  -0.049364   0.001683   0.002638
    38  C    0.000022   0.004527  -0.035902  -0.009383   0.000648  -0.000123
    39  C   -0.000001  -0.000097  -0.001469   0.000381   0.000111  -0.000033
    40  H   -0.000346  -0.000461  -0.031838  -0.002487  -0.000142   0.004411
    41  H    0.000339  -0.010908  -0.025783   0.004997  -0.000011  -0.000083
    42  H   -0.000008   0.000136  -0.003984  -0.000604  -0.000004   0.000002
    43  H    0.000000   0.000003  -0.000067  -0.000006   0.000000   0.000000
    44  H   -0.000006  -0.000008   0.000136  -0.000125  -0.000002   0.000015
               7          8          9         10         11         12
     1  C   -0.040003   0.000136   0.000772   0.155122   0.002891   0.384369
     2  C    0.372568   0.003501   0.001769  -0.034392  -0.000447  -0.033952
     3  C   -0.040830  -0.022970  -0.027341  -0.000448   0.002965   0.003660
     4  C   -0.003011   0.360836   0.358114  -0.094265  -0.086197  -0.000386
     5  C    0.001491  -0.022645  -0.027531   0.251394   0.562053   0.002218
     6  H    0.006604  -0.000078   0.000417  -0.036136  -0.000129  -0.048069
     7  H    0.624154  -0.000089  -0.000102  -0.000439  -0.000396  -0.007587
     8  H   -0.000089   0.537701  -0.018725   0.003191   0.001861   0.000004
     9  H   -0.000102  -0.018725   0.550086  -0.000124   0.000465   0.000036
    10  O   -0.000439   0.003191  -0.000124   8.340924  -0.073440  -0.043574
    11  O   -0.000396   0.001861   0.000465  -0.073440   8.104015  -0.000079
    12  C   -0.007587   0.000004   0.000036  -0.043574  -0.000079   4.922614
    13  C   -0.000096   0.000000  -0.000003  -0.002930  -0.000004   0.360037
    14  C   -0.042387  -0.000090  -0.000129   0.003112  -0.000002  -0.004500
    15  O   -0.005290  -0.003223   0.002492  -0.000013   0.000004  -0.000038
    16  Si   0.008731   0.003261   0.000054  -0.000638  -0.000924  -0.000060
    17  C   -0.000761   0.000009   0.000001   0.000002   0.000000   0.000000
    18  C   -0.000002  -0.000228   0.000000   0.000000   0.000000   0.000000
    19  C   -0.000891  -0.000490   0.000054  -0.000341  -0.001751   0.000005
    20  H    0.000001   0.000000   0.000000   0.000000   0.000000   0.000000
    21  H    0.000000   0.000018   0.000000   0.000000   0.000000   0.000000
    22  H    0.000001   0.000005   0.000000   0.000000   0.000000   0.000000
    23  H   -0.000049   0.001756   0.000032   0.000054   0.004076   0.000000
    24  H    0.002235  -0.000180   0.000009   0.000492   0.000002  -0.000009
    25  H    0.000005   0.000004  -0.000001   0.000001   0.000101   0.000000
    26  H    0.000063   0.000000   0.000000   0.000000   0.000000   0.000000
    27  H   -0.000001   0.000000   0.000000   0.000000   0.000000   0.000000
    28  H    0.001516  -0.000001   0.000000  -0.000001   0.000000   0.000000
    29  H   -0.006390   0.000002   0.000003   0.000005   0.000000   0.002432
    30  H    0.005586  -0.000001  -0.000009   0.000002   0.000000  -0.001754
    31  H   -0.002926  -0.000002  -0.000007  -0.000056   0.000000   0.000168
    32  H    0.005030   0.000000   0.000000  -0.000507  -0.000014   0.380405
    33  H    0.000274   0.000000   0.000000   0.002892   0.000001   0.377965
    34  H    0.000000   0.000000   0.000000   0.000124   0.000000  -0.028058
    35  H    0.000014   0.000000  -0.000002   0.008312   0.000005  -0.033047
    36  H    0.000010   0.000000   0.000000  -0.000353   0.000000  -0.036915
    37  C    0.005038  -0.000501  -0.011447  -0.000097  -0.000068  -0.000039
    38  C   -0.000100   0.001374   0.004476  -0.000007  -0.000002   0.000001
    39  C    0.000000  -0.000148   0.004430   0.000000   0.000000   0.000000
    40  H    0.000002   0.000100   0.000775  -0.000020   0.000002  -0.000067
    41  H   -0.000053  -0.000209   0.000670  -0.000007   0.000001  -0.000008
    42  H    0.000002   0.000412   0.000201   0.000000   0.000000   0.000000
    43  H    0.000000   0.000003  -0.000020   0.000000   0.000000   0.000000
    44  H    0.000000   0.000007   0.000489   0.000000   0.000000   0.000000
              13         14         15         16         17         18
     1  C   -0.037927  -0.038983   0.002525  -0.000242   0.000031   0.000001
     2  C    0.004464   0.344345  -0.032006   0.001061  -0.000769  -0.000051
     3  C   -0.000105  -0.033744   0.202120  -0.011548  -0.000820   0.000937
     4  C    0.000008   0.005174  -0.041485  -0.003910  -0.000138  -0.000083
     5  C    0.000019   0.000215   0.000159  -0.000629  -0.000009   0.000002
     6  H   -0.006150  -0.000559   0.000029   0.000063  -0.000001   0.000000
     7  H   -0.000096  -0.042387  -0.005290   0.008731  -0.000761  -0.000002
     8  H    0.000000  -0.000090  -0.003223   0.003261   0.000009  -0.000228
     9  H   -0.000003  -0.000129   0.002492   0.000054   0.000001   0.000000
    10  O   -0.002930   0.003112  -0.000013  -0.000638   0.000002   0.000000
    11  O   -0.000004  -0.000002   0.000004  -0.000924   0.000000   0.000000
    12  C    0.360037  -0.004500  -0.000038  -0.000060   0.000000   0.000000
    13  C    4.934279   0.000140   0.000000   0.000003   0.000000   0.000000
    14  C    0.000140   4.972162  -0.002371  -0.000778  -0.000318   0.000000
    15  O    0.000000  -0.002371   8.274457   0.335581  -0.018871  -0.020253
    16  Si   0.000003  -0.000778   0.335581  11.862359   0.367493   0.375805
    17  C    0.000000  -0.000318  -0.018871   0.367493   5.143796  -0.034696
    18  C    0.000000   0.000000  -0.020253   0.375805  -0.034696   5.121230
    19  C    0.000000   0.000060  -0.013350   0.370525  -0.034895  -0.031447
    20  H    0.000000   0.000000  -0.000532  -0.024657  -0.001467   0.376206
    21  H    0.000000   0.000000  -0.000454  -0.024816   0.001379   0.375446
    22  H    0.000000   0.000000   0.000504  -0.014497  -0.000254   0.372706
    23  H    0.000000  -0.000002  -0.000500  -0.027458   0.001324  -0.001027
    24  H    0.000000   0.000016  -0.000357  -0.028234  -0.001467   0.001466
    25  H    0.000000  -0.000001   0.000481  -0.013386  -0.000726  -0.001108
    26  H    0.000000  -0.000104  -0.000703  -0.026509   0.378961  -0.001236
    27  H    0.000000   0.000018   0.000599  -0.013714   0.369712  -0.000440
    28  H    0.000000   0.000430  -0.000598  -0.028638   0.375781   0.001403
    29  H   -0.000026   0.379172  -0.000009  -0.000370  -0.000020   0.000000
    30  H   -0.000044   0.385591   0.000011   0.000099   0.000010   0.000000
    31  H   -0.000003   0.378524   0.005216   0.000909   0.000567  -0.000005
    32  H   -0.040787  -0.001192   0.000000  -0.000048   0.000000   0.000000
    33  H   -0.036639   0.002959   0.000000   0.000001   0.000000   0.000000
    34  H    0.381266  -0.000002   0.000000   0.000000   0.000000   0.000000
    35  H    0.389003   0.000000   0.000000   0.000000   0.000000   0.000000
    36  H    0.385335  -0.000020   0.000000   0.000000   0.000000   0.000000
    37  C    0.000002  -0.010874  -0.064066  -0.001056  -0.000045   0.000004
    38  C    0.000000   0.000268   0.000333   0.000312   0.000004  -0.000035
    39  C    0.000000   0.000005   0.000411   0.000033   0.000000   0.000000
    40  H    0.000002  -0.001355   0.003675   0.000122   0.000000   0.000000
    41  H    0.000000   0.004389  -0.000274   0.000758  -0.000036  -0.000007
    42  H    0.000000  -0.000016   0.006265   0.001126   0.000000   0.000007
    43  H    0.000000   0.000000   0.000002  -0.000002   0.000000   0.000000
    44  H    0.000000  -0.000001  -0.000002   0.000005   0.000000   0.000000
              19         20         21         22         23         24
     1  C   -0.000047   0.000000   0.000000   0.000000   0.000001  -0.000076
     2  C   -0.001713  -0.000003   0.000002   0.000001   0.000132  -0.000802
     3  C   -0.001670  -0.000021  -0.000041  -0.000009  -0.000162   0.000153
     4  C    0.000889   0.000003  -0.000023   0.000000  -0.001584  -0.000249
     5  C   -0.000124   0.000000   0.000000   0.000000   0.000692   0.003400
     6  H   -0.000006   0.000000   0.000000   0.000000   0.000000   0.000006
     7  H   -0.000891   0.000001   0.000000   0.000001  -0.000049   0.002235
     8  H   -0.000490   0.000000   0.000018   0.000005   0.001756  -0.000180
     9  H    0.000054   0.000000   0.000000   0.000000   0.000032   0.000009
    10  O   -0.000341   0.000000   0.000000   0.000000   0.000054   0.000492
    11  O   -0.001751   0.000000   0.000000   0.000000   0.004076   0.000002
    12  C    0.000005   0.000000   0.000000   0.000000   0.000000  -0.000009
    13  C    0.000000   0.000000   0.000000   0.000000   0.000000   0.000000
    14  C    0.000060   0.000000   0.000000   0.000000  -0.000002   0.000016
    15  O   -0.013350  -0.000532  -0.000454   0.000504  -0.000500  -0.000357
    16  Si   0.370525  -0.024657  -0.024816  -0.014497  -0.027458  -0.028234
    17  C   -0.034895  -0.001467   0.001379  -0.000254   0.001324  -0.001467
    18  C   -0.031447   0.376206   0.375446   0.372706  -0.001027   0.001466
    19  C    5.155074   0.001396  -0.001265  -0.000854   0.376932   0.374924
    20  H    0.001396   0.577072  -0.022193  -0.023928   0.000007  -0.000027
    21  H   -0.001265  -0.022193   0.578199  -0.023525   0.000635   0.000001
    22  H   -0.000854  -0.023928  -0.023525   0.569006  -0.000057   0.000002
    23  H    0.376932   0.000007   0.000635  -0.000057   0.560786  -0.022895
    24  H    0.374924  -0.000027   0.000001   0.000002  -0.022895   0.573193
    25  H    0.370694   0.000016  -0.000056   0.000081  -0.021796  -0.021851
    26  H    0.001341   0.000626   0.000004  -0.000032  -0.000025   0.000010
    27  H   -0.000435  -0.000037   0.000015  -0.000041   0.000006  -0.000010
    28  H   -0.001491   0.000004  -0.000027   0.000004   0.000005   0.000561
    29  H    0.000002   0.000000   0.000000   0.000000   0.000000   0.000000
    30  H   -0.000001   0.000000   0.000000   0.000000   0.000000   0.000000
    31  H    0.000007  -0.000002   0.000000   0.000000   0.000000  -0.000003
    32  H   -0.000004   0.000000   0.000000   0.000000   0.000000   0.000021
    33  H    0.000000   0.000000   0.000000   0.000000   0.000000   0.000000
    34  H    0.000000   0.000000   0.000000   0.000000   0.000000   0.000000
    35  H    0.000000   0.000000   0.000000   0.000000   0.000000   0.000000
    36  H    0.000000   0.000000   0.000000   0.000000   0.000000   0.000000
    37  C   -0.000018   0.000005  -0.000002   0.000000  -0.000007   0.000001
    38  C   -0.000005  -0.000005  -0.000005   0.000000  -0.000002   0.000000
    39  C    0.000000   0.000000   0.000000   0.000000   0.000000   0.000000
    40  H    0.000002   0.000000   0.000000   0.000000   0.000000   0.000000
    41  H    0.000004   0.000000   0.000000   0.000000   0.000000   0.000000
    42  H    0.000002   0.000010   0.000031   0.000000  -0.000001   0.000000
    43  H    0.000000   0.000000   0.000000   0.000000   0.000000   0.000000
    44  H    0.000000   0.000000   0.000000   0.000000   0.000000   0.000000
              25         26         27         28         29         30
     1  C    0.000001  -0.000002   0.000000   0.000006  -0.004919  -0.005571
     2  C    0.000034   0.000008   0.000023  -0.000829  -0.026342  -0.033466
     3  C   -0.000003  -0.000026   0.000011  -0.000050   0.004385  -0.006965
     4  C    0.000030  -0.000001   0.000002  -0.000017  -0.000148  -0.000048
     5  C    0.000044   0.000000   0.000000  -0.000004   0.000010   0.000012
     6  H    0.000000   0.000000   0.000000   0.000000  -0.000047   0.003075
     7  H    0.000005   0.000063  -0.000001   0.001516  -0.006390   0.005586
     8  H    0.000004   0.000000   0.000000  -0.000001   0.000002  -0.000001
     9  H   -0.000001   0.000000   0.000000   0.000000   0.000003  -0.000009
    10  O    0.000001   0.000000   0.000000  -0.000001   0.000005   0.000002
    11  O    0.000101   0.000000   0.000000   0.000000   0.000000   0.000000
    12  C    0.000000   0.000000   0.000000   0.000000   0.002432  -0.001754
    13  C    0.000000   0.000000   0.000000   0.000000  -0.000026  -0.000044
    14  C   -0.000001  -0.000104   0.000018   0.000430   0.379172   0.385591
    15  O    0.000481  -0.000703   0.000599  -0.000598  -0.000009   0.000011
    16  Si  -0.013386  -0.026509  -0.013714  -0.028638  -0.000370   0.000099
    17  C   -0.000726   0.378961   0.369712   0.375781  -0.000020   0.000010
    18  C   -0.001108  -0.001236  -0.000440   0.001403   0.000000   0.000000
    19  C    0.370694   0.001341  -0.000435  -0.001491   0.000002  -0.000001
    20  H    0.000016   0.000626  -0.000037   0.000004   0.000000   0.000000
    21  H   -0.000056   0.000004   0.000015  -0.000027   0.000000   0.000000
    22  H    0.000081  -0.000032  -0.000041   0.000004   0.000000   0.000000
    23  H   -0.021796  -0.000025   0.000006   0.000005   0.000000   0.000000
    24  H   -0.021851   0.000010  -0.000010   0.000561   0.000000   0.000000
    25  H    0.562696   0.000019   0.000120  -0.000016   0.000000   0.000000
    26  H    0.000019   0.576940  -0.023969  -0.022998   0.000003   0.000002
    27  H    0.000120  -0.023969   0.572967  -0.023592  -0.000002   0.000000
    28  H   -0.000016  -0.022998  -0.023592   0.586863   0.000463   0.000000
    29  H    0.000000   0.000003  -0.000002   0.000463   0.596157  -0.032182
    30  H    0.000000   0.000002   0.000000   0.000000  -0.032182   0.592077
    31  H    0.000000   0.000717   0.000016   0.000011  -0.029448  -0.028618
    32  H    0.000000   0.000000   0.000000   0.000004   0.001105   0.000169
    33  H    0.000000   0.000000   0.000000   0.000000   0.000045   0.001356
    34  H    0.000000   0.000000   0.000000   0.000000   0.000003   0.000000
    35  H    0.000000   0.000000   0.000000   0.000000  -0.000003   0.000000
    36  H    0.000000   0.000000   0.000000   0.000000   0.000009   0.000007
    37  C    0.000001   0.000013   0.000001   0.000000   0.000310   0.002705
    38  C    0.000000   0.000000   0.000000   0.000000  -0.000006   0.000033
    39  C    0.000000   0.000000   0.000000   0.000000   0.000000  -0.000001
    40  H    0.000000   0.000000   0.000000   0.000000  -0.000020   0.001083
    41  H    0.000000  -0.000004   0.000000  -0.000004   0.000049   0.000012
    42  H    0.000000   0.000000   0.000000   0.000000   0.000000   0.000004
    43  H    0.000000   0.000000   0.000000   0.000000   0.000000   0.000000
    44  H    0.000000   0.000000   0.000000   0.000000   0.000000   0.000000
              31         32         33         34         35         36
     1  C    0.004476  -0.033841  -0.028019   0.004025  -0.008109  -0.005473
     2  C   -0.027044  -0.006437  -0.006198  -0.000107   0.000091   0.000092
     3  C   -0.005997   0.000076  -0.000059   0.000001  -0.000008   0.000003
     4  C    0.000189  -0.000012   0.000028   0.000000   0.000045   0.000000
     5  C   -0.000024   0.000009  -0.000042  -0.000001   0.000210  -0.000030
     6  H   -0.000139   0.006070  -0.000603  -0.000049   0.000131   0.005570
     7  H   -0.002926   0.005030   0.000274   0.000000   0.000014   0.000010
     8  H   -0.000002   0.000000   0.000000   0.000000   0.000000   0.000000
     9  H   -0.000007   0.000000   0.000000   0.000000  -0.000002   0.000000
    10  O   -0.000056  -0.000507   0.002892   0.000124   0.008312  -0.000353
[...]
    14  C    0.000040   0.000000   0.000000   0.000000  -0.000003   0.000020
    15  O   -0.015676  -0.000775  -0.000557   0.000671  -0.000571  -0.000397
    16  Si   0.365780  -0.023094  -0.023435  -0.014761  -0.023770  -0.026332
    17  C   -0.032232  -0.001366   0.001205   0.000005   0.001134  -0.001292
    18  C   -0.027437   0.377127   0.377190   0.367767  -0.000838   0.001180
    19  C    5.164437   0.001170  -0.001233  -0.000568   0.374902   0.377114
    20  H    0.001170   0.572429  -0.022609  -0.024432  -0.000002  -0.000021
    21  H   -0.001233  -0.022609   0.572476  -0.024065   0.000383   0.000005
    22  H   -0.000568  -0.024432  -0.024065   0.577512  -0.000027  -0.000006
    23  H    0.374902  -0.000002   0.000383  -0.000027   0.554215  -0.024251
    24  H    0.377114  -0.000021   0.000005  -0.000006  -0.024251   0.571473
    25  H    0.366383   0.000016  -0.000053   0.000121  -0.021108  -0.023059
    26  H    0.001203   0.000483   0.000001  -0.000048  -0.000020   0.000011
    27  H   -0.000331  -0.000016   0.000008  -0.000035   0.000004  -0.000045
    28  H   -0.001330   0.000002  -0.000022   0.000005   0.000004   0.000484
    29  H    0.000002   0.000000   0.000000   0.000000   0.000000   0.000000
    30  H   -0.000001   0.000000   0.000000   0.000000   0.000000   0.000000
    31  H    0.000005  -0.000002   0.000000   0.000000   0.000001  -0.000004
    32  H   -0.000006   0.000000   0.000000   0.000000   0.000000   0.000032
    33  H    0.000000   0.000000   0.000000   0.000000   0.000000   0.000000
    34  H    0.000000   0.000000   0.000000   0.000000   0.000000   0.000000
    35  H    0.000000   0.000000   0.000000   0.000000   0.000000   0.000000
    36  H    0.000000   0.000000   0.000000   0.000000   0.000000   0.000000
    37  C   -0.000038   0.000009  -0.000003   0.000000  -0.000008  -0.000002
    38  C   -0.000003  -0.000015  -0.000009   0.000001  -0.000001   0.000000
    39  C    0.000000   0.000000   0.000000   0.000000   0.000000   0.000000
    40  H    0.000002   0.000000   0.000000   0.000000   0.000000   0.000000
    41  H    0.000004   0.000001   0.000000   0.000000   0.000000   0.000000
    42  H    0.000003   0.000077   0.000060   0.000000   0.000000   0.000000
    43  H    0.000000   0.000000   0.000000   0.000000   0.000000   0.000000
    44  H    0.000000   0.000000   0.000000   0.000000   0.000000   0.000000
              25         26         27         28         29         30
     1  C    0.000000  -0.000001   0.000000   0.000000  -0.005388  -0.005259
     2  C    0.000039  -0.000015   0.000018  -0.000445  -0.026024  -0.032092
     3  C   -0.000015  -0.000033   0.000005  -0.000018   0.004385  -0.007333
     4  C    0.000007  -0.000002   0.000001  -0.000015  -0.000153  -0.000035
     5  C    0.000032   0.000000   0.000000  -0.000002   0.000007   0.000011
     6  H    0.000000   0.000000   0.000000   0.000000  -0.000048   0.002965
     7  H    0.000002   0.000097   0.000001   0.000926  -0.005759   0.005357
     8  H   -0.000003   0.000000   0.000000   0.000000   0.000002  -0.000001
     9  H    0.000000   0.000000   0.000000   0.000000   0.000004  -0.000013
    10  O    0.000001   0.000000   0.000000  -0.000001   0.000007  -0.000004
    11  O    0.000068   0.000000   0.000000   0.000000   0.000000   0.000000
    12  C    0.000000   0.000000   0.000000  -0.000001   0.002630  -0.001698
    13  C    0.000000   0.000000   0.000000   0.000000  -0.000029  -0.000040
    14  C   -0.000001  -0.000128   0.000019   0.000356   0.379569   0.384919
    15  O    0.000517  -0.000796   0.000572  -0.000719  -0.000046   0.000025
    16  Si  -0.014124  -0.025686  -0.013545  -0.026062  -0.000380   0.000064
    17  C   -0.000348   0.379279   0.367717   0.377281  -0.000032   0.000016
    18  C   -0.000890  -0.001187  -0.000279   0.001205   0.000000   0.000000
    19  C    0.366383   0.001203  -0.000331  -0.001330   0.000002  -0.000001
    20  H    0.000016   0.000483  -0.000016   0.000002   0.000000   0.000000
    21  H   -0.000053   0.000001   0.000008  -0.000022   0.000000   0.000000
    22  H    0.000121  -0.000048  -0.000035   0.000005   0.000000   0.000000
    23  H   -0.021108  -0.000020   0.000004   0.000004   0.000000   0.000000
    24  H   -0.023059   0.000011  -0.000045   0.000484   0.000000   0.000000
    25  H    0.570902   0.000004   0.000071  -0.000016   0.000000   0.000000
    26  H    0.000004   0.574686  -0.024517  -0.023590   0.000002   0.000001
    27  H    0.000071  -0.024517   0.575187  -0.024157  -0.000002   0.000000
    28  H   -0.000016  -0.023590  -0.024157   0.579088   0.000483  -0.000001
    29  H    0.000000   0.000002  -0.000002   0.000483   0.593504  -0.032262
    30  H    0.000000   0.000001   0.000000  -0.000001  -0.032262   0.592685
    31  H    0.000000   0.000737   0.000015   0.000120  -0.028450  -0.029889
    32  H    0.000000   0.000000   0.000000   0.000005   0.001248   0.000182
    33  H    0.000000   0.000000   0.000000   0.000000   0.000051   0.001303
    34  H    0.000000   0.000000   0.000000   0.000000   0.000003   0.000001
    35  H    0.000000   0.000000   0.000000   0.000000  -0.000002   0.000000
    36  H    0.000000   0.000000   0.000000   0.000000   0.000008   0.000006
    37  C    0.000001   0.000016   0.000001   0.000005   0.000317   0.002651
    38  C    0.000000   0.000000   0.000000   0.000000  -0.000006   0.000044
    39  C    0.000000   0.000000   0.000000   0.000000   0.000000  -0.000001
    40  H    0.000000   0.000000   0.000000   0.000000  -0.000018   0.001340
    41  H    0.000000  -0.000005   0.000000  -0.000008   0.000013  -0.000122
    42  H    0.000000  -0.000001   0.000000   0.000000   0.000000   0.000004
    43  H    0.000000   0.000000   0.000000   0.000000   0.000000   0.000000
    44  H    0.000000   0.000000   0.000000   0.000000   0.000000   0.000000
              31         32         33         34         35         36
     1  C    0.004681  -0.036105  -0.030519   0.003816  -0.008464  -0.004861
     2  C   -0.029068  -0.006858  -0.006164  -0.000098   0.000102   0.000061
     3  C   -0.005226   0.000074  -0.000094   0.000001  -0.000008   0.000003
     4  C    0.000176  -0.000012   0.000039   0.000000   0.000056  -0.000001
     5  C   -0.000025  -0.000025  -0.000054  -0.000001   0.000236  -0.000029
     6  H   -0.000166   0.006445  -0.001081  -0.000051   0.000132   0.005213
     7  H   -0.003439   0.005337   0.000259   0.000001   0.000016   0.000010
     8  H   -0.000002   0.000000   0.000000   0.000000   0.000000   0.000000
     9  H   -0.000008   0.000000   0.000000   0.000000  -0.000002  -0.000001
    10  O   -0.000054  -0.000662   0.003200   0.000147   0.009223  -0.000329
    11  O    0.000000  -0.000014   0.000001   0.000000   0.000009   0.000000
    12  C    0.000168   0.380117   0.375716  -0.027421  -0.033379  -0.035394
    13  C   -0.000002  -0.038245  -0.034589   0.381375   0.388830   0.384744
    14  C    0.379054  -0.001240   0.003141  -0.000002  -0.000001  -0.000019
    15  O    0.004508  -0.000001   0.000000   0.000000   0.000000   0.000000
    16  Si   0.000839  -0.000051   0.000001   0.000000   0.000000   0.000000
    17  C    0.000684   0.000000   0.000000   0.000000   0.000000   0.000000
    18  C   -0.000006   0.000000   0.000000   0.000000   0.000000   0.000000
    19  C    0.000005  -0.000006   0.000000   0.000000   0.000000   0.000000
    20  H   -0.000002   0.000000   0.000000   0.000000   0.000000   0.000000
    21  H    0.000000   0.000000   0.000000   0.000000   0.000000   0.000000
    22  H    0.000000   0.000000   0.000000   0.000000   0.000000   0.000000
    23  H    0.000001   0.000000   0.000000   0.000000   0.000000   0.000000
    24  H   -0.000004   0.000032   0.000000   0.000000   0.000000   0.000000
    25  H    0.000000   0.000000   0.000000   0.000000   0.000000   0.000000
    26  H    0.000737   0.000000   0.000000   0.000000   0.000000   0.000000
    27  H    0.000015   0.000000   0.000000   0.000000   0.000000   0.000000
    28  H    0.000120   0.000005   0.000000   0.000000   0.000000   0.000000
    29  H   -0.028450   0.001248   0.000051   0.000003  -0.000002   0.000008
    30  H   -0.029889   0.000182   0.001303   0.000001   0.000000   0.000006
    31  H    0.579051  -0.000063   0.000061   0.000000   0.000000   0.000000
    32  H   -0.000063   0.613812  -0.033424  -0.003075  -0.003863   0.005152
    33  H    0.000061  -0.033424   0.610215  -0.003394   0.004983  -0.004447
    34  H    0.000000  -0.003075  -0.003394   0.601271  -0.029829  -0.031130
    35  H    0.000000  -0.003863   0.004983  -0.029829   0.575646  -0.030708
    36  H    0.000000   0.005152  -0.004447  -0.031130  -0.030708   0.605611
    37  C   -0.002923   0.000000  -0.000002   0.000000   0.000000  -0.000001
    38  C   -0.000107   0.000000   0.000000   0.000000   0.000000   0.000000
    39  C   -0.000001   0.000000   0.000000   0.000000   0.000000   0.000000
    40  H    0.000201   0.000002   0.000009   0.000000   0.000000  -0.000002
    41  H    0.002018   0.000000  -0.000004   0.000000   0.000000   0.000000
    42  H    0.000000   0.000000   0.000000   0.000000   0.000000   0.000000
    43  H    0.000000   0.000000   0.000000   0.000000   0.000000   0.000000
    44  H    0.000000   0.000000   0.000000   0.000000   0.000000   0.000000
              37         38         39         40         41         42
     1  C   -0.003163  -0.000014   0.000001  -0.000036   0.000289  -0.000008
     2  C   -0.049168   0.004936  -0.000113  -0.000386  -0.012561   0.000169
     3  C    0.348209  -0.037298  -0.001654  -0.031348  -0.028572  -0.004282
     4  C   -0.051969  -0.009203   0.000883  -0.002632   0.005632  -0.000951
     5  C    0.002105   0.000611   0.000098  -0.000165  -0.000016  -0.000009
     6  H    0.002360  -0.000140  -0.000030   0.003717  -0.000104   0.000002
     7  H    0.005078  -0.000114   0.000000   0.000036  -0.000077   0.000003
     8  H   -0.002192   0.002360  -0.000029   0.000160  -0.000201   0.000703
     9  H   -0.009061   0.003387   0.003285   0.000700   0.000549   0.000194
    10  O   -0.000074  -0.000005   0.000000  -0.000019  -0.000006   0.000000
    11  O   -0.000059  -0.000003   0.000000   0.000001   0.000001   0.000000
    12  C   -0.000073   0.000001   0.000000  -0.000080   0.000000   0.000000
    13  C    0.000001   0.000000   0.000000   0.000001   0.000000   0.000000
    14  C   -0.010265   0.000272   0.000005  -0.001505   0.005354  -0.000016
    15  O   -0.066711   0.000173   0.000452   0.003723  -0.000137   0.006960
    16  Si  -0.001135   0.000134   0.000031   0.000076   0.001094   0.001036
    17  C   -0.000038   0.000005   0.000000   0.000000  -0.000056  -0.000001
    18  C   -0.000006  -0.000056   0.000000   0.000001  -0.000014   0.000082
    19  C   -0.000038  -0.000003   0.000000   0.000002   0.000004   0.000003
    20  H    0.000009  -0.000015   0.000000   0.000000   0.000001   0.000077
    21  H   -0.000003  -0.000009   0.000000   0.000000   0.000000   0.000060
    22  H    0.000000   0.000001   0.000000   0.000000   0.000000   0.000000
    23  H   -0.000008  -0.000001   0.000000   0.000000   0.000000   0.000000
    24  H   -0.000002   0.000000   0.000000   0.000000   0.000000   0.000000
    25  H    0.000001   0.000000   0.000000   0.000000   0.000000   0.000000
    26  H    0.000016   0.000000   0.000000   0.000000  -0.000005  -0.000001
    27  H    0.000001   0.000000   0.000000   0.000000   0.000000   0.000000
    28  H    0.000005   0.000000   0.000000   0.000000  -0.000008   0.000000
    29  H    0.000317  -0.000006   0.000000  -0.000018   0.000013   0.000000
    30  H    0.002651   0.000044  -0.000001   0.001340  -0.000122   0.000004
    31  H   -0.002923  -0.000107  -0.000001   0.000201   0.002018   0.000000
    32  H    0.000000   0.000000   0.000000   0.000002   0.000000   0.000000
    33  H   -0.000002   0.000000   0.000000   0.000009  -0.000004   0.000000
    34  H    0.000000   0.000000   0.000000   0.000000   0.000000   0.000000
    35  H    0.000000   0.000000   0.000000   0.000000   0.000000   0.000000
    36  H   -0.000001   0.000000   0.000000  -0.000002   0.000000   0.000000
    37  C    5.051967   0.384045  -0.040986   0.360072   0.366569  -0.052628
    38  C    0.384045   4.778873   0.654417  -0.039234  -0.033771   0.384539
    39  C   -0.040986   0.654417   4.936952  -0.006582   0.000731  -0.045277
    40  H    0.360072  -0.039234  -0.006582   0.631116  -0.030182   0.005408
    41  H    0.366569  -0.033771   0.000731  -0.030182   0.602689  -0.001732
    42  H   -0.052628   0.384539  -0.045277   0.005408  -0.001732   0.602329
    43  H    0.004596  -0.024835   0.376523   0.000100  -0.000206  -0.007830
    44  H   -0.012427  -0.034805   0.380723   0.006398   0.000201   0.005701
              43         44
     1  C    0.000000  -0.000004
     2  C    0.000003  -0.000009
     3  C   -0.000064   0.000168
     4  C   -0.000012  -0.000142
     5  C    0.000000  -0.000001
     6  H    0.000000   0.000009
     7  H    0.000000   0.000000
     8  H    0.000007   0.000011
     9  H   -0.000015   0.000431
    10  O    0.000000   0.000000
    11  O    0.000000   0.000000
    12  C    0.000000   0.000000
    13  C    0.000000   0.000000
    14  C    0.000000  -0.000001
    15  O    0.000002  -0.000002
    16  Si  -0.000001   0.000004
    17  C    0.000000   0.000000
    18  C    0.000000   0.000000
    19  C    0.000000   0.000000
    20  H    0.000000   0.000000
    21  H    0.000000   0.000000
    22  H    0.000000   0.000000
    23  H    0.000000   0.000000
    24  H    0.000000   0.000000
    25  H    0.000000   0.000000
    26  H    0.000000   0.000000
    27  H    0.000000   0.000000
    28  H    0.000000   0.000000
    29  H    0.000000   0.000000
    30  H    0.000000   0.000000
    31  H    0.000000   0.000000
    32  H    0.000000   0.000000
    33  H    0.000000   0.000000
    34  H    0.000000   0.000000
    35  H    0.000000   0.000000
    36  H    0.000000   0.000000
    37  C    0.004596  -0.012427
    38  C   -0.024835  -0.034805
    39  C    0.376523   0.380723
    40  H    0.000100   0.006398
    41  H   -0.000206   0.000201
    42  H   -0.007830   0.005701
    43  H    0.590175  -0.044001
    44  H   -0.044001   0.599694
 Mulliken charges:
               1
     1  C    0.164946
     2  C   -0.105870
     3  C    0.311294
     4  C   -0.294942
     5  C    0.597135
     6  H    0.107676
     7  H    0.115890
     8  H    0.149504
     9  H    0.152190
    10  O   -0.477050
    11  O   -0.506379
    12  C   -0.195218
    13  C   -0.329202
    14  C   -0.342212
    15  O   -0.636435
    16  Si   0.904637
    17  C   -0.546326
    18  C   -0.532455
    19  C   -0.568640
    20  H    0.121057
    21  H    0.120661
    22  H    0.117865
    23  H    0.132878
    24  H    0.121934
    25  H    0.121453
    26  H    0.119508
    27  H    0.119307
    28  H    0.116422
    29  H    0.116365
    30  H    0.117176
    31  H    0.127117
    32  H    0.111239
    33  H    0.114794
    34  H    0.108386
    35  H    0.127023
    36  H    0.106114
    37  C   -0.225069
    38  C   -0.034179
    39  C   -0.259426
    40  H    0.099127
    41  H    0.122630
    42  H    0.105463
    43  H    0.105560
    44  H    0.098050
 Sum of Mulliken charges =   0.00000
 Mulliken charges with hydrogens summed into heavy atoms:
               1
     1  C    0.272622
     2  C    0.010019
     3  C    0.311294
     4  C    0.006752
     5  C    0.597135
    10  O   -0.477050
    11  O   -0.506379
    12  C    0.030816
    13  C    0.012321
    14  C    0.018446
    15  O   -0.636435
    16  Si   0.904637
    17  C   -0.191089
    18  C   -0.172871
    19  C   -0.192375
    37  C   -0.003311
    38  C    0.071284
    39  C   -0.055816
 Electronic spatial extent (au):  <R**2>=           5357.0788
 Charge=              0.0000 electrons
 Dipole moment (field-independent basis, Debye):
    X=             -0.2034    Y=              1.0913    Z=             -4.7544  Tot=              4.8823
 Quadrupole moment (field-independent basis, Debye-Ang):
   XX=           -113.2325   YY=           -115.6717   ZZ=           -130.1338
   XY=             -5.6972   XZ=              8.6718   YZ=              6.6101
 Traceless Quadrupole moment (field-independent basis, Debye-Ang):
   XX=              6.4468   YY=              4.0077   ZZ=            -10.4544
   XY=             -5.6972   XZ=              8.6718   YZ=              6.6101
 Octapole moment (field-independent basis, Debye-Ang**2):
  XXX=            -10.0367  YYY=             -4.2144  ZZZ=            -37.7465  XYY=             -1.4534
  XXY=             -4.1078  XXZ=             -8.7040  XZZ=             11.5253  YZZ=             12.0459
  YYZ=              7.5574  XYZ=             -7.0223
 Hexadecapole moment (field-independent basis, Debye-Ang**3):
 XXXX=          -3632.6754 YYYY=          -2188.3658 ZZZZ=          -1463.4789 XXXY=            -10.9262
 XXXZ=             13.6468 YYYX=            -10.4190 YYYZ=             38.4440 ZZZX=             35.2184
 ZZZY=             27.7303 XXYY=           -940.0913 XXZZ=           -837.4046 YYZZ=           -613.3490
 XXYZ=             12.6726 YYXZ=             19.4191 ZZXY=             -5.1919
 N-N= 1.633166524158D+03 E-N=-5.756821365863D+03  KE= 1.055914483344D+03
 1\1\GINC-CPU-E-532\FOpt\RB3LYP\6-31G(d,p)\C14H26O3Si1\KE291\06-Feb-201
 9\0\\# b3lyp/6-31g(d,p) Opt=(maxcycles=25) scrf=(solvent=chloroform)\\
 P_ng_correct1ginp008\\0,1\C,0.7530686779,-0.3534726033,0.4230851859\C,
 -0.7351457218,-0.4369947715,0.8068974744\C,-1.0760554473,0.6648592982,
 1.8609350081\C,-0.1635241241,1.9088906668,1.6300014303\C,0.4598023401,
 2.0446793068,0.2606344827\H,1.3855977851,-0.3536615576,1.3226718122\H,
 -1.2704939043,-0.1575962849,-0.109729349\H,-0.7089772905,2.8242567586,
 1.8572491464\H,0.6771638773,1.8653777391,2.3343536492\O,0.9685458682,0
 .9110817792,-0.2743284851\O,0.5746285546,3.0902071512,-0.3440964142\C,
 1.2483652766,-1.4399632424,-0.5283073583\C,2.715389048,-1.2694903485,-
 0.9353346014\C,-1.1996999789,-1.8441866498,1.204218354\O,-2.4494359329
 ,1.0376445486,1.7831692111\Si,-3.5665733293,1.4222696763,0.5823741637\
 C,-4.4120555377,-0.144615299,-0.0436023097\C,-4.8259107192,2.504858721
 3,1.4665758636\C,-2.8033825398,2.3560090315,-0.8677562368\H,-5.2539779
 441,1.9860294451,2.3307425554\H,-4.3701890742,3.4337475703,1.825088398
 \H,-5.6499376472,2.7726679648,0.7957361497\H,-2.2027329164,3.210252488
 5,-0.5423224311\H,-2.1652172875,1.7218883201,-1.491736564\H,-3.6074596
 931,2.7370091982,-1.5087020993\H,-4.8645662199,-0.705331294,0.78138453
 69\H,-5.2122415988,0.1120796045,-0.7477943075\H,-3.7189578758,-0.81374
 19818,-0.5637548847\H,-1.1663090064,-2.5203270997,0.3466272868\H,-0.58
 19264733,-2.2785741442,1.9962724684\H,-2.2329992836,-1.8147993973,1.55
 92796164\H,0.6067192415,-1.4463001086,-1.4183295584\H,1.1174723952,-2.
 4080198678,-0.0342987878\H,3.0241901284,-2.0781257726,-1.60432304\H,2.
 8740317208,-0.3198180284,-1.4516316345\H,3.3731714102,-1.2913336761,-0
 .0591373733\C,-0.8720385661,0.1601702841,3.3149726358\C,-1.087646644,1
 .2154676546,4.3646102573\C,-0.1942733505,1.5571081876,5.2945664994\H,0
 .1351257327,-0.2612132349,3.4175290614\H,-1.5865446788,-0.6537802225,3
 .4795428856\H,-2.0570102208,1.7101853879,4.34293058\H,-0.409148715,2.3
 171103304,6.0401710773\H,0.7835846647,1.0833434712,5.3505466456\\Versi
 on=ES64L-G09RevD.01\State=1-A\HF=-1064.422754\RMSD=8.461e-09\RMSF=5.57
 6e-06\Dipole=-0.4120778,-1.7287946,0.7287358\Quadrupole=2.6132754,-1.2
 210431,-1.3922322,-7.1517155,6.4302464,5.6717502\PG=C01 [X(C14H26O3Si1
 )]\\@


 HE THAT IS UNAWARE OF HIS IGNORANCE WILL BE MISLED BY HIS KNOWLEDGE.

                                        -- WHATLEY
 Job cpu time:       0 days  2 hours 57 minutes 57.4 seconds.
 File lengths (MBytes):  RWF=    364 Int=      0 D2E=      0 Chk=     17 Scr=      1
 Normal termination of Gaussian 09 at Wed Feb  6 11:40:04 2019.
