 Entering Gaussian System, Link 0=/usr/local/Cluster-Apps/gaussian/g09/g09
 Initial command:
 /usr/local/Cluster-Apps/gaussian/g09/l1.exe "/home/ke291/rds/hpc-work/06Feb0927IP1/Gau-371435.inp" -scrdir="/home/ke291/rds/hpc-work/06Feb0927IP1/"
 Entering Link 1 = /usr/local/Cluster-Apps/gaussian/g09/l1.exe PID=    371441.
  
 Copyright (c) 1988,1990,1992,1993,1995,1998,2003,2009,2013,
            Gaussian, Inc.  All Rights Reserved.
  
 This is part of the Gaussian(R) 09 program.  It is based on
 the Gaussian(R) 03 system (copyright 2003, Gaussian, Inc.),
 the Gaussian(R) 98 system (copyright 1998, Gaussian, Inc.),
 the Gaussian(R) 94 system (copyright 1995, Gaussian, Inc.),
 the Gaussian 92(TM) system (copyright 1992, Gaussian, Inc.),
 the Gaussian 90(TM) system (copyright 1990, Gaussian, Inc.),
 the Gaussian 88(TM) system (copyright 1988, Gaussian, Inc.),
 the Gaussian 86(TM) system (copyright 1986, Carnegie Mellon
 University), and the Gaussian 82(TM) system (copyright 1983,
 Carnegie Mellon University). Gaussian is a federally registered
 trademark of Gaussian, Inc.
  
 This software contains proprietary and confidential information,
 including trade secrets, belonging to Gaussian, Inc.
  
 This software is provided under written license and may be
 used, copied, transmitted, or stored only in accord with that
 written license.
  
 The following legend is applicable only to US Government
 contracts under FAR:
  
                    RESTRICTED RIGHTS LEGEND
  
 Use, reproduction and disclosure by the US Government is
 subject to restrictions as set forth in subparagraphs (a)
 and (c) of the Commercial Computer Software - Restricted
 Rights clause in FAR 52.227-19.
  
 Gaussian, Inc.
 340 Quinnipiac St., Bldg. 40, Wallingford CT 06492
  
  
 ---------------------------------------------------------------
 Warning -- This program may not be used in any manner that
 competes with the business of Gaussian, Inc. or will provide
 assistance to any competitor of Gaussian, Inc.  The licensee
 of this program is prohibited from giving any competitor of
 Gaussian, Inc. access to this program.  By using this program,
 the user acknowledges that Gaussian, Inc. is engaged in the
 business of creating and licensing software in the field of
 computational chemistry and represents and warrants to the
 licensee that it is not a competitor of Gaussian, Inc. and that
 it will not use this program in any manner prohibited above.
 ---------------------------------------------------------------
  

 Cite this work as:
 Gaussian 09, Revision D.01,
 M. J. Frisch, G. W. Trucks, H. B. Schlegel, G. E. Scuseria, 
 M. A. Robb, J. R. Cheeseman, G. Scalmani, V. Barone, B. Mennucci, 
 G. A. Petersson, H. Nakatsuji, M. Caricato, X. Li, H. P. Hratchian, 
 A. F. Izmaylov, J. Bloino, G. Zheng, J. L. Sonnenberg, M. Hada, 
 M. Ehara, K. Toyota, R. Fukuda, J. Hasegawa, M. Ishida, T. Nakajima, 
 Y. Honda, O. Kitao, H. Nakai, T. Vreven, J. A. Montgomery, Jr., 
 J. E. Peralta, F. Ogliaro, M. Bearpark, J. J. Heyd, E. Brothers, 
 K. N. Kudin, V. N. Staroverov, T. Keith, R. Kobayashi, J. Normand, 
 K. Raghavachari, A. Rendell, J. C. Burant, S. S. Iyengar, J. Tomasi, 
 M. Cossi, N. Rega, J. M. Millam, M. Klene, J. E. Knox, J. B. Cross, 
 V. Bakken, C. Adamo, J. Jaramillo, R. Gomperts, R. E. Stratmann, 
 O. Yazyev, A. J. Austin, R. Cammi, C. Pomelli, J. W. Ochterski, 
 R. L. Martin, K. Morokuma, V. G. Zakrzewski, G. A. Voth, 
 P. Salvador, J. J. Dannenberg, S. Dapprich, A. D. Daniels, 
 O. Farkas, J. B. Foresman, J. V. Ortiz, J. Cioslowski, 
 and D. J. Fox, Gaussian, Inc., Wallingford CT, 2013.
 
 ******************************************
 Gaussian 09:  ES64L-G09RevD.01 24-Apr-2013
                 6-Feb-2019 
 ******************************************
 %nprocshared=2
 Will use up to    2 processors via shared memory.
 %mem=6000MB
 %chk=/home/ke291/rds/hpc-work/06Feb0927IP1/P_ng_correct1ginp001.chk
 ---------------------------------------------------------------
 # b3lyp/6-31g(d,p) Opt=(maxcycles=25) scrf=(solvent=chloroform)
 ---------------------------------------------------------------
 1/6=25,14=-1,18=20,19=15,26=3,38=1/1,3;
 2/9=110,12=2,17=6,18=5,40=1/2;
 3/5=1,6=6,7=101,11=2,16=1,25=1,30=1,70=2201,71=1,72=7,74=-5/1,2,3;
 4//1;
 5/5=2,38=5,53=7/2;
 6/7=2,8=2,9=2,10=2,28=1/1;
 7//1,2,3,16;
 1/6=25,14=-1,18=20,19=15,26=3/3(2);
 2/9=110/2;
 99//99;
 2/9=110/2;
 3/5=1,6=6,7=101,11=2,16=1,25=1,30=1,70=2205,71=1,72=7,74=-5/1,2,3;
 4/5=5,16=3,69=1/1;
 5/5=2,38=5,53=7/2;
 7//1,2,3,16;
 1/6=25,14=-1,18=20,19=15,26=3/3(-5);
 2/9=110/2;
 6/7=2,8=2,9=2,10=2,19=2,28=1/1;
 99/9=1/99;
 --------------------
 P_ng_correct1ginp001
 --------------------
 Symbolic Z-matrix:
 Charge =  0 Multiplicity = 1
 C                     0.82629  -0.40366   0.37418 
 C                    -0.70745  -0.45493   0.51002 
 C                    -1.20776   0.60033   1.53701 
 C                    -0.70516   1.96601   1.06067 
 C                     0.78366   2.01365   0.91819 
 H                     1.29137  -0.91448   1.22617 
 H                    -1.13425  -0.18751  -0.46472 
 H                    -1.11152   2.22984   0.07824 
 H                    -1.0202    2.762     1.74441 
 O                     1.37455   0.9358    0.36418 
 O                     1.42767   3.02502   1.17701 
 C                     1.31892  -1.09634  -0.91056 
 C                     2.83968  -1.11959  -1.01853 
 C                    -1.19853  -1.87922   0.81383 
 O                    -2.64345   0.50187   1.6724 
 Si                   -3.84696   1.18635   0.73652 
 C                    -3.99518   3.03518   1.0371 
 C                    -3.61762   0.88077  -1.09989 
 C                    -5.50201   0.40982   1.2255 
 H                    -2.7221    1.38073  -1.47841 
 H                    -3.52868  -0.19013  -1.30508 
 H                    -4.47661   1.26252  -1.66012 
 H                    -5.4805   -0.66979   1.05105 
 H                    -5.70603   0.58697   2.28541 
 H                    -6.31614   0.84209   0.63667 
 H                    -4.06327   3.24477   2.10866 
 H                    -3.1337    3.57447   0.63478 
 H                    -4.89408   3.42948   0.55358 
 H                    -0.9951   -2.55279  -0.02416 
 H                    -0.70625  -2.29541   1.69837 
 H                    -2.27928  -1.90775   0.98166 
 H                     0.92397  -0.56794  -1.78684 
 H                     0.95792  -2.12831  -0.9566 
 H                     3.14369  -1.65654  -1.9228 
 H                     3.25401  -0.1084   -1.0763 
 H                     3.28498  -1.62716  -0.15702 
 C                    -0.66714   0.28847   2.97685 
 C                    -1.05359   1.31111   4.01678 
 C                    -0.17966   2.07126   4.68853 
 H                     0.42212   0.17412   2.97431 
 H                    -1.0807   -0.66765   3.32205 
 H                    -2.11718   1.41439   4.22581 
 H                    -0.52256   2.7882    5.42874 
 H                     0.89085   2.00796   4.51633 
 

 GradGradGradGradGradGradGradGradGradGradGradGradGradGradGradGradGradGrad
 Berny optimization.
 Initialization pass.
                           ----------------------------
                           !    Initial Parameters    !
                           ! (Angstroms and Degrees)  !
 --------------------------                            --------------------------
 ! Name  Definition              Value          Derivative Info.                !
 --------------------------------------------------------------------------------
 ! R1    R(1,2)                  1.5406         estimate D2E/DX2                !
 ! R2    R(1,6)                  1.0969         estimate D2E/DX2                !
 ! R3    R(1,10)                 1.4474         estimate D2E/DX2                !
 ! R4    R(1,12)                 1.5405         estimate D2E/DX2                !
 ! R5    R(2,3)                  1.5552         estimate D2E/DX2                !
 ! R6    R(2,7)                  1.0972         estimate D2E/DX2                !
 ! R7    R(2,14)                 1.5369         estimate D2E/DX2                !
 ! R8    R(3,4)                  1.5312         estimate D2E/DX2                !
 ! R9    R(3,15)                 1.4454         estimate D2E/DX2                !
 ! R10   R(3,37)                 1.5693         estimate D2E/DX2                !
 ! R11   R(4,5)                  1.4964         estimate D2E/DX2                !
 ! R12   R(4,8)                  1.0954         estimate D2E/DX2                !
 ! R13   R(4,9)                  1.0956         estimate D2E/DX2                !
 ! R14   R(5,10)                 1.3483         estimate D2E/DX2                !
 ! R15   R(5,11)                 1.2266         estimate D2E/DX2                !
 ! R16   R(12,13)                1.5248         estimate D2E/DX2                !
 ! R17   R(12,32)                1.0968         estimate D2E/DX2                !
 ! R18   R(12,33)                1.0943         estimate D2E/DX2                !
 ! R19   R(13,34)                1.0947         estimate D2E/DX2                !
 ! R20   R(13,35)                1.0943         estimate D2E/DX2                !
 ! R21   R(13,36)                1.0946         estimate D2E/DX2                !
 ! R22   R(14,29)                1.0942         estimate D2E/DX2                !
 ! R23   R(14,30)                1.0945         estimate D2E/DX2                !
 ! R24   R(14,31)                1.0941         estimate D2E/DX2                !
 ! R25   R(15,16)                1.6712         estimate D2E/DX2                !
 ! R26   R(16,17)                1.879          estimate D2E/DX2                !
 ! R27   R(16,18)                1.8757         estimate D2E/DX2                !
 ! R28   R(16,19)                1.8924         estimate D2E/DX2                !
 ! R29   R(17,26)                1.094          estimate D2E/DX2                !
 ! R30   R(17,27)                1.0931         estimate D2E/DX2                !
 ! R31   R(17,28)                1.0942         estimate D2E/DX2                !
 ! R32   R(18,20)                1.0932         estimate D2E/DX2                !
 ! R33   R(18,21)                1.094          estimate D2E/DX2                !
 ! R34   R(18,22)                1.0943         estimate D2E/DX2                !
 ! R35   R(19,23)                1.0938         estimate D2E/DX2                !
 ! R36   R(19,24)                1.0938         estimate D2E/DX2                !
 ! R37   R(19,25)                1.0938         estimate D2E/DX2                !
 ! R38   R(37,38)                1.5088         estimate D2E/DX2                !
 ! R39   R(37,40)                1.0953         estimate D2E/DX2                !
 ! R40   R(37,41)                1.0974         estimate D2E/DX2                !
 ! R41   R(38,39)                1.339          estimate D2E/DX2                !
 ! R42   R(38,42)                1.0888         estimate D2E/DX2                !
 ! R43   R(39,43)                1.086          estimate D2E/DX2                !
 ! R44   R(39,44)                1.0861         estimate D2E/DX2                !
 ! A1    A(2,1,6)              109.7636         estimate D2E/DX2                !
 ! A2    A(2,1,10)             114.1118         estimate D2E/DX2                !
 ! A3    A(2,1,12)             112.1441         estimate D2E/DX2                !
 ! A4    A(6,1,10)             106.0063         estimate D2E/DX2                !
 ! A5    A(6,1,12)             107.6261         estimate D2E/DX2                !
 ! A6    A(10,1,12)            106.8118         estimate D2E/DX2                !
 ! A7    A(1,2,3)              110.8494         estimate D2E/DX2                !
 ! A8    A(1,2,7)              107.5072         estimate D2E/DX2                !
 ! A9    A(1,2,14)             111.4917         estimate D2E/DX2                !
 ! A10   A(3,2,7)              107.2271         estimate D2E/DX2                !
 ! A11   A(3,2,14)             113.2969         estimate D2E/DX2                !
 ! A12   A(7,2,14)             106.093          estimate D2E/DX2                !
 ! A13   A(2,3,4)              107.1072         estimate D2E/DX2                !
 ! A14   A(2,3,15)             109.5825         estimate D2E/DX2                !
 ! A15   A(2,3,37)             111.1141         estimate D2E/DX2                !
 ! A16   A(4,3,15)             114.5777         estimate D2E/DX2                !
 ! A17   A(4,3,37)             110.4628         estimate D2E/DX2                !
 ! A18   A(15,3,37)            104.0461         estimate D2E/DX2                !
 ! A19   A(3,4,5)              112.6185         estimate D2E/DX2                !
 ! A20   A(3,4,8)              111.8424         estimate D2E/DX2                !
 ! A21   A(3,4,9)              111.0668         estimate D2E/DX2                !
 ! A22   A(5,4,8)              106.0237         estimate D2E/DX2                !
 ! A23   A(5,4,9)              108.8075         estimate D2E/DX2                !
 ! A24   A(8,4,9)              106.1445         estimate D2E/DX2                !
 ! A25   A(4,5,10)             116.7251         estimate D2E/DX2                !
 ! A26   A(4,5,11)             121.9065         estimate D2E/DX2                !
 ! A27   A(10,5,11)            121.0476         estimate D2E/DX2                !
 ! A28   A(1,10,5)             124.8188         estimate D2E/DX2                !
 ! A29   A(1,12,13)            112.6352         estimate D2E/DX2                !
 ! A30   A(1,12,32)            109.5433         estimate D2E/DX2                !
 ! A31   A(1,12,33)            110.7103         estimate D2E/DX2                !
 ! A32   A(13,12,32)           108.0534         estimate D2E/DX2                !
 ! A33   A(13,12,33)           108.1607         estimate D2E/DX2                !
 ! A34   A(32,12,33)           107.5732         estimate D2E/DX2                !
 ! A35   A(12,13,34)           110.0564         estimate D2E/DX2                !
 ! A36   A(12,13,35)           111.5475         estimate D2E/DX2                !
 ! A37   A(12,13,36)           110.9216         estimate D2E/DX2                !
 ! A38   A(34,13,35)           107.7269         estimate D2E/DX2                !
 ! A39   A(34,13,36)           108.0421         estimate D2E/DX2                !
 ! A40   A(35,13,36)           108.4215         estimate D2E/DX2                !
 ! A41   A(2,14,29)            111.0807         estimate D2E/DX2                !
 ! A42   A(2,14,30)            111.6191         estimate D2E/DX2                !
 ! A43   A(2,14,31)            111.7231         estimate D2E/DX2                !
 ! A44   A(29,14,30)           107.5306         estimate D2E/DX2                !
 ! A45   A(29,14,31)           106.5637         estimate D2E/DX2                !
 ! A46   A(30,14,31)           108.0835         estimate D2E/DX2                !
 ! A47   A(3,15,16)            129.4166         estimate D2E/DX2                !
 ! A48   A(15,16,17)           111.7303         estimate D2E/DX2                !
 ! A49   A(15,16,18)           113.172          estimate D2E/DX2                !
 ! A50   A(15,16,19)           108.4851         estimate D2E/DX2                !
 ! A51   A(17,16,18)           109.0603         estimate D2E/DX2                !
 ! A52   A(17,16,19)           107.0635         estimate D2E/DX2                !
 ! A53   A(18,16,19)           107.0408         estimate D2E/DX2                !
 ! A54   A(16,17,26)           110.4942         estimate D2E/DX2                !
 ! A55   A(16,17,27)           111.3707         estimate D2E/DX2                !
 ! A56   A(16,17,28)           110.4072         estimate D2E/DX2                !
 ! A57   A(26,17,27)           108.3636         estimate D2E/DX2                !
 ! A58   A(26,17,28)           108.2196         estimate D2E/DX2                !
 ! A59   A(27,17,28)           107.88           estimate D2E/DX2                !
 ! A60   A(16,18,20)           111.3845         estimate D2E/DX2                !
 ! A61   A(16,18,21)           110.6734         estimate D2E/DX2                !
 ! A62   A(16,18,22)           110.39           estimate D2E/DX2                !
 ! A63   A(20,18,21)           108.4293         estimate D2E/DX2                !
 ! A64   A(20,18,22)           107.8307         estimate D2E/DX2                !
 ! A65   A(21,18,22)           108.0164         estimate D2E/DX2                !
 ! A66   A(16,19,23)           110.2793         estimate D2E/DX2                !
 ! A67   A(16,19,24)           110.307          estimate D2E/DX2                !
 ! A68   A(16,19,25)           110.4683         estimate D2E/DX2                !
 ! A69   A(23,19,24)           108.5457         estimate D2E/DX2                !
 ! A70   A(23,19,25)           108.5927         estimate D2E/DX2                !
 ! A71   A(24,19,25)           108.5916         estimate D2E/DX2                !
 ! A72   A(3,37,38)            114.1702         estimate D2E/DX2                !
 ! A73   A(3,37,40)            111.1764         estimate D2E/DX2                !
 ! A74   A(3,37,41)            109.3856         estimate D2E/DX2                !
 ! A75   A(38,37,40)           109.0918         estimate D2E/DX2                !
 ! A76   A(38,37,41)           106.0915         estimate D2E/DX2                !
 ! A77   A(40,37,41)           106.5317         estimate D2E/DX2                !
 ! A78   A(37,38,39)           124.2903         estimate D2E/DX2                !
 ! A79   A(37,38,42)           116.5374         estimate D2E/DX2                !
 ! A80   A(39,38,42)           119.1695         estimate D2E/DX2                !
 ! A81   A(38,39,43)           120.7058         estimate D2E/DX2                !
 ! A82   A(38,39,44)           122.0515         estimate D2E/DX2                !
 ! A83   A(43,39,44)           117.2407         estimate D2E/DX2                !
 ! D1    D(6,1,2,3)             78.1309         estimate D2E/DX2                !
 ! D2    D(6,1,2,7)           -164.9689         estimate D2E/DX2                !
 ! D3    D(6,1,2,14)           -49.0828         estimate D2E/DX2                !
 ! D4    D(10,1,2,3)           -40.6737         estimate D2E/DX2                !
 ! D5    D(10,1,2,7)            76.2266         estimate D2E/DX2                !
 ! D6    D(10,1,2,14)         -167.8874         estimate D2E/DX2                !
 ! D7    D(12,1,2,3)          -162.2916         estimate D2E/DX2                !
 ! D8    D(12,1,2,7)           -45.3914         estimate D2E/DX2                !
 ! D9    D(12,1,2,14)           70.4947         estimate D2E/DX2                !
 ! D10   D(2,1,10,5)            24.9888         estimate D2E/DX2                !
 ! D11   D(6,1,10,5)           -95.9283         estimate D2E/DX2                !
 ! D12   D(12,1,10,5)          149.5048         estimate D2E/DX2                !
 ! D13   D(2,1,12,13)         -176.8488         estimate D2E/DX2                !
 ! D14   D(2,1,12,32)           62.8658         estimate D2E/DX2                !
 ! D15   D(2,1,12,33)          -55.6055         estimate D2E/DX2                !
 ! D16   D(6,1,12,13)          -56.0283         estimate D2E/DX2                !
 ! D17   D(6,1,12,32)         -176.3137         estimate D2E/DX2                !
 ! D18   D(6,1,12,33)           65.215          estimate D2E/DX2                !
 ! D19   D(10,1,12,13)          57.4399         estimate D2E/DX2                !
 ! D20   D(10,1,12,32)         -62.8455         estimate D2E/DX2                !
 ! D21   D(10,1,12,33)         178.6832         estimate D2E/DX2                !
 ! D22   D(1,2,3,4)             56.8376         estimate D2E/DX2                !
 ! D23   D(1,2,3,15)          -178.3155         estimate D2E/DX2                !
 ! D24   D(1,2,3,37)           -63.89           estimate D2E/DX2                !
 ! D25   D(7,2,3,4)            -60.2347         estimate D2E/DX2                !
 ! D26   D(7,2,3,15)            64.6122         estimate D2E/DX2                !
 ! D27   D(7,2,3,37)           179.0377         estimate D2E/DX2                !
 ! D28   D(14,2,3,4)          -176.9462         estimate D2E/DX2                !
 ! D29   D(14,2,3,15)          -52.0993         estimate D2E/DX2                !
 ! D30   D(14,2,3,37)           62.3263         estimate D2E/DX2                !
 ! D31   D(1,2,14,29)          -65.2191         estimate D2E/DX2                !
 ! D32   D(1,2,14,30)           54.7821         estimate D2E/DX2                !
 ! D33   D(1,2,14,31)          175.9342         estimate D2E/DX2                !
 ! D34   D(3,2,14,29)          168.9065         estimate D2E/DX2                !
 ! D35   D(3,2,14,30)          -71.0923         estimate D2E/DX2                !
 ! D36   D(3,2,14,31)           50.0598         estimate D2E/DX2                !
 ! D37   D(7,2,14,29)           51.5302         estimate D2E/DX2                !
 ! D38   D(7,2,14,30)          171.5315         estimate D2E/DX2                !
 ! D39   D(7,2,14,31)          -67.3164         estimate D2E/DX2                !
 ! D40   D(2,3,4,5)            -57.4654         estimate D2E/DX2                !
 ! D41   D(2,3,4,8)             61.8202         estimate D2E/DX2                !
 ! D42   D(2,3,4,9)           -179.7929         estimate D2E/DX2                !
 ! D43   D(15,3,4,5)          -179.2269         estimate D2E/DX2                !
 ! D44   D(15,3,4,8)           -59.9412         estimate D2E/DX2                !
 ! D45   D(15,3,4,9)            58.4457         estimate D2E/DX2                !
 ! D46   D(37,3,4,5)            63.6747         estimate D2E/DX2                !
 ! D47   D(37,3,4,8)          -177.0397         estimate D2E/DX2                !
 ! D48   D(37,3,4,9)           -58.6528         estimate D2E/DX2                !
 ! D49   D(2,3,15,16)          -84.241          estimate D2E/DX2                !
 ! D50   D(4,3,15,16)           36.1586         estimate D2E/DX2                !
 ! D51   D(37,3,15,16)         156.8693         estimate D2E/DX2                !
 ! D52   D(2,3,37,38)          177.0283         estimate D2E/DX2                !
 ! D53   D(2,3,37,40)           53.0873         estimate D2E/DX2                !
 ! D54   D(2,3,37,41)          -64.2874         estimate D2E/DX2                !
 ! D55   D(4,3,37,38)           58.2998         estimate D2E/DX2                !
 ! D56   D(4,3,37,40)          -65.6411         estimate D2E/DX2                !
 ! D57   D(4,3,37,41)          176.9842         estimate D2E/DX2                !
 ! D58   D(15,3,37,38)         -65.1342         estimate D2E/DX2                !
 ! D59   D(15,3,37,40)         170.9248         estimate D2E/DX2                !
 ! D60   D(15,3,37,41)          53.5501         estimate D2E/DX2                !
 ! D61   D(3,4,5,10)            41.8357         estimate D2E/DX2                !
 ! D62   D(3,4,5,11)          -144.6069         estimate D2E/DX2                !
 ! D63   D(8,4,5,10)           -80.7801         estimate D2E/DX2                !
 ! D64   D(8,4,5,11)            92.7773         estimate D2E/DX2                !
 ! D65   D(9,4,5,10)           165.4272         estimate D2E/DX2                !
 ! D66   D(9,4,5,11)           -21.0155         estimate D2E/DX2                !
 ! D67   D(4,5,10,1)           -25.1428         estimate D2E/DX2                !
 ! D68   D(11,5,10,1)          161.2407         estimate D2E/DX2                !
 ! D69   D(1,12,13,34)         177.6353         estimate D2E/DX2                !
 ! D70   D(1,12,13,35)         -62.8496         estimate D2E/DX2                !
 ! D71   D(1,12,13,36)          58.1268         estimate D2E/DX2                !
 ! D72   D(32,12,13,34)        -61.2255         estimate D2E/DX2                !
 ! D73   D(32,12,13,35)         58.2896         estimate D2E/DX2                !
 ! D74   D(32,12,13,36)        179.2661         estimate D2E/DX2                !
 ! D75   D(33,12,13,34)         54.9502         estimate D2E/DX2                !
 ! D76   D(33,12,13,35)        174.4653         estimate D2E/DX2                !
 ! D77   D(33,12,13,36)        -64.5583         estimate D2E/DX2                !
 ! D78   D(3,15,16,17)         -73.087          estimate D2E/DX2                !
 ! D79   D(3,15,16,18)          50.4852         estimate D2E/DX2                !
 ! D80   D(3,15,16,19)         169.1184         estimate D2E/DX2                !
 ! D81   D(15,16,17,26)        -50.3815         estimate D2E/DX2                !
 ! D82   D(15,16,17,27)         70.111          estimate D2E/DX2                !
 ! D83   D(15,16,17,28)       -170.0641         estimate D2E/DX2                !
 ! D84   D(18,16,17,26)       -176.246          estimate D2E/DX2                !
 ! D85   D(18,16,17,27)        -55.7535         estimate D2E/DX2                !
 ! D86   D(18,16,17,28)         64.0714         estimate D2E/DX2                !
 ! D87   D(19,16,17,26)         68.2624         estimate D2E/DX2                !
 ! D88   D(19,16,17,27)       -171.2451         estimate D2E/DX2                !
 ! D89   D(19,16,17,28)        -51.4202         estimate D2E/DX2                !
 ! D90   D(15,16,18,20)        -65.707          estimate D2E/DX2                !
 ! D91   D(15,16,18,21)         54.999          estimate D2E/DX2                !
 ! D92   D(15,16,18,22)        174.5324         estimate D2E/DX2                !
 ! D93   D(17,16,18,20)         59.3206         estimate D2E/DX2                !
 ! D94   D(17,16,18,21)       -179.9733         estimate D2E/DX2                !
 ! D95   D(17,16,18,22)        -60.44           estimate D2E/DX2                !
 ! D96   D(19,16,18,20)        174.8268         estimate D2E/DX2                !
 ! D97   D(19,16,18,21)        -64.4672         estimate D2E/DX2                !
 ! D98   D(19,16,18,22)         55.0661         estimate D2E/DX2                !
 ! D99   D(15,16,19,23)        -60.4316         estimate D2E/DX2                !
 ! D100  D(15,16,19,24)         59.455          estimate D2E/DX2                !
 ! D101  D(15,16,19,25)        179.52           estimate D2E/DX2                !
 ! D102  D(17,16,19,23)        178.8401         estimate D2E/DX2                !
 ! D103  D(17,16,19,24)        -61.2733         estimate D2E/DX2                !
 ! D104  D(17,16,19,25)         58.7917         estimate D2E/DX2                !
 ! D105  D(18,16,19,23)         62.0086         estimate D2E/DX2                !
 ! D106  D(18,16,19,24)       -178.1048         estimate D2E/DX2                !
 ! D107  D(18,16,19,25)        -58.0398         estimate D2E/DX2                !
 ! D108  D(3,37,38,39)        -116.954          estimate D2E/DX2                !
 ! D109  D(3,37,38,42)          63.6592         estimate D2E/DX2                !
 ! D110  D(40,37,38,39)          8.0992         estimate D2E/DX2                !
 ! D111  D(40,37,38,42)       -171.2875         estimate D2E/DX2                !
 ! D112  D(41,37,38,39)        122.5073         estimate D2E/DX2                !
 ! D113  D(41,37,38,42)        -56.8794         estimate D2E/DX2                !
 ! D114  D(37,38,39,43)       -179.7877         estimate D2E/DX2                !
 ! D115  D(37,38,39,44)          0.7339         estimate D2E/DX2                !
 ! D116  D(42,38,39,43)         -0.4161         estimate D2E/DX2                !
 ! D117  D(42,38,39,44)       -179.8945         estimate D2E/DX2                !
 --------------------------------------------------------------------------------
 Trust Radius=3.00D-01 FncErr=1.00D-07 GrdErr=1.00D-06
 Number of steps in this run=     25 maximum allowed number of steps=    264.
 GradGradGradGradGradGradGradGradGradGradGradGradGradGradGradGradGradGrad

                          Input orientation:                          
 ---------------------------------------------------------------------
 Center     Atomic      Atomic             Coordinates (Angstroms)
 Number     Number       Type             X           Y           Z
 ---------------------------------------------------------------------
      1          6           0        0.826286   -0.403664    0.374184
      2          6           0       -0.707454   -0.454926    0.510015
      3          6           0       -1.207755    0.600334    1.537013
      4          6           0       -0.705156    1.966013    1.060666
      5          6           0        0.783664    2.013653    0.918193
      6          1           0        1.291366   -0.914479    1.226173
      7          1           0       -1.134246   -0.187514   -0.464716
      8          1           0       -1.111515    2.229836    0.078237
      9          1           0       -1.020200    2.761999    1.744408
     10          8           0        1.374549    0.935802    0.364177
     11          8           0        1.427674    3.025022    1.177013
     12          6           0        1.318916   -1.096344   -0.910562
     13          6           0        2.839680   -1.119591   -1.018532
     14          6           0       -1.198530   -1.879218    0.813825
     15          8           0       -2.643453    0.501867    1.672400
     16         14           0       -3.846960    1.186349    0.736521
     17          6           0       -3.995181    3.035181    1.037098
     18          6           0       -3.617615    0.880765   -1.099888
     19          6           0       -5.502010    0.409821    1.225500
     20          1           0       -2.722102    1.380730   -1.478406
     21          1           0       -3.528678   -0.190128   -1.305077
     22          1           0       -4.476614    1.262523   -1.660117
     23          1           0       -5.480504   -0.669793    1.051046
     24          1           0       -5.706029    0.586966    2.285411
     25          1           0       -6.316144    0.842090    0.636665
     26          1           0       -4.063272    3.244771    2.108655
     27          1           0       -3.133697    3.574468    0.634777
     28          1           0       -4.894082    3.429479    0.553582
     29          1           0       -0.995097   -2.552792   -0.024157
     30          1           0       -0.706250   -2.295412    1.698365
     31          1           0       -2.279282   -1.907748    0.981659
     32          1           0        0.923972   -0.567944   -1.786840
     33          1           0        0.957915   -2.128305   -0.956598
     34          1           0        3.143694   -1.656541   -1.922801
     35          1           0        3.254006   -0.108395   -1.076302
     36          1           0        3.284982   -1.627156   -0.157017
     37          6           0       -0.667139    0.288472    2.976848
     38          6           0       -1.053590    1.311111    4.016783
     39          6           0       -0.179658    2.071259    4.688535
     40          1           0        0.422123    0.174118    2.974314
     41          1           0       -1.080701   -0.667652    3.322051
     42          1           0       -2.117181    1.414392    4.225806
     43          1           0       -0.522558    2.788204    5.428744
     44          1           0        0.890846    2.007960    4.516332
 ---------------------------------------------------------------------
                    Distance matrix (angstroms):
                    1          2          3          4          5
     1  C    0.000000
     2  C    1.540596   0.000000
     3  C    2.549021   1.555185   0.000000
     4  C    2.903781   2.482774   1.531206   0.000000
     5  C    2.478141   2.912718   2.519158   1.496380   0.000000
     6  H    1.096867   2.172407   2.938858   3.508665   2.987737
     7  H    2.143399   1.097160   2.152447   2.673684   3.230472
     8  H    3.282983   2.749117   2.189193   1.095398   2.084218
     9  H    3.912601   3.459789   2.179675   1.095605   2.120514
    10  O    1.447364   2.508013   2.855937   2.423139   1.348274
    11  O    3.572407   4.136870   3.599194   2.384114   1.226623
    12  C    1.540475   2.556488   3.905561   4.166610   3.647317
    13  C    2.550679   3.919234   5.086323   5.139054   4.218450
    14  C    2.543703   1.536901   2.582879   3.884604   4.369717
    15  O    3.813717   2.452485   1.445425   2.504982   3.820923
    16  Si   4.949612   3.549871   2.819504   3.253287   4.707453
    17  C    5.959166   4.823672   3.734721   3.459471   4.888253
    18  C    4.854987   3.583978   3.583199   3.785257   4.972660
    19  C    6.436911   4.924172   4.309752   5.045663   6.494337
    20  H    4.382603   3.373760   3.463382   3.295074   4.293562
    21  H    4.672390   3.365112   3.753530   4.268250   5.328778
    22  H    5.919063   4.676074   4.620127   4.703345   5.906133
    23  H    6.348588   4.808419   4.483946   5.454495   6.816035
    24  H    6.877883   5.405860   4.560126   5.330150   6.783866
    25  H    7.255006   5.758098   5.192756   5.738133   7.201326
    26  H    6.342495   5.244514   3.933675   3.743053   5.140588
    27  H    5.619155   4.705129   3.656331   2.943861   4.226368
    28  H    6.888235   5.711248   4.749758   4.466091   5.862960
    29  H    2.845147   2.183831   3.524866   4.656233   4.990434
    30  H    2.771431   2.190791   2.943278   4.308875   4.625641
    31  H    3.503691   2.191753   2.783355   4.182121   4.976249
    32  H    2.169460   2.819551   4.117904   4.145273   3.741862
    33  H    2.182360   2.779317   4.284121   4.857839   4.549837
    34  H    3.495171   4.711031   5.999909   6.069400   5.206852
    35  H    2.843399   4.281314   5.219102   4.954267   3.818859
    36  H    2.797194   4.214095   5.293027   5.505889   4.546225
    37  C    3.079485   2.576729   1.569283   2.547026   3.052727
    38  C    4.443300   3.941588   2.584227   3.047775   3.670194
    39  C    5.074524   4.911233   3.626664   3.667241   3.891887
    40  H    2.694041   2.782878   2.214497   2.853716   2.782487
    41  H    3.520825   2.844664   2.193238   3.491574   4.055094
    42  H    5.177289   4.391900   2.952855   3.509446   4.440081
    43  H    6.128293   5.894572   4.516840   4.448533   4.759329
    44  H    4.793484   4.966986   3.906645   3.806653   3.599740
                    6          7          8          9         10
     6  H    0.000000
     7  H    3.044861   0.000000
     8  H    4.120475   2.477679   0.000000
     9  H    4.373602   3.686850   1.751474   0.000000
    10  O    2.042914   2.871055   2.817233   3.312832   0.000000
    11  O    3.942165   4.424827   2.878734   2.526501   2.242402
    12  C    2.144638   2.653819   4.236531   5.235183   2.399515
    13  C    2.734602   4.119171   5.294668   6.131823   2.878043
    14  C    2.701913   2.121476   4.175283   4.736949   3.840216
    15  O    4.205705   2.705590   2.806077   2.783583   4.247833
    16  Si   5.572758   3.269448   3.000810   3.389555   5.240760
    17  C    6.601753   4.563568   3.143807   3.070086   5.804672
    18  C    5.721150   2.777010   3.080342   4.286680   5.202712
    19  C    6.921252   4.721335   4.889286   5.088087   6.950223
    20  H    5.356366   2.451172   2.395435   3.897551   4.513936
    21  H    5.492243   2.537621   3.689507   4.930200   5.300544
    22  H    6.807320   3.834451   3.909151   5.077993   6.200050
    23  H    6.778552   4.628184   5.333130   5.670296   7.074000
    24  H    7.234629   5.391124   5.355390   5.194271   7.344890
    25  H    7.829895   5.396776   5.415334   5.741095   7.696089
    26  H    6.837418   5.194421   3.723649   3.102585   6.159906
    27  H    6.331001   4.399909   2.491384   2.521558   5.230685
    28  H    7.588288   5.315631   3.996612   4.107378   6.749077
    29  H    3.078199   2.409978   4.785140   5.601380   4.235129
    30  H    2.473946   3.050465   4.823580   5.067355   4.068234
    31  H    3.714283   2.522363   4.393114   4.896285   4.670925
    32  H    3.055047   2.475682   3.930559   5.228579   2.662921
    33  H    2.519733   2.895817   4.934249   5.926504   3.362556
    34  H    3.727977   4.752349   6.100400   7.092949   3.883347
    35  H    3.130993   4.431371   5.085082   5.870639   2.587989
    36  H    2.528958   4.657985   5.853283   6.435425   3.238850
    37  C    2.889238   3.505583   3.516861   2.786018   3.378398
    38  C    4.270781   4.726121   4.044695   2.696271   4.402073
    39  C    4.802759   5.706951   4.706204   3.138713   4.733381
    40  H    2.235313   3.792096   3.868499   3.207817   2.880988
    41  H    3.174954   3.817460   4.349565   3.775596   4.165133
    42  H    5.102904   5.053045   4.344956   3.029315   5.228136
    43  H    5.887426   6.630379   5.411707   3.717885   5.716664
    44  H    4.418847   5.807921   4.873948   3.450251   4.315540
                   11         12         13         14         15
    11  O    0.000000
    12  C    4.621196   0.000000
    13  C    4.898162   1.524769   0.000000
    14  C    5.574982   3.150228   4.499078   0.000000
    15  O    4.815163   4.992628   6.319414   2.914536   0.000000
    16  Si   5.603259   5.883013   7.287573   4.051896   1.671172
    17  C    5.424669   7.007318   8.258515   5.658836   2.940826
    18  C    5.936081   5.321104   6.760525   4.139055   2.962792
    19  C    7.406899   7.304541   8.772604   4.891740   2.894744
    20  H    5.193803   4.773696   6.115268   4.266480   3.272028
    21  H    6.408072   4.947326   6.442204   3.573844   3.182428
    22  H    6.783533   6.301925   7.721027   5.170760   3.878756
    23  H    7.835206   7.089567   8.585507   4.455815   3.131729
    24  H    7.619868   7.899217   9.319738   5.344640   3.124483
    25  H    8.063739   8.027800   9.508784   5.798869   3.831078
    26  H    5.573754   7.545124   8.745153   6.011538   3.119251
    27  H    4.626231   6.635535   7.774886   5.789613   3.279920
    28  H    6.365285   7.824841   9.109152   6.473569   3.858497
    29  H    6.198761   2.874302   4.212880   1.094212   3.863460
    30  H    5.756080   3.513625   4.619275   1.094517   3.402675
    31  H    6.173484   4.145589   5.552092   1.094078   2.532980
    32  H    4.684821   1.096837   2.136480   3.603875   5.083046
    33  H    5.597298   1.094251   2.135973   2.801196   5.176803
    34  H    5.871167   2.160616   1.094734   5.137472   7.146696
    35  H    4.269803   2.179010   1.094313   5.151065   6.535121
    36  H    5.183820   2.171407   1.094589   4.594339   6.559409
    37  C    3.887975   4.579747   5.499407   3.108042   2.377591
    38  C    4.142277   5.975228   6.813242   4.523068   2.945959
    39  C    3.977935   6.605249   7.201982   5.626522   4.198851
    40  H    3.516970   4.184564   4.843664   3.392701   3.346663
    41  H    4.952673   4.884358   5.866370   2.788005   2.555644
    42  H    4.945226   6.670295   7.648178   4.830466   2.762163
    43  H    4.683664   7.659474   8.254870   6.598427   4.882177
    44  H    3.531806   6.266668   6.649380   5.760573   4.779909
                   16         17         18         19         20
    16  Si   0.000000
    17  C    1.878961   0.000000
    18  C    1.875734   3.057903   0.000000
    19  C    1.892429   3.032910   3.029878   0.000000
    20  H    2.491785   3.268899   1.093245   3.997707   0.000000
    21  H    2.482764   4.013231   1.093995   3.264628   1.774318
    22  H    2.479141   3.263290   1.094292   3.178887   1.767853
    23  H    2.492520   3.991643   3.240540   1.093830   4.267500
    24  H    2.492881   3.237135   3.988488   1.093808   4.868285
    25  H    2.495066   3.218208   3.209232   1.093799   4.204854
    26  H    2.483273   1.093983   4.010222   3.299526   4.259154
    27  H    2.494435   1.093091   3.240258   3.996605   3.073669
    28  H    2.482250   1.094204   3.295341   3.152679   3.611626
    29  H    4.763710   6.430568   4.452428   5.536333   4.535414
    30  H    4.786634   6.298378   5.137545   5.526409   5.260186
    31  H    3.477232   5.232583   3.728241   3.977004   4.130629
    32  H    5.675094   6.719762   4.816292   7.164039   4.145638
    33  H    6.077862   7.427622   5.478185   7.275594   5.111569
    34  H    8.001454   9.040840   7.268453   9.430262   6.620428
    35  H    7.442204   8.179196   6.942490   9.068333   6.171957
    36  H    7.718732   8.727203   7.404358   9.125341   6.846788
    37  C    3.992056   4.731057   5.067139   5.143727   5.026449
    38  C    4.310290   4.528123   5.739316   5.328417   5.743334
    39  C    5.463569   5.368459   6.836861   6.563568   6.706118
    40  H    4.925180   5.608125   5.780827   6.181364   5.582901
    41  H    4.215978   5.237001   5.327952   5.010434   5.471239
    42  H    3.901186   4.040012   5.558694   4.633364   5.736296
    43  H    5.969468   5.604165   7.472666   6.936779   7.384287
    44  H    6.116275   6.085517   7.289631   7.365611   7.027353
                   21         22         23         24         25
    21  H    0.000000
    22  H    1.770545   0.000000
    23  H    3.096937   3.477362   0.000000
    24  H    4.270402   4.187485   1.775940   0.000000
    25  H    3.550465   2.972514   1.776456   1.776427   0.000000
    26  H    4.872154   4.278294   4.295450   3.129508   3.607640
    27  H    4.253378   3.523500   4.867703   4.273950   4.194504
    28  H    4.291911   3.125770   4.170778   3.426130   2.953599
    29  H    3.693504   5.417929   4.982030   6.114333   6.346294
    30  H    4.628065   6.176888   5.084797   5.800906   6.514755
    31  H    3.120957   4.675240   3.432953   4.434632   4.896620
    32  H    4.494545   5.703770   7.005804   7.866000   7.764074
    33  H    4.899743   6.444126   6.900082   7.892494   8.017086
    34  H    6.859482   8.164498   9.175741  10.052859  10.113484
    35  H    6.787033   7.872912   9.007355   9.595148   9.768595
    36  H    7.057553   8.417359   8.899983   9.576329   9.945287
    37  C    5.172267   6.079664   5.272141   5.094860   6.139561
    38  C    6.058215   6.629227   5.684817   5.016694   6.272133
    39  C    7.228637   7.708649   6.988824   6.206360   7.455533
    40  H    5.835640   6.830827   6.265154   6.180556   7.163451
    41  H    5.256513   6.330861   4.951337   4.903300   6.074577
    42  H    5.929374   6.343034   5.072955   4.162883   5.553445
    43  H    7.953085   8.259190   7.463458   6.449369   7.766403
    44  H    7.632338   8.216680   7.731279   7.107390   8.267513
                   26         27         28         29         30
    26  H    0.000000
    27  H    1.773450   0.000000
    28  H    1.772742   1.768211   0.000000
    29  H    6.897414   6.523122   7.164037   0.000000
    30  H    6.490883   6.440436   7.184904   1.765435   0.000000
    31  H    5.567871   5.559231   5.958726   1.754103   1.771547
    32  H    7.388117   6.283986   7.436849   3.275591   4.217632
    33  H    7.967311   7.196901   8.210693   2.205423   3.137865
    34  H    9.602909   8.562143   9.828831   4.640873   5.323821
    35  H    8.656225   7.569281   9.031302   5.013678   5.307113
    36  H    9.103064   8.299595   9.642178   4.381042   4.451847
    37  C    4.585541   4.729374   5.796998   4.145645   2.883142
    38  C    4.054402   4.570295   5.588437   5.591276   4.301478
    39  C    4.807845   5.236310   6.416260   6.652537   5.318480
    40  H    5.504275   5.447905   6.687253   4.293644   2.999975
    41  H    5.067062   5.425110   6.244420   3.841639   2.329415
    42  H    3.408795   4.312160   5.025633   5.921132   4.705457
    43  H    4.875254   5.515286   6.579412   7.647461   6.308139
    44  H    5.645343   5.806665   7.154683   6.706212   5.386155
                   31         32         33         34         35
    31  H    0.000000
    32  H    4.440777   0.000000
    33  H    3.779541   1.767818   0.000000
    34  H    6.156920   2.476024   2.435927   0.000000
    35  H    6.171722   2.478933   3.060457   1.767904   0.000000
    36  H    5.686506   3.058206   2.511119   1.771671   1.775579
    37  C    3.376857   5.094880   4.894242   6.504774   5.653398
    38  C    4.590790   6.412772   6.372617   7.855114   6.819816
    39  C    5.829395   7.079115   7.127267   8.285585   7.055089
    40  H    3.949991   4.844698   4.586970   5.894065   4.950441
    41  H    2.907210   5.489027   4.959466   6.806753   6.200642
    42  H    4.646222   7.023545   6.990295   8.655218   7.699408
    43  H    6.701836   8.088314   8.193684   9.340363   8.060294
    44  H    6.154380   6.809285   6.860477   7.743793   6.429700
                   36         37         38         39         40
    36  H    0.000000
    37  C    5.395368   0.000000
    38  C    6.699047   1.508841   0.000000
    39  C    7.011518   2.519095   1.338967   0.000000
    40  H    4.609315   1.095251   2.134765   2.626754   0.000000
    41  H    5.664252   1.097439   2.097353   3.190735   1.757264
    42  H    7.592333   2.220408   1.088845   2.097519   3.090724
    43  H    8.074249   3.504477   2.111263   1.086048   3.708112
    44  H    6.386403   2.784595   2.125083   1.086112   2.441413
                   41         42         43         44
    41  H    0.000000
    42  H    2.495190   0.000000
    43  H    4.085660   2.424302   0.000000
    44  H    3.531601   3.079765   1.854451   0.000000
 Stoichiometry    C14H26O3Si
 Framework group  C1[X(C14H26O3Si)]
 Deg. of freedom   126
 Full point group                 C1      NOp   1
 Largest Abelian subgroup         C1      NOp   1
 Largest concise Abelian subgroup C1      NOp   1
                         Standard orientation:                         
 ---------------------------------------------------------------------
 Center     Atomic      Atomic             Coordinates (Angstroms)
 Number     Number       Type             X           Y           Z
 ---------------------------------------------------------------------
      1          6           0       -2.253644   -0.643447   -0.320382
      2          6           0       -0.771885   -0.973152   -0.583294
      3          6           0        0.116870    0.290106   -0.401928
      4          6           0       -0.126393    0.812065    1.016865
      5          6           0       -1.566949    1.122584    1.276731
      6          1           0       -2.681179   -0.135553   -1.193523
      7          1           0       -0.457028   -1.703236    0.172750
      8          1           0        0.166791    0.079360    1.776525
      9          1           0        0.469584    1.710070    1.213708
     10          8           0       -2.471919    0.242460    0.803178
     11          8           0       -1.909747    2.061973    1.987112
     12          6           0       -3.092650   -1.908807   -0.059620
     13          6           0       -4.574697   -1.602267    0.126094
     14          6           0       -0.580919   -1.660355   -1.944671
     15          8           0        1.493569   -0.040239   -0.693176
     16         14           0        2.656362   -0.713416    0.300584
     17          6           0        3.273978    0.515795    1.580462
     18          6           0        2.070877   -2.266108    1.175074
     19          6           0        4.143668   -1.202883   -0.762256
     20          1           0        1.266272   -2.046238    1.881794
     21          1           0        1.705188   -3.001707    0.452586
     22          1           0        2.893444   -2.721549    1.734925
     23          1           0        3.845607   -1.937130   -1.516247
     24          1           0        4.550524   -0.325343   -1.272950
     25          1           0        4.930259   -1.640666   -0.140953
     26          1           0        3.559760    1.456747    1.101153
     27          1           0        2.507290    0.729871    2.329601
     28          1           0        4.150047    0.117027    2.100816
     29          1           0       -1.066273   -2.640879   -1.962113
     30          1           0       -1.007471   -1.066812   -2.759367
     31          1           0        0.476536   -1.831770   -2.166961
     32          1           0       -2.732254   -2.407317    0.848484
     33          1           0       -2.992028   -2.617241   -0.887497
     34          1           0       -5.135647   -2.531841    0.266342
     35          1           0       -4.747951   -0.972819    1.004330
     36          1           0       -4.980973   -1.090332   -0.751964
     37          6           0       -0.242819    1.391107   -1.460734
     38          6           0        0.531225    2.676586   -1.302624
     39          6           0       -0.023959    3.861300   -1.017916
     40          1           0       -1.314914    1.614887   -1.450237
     41          1           0       -0.011432    1.018477   -2.466706
     42          1           0        1.609276    2.615706   -1.442920
     43          1           0        0.589554    4.752131   -0.920335
     44          1           0       -1.093496    3.975278   -0.867121
 ---------------------------------------------------------------------
 Rotational constants (GHZ):      0.4775560      0.2801512      0.2314652
 Standard basis: 6-31G(d,p) (6D, 7F)
 There are   404 symmetry adapted cartesian basis functions of A   symmetry.
 There are   404 symmetry adapted basis functions of A   symmetry.
   404 basis functions,   710 primitive gaussians,   404 cartesian basis functions
    74 alpha electrons       74 beta electrons
       nuclear repulsion energy      1630.6646700071 Hartrees.
 NAtoms=   44 NActive=   44 NUniq=   44 SFac= 1.00D+00 NAtFMM=   60 NAOKFM=F Big=F
 Integral buffers will be    131072 words long.
 Raffenetti 2 integral format.
 Two-electron integral symmetry is turned on.
 ------------------------------------------------------------------------------
 Polarizable Continuum Model (PCM)
 =================================
 Model                : PCM (using non-symmetric T matrix).
 Atomic radii         : UFF (Universal Force Field).
 Polarization charges : Total charges.
 Charge compensation  : None.
 Solution method      : On-the-fly selection.
 Cavity type          : Scaled VdW (van der Waals Surface) (Alpha=1.100).
 Cavity algorithm     : GePol (No added spheres)
                        Default sphere list used, NSphG=   44.
                        Lebedev-Laikov grids with approx.  5.0 points / Ang**2.
                        Smoothing algorithm: Karplus/York (Gamma=1.0000).
                        Polarization charges: spherical gaussians, with
                                              point-specific exponents (IZeta= 3).
                        Self-potential: point-specific (ISelfS= 7).
                        Self-field    : sphere-specific E.n sum rule (ISelfD= 2).
 1st derivatives      : Analytical E(r).r(x)/FMM algorithm (CHGder, D1EAlg=3).
                        Cavity 1st derivative terms included.
 Solvent              : Chloroform, Eps=   4.711300 Eps(inf)=   2.090627
 ------------------------------------------------------------------------------
 One-electron integrals computed using PRISM.
 NBasis=   404 RedAO= T EigKep=  1.92D-03  NBF=   404
 NBsUse=   404 1.00D-06 EigRej= -1.00D+00 NBFU=   404
 ExpMin= 7.78D-02 ExpMax= 1.61D+04 ExpMxC= 2.43D+03 IAcc=2 IRadAn=         4 AccDes= 0.00D+00
 Harris functional with IExCor=  402 and IRadAn=       4 diagonalized for initial guess.
 HarFok:  IExCor=  402 AccDes= 0.00D+00 IRadAn=         4 IDoV= 1 UseB2=F ITyADJ=14
 ICtDFT=  3500011 ScaDFX=  1.000000  1.000000  1.000000  1.000000
 FoFCou: FMM=F IPFlag=           0 FMFlag=      100000 FMFlg1=           0
         NFxFlg=           0 DoJE=T BraDBF=F KetDBF=T FulRan=T
         wScrn=  0.000000 ICntrl=     500 IOpCl=  0 I1Cent=   200000004 NGrid=           0
         NMat0=    1 NMatS0=      1 NMatT0=    0 NMatD0=    1 NMtDS0=    0 NMtDT0=    0
 Petite list used in FoFCou.
 Requested convergence on RMS density matrix=1.00D-08 within 128 cycles.
 Requested convergence on MAX density matrix=1.00D-06.
 Requested convergence on             energy=1.00D-06.
 No special actions if energy rises.
 Inv3:  Mode=1 IEnd=    25491675.
 Iteration    1 A*A^-1 deviation from unit magnitude is 5.33D-15 for   2911.
 Iteration    1 A*A^-1 deviation from orthogonality  is 4.88D-15 for   2892   1639.
 Iteration    1 A^-1*A deviation from unit magnitude is 5.55D-15 for   2911.
 Iteration    1 A^-1*A deviation from orthogonality  is 8.05D-13 for   2483   2465.
 Error on total polarization charges =  0.00937
 SCF Done:  E(RB3LYP) =  -1064.41807588     A.U. after   13 cycles
            NFock= 13  Conv=0.58D-08     -V/T= 2.0081

 **********************************************************************

            Population analysis using the SCF density.

 **********************************************************************

 Orbital symmetries:
       Occupied  (A) (A) (A) (A) (A) (A) (A) (A) (A) (A) (A) (A)
                 (A) (A) (A) (A) (A) (A) (A) (A) (A) (A) (A) (A)
                 (A) (A) (A) (A) (A) (A) (A) (A) (A) (A) (A) (A)
                 (A) (A) (A) (A) (A) (A) (A) (A) (A) (A) (A) (A)
                 (A) (A) (A) (A) (A) (A) (A) (A) (A) (A) (A) (A)
                 (A) (A) (A) (A) (A) (A) (A) (A) (A) (A) (A) (A)
                 (A) (A)
       Virtual   (A) (A) (A) (A) (A) (A) (A) (A) (A) (A) (A) (A)
                 (A) (A) (A) (A) (A) (A) (A) (A) (A) (A) (A) (A)
                 (A) (A) (A) (A) (A) (A) (A) (A) (A) (A) (A) (A)
                 (A) (A) (A) (A) (A) (A) (A) (A) (A) (A) (A) (A)
                 (A) (A) (A) (A) (A) (A) (A) (A) (A) (A) (A) (A)
                 (A) (A) (A) (A) (A) (A) (A) (A) (A) (A) (A) (A)
                 (A) (A) (A) (A) (A) (A) (A) (A) (A) (A) (A) (A)
                 (A) (A) (A) (A) (A) (A) (A) (A) (A) (A) (A) (A)
                 (A) (A) (A) (A) (A) (A) (A) (A) (A) (A) (A) (A)
                 (A) (A) (A) (A) (A) (A) (A) (A) (A) (A) (A) (A)
                 (A) (A) (A) (A) (A) (A) (A) (A) (A) (A) (A) (A)
                 (A) (A) (A) (A) (A) (A) (A) (A) (A) (A) (A) (A)
                 (A) (A) (A) (A) (A) (A) (A) (A) (A) (A) (A) (A)
                 (A) (A) (A) (A) (A) (A) (A) (A) (A) (A) (A) (A)
                 (A) (A) (A) (A) (A) (A) (A) (A) (A) (A) (A) (A)
                 (A) (A) (A) (A) (A) (A) (A) (A) (A) (A) (A) (A)
                 (A) (A) (A) (A) (A) (A) (A) (A) (A) (A) (A) (A)
                 (A) (A) (A) (A) (A) (A) (A) (A) (A) (A) (A) (A)
                 (A) (A) (A) (A) (A) (A) (A) (A) (A) (A) (A) (A)
                 (A) (A) (A) (A) (A) (A) (A) (A) (A) (A) (A) (A)
                 (A) (A) (A) (A) (A) (A) (A) (A) (A) (A) (A) (A)
                 (A) (A) (A) (A) (A) (A) (A) (A) (A) (A) (A) (A)
                 (A) (A) (A) (A) (A) (A) (A) (A) (A) (A) (A) (A)
                 (A) (A) (A) (A) (A) (A) (A) (A) (A) (A) (A) (A)
                 (A) (A) (A) (A) (A) (A) (A) (A) (A) (A) (A) (A)
                 (A) (A) (A) (A) (A) (A) (A) (A) (A) (A) (A) (A)
                 (A) (A) (A) (A) (A) (A) (A) (A) (A) (A) (A) (A)
                 (A) (A) (A) (A) (A) (A)
 The electronic state is 1-A.
 Alpha  occ. eigenvalues --  -66.13968 -19.19333 -19.14446 -19.13551 -10.32372
 Alpha  occ. eigenvalues --  -10.26642 -10.25750 -10.20223 -10.20066 -10.19200
 Alpha  occ. eigenvalues --  -10.19046 -10.18968 -10.18120 -10.17860 -10.17412
 Alpha  occ. eigenvalues --  -10.16032 -10.15809 -10.15656  -5.28132  -3.64189
 Alpha  occ. eigenvalues --   -3.63956  -3.63919  -1.09917  -1.01466  -1.00729
 Alpha  occ. eigenvalues --   -0.83075  -0.80609  -0.77650  -0.75283  -0.71504
 Alpha  occ. eigenvalues --   -0.69872  -0.69423  -0.67804  -0.67400  -0.64013
 Alpha  occ. eigenvalues --   -0.61685  -0.59444  -0.56397  -0.54188  -0.51517
 Alpha  occ. eigenvalues --   -0.50528  -0.47995  -0.47187  -0.46480  -0.45632
 Alpha  occ. eigenvalues --   -0.44408  -0.43448  -0.42939  -0.42337  -0.41529
 Alpha  occ. eigenvalues --   -0.40886  -0.40647  -0.40272  -0.39826  -0.39521
 Alpha  occ. eigenvalues --   -0.39060  -0.38697  -0.37967  -0.37899  -0.37003
 Alpha  occ. eigenvalues --   -0.36483  -0.36217  -0.35172  -0.34899  -0.34524
 Alpha  occ. eigenvalues --   -0.34115  -0.32478  -0.31773  -0.30607  -0.29522
 Alpha  occ. eigenvalues --   -0.28557  -0.27144  -0.26536  -0.25387
 Alpha virt. eigenvalues --   -0.00267   0.01609   0.06614   0.07044   0.08797
 Alpha virt. eigenvalues --    0.09593   0.09736   0.10832   0.10990   0.11448
 Alpha virt. eigenvalues --    0.12417   0.12783   0.13304   0.13575   0.13960
 Alpha virt. eigenvalues --    0.14393   0.15034   0.15757   0.16740   0.16895
 Alpha virt. eigenvalues --    0.16983   0.17436   0.18346   0.18807   0.18988
 Alpha virt. eigenvalues --    0.19501   0.19810   0.20302   0.20632   0.20969
 Alpha virt. eigenvalues --    0.21455   0.22012   0.22401   0.23036   0.23787
 Alpha virt. eigenvalues --    0.24508   0.25614   0.25986   0.27633   0.28423
 Alpha virt. eigenvalues --    0.29249   0.30200   0.31635   0.35594   0.36301
 Alpha virt. eigenvalues --    0.37699   0.38713   0.39177   0.40600   0.44643
 Alpha virt. eigenvalues --    0.46534   0.46702   0.48535   0.49686   0.50361
 Alpha virt. eigenvalues --    0.51757   0.52679   0.53571   0.54566   0.55591
 Alpha virt. eigenvalues --    0.57140   0.57774   0.59054   0.60200   0.60615
 Alpha virt. eigenvalues --    0.60785   0.62378   0.63342   0.64344   0.65457
 Alpha virt. eigenvalues --    0.66058   0.66415   0.67424   0.68433   0.68719
 Alpha virt. eigenvalues --    0.69532   0.70875   0.71877   0.72808   0.73298
 Alpha virt. eigenvalues --    0.74372   0.75585   0.75857   0.77281   0.78292
 Alpha virt. eigenvalues --    0.78695   0.79574   0.79992   0.80959   0.82759
 Alpha virt. eigenvalues --    0.83983   0.84285   0.84734   0.85413   0.86145
 Alpha virt. eigenvalues --    0.86656   0.87133   0.87750   0.88500   0.88694
 Alpha virt. eigenvalues --    0.89307   0.89434   0.89931   0.90526   0.91143
 Alpha virt. eigenvalues --    0.91851   0.92180   0.92972   0.93207   0.93831
 Alpha virt. eigenvalues --    0.94447   0.95742   0.96043   0.96979   0.97507
 Alpha virt. eigenvalues --    0.98036   0.99320   0.99630   1.00601   1.01728
 Alpha virt. eigenvalues --    1.02439   1.03179   1.04440   1.05700   1.08001
 Alpha virt. eigenvalues --    1.10729   1.11998   1.12823   1.16606   1.17821
 Alpha virt. eigenvalues --    1.18991   1.20840   1.21314   1.22478   1.24971
 Alpha virt. eigenvalues --    1.26888   1.28968   1.30488   1.31117   1.35097
 Alpha virt. eigenvalues --    1.36077   1.37285   1.38880   1.41112   1.43125
 Alpha virt. eigenvalues --    1.44500   1.45022   1.46969   1.47330   1.48237
 Alpha virt. eigenvalues --    1.48580   1.51058   1.52417   1.53387   1.56391
 Alpha virt. eigenvalues --    1.58712   1.61381   1.63076   1.64109   1.64791
 Alpha virt. eigenvalues --    1.66788   1.66986   1.69373   1.69814   1.71645
 Alpha virt. eigenvalues --    1.74523   1.75331   1.77537   1.78117   1.79334
 Alpha virt. eigenvalues --    1.81110   1.81725   1.83653   1.84396   1.85897
 Alpha virt. eigenvalues --    1.86919   1.87447   1.88424   1.89560   1.90013
 Alpha virt. eigenvalues --    1.92082   1.92977   1.94950   1.96160   1.97515
 Alpha virt. eigenvalues --    1.98189   1.99871   2.00262   2.01091   2.02516
 Alpha virt. eigenvalues --    2.04185   2.04557   2.04821   2.05326   2.05764
 Alpha virt. eigenvalues --    2.05950   2.06589   2.07819   2.08339   2.08569
 Alpha virt. eigenvalues --    2.08991   2.10717   2.10868   2.11503   2.11624
 Alpha virt. eigenvalues --    2.12063   2.13021   2.13318   2.13653   2.14180
 Alpha virt. eigenvalues --    2.14246   2.15505   2.16198   2.16915   2.17287
 Alpha virt. eigenvalues --    2.18518   2.20559   2.23639   2.25622   2.27073
 Alpha virt. eigenvalues --    2.28330   2.29042   2.29928   2.31665   2.33424
 Alpha virt. eigenvalues --    2.34367   2.34966   2.35289   2.36179   2.36566
 Alpha virt. eigenvalues --    2.37524   2.38192   2.38987   2.39544   2.41366
 Alpha virt. eigenvalues --    2.43275   2.44186   2.46543   2.48433   2.50161
 Alpha virt. eigenvalues --    2.52377   2.53616   2.55354   2.57358   2.57564
 Alpha virt. eigenvalues --    2.59277   2.62520   2.62986   2.63761   2.64243
 Alpha virt. eigenvalues --    2.64982   2.67034   2.68302   2.68615   2.69703
 Alpha virt. eigenvalues --    2.71989   2.73018   2.74192   2.75402   2.76339
 Alpha virt. eigenvalues --    2.77157   2.78894   2.79137   2.80584   2.81404
 Alpha virt. eigenvalues --    2.81590   2.83013   2.84156   2.84962   2.85344
 Alpha virt. eigenvalues --    2.85542   2.86040   2.87202   2.89259   2.90289
 Alpha virt. eigenvalues --    2.90914   2.92050   2.92508   2.94114   2.95592
 Alpha virt. eigenvalues --    2.96738   2.98797   3.03247   3.06780   3.11761
 Alpha virt. eigenvalues --    3.17210   3.19396   3.20407   3.20617   3.21391
 Alpha virt. eigenvalues --    3.21580   3.22940   3.25557   3.28594   3.32184
 Alpha virt. eigenvalues --    3.32999   3.34816   3.40500   3.43261   3.43486
 Alpha virt. eigenvalues --    3.44264   3.44341   3.44852   3.45064   3.45556
 Alpha virt. eigenvalues --    3.46145   3.47198   3.47876   3.48891   3.52640
 Alpha virt. eigenvalues --    3.54628   3.56440   3.67049   4.02571   4.14328
 Alpha virt. eigenvalues --    4.19366   4.26238   4.34453   4.38959   4.45080
 Alpha virt. eigenvalues --    4.45888   4.47994   4.51976   4.53919   4.60049
 Alpha virt. eigenvalues --    4.64505   4.65276   4.73501   4.77986   4.82002
          Condensed to atoms (all electrons):
               1          2          3          4          5          6
     1  C    4.793715   0.331504  -0.029197  -0.010828  -0.006711   0.382854
     2  C    0.331504   5.091866   0.330515  -0.052755  -0.017502  -0.046514
     3  C   -0.029197   0.330515   4.845973   0.294030  -0.012953  -0.010509
     4  C   -0.010828  -0.052755   0.294030   5.340972   0.286581   0.001107
     5  C   -0.006711  -0.017502  -0.012953   0.286581   4.363825  -0.001334
     6  H    0.382854  -0.046514  -0.010509   0.001107  -0.001334   0.637085
     7  H   -0.040941   0.377566  -0.042380  -0.007307   0.000723   0.006590
     8  H   -0.000068  -0.006625  -0.027837   0.362642  -0.026036   0.000032
     9  H    0.000166   0.005688  -0.029769   0.355496  -0.020524   0.000050
    10  O    0.167307  -0.026486   0.001687  -0.097851   0.255097  -0.042955
    11  O    0.001735   0.000002   0.001410  -0.082476   0.576214   0.000093
    12  C    0.379523  -0.035394   0.004826  -0.000813   0.001236  -0.052636
    13  C   -0.038920   0.004223  -0.000091  -0.000007   0.000110  -0.006205
    14  C   -0.035478   0.349099  -0.030866   0.005281   0.000433  -0.004881
    15  O    0.002634  -0.040295   0.183616  -0.026268   0.001432  -0.000047
    16  Si   0.000553  -0.005245  -0.011435   0.002562  -0.000542  -0.000069
    17  C    0.000001  -0.000111  -0.002227  -0.000158   0.000107   0.000000
    18  C    0.000030  -0.000955  -0.000927  -0.002410  -0.000025  -0.000001
    19  C    0.000000  -0.000086   0.001018  -0.000062   0.000000   0.000000
    20  H   -0.000015  -0.001197   0.000493  -0.001161  -0.000032   0.000000
    21  H    0.000006  -0.000712  -0.000368   0.000147   0.000004   0.000000
    22  H   -0.000001   0.000098   0.000000   0.000040   0.000001   0.000000
    23  H    0.000000  -0.000009  -0.000043   0.000003   0.000000   0.000000
    24  H    0.000000   0.000003  -0.000040  -0.000004   0.000000   0.000000
    25  H    0.000000   0.000001  -0.000012   0.000002   0.000000   0.000000
    26  H    0.000000   0.000001   0.000023  -0.000242  -0.000002   0.000000
    27  H    0.000000  -0.000020  -0.000154   0.000307   0.000003   0.000000
    28  H    0.000000   0.000001   0.000044   0.000030  -0.000001   0.000000
    29  H   -0.003556  -0.028879   0.004324  -0.000126  -0.000012  -0.000172
    30  H   -0.006482  -0.033960  -0.006965   0.000056  -0.000013   0.006471
    31  H    0.003609  -0.025708  -0.007894   0.000217  -0.000019  -0.000037
    32  H   -0.032016  -0.007626  -0.000148   0.000002   0.000166   0.006118
    33  H   -0.030978  -0.003822   0.000024   0.000034  -0.000036  -0.000281
    34  H    0.004099  -0.000105   0.000002   0.000001  -0.000003  -0.000052
    35  H   -0.007809   0.000154  -0.000005   0.000041   0.000244   0.000073
    36  H   -0.005226   0.000087  -0.000002   0.000001  -0.000018   0.005752
    37  C   -0.001982  -0.055670   0.348164  -0.071506   0.002120   0.003650
    38  C   -0.000003   0.004947  -0.037424  -0.008314  -0.000789  -0.000013
    39  C   -0.000027  -0.000004  -0.002987  -0.000573   0.000790   0.000000
    40  H    0.002807  -0.004679  -0.026421  -0.004349   0.003673   0.000434
    41  H   -0.000276  -0.007450  -0.028365   0.005854  -0.000136   0.000108
    42  H    0.000002   0.000023  -0.003499  -0.000477   0.000061   0.000001
    43  H    0.000000   0.000003  -0.000045  -0.000056  -0.000001   0.000000
    44  H   -0.000012  -0.000010   0.000022  -0.000074   0.000631   0.000012
               7          8          9         10         11         12
     1  C   -0.040941  -0.000068   0.000166   0.167307   0.001735   0.379523
     2  C    0.377566  -0.006625   0.005688  -0.026486   0.000002  -0.035394
     3  C   -0.042380  -0.027837  -0.029769   0.001687   0.001410   0.004826
     4  C   -0.007307   0.362642   0.355496  -0.097851  -0.082476  -0.000813
     5  C    0.000723  -0.026036  -0.020524   0.255097   0.576214   0.001236
     6  H    0.006590   0.000032   0.000050  -0.042955   0.000093  -0.052636
     7  H    0.641199   0.003668   0.000037   0.000128  -0.000007  -0.009927
     8  H    0.003668   0.561747  -0.028291   0.000761  -0.000078  -0.000022
     9  H    0.000037  -0.028291   0.556613   0.003159   0.001573   0.000007
    10  O    0.000128   0.000761   0.003159   8.336125  -0.075732  -0.045539
    11  O   -0.000007  -0.000078   0.001573  -0.075732   8.079317  -0.000063
    12  C   -0.009927  -0.000022   0.000007  -0.045539  -0.000063   4.938900
    13  C    0.000084   0.000001   0.000000  -0.003432  -0.000007   0.361542
    14  C   -0.043771   0.000052  -0.000130   0.002300   0.000002  -0.004987
    15  O   -0.002449  -0.003476   0.000127  -0.000015  -0.000013  -0.000033
    16  Si  -0.002068   0.004719   0.000405  -0.000111  -0.000051  -0.000039
    17  C   -0.000021  -0.001562  -0.000710   0.000000   0.000000   0.000000
    18  C    0.001800  -0.000059   0.000123   0.000003   0.000000  -0.000006
    19  C   -0.000009   0.000000  -0.000005   0.000000   0.000000   0.000000
    20  H    0.002018   0.003023  -0.000009  -0.000003   0.000000   0.000000
    21  H    0.001143  -0.000102   0.000000   0.000000   0.000000   0.000001
    22  H    0.000053  -0.000012   0.000000   0.000000   0.000000   0.000000
    23  H   -0.000007   0.000000   0.000000   0.000000   0.000000   0.000000
    24  H    0.000000   0.000001  -0.000001   0.000000   0.000000   0.000000
    25  H    0.000000   0.000001   0.000000   0.000000   0.000000   0.000000
    26  H    0.000001   0.000050   0.000524   0.000000   0.000000   0.000000
    27  H   -0.000011   0.000822   0.000835   0.000000  -0.000002   0.000000
    28  H    0.000002   0.000036   0.000043   0.000000   0.000000   0.000000
    29  H   -0.005881  -0.000006   0.000003  -0.000006   0.000000   0.000893
    30  H    0.005722   0.000002   0.000004   0.000020   0.000000  -0.000407
    31  H   -0.002299   0.000006  -0.000005  -0.000045   0.000000   0.000068
    32  H    0.006771   0.000051   0.000001  -0.000492  -0.000013   0.376462
    33  H    0.000059  -0.000002   0.000000   0.002989   0.000001   0.378141
    34  H   -0.000007   0.000000   0.000000   0.000126   0.000000  -0.028050
    35  H    0.000001  -0.000001   0.000000   0.008249   0.000011  -0.033029
    36  H    0.000017   0.000000   0.000000  -0.000331   0.000000  -0.037619
    37  C    0.005620   0.005598  -0.009430  -0.003003   0.000434   0.000030
    38  C   -0.000119   0.000193   0.010898   0.000072  -0.000313  -0.000002
    39  C   -0.000001   0.000029   0.004103  -0.000007  -0.000094   0.000000
    40  H   -0.000015  -0.000027   0.000205   0.001321  -0.000419   0.000149
    41  H   -0.000026  -0.000128   0.000156   0.000048   0.000000  -0.000022
    42  H    0.000001  -0.000006   0.000349  -0.000001   0.000000   0.000000
    43  H    0.000000   0.000000   0.000064   0.000000   0.000004   0.000000
    44  H    0.000000   0.000004   0.000013  -0.000036   0.000505   0.000000
              13         14         15         16         17         18
     1  C   -0.038920  -0.035478   0.002634   0.000553   0.000001   0.000030
     2  C    0.004223   0.349099  -0.040295  -0.005245  -0.000111  -0.000955
     3  C   -0.000091  -0.030866   0.183616  -0.011435  -0.002227  -0.000927
     4  C   -0.000007   0.005281  -0.026268   0.002562  -0.000158  -0.002410
     5  C    0.000110   0.000433   0.001432  -0.000542   0.000107  -0.000025
     6  H   -0.006205  -0.004881  -0.000047  -0.000069   0.000000  -0.000001
     7  H    0.000084  -0.043771  -0.002449  -0.002068  -0.000021   0.001800
     8  H    0.000001   0.000052  -0.003476   0.004719  -0.001562  -0.000059
     9  H    0.000000  -0.000130   0.000127   0.000405  -0.000710   0.000123
    10  O   -0.003432   0.002300  -0.000015  -0.000111   0.000000   0.000003
    11  O   -0.000007   0.000002  -0.000013  -0.000051   0.000000   0.000000
    12  C    0.361542  -0.004987  -0.000033  -0.000039   0.000000  -0.000006
    13  C    4.933171   0.000058   0.000000   0.000003   0.000000   0.000000
    14  C    0.000058   4.969582  -0.006071   0.001135   0.000002  -0.000110
    15  O    0.000000  -0.006071   8.305089   0.331034  -0.016897  -0.015241
    16  Si   0.000003   0.001135   0.331034  11.848665   0.370880   0.367646
    17  C    0.000000   0.000002  -0.016897   0.370880   5.141413  -0.034930
    18  C    0.000000  -0.000110  -0.015241   0.367646  -0.034930   5.148323
    19  C    0.000000  -0.000028  -0.018903   0.378933  -0.032968  -0.031735
    20  H    0.000000  -0.000005  -0.000484  -0.028914  -0.001493   0.374495
    21  H    0.000000   0.000472  -0.000427  -0.027432   0.001331   0.378206
    22  H    0.000000  -0.000004   0.000530  -0.013963  -0.000236   0.371161
    23  H    0.000000  -0.000015  -0.000386  -0.025369   0.001383  -0.001250
    24  H    0.000000  -0.000001  -0.000414  -0.024593  -0.001257   0.001389
    25  H    0.000000   0.000000   0.000480  -0.014980  -0.000573  -0.000689
    26  H    0.000000   0.000000  -0.000577  -0.025739   0.379025   0.001288
    27  H    0.000000   0.000000  -0.000428  -0.026743   0.375336  -0.001634
    28  H    0.000000   0.000000   0.000562  -0.013516   0.369483  -0.000089
    29  H   -0.000142   0.378390   0.000173  -0.000191   0.000000   0.000000
    30  H   -0.000020   0.382551  -0.000037  -0.000284   0.000000   0.000006
    31  H    0.000001   0.380269   0.007375   0.003442   0.000010  -0.000312
    32  H   -0.040736   0.000028  -0.000001  -0.000046   0.000000  -0.000008
    33  H   -0.037066   0.000547   0.000000  -0.000003   0.000000   0.000000
    34  H    0.380168  -0.000002   0.000000   0.000000   0.000000   0.000000
    35  H    0.389136  -0.000008   0.000000   0.000000   0.000000   0.000000
    36  H    0.386264  -0.000008   0.000000   0.000000   0.000000   0.000000
    37  C    0.000000  -0.009612  -0.063765  -0.002284   0.000033  -0.000057
    38  C    0.000000   0.000093   0.001514   0.001207  -0.000152   0.000004
    39  C    0.000000   0.000000   0.000363   0.000115  -0.000009   0.000000
    40  H    0.000003   0.000157   0.003507   0.000161   0.000000   0.000002
    41  H    0.000000   0.002100  -0.000403   0.000518   0.000002  -0.000001
    42  H    0.000000  -0.000003   0.004327   0.001779  -0.000056   0.000003
    43  H    0.000000   0.000000   0.000003   0.000008   0.000000   0.000000
    44  H    0.000000   0.000000  -0.000001   0.000011   0.000000   0.000000
              19         20         21         22         23         24
     1  C    0.000000  -0.000015   0.000006  -0.000001   0.000000   0.000000
     2  C   -0.000086  -0.001197  -0.000712   0.000098  -0.000009   0.000003
     3  C    0.001018   0.000493  -0.000368   0.000000  -0.000043  -0.000040
     4  C   -0.000062  -0.001161   0.000147   0.000040   0.000003  -0.000004
     5  C    0.000000  -0.000032   0.000004   0.000001   0.000000   0.000000
     6  H    0.000000   0.000000   0.000000   0.000000   0.000000   0.000000
     7  H   -0.000009   0.002018   0.001143   0.000053  -0.000007   0.000000
     8  H    0.000000   0.003023  -0.000102  -0.000012   0.000000   0.000001
     9  H   -0.000005  -0.000009   0.000000   0.000000   0.000000  -0.000001
    10  O    0.000000  -0.000003   0.000000   0.000000   0.000000   0.000000
    11  O    0.000000   0.000000   0.000000   0.000000   0.000000   0.000000
    12  C    0.000000   0.000000   0.000001   0.000000   0.000000   0.000000
    13  C    0.000000   0.000000   0.000000   0.000000   0.000000   0.000000
    14  C   -0.000028  -0.000005   0.000472  -0.000004  -0.000015  -0.000001
    15  O   -0.018903  -0.000484  -0.000427   0.000530  -0.000386  -0.000414
    16  Si   0.378933  -0.028914  -0.027432  -0.013963  -0.025369  -0.024593
    17  C   -0.032968  -0.001493   0.001331  -0.000236   0.001383  -0.001257
    18  C   -0.031735   0.374495   0.378206   0.371161  -0.001250   0.001389
    19  C    5.117514   0.001480  -0.001114  -0.001018   0.375457   0.376308
    20  H    0.001480   0.582238  -0.023739  -0.022605   0.000003  -0.000028
    21  H   -0.001114  -0.023739   0.574365  -0.022776   0.000627   0.000003
    22  H   -0.001018  -0.022605  -0.022776   0.564828  -0.000034   0.000013
    23  H    0.375457   0.000003   0.000627  -0.000034   0.578109  -0.022040
    24  H    0.376308  -0.000028   0.000003   0.000013  -0.022040   0.574357
    25  H    0.373703   0.000001  -0.000045   0.000120  -0.023504  -0.023526
    26  H   -0.000986   0.000005  -0.000024   0.000014   0.000001   0.000537
    27  H    0.001439   0.000633   0.000007  -0.000028  -0.000028   0.000007
    28  H   -0.000956  -0.000024   0.000004   0.000021   0.000018  -0.000054
    29  H    0.000000   0.000001   0.000087   0.000000   0.000000   0.000000
    30  H    0.000001   0.000000  -0.000006   0.000000  -0.000001   0.000000
    31  H   -0.000150   0.000000   0.000239   0.000003   0.000258  -0.000003
    32  H    0.000000   0.000022   0.000002   0.000000   0.000000   0.000000
    33  H    0.000000   0.000000   0.000000   0.000000   0.000000   0.000000
    34  H    0.000000   0.000000   0.000000   0.000000   0.000000   0.000000
    35  H    0.000000   0.000000   0.000000   0.000000   0.000000   0.000000
    36  H    0.000000   0.000000   0.000000   0.000000   0.000000   0.000000
    37  C   -0.000007  -0.000005  -0.000005   0.000001  -0.000002   0.000006
    38  C   -0.000014   0.000000   0.000000   0.000000   0.000000  -0.000005
    39  C    0.000000   0.000000   0.000000   0.000000   0.000000   0.000000
    40  H    0.000000   0.000000   0.000000   0.000000   0.000000   0.000000
    41  H   -0.000010   0.000000   0.000000   0.000000   0.000000  -0.000001
    42  H   -0.000034   0.000000   0.000000   0.000000  -0.000001   0.000012
    43  H    0.000000   0.000000   0.000000   0.000000   0.000000   0.000000
    44  H    0.000000   0.000000   0.000000   0.000000   0.000000   0.000000
              25         26         27         28         29         30
     1  C    0.000000   0.000000   0.000000   0.000000  -0.003556  -0.006482
     2  C    0.000001   0.000001  -0.000020   0.000001  -0.028879  -0.033960
     3  C   -0.000012   0.000023  -0.000154   0.000044   0.004324  -0.006965
     4  C    0.000002  -0.000242   0.000307   0.000030  -0.000126   0.000056
     5  C    0.000000  -0.000002   0.000003  -0.000001  -0.000012  -0.000013
     6  H    0.000000   0.000000   0.000000   0.000000  -0.000172   0.006471
     7  H    0.000000   0.000001  -0.000011   0.000002  -0.005881   0.005722
     8  H    0.000001   0.000050   0.000822   0.000036  -0.000006   0.000002
     9  H    0.000000   0.000524   0.000835   0.000043   0.000003   0.000004
    10  O    0.000000   0.000000   0.000000   0.000000  -0.000006   0.000020
    11  O    0.000000   0.000000  -0.000002   0.000000   0.000000   0.000000
    12  C    0.000000   0.000000   0.000000   0.000000   0.000893  -0.000407
    13  C    0.000000   0.000000   0.000000   0.000000  -0.000142  -0.000020
    14  C    0.000000   0.000000   0.000000   0.000000   0.378390   0.382551
    15  O    0.000480  -0.000577  -0.000428   0.000562   0.000173  -0.000037
    16  Si  -0.014980  -0.025739  -0.026743  -0.013516  -0.000191  -0.000284
    17  C   -0.000573   0.379025   0.375336   0.369483   0.000000   0.000000
    18  C   -0.000689   0.001288  -0.001634  -0.000089   0.000000   0.000006
    19  C    0.373703  -0.000986   0.001439  -0.000956   0.000000   0.000001
    20  H    0.000001   0.000005   0.000633  -0.000024   0.000001   0.000000
    21  H   -0.000045  -0.000024   0.000007   0.000004   0.000087  -0.000006
    22  H    0.000120   0.000014  -0.000028   0.000021   0.000000   0.000000
    23  H   -0.023504   0.000001  -0.000028   0.000018   0.000000  -0.000001
    24  H   -0.023526   0.000537   0.000007  -0.000054   0.000000   0.000000
    25  H    0.566752  -0.000022   0.000000   0.000043   0.000000   0.000000
    26  H   -0.000022   0.571398  -0.022790  -0.023234   0.000000   0.000000
    27  H    0.000000  -0.022790   0.581667  -0.023453   0.000000   0.000000
    28  H    0.000043  -0.023234  -0.023453   0.571071   0.000000   0.000000
    29  H    0.000000   0.000000   0.000000   0.000000   0.601123  -0.031502
    30  H    0.000000   0.000000   0.000000   0.000000  -0.031502   0.594493
    31  H    0.000001   0.000000   0.000000   0.000000  -0.029217  -0.027585
    32  H    0.000000   0.000000   0.000000   0.000000   0.000304   0.000042
    33  H    0.000000   0.000000   0.000000   0.000000   0.002945   0.000385
    34  H    0.000000   0.000000   0.000000   0.000000   0.000005   0.000000
    35  H    0.000000   0.000000   0.000000   0.000000   0.000000   0.000001
    36  H    0.000000   0.000000   0.000000   0.000000   0.000014  -0.000003
    37  C    0.000000   0.000009   0.000010   0.000001   0.000074   0.002835
    38  C    0.000000   0.000089  -0.000036   0.000001  -0.000001  -0.000058
    39  C    0.000000   0.000007  -0.000006   0.000000   0.000000   0.000000
    40  H    0.000000   0.000000   0.000000   0.000000  -0.000017   0.000107
    41  H    0.000000   0.000000  -0.000001   0.000000  -0.000055   0.002172
    42  H    0.000000   0.000268  -0.000012   0.000000   0.000000   0.000003
    43  H    0.000000  -0.000001   0.000000   0.000000   0.000000   0.000000
    44  H    0.000000   0.000000   0.000000   0.000000   0.000000   0.000000
              31         32         33         34         35         36
     1  C    0.003609  -0.032016  -0.030978   0.004099  -0.007809  -0.005226
     2  C   -0.025708  -0.007626  -0.003822  -0.000105   0.000154   0.000087
     3  C   -0.007894  -0.000148   0.000024   0.000002  -0.000005  -0.000002
     4  C    0.000217   0.000002   0.000034   0.000001   0.000041   0.000001
     5  C   -0.000019   0.000166  -0.000036  -0.000003   0.000244  -0.000018
     6  H   -0.000037   0.006118  -0.000281  -0.000052   0.000073   0.005752
     7  H   -0.002299   0.006771   0.000059  -0.000007   0.000001   0.000017
     8  H    0.000006   0.000051  -0.000002   0.000000  -0.000001   0.000000
     9  H   -0.000005   0.000001   0.000000   0.000000   0.000000   0.000000
    10  O   -0.000045  -0.000492   0.002989   0.000126   0.008249  -0.000331
    11  O    0.000000  -0.000013   0.000001   0.000000   0.000011   0.000000
    12  C    0.000068   0.376462   0.378141  -0.028050  -0.033029  -0.037619
    13  C    0.000001  -0.040736  -0.037066   0.380168   0.389136   0.386264
    14  C    0.380269   0.000028   0.000547  -0.000002  -0.000008  -0.000008
[...]
    15  O   -0.024817  -0.000590  -0.000492   0.000532  -0.000613  -0.000546
    16  Si   0.381804  -0.026606  -0.025021  -0.013931  -0.024110  -0.022971
    17  C   -0.029011  -0.001122   0.001198  -0.000253   0.001180  -0.001245
    18  C   -0.028030   0.376320   0.378029   0.368694  -0.001301   0.001186
    19  C    5.112595   0.001208  -0.001151  -0.000662   0.377152   0.377420
    20  H    0.001208   0.576316  -0.023713  -0.023474   0.000006  -0.000021
    21  H   -0.001151  -0.023713   0.572245  -0.023648   0.000534   0.000000
    22  H   -0.000662  -0.023474  -0.023648   0.569631  -0.000020   0.000007
    23  H    0.377152   0.000006   0.000534  -0.000020   0.572725  -0.022457
    24  H    0.377420  -0.000021   0.000000   0.000007  -0.022457   0.569828
    25  H    0.368501  -0.000002  -0.000050   0.000074  -0.024043  -0.024050
    26  H   -0.001069   0.000000  -0.000021   0.000010   0.000000   0.000444
    27  H    0.001193   0.000423   0.000004  -0.000030  -0.000021   0.000006
    28  H   -0.000583  -0.000030   0.000003   0.000062   0.000008  -0.000029
    29  H    0.000000   0.000000   0.000059   0.000000  -0.000001   0.000000
    30  H    0.000002   0.000000  -0.000002   0.000000  -0.000001   0.000000
    31  H   -0.000128   0.000002   0.000082   0.000003   0.000497  -0.000007
    32  H    0.000000   0.000007   0.000001   0.000000   0.000000   0.000000
    33  H    0.000000   0.000000   0.000000   0.000000   0.000000   0.000000
    34  H    0.000000   0.000000   0.000000   0.000000   0.000000   0.000000
    35  H    0.000000   0.000000   0.000000   0.000000   0.000000   0.000000
    36  H    0.000000   0.000000   0.000000   0.000000   0.000000   0.000000
    37  C   -0.000011  -0.000004  -0.000004   0.000001  -0.000002   0.000009
    38  C   -0.000036   0.000000   0.000000   0.000000   0.000000  -0.000015
    39  C    0.000000   0.000000   0.000000   0.000000   0.000000   0.000000
    40  H    0.000000   0.000000   0.000000   0.000000   0.000000   0.000000
    41  H   -0.000012   0.000000   0.000000   0.000000   0.000000  -0.000002
    42  H   -0.000065   0.000000   0.000000   0.000000  -0.000001   0.000094
    43  H    0.000000   0.000000   0.000000   0.000000   0.000000   0.000000
    44  H    0.000000   0.000000   0.000000   0.000000   0.000000   0.000000
              25         26         27         28         29         30
     1  C    0.000000   0.000000   0.000000   0.000000  -0.003116  -0.006919
     2  C    0.000001   0.000000  -0.000011   0.000001  -0.027406  -0.034071
     3  C   -0.000015  -0.000021  -0.000062   0.000022   0.004019  -0.006151
     4  C    0.000002  -0.000126   0.000396   0.000027  -0.000129   0.000019
     5  C    0.000000  -0.000001  -0.000014   0.000000  -0.000010  -0.000008
     6  H    0.000000   0.000000   0.000000   0.000000  -0.000149   0.007073
     7  H    0.000000   0.000001  -0.000008   0.000001  -0.006386   0.005470
     8  H    0.000001   0.000056   0.000551   0.000030  -0.000004   0.000002
     9  H    0.000000   0.000294   0.000649   0.000025   0.000003   0.000004
    10  O    0.000000   0.000000   0.000000   0.000000  -0.000016   0.000031
    11  O    0.000000   0.000000   0.000000   0.000000   0.000000   0.000000
    12  C    0.000000   0.000000   0.000000   0.000000   0.000600  -0.000591
    13  C    0.000000   0.000000   0.000000   0.000000  -0.000102  -0.000028
    14  C    0.000000   0.000000   0.000000   0.000000   0.379498   0.382795
    15  O    0.000678  -0.000661  -0.000506   0.000568   0.000118   0.000049
    16  Si  -0.015202  -0.024942  -0.023611  -0.014003  -0.000126  -0.000230
    17  C   -0.000218   0.379061   0.376729   0.367705   0.000000   0.000000
    18  C   -0.000381   0.001178  -0.001307  -0.000129  -0.000003   0.000004
    19  C    0.368501  -0.001069   0.001193  -0.000583   0.000000   0.000002
    20  H   -0.000002   0.000000   0.000423  -0.000030   0.000000   0.000000
    21  H   -0.000050  -0.000021   0.000004   0.000003   0.000059  -0.000002
    22  H    0.000074   0.000010  -0.000030   0.000062   0.000000   0.000000
    23  H   -0.024043   0.000000  -0.000021   0.000008  -0.000001  -0.000001
    24  H   -0.024050   0.000444   0.000006  -0.000029   0.000000   0.000000
    25  H    0.576038  -0.000038   0.000002   0.000006   0.000000   0.000000
    26  H   -0.000038   0.570632  -0.023244  -0.023860   0.000000   0.000000
    27  H    0.000002  -0.023244   0.573257  -0.023879   0.000000   0.000000
    28  H    0.000006  -0.023860  -0.023879   0.574341   0.000000   0.000000
    29  H    0.000000   0.000000   0.000000   0.000000   0.596229  -0.031938
    30  H    0.000000   0.000000   0.000000   0.000000  -0.031938   0.595168
    31  H    0.000002   0.000000   0.000000   0.000000  -0.027467  -0.027791
    32  H    0.000000   0.000000   0.000000   0.000000   0.000315   0.000062
    33  H    0.000000   0.000000   0.000000   0.000000   0.002480   0.000497
    34  H    0.000000   0.000000   0.000000   0.000000   0.000003   0.000000
    35  H    0.000000   0.000000   0.000000   0.000000   0.000000   0.000001
    36  H    0.000000   0.000000   0.000000   0.000000   0.000012   0.000000
    37  C    0.000000   0.000010   0.000009   0.000000   0.000132   0.002001
    38  C    0.000000   0.000128  -0.000032   0.000002  -0.000001  -0.000045
    39  C    0.000000   0.000010  -0.000006   0.000000   0.000000   0.000000
    40  H    0.000000   0.000000   0.000000   0.000000  -0.000013   0.000043
    41  H    0.000000   0.000001   0.000000   0.000000  -0.000094   0.002133
    42  H    0.000000   0.000397  -0.000011   0.000001   0.000000   0.000003
    43  H    0.000000  -0.000001   0.000000   0.000000   0.000000   0.000000
    44  H    0.000000   0.000000   0.000000   0.000000   0.000000   0.000000
              31         32         33         34         35         36
     1  C    0.003880  -0.033949  -0.034317   0.003861  -0.008087  -0.004699
     2  C   -0.029700  -0.007418  -0.004219  -0.000099   0.000161   0.000067
     3  C   -0.008849  -0.000150   0.000010   0.000001  -0.000005  -0.000001
     4  C    0.000310   0.000000   0.000042   0.000001   0.000045   0.000001
     5  C   -0.000023   0.000338  -0.000047  -0.000002   0.000324  -0.000013
     6  H   -0.000023   0.006363  -0.000395  -0.000039   0.000098   0.005333
     7  H   -0.001577   0.006900   0.000079  -0.000005   0.000001   0.000014
     8  H    0.000007   0.000027  -0.000004   0.000000  -0.000001   0.000000
     9  H   -0.000007   0.000001   0.000000   0.000000   0.000000   0.000000
    10  O   -0.000047  -0.000516   0.003411   0.000127   0.009176  -0.000253
    11  O    0.000000  -0.000034   0.000001   0.000000   0.000022   0.000000
    12  C    0.000078   0.375791   0.374863  -0.027241  -0.033637  -0.036156
    13  C    0.000001  -0.038088  -0.035425   0.380504   0.388619   0.385626
    14  C    0.379443  -0.000078   0.001337  -0.000001  -0.000008  -0.000011
    15  O    0.009933  -0.000002   0.000000   0.000000   0.000000   0.000000
    16  Si   0.003152  -0.000030  -0.000002   0.000000   0.000000   0.000000
    17  C    0.000011   0.000000   0.000000   0.000000   0.000000   0.000000
    18  C   -0.000266  -0.000004   0.000000   0.000000   0.000000   0.000000
    19  C   -0.000128   0.000000   0.000000   0.000000   0.000000   0.000000
    20  H    0.000002   0.000007   0.000000   0.000000   0.000000   0.000000
    21  H    0.000082   0.000001   0.000000   0.000000   0.000000   0.000000
    22  H    0.000003   0.000000   0.000000   0.000000   0.000000   0.000000
    23  H    0.000497   0.000000   0.000000   0.000000   0.000000   0.000000
    24  H   -0.000007   0.000000   0.000000   0.000000   0.000000   0.000000
    25  H    0.000002   0.000000   0.000000   0.000000   0.000000   0.000000
    26  H    0.000000   0.000000   0.000000   0.000000   0.000000   0.000000
    27  H    0.000000   0.000000   0.000000   0.000000   0.000000   0.000000
    28  H    0.000000   0.000000   0.000000   0.000000   0.000000   0.000000
    29  H   -0.027467   0.000315   0.002480   0.000003   0.000000   0.000012
    30  H   -0.027791   0.000062   0.000497   0.000000   0.000001   0.000000
    31  H    0.565110  -0.000021  -0.000017   0.000000   0.000000   0.000000
    32  H   -0.000021   0.616330  -0.032228  -0.003153  -0.003759   0.005147
    33  H   -0.000017  -0.032228   0.615137  -0.003475   0.005000  -0.004226
    34  H    0.000000  -0.003153  -0.003475   0.603694  -0.029974  -0.031234
    35  H    0.000000  -0.003759   0.005000  -0.029974   0.576542  -0.030568
    36  H    0.000000   0.005147  -0.004226  -0.031234  -0.030568   0.604104
    37  C   -0.000573   0.000009  -0.000004   0.000000   0.000000  -0.000001
    38  C   -0.000061   0.000000   0.000000   0.000000   0.000000   0.000000
    39  C    0.000000   0.000000   0.000000   0.000000   0.000000   0.000000
    40  H    0.000046  -0.000004  -0.000003   0.000000   0.000000  -0.000005
    41  H    0.001186   0.000000  -0.000001   0.000000   0.000000   0.000000
    42  H    0.000000   0.000000   0.000000   0.000000   0.000000   0.000000
    43  H    0.000000   0.000000   0.000000   0.000000   0.000000   0.000000
    44  H    0.000000   0.000000   0.000000   0.000000   0.000000   0.000000
              37         38         39         40         41         42
     1  C   -0.001349  -0.000025  -0.000020   0.002286  -0.000478   0.000002
     2  C   -0.056678   0.005058  -0.000031  -0.004181  -0.009170   0.000044
     3  C    0.347005  -0.036272  -0.002111  -0.025812  -0.032168  -0.004781
     4  C   -0.071570  -0.009431  -0.000567  -0.004844   0.006380  -0.000364
     5  C    0.001870  -0.000300   0.000296   0.002528  -0.000111   0.000031
     6  H    0.004534  -0.000017   0.000002  -0.000252   0.000114   0.000001
     7  H    0.005905  -0.000125   0.000000  -0.000059  -0.000006   0.000000
     8  H    0.005615   0.000151   0.000009   0.000034  -0.000163  -0.000002
     9  H   -0.009810   0.011567   0.004343   0.000165   0.000207   0.000292
    10  O   -0.003107   0.000047  -0.000007   0.002477   0.000064  -0.000001
    11  O    0.000174  -0.000076  -0.000027  -0.000319   0.000001   0.000000
    12  C   -0.000034  -0.000002   0.000000   0.000171  -0.000022   0.000000
    13  C    0.000000   0.000000   0.000000   0.000004   0.000000   0.000000
    14  C   -0.009832   0.000071   0.000002   0.000104   0.003258  -0.000005
    15  O   -0.065998   0.001187   0.000468   0.003542  -0.000290   0.005130
    16  Si  -0.001900   0.001232   0.000128   0.000119   0.000464   0.002096
    17  C    0.000030  -0.000177  -0.000011   0.000000   0.000001  -0.000073
    18  C   -0.000060   0.000004   0.000000   0.000001   0.000000   0.000005
    19  C   -0.000011  -0.000036   0.000000   0.000000  -0.000012  -0.000065
    20  H   -0.000004   0.000000   0.000000   0.000000   0.000000   0.000000
    21  H   -0.000004   0.000000   0.000000   0.000000   0.000000   0.000000
    22  H    0.000001   0.000000   0.000000   0.000000   0.000000   0.000000
    23  H   -0.000002   0.000000   0.000000   0.000000   0.000000  -0.000001
    24  H    0.000009  -0.000015   0.000000   0.000000  -0.000002   0.000094
    25  H    0.000000   0.000000   0.000000   0.000000   0.000000   0.000000
    26  H    0.000010   0.000128   0.000010   0.000000   0.000001   0.000397
    27  H    0.000009  -0.000032  -0.000006   0.000000   0.000000  -0.000011
    28  H    0.000000   0.000002   0.000000   0.000000   0.000000   0.000001
    29  H    0.000132  -0.000001   0.000000  -0.000013  -0.000094   0.000000
    30  H    0.002001  -0.000045   0.000000   0.000043   0.002133   0.000003
    31  H   -0.000573  -0.000061   0.000000   0.000046   0.001186   0.000000
    32  H    0.000009   0.000000   0.000000  -0.000004   0.000000   0.000000
    33  H   -0.000004   0.000000   0.000000  -0.000003  -0.000001   0.000000
    34  H    0.000000   0.000000   0.000000   0.000000   0.000000   0.000000
    35  H    0.000000   0.000000   0.000000   0.000000   0.000000   0.000000
    36  H   -0.000001   0.000000   0.000000  -0.000005   0.000000   0.000000
    37  C    5.064208   0.385977  -0.040808   0.362306   0.367656  -0.049784
    38  C    0.385977   4.765531   0.655331  -0.038561  -0.032879   0.385429
    39  C   -0.040808   0.655331   4.933892  -0.006014   0.001028  -0.045770
    40  H    0.362306  -0.038561  -0.006014   0.619081  -0.030764   0.005182
    41  H    0.367656  -0.032879   0.001028  -0.030764   0.604379  -0.002167
    42  H   -0.049784   0.385429  -0.045770   0.005182  -0.002167   0.600833
    43  H    0.004681  -0.025971   0.376578   0.000090  -0.000213  -0.007953
    44  H   -0.012037  -0.034140   0.381728   0.006184   0.000182   0.005610
              43         44
     1  C    0.000000  -0.000006
     2  C    0.000003  -0.000010
     3  C   -0.000046   0.000060
     4  C   -0.000050  -0.000026
     5  C   -0.000003   0.000207
     6  H    0.000000   0.000004
     7  H    0.000000   0.000000
     8  H    0.000000   0.000001
     9  H    0.000064   0.000020
    10  O    0.000000  -0.000012
    11  O    0.000000   0.000034
    12  C    0.000000   0.000000
    13  C    0.000000   0.000000
    14  C    0.000000   0.000000
    15  O    0.000003  -0.000002
    16  Si   0.000012   0.000011
    17  C    0.000000   0.000000
    18  C    0.000000   0.000000
    19  C    0.000000   0.000000
    20  H    0.000000   0.000000
    21  H    0.000000   0.000000
    22  H    0.000000   0.000000
    23  H    0.000000   0.000000
    24  H    0.000000   0.000000
    25  H    0.000000   0.000000
    26  H   -0.000001   0.000000
    27  H    0.000000   0.000000
    28  H    0.000000   0.000000
    29  H    0.000000   0.000000
    30  H    0.000000   0.000000
    31  H    0.000000   0.000000
    32  H    0.000000   0.000000
    33  H    0.000000   0.000000
    34  H    0.000000   0.000000
    35  H    0.000000   0.000000
    36  H    0.000000   0.000000
    37  C    0.004681  -0.012037
    38  C   -0.025971  -0.034140
    39  C    0.376578   0.381728
    40  H    0.000090   0.006184
    41  H   -0.000213   0.000182
    42  H   -0.007953   0.005610
    43  H    0.591379  -0.043458
    44  H   -0.043458   0.591848
 Mulliken charges:
               1
     1  C    0.179321
     2  C   -0.096910
     3  C    0.309967
     4  C   -0.298878
     5  C    0.589415
     6  H    0.112795
     7  H    0.101767
     8  H    0.149329
     9  H    0.148301
    10  O   -0.486362
    11  O   -0.499713
    12  C   -0.187927
    13  C   -0.328539
    14  C   -0.339782
    15  O   -0.653846
    16  Si   0.917056
    17  C   -0.549228
    18  C   -0.557403
    19  C   -0.535120
    20  H    0.118620
    21  H    0.121316
    22  H    0.122927
    23  H    0.120560
    24  H    0.122400
    25  H    0.118696
    26  H    0.121761
    27  H    0.119525
    28  H    0.119711
    29  H    0.113493
    30  H    0.112419
    31  H    0.132815
    32  H    0.108142
    33  H    0.111506
    34  H    0.107035
    35  H    0.126053
    36  H    0.106865
    37  C   -0.228563
    38  C   -0.033552
    39  C   -0.258442
    40  H    0.106468
    41  H    0.121486
    42  H    0.105826
    43  H    0.104885
    44  H    0.103803
 Sum of Mulliken charges =   0.00000
 Mulliken charges with hydrogens summed into heavy atoms:
               1
     1  C    0.292116
     2  C    0.004857
     3  C    0.309967
     4  C   -0.001248
     5  C    0.589415
    10  O   -0.486362
    11  O   -0.499713
    12  C    0.031720
    13  C    0.011416
    14  C    0.018945
    15  O   -0.653846
    16  Si   0.917056
    17  C   -0.188230
    18  C   -0.194540
    19  C   -0.173464
    37  C   -0.000609
    38  C    0.072274
    39  C   -0.049753
 Electronic spatial extent (au):  <R**2>=           5543.7649
 Charge=              0.0000 electrons
 Dipole moment (field-independent basis, Debye):
    X=              2.2234    Y=             -3.8537    Z=             -2.7464  Tot=              5.2286
 Quadrupole moment (field-independent basis, Debye-Ang):
   XX=           -118.2042   YY=           -119.1998   ZZ=           -124.7995
   XY=              7.1746   XZ=             11.8359   YZ=             -6.8093
 Traceless Quadrupole moment (field-independent basis, Debye-Ang):
   XX=              2.5303   YY=              1.5347   ZZ=             -4.0650
   XY=              7.1746   XZ=             11.8359   YZ=             -6.8093
 Octapole moment (field-independent basis, Debye-Ang**2):
  XXX=             17.1766  YYY=             -2.9285  ZZZ=             -7.9452  XYY=              6.7241
  XXY=            -22.0003  XXZ=            -14.9657  XZZ=             10.9796  YZZ=            -22.9527
  YYZ=            -12.2758  XYZ=             11.7547
 Hexadecapole moment (field-independent basis, Debye-Ang**3):
 XXXX=          -4224.2562 YYYY=          -2020.2847 ZZZZ=          -1177.3673 XXXY=             25.7699
 XXXZ=             54.0502 YYYX=             26.9942 YYYZ=              0.0151 ZZZX=             23.2326
 ZZZY=            -11.0007 XXYY=          -1035.7720 XXZZ=           -930.2180 YYZZ=           -590.1887
 XXYZ=            -47.7565 YYXZ=             21.7921 ZZXY=             27.2331
 N-N= 1.622788123180D+03 E-N=-5.735898346257D+03  KE= 1.055909233839D+03
 1\1\GINC-CPU-E-532\FOpt\RB3LYP\6-31G(d,p)\C14H26O3Si1\KE291\06-Feb-201
 9\0\\# b3lyp/6-31g(d,p) Opt=(maxcycles=25) scrf=(solvent=chloroform)\\
 P_ng_correct1ginp001\\0,1\C,0.8602464775,-0.4514620846,0.3690036832\C,
 -0.6735667833,-0.4604918297,0.4832865636\C,-1.1724588941,0.6049577921,
 1.5007693223\C,-0.6612205259,1.9670713572,1.0112145632\C,0.8268703333,
 2.0199408661,0.7266851817\H,1.2868146326,-0.9392629899,1.2550810439\H,
 -1.0837038521,-0.1541980007,-0.4885914807\H,-1.1546170722,2.2243125783
 ,0.066072882\H,-0.8842033991,2.7630901129,1.7235988597\O,1.4539690028,
 0.8852154626,0.355846946\O,1.4641216105,3.0517120909,0.764129283\C,1.3
 902221624,-1.1514847145,-0.8848986834\C,2.9186975316,-1.2249568239,-0.
 9509810281\C,-1.1859930583,-1.8768905784,0.7877056331\O,-2.5955577688,
 0.5711496911,1.5609011882\Si,-3.873881315,1.2619353925,0.7116234027\C,
 -4.0388820756,3.0987405068,1.1090894132\C,-3.7159918305,1.0192606876,-
 1.1551248579\C,-5.3773804765,0.3293282392,1.3501438725\H,-2.8566913475
 ,1.54380744,-1.5858961283\H,-3.629445943,-0.0408221837,-1.4160284179\H
 ,-4.6131142119,1.4085335035,-1.6510061328\H,-5.304258506,-0.7397350484
 ,1.1249461516\H,-5.4791250144,0.4371616819,2.435004387\H,-6.296539834,
 0.7072883763,0.8887847197\H,-4.0912968707,3.2628395724,2.1906223409\H,
 -3.2051819839,3.6917640011,0.7204509354\H,-4.9600053118,3.4974211089,0
 .667970046\H,-1.0643396969,-2.5364352063,-0.0749198423\H,-0.6544139429
 ,-2.3317965979,1.6299067418\H,-2.2483834751,-1.8415008719,1.0367027766
 \H,0.9972082014,-0.6254008798,-1.7639668347\H,0.9753784056,-2.16453734
 9,-0.9109124259\H,3.23980563,-1.7426396057,-1.8598227407\H,3.362434006
 6,-0.2264770722,-0.952350786\H,3.324508982,-1.7733726823,-0.0934510838
 \C,-0.6760124185,0.3179300263,2.9440813517\C,-1.1648521291,1.307083691
 7,3.9669215774\C,-0.3762141495,2.0583541005,4.7372573976\H,0.419141880
 5,0.287975837,2.9614797608\H,-1.0325435065,-0.6824015843,3.2173586874\
 H,-2.2455584726,1.3852304643,4.0682602386\H,-0.7851403158,2.7474971469
 ,5.4705128129\H,0.7081753248,2.0098473748,4.6665216787\\Version=ES64L-
 G09RevD.01\State=1-A\HF=-1064.425082\RMSD=4.429e-09\RMSF=6.596e-06\Dip
 ole=-1.3935778,-1.4675018,-0.3686876\Quadrupole=-3.1936642,-0.7799349,
 3.9735991,-10.7671018,2.1654901,2.1416293\PG=C01 [X(C14H26O3Si1)]\\@


 HIGGLEDY-PIGGLEDY
 NIC'LAUS COPERNICUS
 LOOKED AT THE UNIVERSE,
 SPOKE TO THE THRONG;
 GIVE UP YOUR PTOLOMY,
 RISE UP AND FOLLOW ME,
 HELIOCENTRICALLY
 PTOLEMY'S WRONG.
   -- NANCY L. STARK
 Job cpu time:       0 days  2 hours  7 minutes  9.5 seconds.
 File lengths (MBytes):  RWF=    381 Int=      0 D2E=      0 Chk=     17 Scr=      1
 Normal termination of Gaussian 09 at Wed Feb  6 11:14:30 2019.
