 Entering Gaussian System, Link 0=/usr/local/Cluster-Apps/gaussian/g09/g09
 Initial command:
 /usr/local/Cluster-Apps/gaussian/g09/l1.exe "/home/ke291/rds/hpc-work/06Feb0927IP1/Gau-314083.inp" -scrdir="/home/ke291/rds/hpc-work/06Feb0927IP1/"
 Entering Link 1 = /usr/local/Cluster-Apps/gaussian/g09/l1.exe PID=    314090.
  
 Copyright (c) 1988,1990,1992,1993,1995,1998,2003,2009,2013,
            Gaussian, Inc.  All Rights Reserved.
  
 This is part of the Gaussian(R) 09 program.  It is based on
 the Gaussian(R) 03 system (copyright 2003, Gaussian, Inc.),
 the Gaussian(R) 98 system (copyright 1998, Gaussian, Inc.),
 the Gaussian(R) 94 system (copyright 1995, Gaussian, Inc.),
 the Gaussian 92(TM) system (copyright 1992, Gaussian, Inc.),
 the Gaussian 90(TM) system (copyright 1990, Gaussian, Inc.),
 the Gaussian 88(TM) system (copyright 1988, Gaussian, Inc.),
 the Gaussian 86(TM) system (copyright 1986, Carnegie Mellon
 University), and the Gaussian 82(TM) system (copyright 1983,
 Carnegie Mellon University). Gaussian is a federally registered
 trademark of Gaussian, Inc.
  
 This software contains proprietary and confidential information,
 including trade secrets, belonging to Gaussian, Inc.
  
 This software is provided under written license and may be
 used, copied, transmitted, or stored only in accord with that
 written license.
  
 The following legend is applicable only to US Government
 contracts under FAR:
  
                    RESTRICTED RIGHTS LEGEND
  
 Use, reproduction and disclosure by the US Government is
 subject to restrictions as set forth in subparagraphs (a)
 and (c) of the Commercial Computer Software - Restricted
 Rights clause in FAR 52.227-19.
  
 Gaussian, Inc.
 340 Quinnipiac St., Bldg. 40, Wallingford CT 06492
  
  
 ---------------------------------------------------------------
 Warning -- This program may not be used in any manner that
 competes with the business of Gaussian, Inc. or will provide
 assistance to any competitor of Gaussian, Inc.  The licensee
 of this program is prohibited from giving any competitor of
 Gaussian, Inc. access to this program.  By using this program,
 the user acknowledges that Gaussian, Inc. is engaged in the
 business of creating and licensing software in the field of
 computational chemistry and represents and warrants to the
 licensee that it is not a competitor of Gaussian, Inc. and that
 it will not use this program in any manner prohibited above.
 ---------------------------------------------------------------
  

 Cite this work as:
 Gaussian 09, Revision D.01,
 M. J. Frisch, G. W. Trucks, H. B. Schlegel, G. E. Scuseria, 
 M. A. Robb, J. R. Cheeseman, G. Scalmani, V. Barone, B. Mennucci, 
 G. A. Petersson, H. Nakatsuji, M. Caricato, X. Li, H. P. Hratchian, 
 A. F. Izmaylov, J. Bloino, G. Zheng, J. L. Sonnenberg, M. Hada, 
 M. Ehara, K. Toyota, R. Fukuda, J. Hasegawa, M. Ishida, T. Nakajima, 
 Y. Honda, O. Kitao, H. Nakai, T. Vreven, J. A. Montgomery, Jr., 
 J. E. Peralta, F. Ogliaro, M. Bearpark, J. J. Heyd, E. Brothers, 
 K. N. Kudin, V. N. Staroverov, T. Keith, R. Kobayashi, J. Normand, 
 K. Raghavachari, A. Rendell, J. C. Burant, S. S. Iyengar, J. Tomasi, 
 M. Cossi, N. Rega, J. M. Millam, M. Klene, J. E. Knox, J. B. Cross, 
 V. Bakken, C. Adamo, J. Jaramillo, R. Gomperts, R. E. Stratmann, 
 O. Yazyev, A. J. Austin, R. Cammi, C. Pomelli, J. W. Ochterski, 
 R. L. Martin, K. Morokuma, V. G. Zakrzewski, G. A. Voth, 
 P. Salvador, J. J. Dannenberg, S. Dapprich, A. D. Daniels, 
 O. Farkas, J. B. Foresman, J. V. Ortiz, J. Cioslowski, 
 and D. J. Fox, Gaussian, Inc., Wallingford CT, 2013.
 
 ******************************************
 Gaussian 09:  ES64L-G09RevD.01 24-Apr-2013
                 6-Feb-2019 
 ******************************************
 %nprocshared=2
 Will use up to    2 processors via shared memory.
 %mem=6000MB
 %chk=/home/ke291/rds/hpc-work/06Feb0927IP1/P_ng_3ginp002.chk
 ---------------------------------------------------------------
 # b3lyp/6-31g(d,p) Opt=(maxcycles=25) scrf=(solvent=chloroform)
 ---------------------------------------------------------------
 1/6=25,14=-1,18=20,19=15,26=3,38=1/1,3;
 2/9=110,12=2,17=6,18=5,40=1/2;
 3/5=1,6=6,7=101,11=2,16=1,25=1,30=1,70=2201,71=1,72=7,74=-5/1,2,3;
 4//1;
 5/5=2,38=5,53=7/2;
 6/7=2,8=2,9=2,10=2,28=1/1;
 7//1,2,3,16;
 1/6=25,14=-1,18=20,19=15,26=3/3(2);
 2/9=110/2;
 99//99;
 2/9=110/2;
 3/5=1,6=6,7=101,11=2,16=1,25=1,30=1,70=2205,71=1,72=7,74=-5/1,2,3;
 4/5=5,16=3,69=1/1;
 5/5=2,38=5,53=7/2;
 7//1,2,3,16;
 1/6=25,14=-1,18=20,19=15,26=3/3(-5);
 2/9=110/2;
 6/7=2,8=2,9=2,10=2,19=2,28=1/1;
 99/9=1/99;
 -------------
 P_ng_3ginp002
 -------------
 Symbolic Z-matrix:
 Charge =  0 Multiplicity = 1
 C                    -0.16765   0.57339  -0.20935 
 C                    -1.47326   0.07104   0.42198 
 C                    -1.77629   0.90903   1.70849 
 C                    -1.86666   2.38055   1.28757 
 C                    -0.72376   2.86006   0.43455 
 H                     0.66896   0.41129   0.4791 
 H                    -1.35889  -0.98174   0.70889 
 H                    -2.78603   2.57759   0.7252 
 H                    -1.90155   3.02216   2.1763 
 O                    -0.20951   1.99402  -0.46427 
 O                    -0.35361   4.02994   0.46781 
 C                     0.23568  -0.09879  -1.53154 
 C                     0.4446   -1.59991  -1.41484 
 C                    -2.64608   0.0964   -0.58167 
 O                    -3.01794   0.37253   2.21956 
 Si                   -4.11743   1.07246   3.2689 
 C                    -3.3393    1.86644   4.77748 
 C                    -5.17677   2.35949   2.39632 
 C                    -5.28897  -0.277     3.89316 
 H                    -6.01442   2.65907   3.03334 
 H                    -4.59555   3.25521   2.16159 
 H                    -5.58183   1.95447   1.46438 
 H                    -6.03533   0.14788   4.57051 
 H                    -5.80788  -0.74738   3.053 
 H                    -4.72791  -1.04681   4.4308 
 H                    -4.11458   2.24458   5.45104 
 H                    -2.73711   1.14115   5.33241 
 H                    -2.70063   2.70879   4.49801 
 H                    -3.59066  -0.18672  -0.10739 
 H                    -2.77754   1.08126  -1.03975 
 H                    -2.48193  -0.62266  -1.39056 
 H                     1.17013   0.3592   -1.88217 
 H                    -0.49581   0.12178  -2.31766 
 H                     0.82074  -2.00108  -2.36142 
 H                     1.17556  -1.83422  -0.63447 
 H                    -0.48815  -2.12114  -1.18199 
 C                    -0.65702   0.74011   2.7937 
 C                    -0.38885  -0.68612   3.20055 
 C                     0.81298  -1.27396   3.14534 
 H                    -0.94118   1.27674   3.70386 
 H                     0.27444   1.21589   2.46485 
 H                    -1.23941  -1.25808   3.56866 
 H                     0.93868  -2.30607   3.45992 
 H                     1.69637  -0.74776   2.79715 
 

 GradGradGradGradGradGradGradGradGradGradGradGradGradGradGradGradGradGrad
 Berny optimization.
 Initialization pass.
                           ----------------------------
                           !    Initial Parameters    !
                           ! (Angstroms and Degrees)  !
 --------------------------                            --------------------------
 ! Name  Definition              Value          Derivative Info.                !
 --------------------------------------------------------------------------------
 ! R1    R(1,2)                  1.5348         estimate D2E/DX2                !
 ! R2    R(1,6)                  1.0955         estimate D2E/DX2                !
 ! R3    R(1,10)                 1.4439         estimate D2E/DX2                !
 ! R4    R(1,12)                 1.5371         estimate D2E/DX2                !
 ! R5    R(2,3)                  1.565          estimate D2E/DX2                !
 ! R6    R(2,7)                  1.0972         estimate D2E/DX2                !
 ! R7    R(2,14)                 1.5438         estimate D2E/DX2                !
 ! R8    R(3,4)                  1.5332         estimate D2E/DX2                !
 ! R9    R(3,15)                 1.4459         estimate D2E/DX2                !
 ! R10   R(3,37)                 1.5681         estimate D2E/DX2                !
 ! R11   R(4,5)                  1.5046         estimate D2E/DX2                !
 ! R12   R(4,8)                  1.0956         estimate D2E/DX2                !
 ! R13   R(4,9)                  1.0967         estimate D2E/DX2                !
 ! R14   R(5,10)                 1.3499         estimate D2E/DX2                !
 ! R15   R(5,11)                 1.2275         estimate D2E/DX2                !
 ! R16   R(12,13)                1.5201         estimate D2E/DX2                !
 ! R17   R(12,32)                1.0981         estimate D2E/DX2                !
 ! R18   R(12,33)                1.0962         estimate D2E/DX2                !
 ! R19   R(13,34)                1.0947         estimate D2E/DX2                !
 ! R20   R(13,35)                1.0946         estimate D2E/DX2                !
 ! R21   R(13,36)                1.0936         estimate D2E/DX2                !
 ! R22   R(14,29)                1.0942         estimate D2E/DX2                !
 ! R23   R(14,30)                1.0941         estimate D2E/DX2                !
 ! R24   R(14,31)                1.0947         estimate D2E/DX2                !
 ! R25   R(15,16)                1.6733         estimate D2E/DX2                !
 ! R26   R(16,17)                1.8739         estimate D2E/DX2                !
 ! R27   R(16,18)                1.8815         estimate D2E/DX2                !
 ! R28   R(16,19)                1.8929         estimate D2E/DX2                !
 ! R29   R(17,26)                1.0944         estimate D2E/DX2                !
 ! R30   R(17,27)                1.0939         estimate D2E/DX2                !
 ! R31   R(17,28)                1.0934         estimate D2E/DX2                !
 ! R32   R(18,20)                1.0942         estimate D2E/DX2                !
 ! R33   R(18,21)                1.0933         estimate D2E/DX2                !
 ! R34   R(18,22)                1.0939         estimate D2E/DX2                !
 ! R35   R(19,23)                1.0938         estimate D2E/DX2                !
 ! R36   R(19,24)                1.0938         estimate D2E/DX2                !
 ! R37   R(19,25)                1.0938         estimate D2E/DX2                !
 ! R38   R(37,38)                1.5072         estimate D2E/DX2                !
 ! R39   R(37,40)                1.0941         estimate D2E/DX2                !
 ! R40   R(37,41)                1.0964         estimate D2E/DX2                !
 ! R41   R(38,39)                1.339          estimate D2E/DX2                !
 ! R42   R(38,42)                1.0891         estimate D2E/DX2                !
 ! R43   R(39,43)                1.0863         estimate D2E/DX2                !
 ! R44   R(39,44)                1.0856         estimate D2E/DX2                !
 ! A1    A(2,1,6)              110.042          estimate D2E/DX2                !
 ! A2    A(2,1,10)             111.715          estimate D2E/DX2                !
 ! A3    A(2,1,12)             115.7161         estimate D2E/DX2                !
 ! A4    A(6,1,10)             106.1809         estimate D2E/DX2                !
 ! A5    A(6,1,12)             105.9899         estimate D2E/DX2                !
 ! A6    A(10,1,12)            106.618          estimate D2E/DX2                !
 ! A7    A(1,2,3)              109.1239         estimate D2E/DX2                !
 ! A8    A(1,2,7)              109.449          estimate D2E/DX2                !
 ! A9    A(1,2,14)             111.9287         estimate D2E/DX2                !
 ! A10   A(3,2,7)              108.6034         estimate D2E/DX2                !
 ! A11   A(3,2,14)             112.2424         estimate D2E/DX2                !
 ! A12   A(7,2,14)             105.3642         estimate D2E/DX2                !
 ! A13   A(2,3,4)              107.4363         estimate D2E/DX2                !
 ! A14   A(2,3,15)             104.961          estimate D2E/DX2                !
 ! A15   A(2,3,37)             111.9016         estimate D2E/DX2                !
 ! A16   A(4,3,15)             113.7367         estimate D2E/DX2                !
 ! A17   A(4,3,37)             109.5997         estimate D2E/DX2                !
 ! A18   A(15,3,37)            109.1691         estimate D2E/DX2                !
 ! A19   A(3,4,5)              114.6297         estimate D2E/DX2                !
 ! A20   A(3,4,8)              111.2841         estimate D2E/DX2                !
 ! A21   A(3,4,9)              109.9325         estimate D2E/DX2                !
 ! A22   A(5,4,8)              106.8035         estimate D2E/DX2                !
 ! A23   A(5,4,9)              107.2869         estimate D2E/DX2                !
 ! A24   A(8,4,9)              106.5017         estimate D2E/DX2                !
 ! A25   A(4,5,10)             117.5416         estimate D2E/DX2                !
 ! A26   A(4,5,11)             121.1603         estimate D2E/DX2                !
 ! A27   A(10,5,11)            120.9706         estimate D2E/DX2                !
 ! A28   A(1,10,5)             121.6467         estimate D2E/DX2                !
 ! A29   A(1,12,13)            113.6955         estimate D2E/DX2                !
 ! A30   A(1,12,32)            108.3946         estimate D2E/DX2                !
 ! A31   A(1,12,33)            110.7181         estimate D2E/DX2                !
 ! A32   A(13,12,32)           108.6279         estimate D2E/DX2                !
 ! A33   A(13,12,33)           110.2099         estimate D2E/DX2                !
 ! A34   A(32,12,33)           104.7693         estimate D2E/DX2                !
 ! A35   A(12,13,34)           110.0431         estimate D2E/DX2                !
 ! A36   A(12,13,35)           110.9713         estimate D2E/DX2                !
 ! A37   A(12,13,36)           111.7033         estimate D2E/DX2                !
 ! A38   A(34,13,35)           107.9724         estimate D2E/DX2                !
 ! A39   A(34,13,36)           107.608          estimate D2E/DX2                !
 ! A40   A(35,13,36)           108.4058         estimate D2E/DX2                !
 ! A41   A(2,14,29)            111.7006         estimate D2E/DX2                !
 ! A42   A(2,14,30)            112.225          estimate D2E/DX2                !
 ! A43   A(2,14,31)            110.8353         estimate D2E/DX2                !
 ! A44   A(29,14,30)           108.0985         estimate D2E/DX2                !
 ! A45   A(29,14,31)           106.2463         estimate D2E/DX2                !
 ! A46   A(30,14,31)           107.453          estimate D2E/DX2                !
 ! A47   A(3,15,16)            129.1019         estimate D2E/DX2                !
 ! A48   A(15,16,17)           114.1565         estimate D2E/DX2                !
 ! A49   A(15,16,18)           111.4228         estimate D2E/DX2                !
 ! A50   A(15,16,19)           108.3777         estimate D2E/DX2                !
 ! A51   A(17,16,18)           108.5004         estimate D2E/DX2                !
 ! A52   A(17,16,19)           107.0707         estimate D2E/DX2                !
 ! A53   A(18,16,19)           106.9856         estimate D2E/DX2                !
 ! A54   A(16,17,26)           110.3473         estimate D2E/DX2                !
 ! A55   A(16,17,27)           110.8578         estimate D2E/DX2                !
 ! A56   A(16,17,28)           111.2962         estimate D2E/DX2                !
 ! A57   A(26,17,27)           107.8689         estimate D2E/DX2                !
 ! A58   A(26,17,28)           107.7522         estimate D2E/DX2                !
 ! A59   A(27,17,28)           108.5961         estimate D2E/DX2                !
 ! A60   A(16,18,20)           110.3845         estimate D2E/DX2                !
 ! A61   A(16,18,21)           111.1427         estimate D2E/DX2                !
 ! A62   A(16,18,22)           110.5072         estimate D2E/DX2                !
 ! A63   A(20,18,21)           107.9187         estimate D2E/DX2                !
 ! A64   A(20,18,22)           108.2936         estimate D2E/DX2                !
 ! A65   A(21,18,22)           108.4995         estimate D2E/DX2                !
 ! A66   A(16,19,23)           110.464          estimate D2E/DX2                !
 ! A67   A(16,19,24)           110.2963         estimate D2E/DX2                !
 ! A68   A(16,19,25)           110.2649         estimate D2E/DX2                !
 ! A69   A(23,19,24)           108.6017         estimate D2E/DX2                !
 ! A70   A(23,19,25)           108.6025         estimate D2E/DX2                !
 ! A71   A(24,19,25)           108.5561         estimate D2E/DX2                !
 ! A72   A(3,37,38)            114.5665         estimate D2E/DX2                !
 ! A73   A(3,37,40)            109.7231         estimate D2E/DX2                !
 ! A74   A(3,37,41)            110.6141         estimate D2E/DX2                !
 ! A75   A(38,37,40)           106.6055         estimate D2E/DX2                !
 ! A76   A(38,37,41)           109.9039         estimate D2E/DX2                !
 ! A77   A(40,37,41)           104.9103         estimate D2E/DX2                !
 ! A78   A(37,38,39)           124.3327         estimate D2E/DX2                !
 ! A79   A(37,38,42)           116.6954         estimate D2E/DX2                !
 ! A80   A(39,38,42)           118.97           estimate D2E/DX2                !
 ! A81   A(38,39,43)           120.5994         estimate D2E/DX2                !
 ! A82   A(38,39,44)           122.0594         estimate D2E/DX2                !
 ! A83   A(43,39,44)           117.3394         estimate D2E/DX2                !
 ! D1    D(6,1,2,3)             63.086          estimate D2E/DX2                !
 ! D2    D(6,1,2,7)            -55.6336         estimate D2E/DX2                !
 ! D3    D(6,1,2,14)          -172.0608         estimate D2E/DX2                !
 ! D4    D(10,1,2,3)           -54.5968         estimate D2E/DX2                !
 ! D5    D(10,1,2,7)          -173.3164         estimate D2E/DX2                !
 ! D6    D(10,1,2,14)           70.2564         estimate D2E/DX2                !
 ! D7    D(12,1,2,3)          -176.8377         estimate D2E/DX2                !
 ! D8    D(12,1,2,7)            64.4427         estimate D2E/DX2                !
 ! D9    D(12,1,2,14)          -51.9845         estimate D2E/DX2                !
 ! D10   D(2,1,10,5)            42.6092         estimate D2E/DX2                !
 ! D11   D(6,1,10,5)           -77.3684         estimate D2E/DX2                !
 ! D12   D(12,1,10,5)          169.9299         estimate D2E/DX2                !
 ! D13   D(2,1,12,13)          -60.0183         estimate D2E/DX2                !
 ! D14   D(2,1,12,32)          179.0803         estimate D2E/DX2                !
 ! D15   D(2,1,12,33)           64.6863         estimate D2E/DX2                !
 ! D16   D(6,1,12,13)           62.2376         estimate D2E/DX2                !
 ! D17   D(6,1,12,32)          -58.6638         estimate D2E/DX2                !
 ! D18   D(6,1,12,33)         -173.0578         estimate D2E/DX2                !
 ! D19   D(10,1,12,13)         175.0705         estimate D2E/DX2                !
 ! D20   D(10,1,12,32)          54.1692         estimate D2E/DX2                !
 ! D21   D(10,1,12,33)         -60.2248         estimate D2E/DX2                !
 ! D22   D(1,2,3,4)             58.1922         estimate D2E/DX2                !
 ! D23   D(1,2,3,15)           179.5683         estimate D2E/DX2                !
 ! D24   D(1,2,3,37)           -62.1539         estimate D2E/DX2                !
 ! D25   D(7,2,3,4)            177.4382         estimate D2E/DX2                !
 ! D26   D(7,2,3,15)           -61.1857         estimate D2E/DX2                !
 ! D27   D(7,2,3,37)            57.0922         estimate D2E/DX2                !
 ! D28   D(14,2,3,4)           -66.4776         estimate D2E/DX2                !
 ! D29   D(14,2,3,15)           54.8985         estimate D2E/DX2                !
 ! D30   D(14,2,3,37)          173.1763         estimate D2E/DX2                !
 ! D31   D(1,2,14,29)         -175.4922         estimate D2E/DX2                !
 ! D32   D(1,2,14,30)          -53.9056         estimate D2E/DX2                !
 ! D33   D(1,2,14,31)           66.2378         estimate D2E/DX2                !
 ! D34   D(3,2,14,29)          -52.3861         estimate D2E/DX2                !
 ! D35   D(3,2,14,30)           69.2005         estimate D2E/DX2                !
 ! D36   D(3,2,14,31)         -170.6561         estimate D2E/DX2                !
 ! D37   D(7,2,14,29)           65.6355         estimate D2E/DX2                !
 ! D38   D(7,2,14,30)         -172.7778         estimate D2E/DX2                !
 ! D39   D(7,2,14,31)          -52.6345         estimate D2E/DX2                !
 ! D40   D(2,3,4,5)            -49.1387         estimate D2E/DX2                !
 ! D41   D(2,3,4,8)             72.1871         estimate D2E/DX2                !
 ! D42   D(2,3,4,9)           -170.0683         estimate D2E/DX2                !
 ! D43   D(15,3,4,5)          -164.842          estimate D2E/DX2                !
 ! D44   D(15,3,4,8)           -43.5162         estimate D2E/DX2                !
 ! D45   D(15,3,4,9)            74.2284         estimate D2E/DX2                !
 ! D46   D(37,3,4,5)            72.655          estimate D2E/DX2                !
 ! D47   D(37,3,4,8)          -166.0192         estimate D2E/DX2                !
 ! D48   D(37,3,4,9)           -48.2746         estimate D2E/DX2                !
 ! D49   D(2,3,15,16)         -159.8695         estimate D2E/DX2                !
 ! D50   D(4,3,15,16)          -42.7191         estimate D2E/DX2                !
 ! D51   D(37,3,15,16)          80.0206         estimate D2E/DX2                !
 ! D52   D(2,3,37,38)          -55.7984         estimate D2E/DX2                !
 ! D53   D(2,3,37,40)         -175.6457         estimate D2E/DX2                !
 ! D54   D(2,3,37,41)           69.0835         estimate D2E/DX2                !
 ! D55   D(4,3,37,38)         -174.8746         estimate D2E/DX2                !
 ! D56   D(4,3,37,40)           65.2781         estimate D2E/DX2                !
 ! D57   D(4,3,37,41)          -49.9926         estimate D2E/DX2                !
 ! D58   D(15,3,37,38)          59.9446         estimate D2E/DX2                !
 ! D59   D(15,3,37,40)         -59.9028         estimate D2E/DX2                !
 ! D60   D(15,3,37,41)        -175.1735         estimate D2E/DX2                !
 ! D61   D(3,4,5,10)            36.4786         estimate D2E/DX2                !
 ! D62   D(3,4,5,11)          -150.0315         estimate D2E/DX2                !
 ! D63   D(8,4,5,10)           -87.2722         estimate D2E/DX2                !
 ! D64   D(8,4,5,11)            86.2177         estimate D2E/DX2                !
 ! D65   D(9,4,5,10)           158.8534         estimate D2E/DX2                !
 ! D66   D(9,4,5,11)           -27.6567         estimate D2E/DX2                !
 ! D67   D(4,5,10,1)           -32.8346         estimate D2E/DX2                !
 ! D68   D(11,5,10,1)          153.6624         estimate D2E/DX2                !
 ! D69   D(1,12,13,34)        -174.6237         estimate D2E/DX2                !
 ! D70   D(1,12,13,35)         -55.1789         estimate D2E/DX2                !
 ! D71   D(1,12,13,36)          65.9188         estimate D2E/DX2                !
 ! D72   D(32,12,13,34)        -53.8532         estimate D2E/DX2                !
 ! D73   D(32,12,13,35)         65.5916         estimate D2E/DX2                !
 ! D74   D(32,12,13,36)       -173.3107         estimate D2E/DX2                !
 ! D75   D(33,12,13,34)         60.3993         estimate D2E/DX2                !
 ! D76   D(33,12,13,35)        179.844          estimate D2E/DX2                !
 ! D77   D(33,12,13,36)        -59.0583         estimate D2E/DX2                !
 ! D78   D(3,15,16,17)         -46.5068         estimate D2E/DX2                !
 ! D79   D(3,15,16,18)          76.8292         estimate D2E/DX2                !
 ! D80   D(3,15,16,19)        -165.7173         estimate D2E/DX2                !
 ! D81   D(15,16,17,26)       -176.2591         estimate D2E/DX2                !
 ! D82   D(15,16,17,27)        -56.8192         estimate D2E/DX2                !
 ! D83   D(15,16,17,28)         64.1645         estimate D2E/DX2                !
 ! D84   D(18,16,17,26)         58.838          estimate D2E/DX2                !
 ! D85   D(18,16,17,27)        178.278          estimate D2E/DX2                !
 ! D86   D(18,16,17,28)        -60.7384         estimate D2E/DX2                !
 ! D87   D(19,16,17,26)        -56.3126         estimate D2E/DX2                !
 ! D88   D(19,16,17,27)         63.1274         estimate D2E/DX2                !
 ! D89   D(19,16,17,28)       -175.889          estimate D2E/DX2                !
 ! D90   D(15,16,18,20)        168.616          estimate D2E/DX2                !
 ! D91   D(15,16,18,21)        -71.6738         estimate D2E/DX2                !
 ! D92   D(15,16,18,22)         48.8475         estimate D2E/DX2                !
 ! D93   D(17,16,18,20)        -64.8827         estimate D2E/DX2                !
 ! D94   D(17,16,18,21)         54.8275         estimate D2E/DX2                !
 ! D95   D(17,16,18,22)        175.3489         estimate D2E/DX2                !
 ! D96   D(19,16,18,20)         50.3234         estimate D2E/DX2                !
 ! D97   D(19,16,18,21)        170.0335         estimate D2E/DX2                !
 ! D98   D(19,16,18,22)        -69.4451         estimate D2E/DX2                !
 ! D99   D(15,16,19,23)       -179.0087         estimate D2E/DX2                !
 ! D100  D(15,16,19,24)        -58.9408         estimate D2E/DX2                !
 ! D101  D(15,16,19,25)         60.9427         estimate D2E/DX2                !
 ! D102  D(17,16,19,23)         57.4102         estimate D2E/DX2                !
 ! D103  D(17,16,19,24)        177.478          estimate D2E/DX2                !
 ! D104  D(17,16,19,25)        -62.6384         estimate D2E/DX2                !
 ! D105  D(18,16,19,23)        -58.7495         estimate D2E/DX2                !
 ! D106  D(18,16,19,24)         61.3183         estimate D2E/DX2                !
 ! D107  D(18,16,19,25)       -178.7982         estimate D2E/DX2                !
 ! D108  D(3,37,38,39)         124.4564         estimate D2E/DX2                !
 ! D109  D(3,37,38,42)         -56.0531         estimate D2E/DX2                !
 ! D110  D(40,37,38,39)       -113.9738         estimate D2E/DX2                !
 ! D111  D(40,37,38,42)         65.5166         estimate D2E/DX2                !
 ! D112  D(41,37,38,39)         -0.7989         estimate D2E/DX2                !
 ! D113  D(41,37,38,42)        178.6915         estimate D2E/DX2                !
 ! D114  D(37,38,39,43)        179.646          estimate D2E/DX2                !
 ! D115  D(37,38,39,44)          0.1479         estimate D2E/DX2                !
 ! D116  D(42,38,39,43)          0.1663         estimate D2E/DX2                !
 ! D117  D(42,38,39,44)       -179.3317         estimate D2E/DX2                !
 --------------------------------------------------------------------------------
 Trust Radius=3.00D-01 FncErr=1.00D-07 GrdErr=1.00D-06
 Number of steps in this run=     25 maximum allowed number of steps=    264.
 GradGradGradGradGradGradGradGradGradGradGradGradGradGradGradGradGradGrad

                          Input orientation:                          
 ---------------------------------------------------------------------
 Center     Atomic      Atomic             Coordinates (Angstroms)
 Number     Number       Type             X           Y           Z
 ---------------------------------------------------------------------
      1          6           0       -0.167646    0.573392   -0.209346
      2          6           0       -1.473255    0.071041    0.421977
      3          6           0       -1.776291    0.909027    1.708492
      4          6           0       -1.866656    2.380548    1.287574
      5          6           0       -0.723756    2.860056    0.434549
      6          1           0        0.668959    0.411289    0.479096
      7          1           0       -1.358886   -0.981740    0.708889
      8          1           0       -2.786026    2.577590    0.725199
      9          1           0       -1.901554    3.022163    2.176296
     10          8           0       -0.209508    1.994015   -0.464270
     11          8           0       -0.353605    4.029941    0.467813
     12          6           0        0.235683   -0.098789   -1.531537
     13          6           0        0.444603   -1.599910   -1.414838
     14          6           0       -2.646076    0.096398   -0.581672
     15          8           0       -3.017937    0.372532    2.219555
     16         14           0       -4.117427    1.072459    3.268904
     17          6           0       -3.339303    1.866438    4.777476
     18          6           0       -5.176766    2.359485    2.396318
     19          6           0       -5.288965   -0.276999    3.893160
     20          1           0       -6.014417    2.659069    3.033338
     21          1           0       -4.595552    3.255206    2.161592
     22          1           0       -5.581832    1.954469    1.464382
     23          1           0       -6.035330    0.147877    4.570509
     24          1           0       -5.807883   -0.747376    3.052996
     25          1           0       -4.727911   -1.046810    4.430797
     26          1           0       -4.114575    2.244583    5.451042
     27          1           0       -2.737112    1.141151    5.332409
     28          1           0       -2.700627    2.708789    4.498006
     29          1           0       -3.590663   -0.186722   -0.107390
     30          1           0       -2.777539    1.081261   -1.039751
     31          1           0       -2.481934   -0.622657   -1.390564
     32          1           0        1.170130    0.359200   -1.882174
     33          1           0       -0.495813    0.121777   -2.317660
     34          1           0        0.820735   -2.001081   -2.361422
     35          1           0        1.175562   -1.834220   -0.634471
     36          1           0       -0.488145   -2.121137   -1.181986
     37          6           0       -0.657017    0.740109    2.793698
     38          6           0       -0.388846   -0.686118    3.200547
     39          6           0        0.812984   -1.273957    3.145344
     40          1           0       -0.941180    1.276741    3.703863
     41          1           0        0.274439    1.215893    2.464850
     42          1           0       -1.239414   -1.258077    3.568659
     43          1           0        0.938684   -2.306072    3.459917
     44          1           0        1.696366   -0.747764    2.797151
 ---------------------------------------------------------------------
                    Distance matrix (angstroms):
                    1          2          3          4          5
     1  C    0.000000
     2  C    1.534777   0.000000
     3  C    2.525568   1.564983   0.000000
     4  C    2.897105   2.497568   1.533203   0.000000
     5  C    2.439814   2.887994   2.556810   1.504593   0.000000
     6  H    1.095508   2.169818   2.781799   3.310734   2.817463
     7  H    2.163480   1.097154   2.179090   3.449302   3.903594
     8  H    3.427258   2.845716   2.184155   1.095597   2.101719
     9  H    3.833302   3.459797   2.167920   1.096683   2.108831
    10  O    1.443921   2.465830   2.890139   2.442234   1.349946
    11  O    3.527160   4.114439   3.647386   2.383659   1.227497
    12  C    1.537105   2.601063   3.944809   4.302828   3.679780
    13  C    2.559551   3.137538   4.580647   5.337508   4.967554
    14  C    2.551228   1.543847   2.581035   3.052690   3.516507
    15  O    3.750208   2.389189   1.445924   2.495228   3.825871
    16  Si   5.286593   4.012415   2.818247   3.271504   4.769284
    17  C    6.049774   5.067145   3.574676   3.822619   5.166176
    18  C    5.922069   4.780271   3.760341   3.490929   4.891667
    19  C    6.616769   5.170095   4.303291   5.056069   6.530256
    20  H    7.003555   5.842880   4.772795   4.508790   5.897897
    21  H    5.693841   4.786847   3.695685   2.995965   4.257890
    22  H    5.832851   4.638353   3.954071   3.743706   5.047925
    23  H    7.580092   6.166745   5.187476   5.756763   7.257747
    24  H    6.648276   5.136250   4.561260   5.332344   6.761522
    25  H    6.704625   5.283277   4.466352   5.460166   6.875090
    26  H    7.100079   6.082134   4.610636   4.733507   6.086186
    27  H    6.134782   5.182163   3.756306   4.319084   5.567519
    28  H    5.756307   5.007811   3.446002   3.333185   4.521348
    29  H    3.507879   2.197746   2.791064   3.392492   4.218496
    30  H    2.785506   2.204166   2.930017   2.816788   3.091229
    31  H    2.860374   2.187225   3.528192   4.070655   4.307147
    32  H    2.152644   3.518470   4.677242   4.832724   3.899781
    33  H    2.180972   2.909223   4.297591   4.469784   3.889060
    34  H    3.498034   4.159734   5.637151   6.303643   5.816662
    35  H    2.789540   3.429626   4.661364   5.541987   5.175562
    36  H    2.882574   2.889426   4.381333   5.316407   5.242231
    37  C    3.047220   2.595950   1.568113   2.534300   3.172414
    38  C    3.641794   3.077285   2.587609   3.904847   4.509796
    39  C    3.953262   3.801662   3.678900   4.897672   5.176876
    40  H    4.050464   3.536607   2.194112   2.813067   3.639035
    41  H    2.785601   2.922063   2.207201   2.706786   2.796746
    42  H    4.333161   3.423864   2.905993   4.340089   5.200728
    43  H    4.793618   4.549417   4.558008   5.878215   6.213327
    44  H    3.776112   4.044551   3.998685   4.975971   4.945224
                    6          7          8          9         10
     6  H    0.000000
     7  H    2.470929   0.000000
     8  H    4.085382   3.834817   0.000000
     9  H    4.037906   4.298722   1.756593   0.000000
    10  O    2.041241   3.398895   2.897213   3.300409   0.000000
    11  O    3.760373   5.117192   2.844687   2.516084   2.243777
    12  C    2.119092   2.888211   4.624563   5.296806   2.391042
    13  C    2.771686   2.853931   5.698090   6.305890   3.774618
    14  C    3.494831   2.117732   2.807813   4.089108   3.090566
    15  O    4.077242   2.620804   2.673792   2.875539   4.209441
    16  Si   5.579397   4.287535   3.241679   3.147258   5.482489
    17  C    6.054725   5.346734   4.151241   3.188881   6.106373
    18  C    6.453194   5.346719   2.925038   3.348816   5.743708
    19  C    6.901191   5.107031   4.944629   5.030571   7.067219
    20  H    7.499612   6.350789   3.969465   4.216871   6.809738
    21  H    6.215604   5.526126   2.407649   2.704099   5.265276
    22  H    6.513415   5.198593   2.958243   3.897594   5.708163
    23  H    7.858533   6.169058   5.589981   5.575113   7.918171
    24  H    7.065193   5.034217   5.060203   5.498857   7.157387
    25  H    6.846035   5.020674   5.535219   5.443125   7.322859
    26  H    7.138866   6.363254   4.920318   4.028158   7.092478
    27  H    5.973999   5.270969   4.826192   3.767945   6.381038
    28  H    5.725754   5.456893   3.776053   2.475290   5.598282
    29  H    4.341194   2.505832   2.997010   4.285470   4.039206
    30  H    3.825455   3.053898   2.313897   3.857124   2.785513
    31  H    3.806941   2.407879   3.848442   5.132645   3.587327
    32  H    2.414432   3.861043   5.231713   5.744371   2.566412
    33  H    3.043412   3.335063   4.531565   5.530279   2.649962
    34  H    3.729760   3.900848   6.595467   7.296213   4.541077
    35  H    2.557145   2.992451   6.083334   6.399493   4.074650
    36  H    3.242108   2.373146   5.567373   6.303120   4.186554
    37  C    2.687697   2.793530   3.491089   2.671671   3.519503
    38  C    3.119223   2.690117   4.746115   4.133851   4.543804
    39  C    3.157479   3.276999   5.800378   5.173434   4.975384
    40  H    3.706842   3.774266   3.737393   2.510434   4.292221
    41  H    2.178590   3.252805   3.774527   2.842678   3.069108
    42  H    3.996757   2.875573   5.018926   4.549457   5.282170
    43  H    4.042536   3.821104   6.723266   6.172902   5.933661
    44  H    2.787893   3.708119   5.953386   5.248127   4.667609
                   11         12         13         14         15
    11  O    0.000000
    12  C    4.625048   0.000000
    13  C    5.989719   1.520076   0.000000
    14  C    4.672216   3.040539   3.622696   0.000000
    15  O    4.852206   4.987873   5.393378   2.839261   0.000000
    16  Si   5.546095   6.585258   7.063364   4.236095   1.673293
    17  C    5.671713   7.513074   8.042280   5.686306   2.979596
    18  C    5.456412   7.125009   7.861394   4.516014   2.939349
    19  C    7.391922   7.744729   7.924565   5.210414   2.894894
    20  H    6.364433   8.216302   8.924355   5.566085   3.856084
    21  H    4.632841   6.944733   7.859145   4.615628   3.286645
    22  H    5.712713   6.858198   7.565807   4.032050   3.105860
    23  H    8.011525   8.753366   8.992701   6.167225   3.831725
    24  H    7.697732   7.613363   7.731878   4.890786   3.119714
    25  H    7.785448   7.815717   7.825105   5.546693   3.134985
    26  H    6.493456   8.554095   9.094314   6.569994   3.892261
    27  H    6.139260   7.582131   7.947457   6.006343   3.218617
    28  H    4.847310   7.270474   7.963610   5.712328   3.278738
    29  H    5.346929   4.083730   4.471006   1.094233   2.460783
    30  H    4.104013   3.273206   4.208511   1.094109   3.344124
    31  H    5.443346   2.771237   3.085487   1.094664   3.782943
    32  H    4.617201   1.098131   2.140772   4.040272   5.862104
    33  H    4.801336   1.096232   2.159555   2.763680   5.197144
    34  H    6.764383   2.156319   1.094730   4.425574   6.430769
    35  H    6.159689   2.167907   1.094612   4.281938   5.531786
    36  H    6.369906   2.176236   1.093580   3.151905   4.918202
    37  C    4.040395   4.495367   4.939740   3.970371   2.457376
    38  C    5.450715   4.809117   4.778225   4.473544   2.999201
    39  C    6.054869   4.856698   4.586634   5.266272   4.271296
    40  H    4.289216   5.539540   6.032961   4.760850   2.708078
    41  H    3.507344   4.207256   4.796841   4.366231   3.407516
    42  H    6.193790   5.434322   5.271433   4.586780   2.764437
    43  H    7.125150   5.502810   4.950355   5.912428   4.936422
    44  H    5.696899   4.614358   4.475926   5.566494   4.879891
                   16         17         18         19         20
    16  Si   0.000000
    17  C    1.873945   0.000000
    18  C    1.881500   3.047832   0.000000
    19  C    1.892943   3.029442   3.033838   0.000000
    20  H    2.484229   3.290367   1.094168   3.144212   0.000000
    21  H    2.493818   3.217093   1.093262   3.994449   1.768756
    22  H    2.485704   4.001659   1.093902   3.311221   1.773475
    23  H    2.495472   3.203880   3.217988   1.093792   2.944387
    24  H    2.493202   3.987448   3.237610   1.093803   3.412757
    25  H    2.492787   3.245833   3.992921   1.093821   4.164316
    26  H    2.477016   1.094409   3.236169   3.188191   3.102659
    27  H    2.483554   1.093904   4.007104   3.254926   4.281417
    28  H    2.489094   1.093419   3.266553   3.997532   3.623386
    29  H    3.641755   5.304768   3.907358   4.347043   4.882344
    30  H    4.512193   5.896797   4.381406   5.699626   5.436627
    31  H    5.221005   6.706370   5.522297   5.993049   6.543628
    32  H    7.416239   8.182768   7.911367   8.687873   9.003853
    33  H    6.725294   7.840295   7.010010   7.855419   8.094814
    34  H    8.095225   9.122910   8.810258   8.911829   9.876221
    35  H    7.190330   7.960405   8.192980   8.044532   9.237871
    36  H    6.571238   7.716544   7.406983   7.225360   8.435580
    37  C    3.508663   3.521172   4.817512   4.868087   5.695750
    38  C    4.123055   4.208021   5.731201   4.965708   6.547158
    39  C    5.461674   5.455953   7.045569   6.227916   7.880015
    40  H    3.212392   2.692839   4.563135   4.620950   5.300771
    41  H    4.467165   4.339422   5.570290   5.934666   6.477318
    42  H    3.715402   3.953905   5.473927   4.179316   6.199295
    43  H    6.084013   6.119393   7.765140   6.564179   8.554543
    44  H    6.110315   6.009468   7.553516   7.086445   8.433177
                   21         22         23         24         25
    21  H    0.000000
    22  H    1.775040   0.000000
    23  H    4.187044   3.621803   0.000000
    24  H    4.276098   3.142413   1.776529   0.000000
    25  H    4.865609   4.305401   1.776553   1.776045   0.000000
    26  H    3.474648   4.257989   2.976712   4.191627   3.500050
    27  H    4.239942   4.869861   3.527793   4.265195   3.092468
    28  H    3.057473   4.251260   4.205208   4.867049   4.268363
    29  H    4.243224   3.319627   5.288770   3.901082   4.756913
    30  H    4.275489   3.859693   6.554344   5.410866   6.185429
    31  H    5.667717   4.939804   6.982459   5.551821   6.254004
    32  H    7.614590   7.702812   9.674731   8.618183   8.753134
    33  H    6.833003   6.597741   8.839333   7.603779   8.050958
    34  H    8.798998   8.442512   9.983753   8.650218   8.822264
    35  H    8.186940   8.026314   9.111393   7.971646   7.818436
    36  H    7.546878   7.039849   8.307279   6.936995   7.115696
    37  C    4.715647   5.243620   5.695090   5.367613   4.737652
    38  C    5.857460   6.078986   5.869849   5.421392   4.524500
    39  C    7.122735   7.358127   7.138075   6.642416   5.692583
    40  H    4.432534   5.197138   5.289213   5.310883   4.501850
    41  H    5.288438   5.986847   6.737035   6.418332   5.831662
    42  H    5.797691   5.796984   5.097178   4.625758   3.599657
    43  H    7.952435   8.040616   7.476105   6.936230   5.885461
    44  H    7.484379   7.877214   7.982863   7.508609   6.635478
                   26         27         28         29         30
    26  H    0.000000
    27  H    1.768909   0.000000
    28  H    1.767205   1.776246   0.000000
    29  H    6.089490   5.664204   5.512333   0.000000
    30  H    6.728401   6.372570   5.772479   1.771510   0.000000
    31  H    7.595667   6.955178   6.769167   1.750958   1.764593
    32  H    9.233571   8.241856   7.823684   5.110092   4.100627
    33  H    8.829183   8.036548   7.616242   3.815568   2.785666
    34  H   10.169442   9.040295   9.035188   5.275698   4.918864
    35  H    9.036352   7.730815   7.874395   5.070401   4.928619
    36  H    8.729695   7.624809   7.777247   3.810818   3.939151
    37  C    4.612985   3.306461   3.310092   4.228665   4.394124
    38  C    5.247361   3.660342   4.307334   4.630710   5.177800
    39  C    6.478982   4.818629   5.480641   5.581619   5.996159
    40  H    3.749638   2.428151   2.403555   4.866943   5.090413
    41  H    5.407309   4.159077   3.900446   4.850027   4.649185
    42  H    4.906989   3.333198   4.328378   4.493274   5.392196
    43  H    7.085793   5.375970   6.282599   6.142663   6.747692
    44  H    7.054383   5.445297   5.845872   6.058366   6.171141
                   31         32         33         34         35
    31  H    0.000000
    32  H    3.813567   0.000000
    33  H    2.314814   1.738213   0.000000
    34  H    3.708132   2.433656   2.498347   0.000000
    35  H    3.926428   2.523467   3.074499   1.770905   0.000000
    36  H    2.502827   3.064671   2.514056   1.765970   1.774828
    37  C    4.763980   5.034614   5.151146   6.022718   4.662388
    38  C    5.046122   5.418224   5.578059   5.841893   4.298008
    39  C    5.644036   5.298178   5.788388   5.554569   3.838276
    40  H    5.651090   6.041798   6.147441   7.115908   5.742806
    41  H    5.083510   4.520266   4.966163   5.825827   4.440834
    42  H    5.151845   6.175198   6.091444   6.321561   4.881634
    43  H    6.169415   5.974544   6.429046   5.830516   4.128289
    44  H    5.916992   4.837187   5.632321   5.380373   3.636984
                   36         37         38         39         40
    36  H    0.000000
    37  C    4.901154   0.000000
    38  C    4.612563   1.507171   0.000000
    39  C    4.597438   2.518138   1.339029   0.000000
    40  H    5.968445   1.094131   2.100289   3.145647   0.000000
    41  H    5.001671   1.096413   2.144491   2.636751   1.736832
    42  H    4.886502   2.220923   1.089087   2.095659   2.555881
    43  H    4.859764   3.502760   2.110417   1.086286   4.053387
    44  H    4.742549   2.784275   2.124768   1.085579   3.446360
                   41         42         43         44
    41  H    0.000000
    42  H    3.103333   0.000000
    43  H    3.719626   2.419551   0.000000
    44  H    2.447090   3.078059   1.855172   0.000000
 Stoichiometry    C14H26O3Si
 Framework group  C1[X(C14H26O3Si)]
 Deg. of freedom   126
 Full point group                 C1      NOp   1
 Largest Abelian subgroup         C1      NOp   1
 Largest concise Abelian subgroup C1      NOp   1
                         Standard orientation:                         
 ---------------------------------------------------------------------
 Center     Atomic      Atomic             Coordinates (Angstroms)
 Number     Number       Type             X           Y           Z
 ---------------------------------------------------------------------
      1          6           0        2.429849   -0.164702    0.073840
      2          6           0        1.138709    0.262318    0.785284
      3          6           0       -0.076861    0.022534   -0.170784
      4          6           0       -0.085065   -1.465748   -0.539107
      5          6           0        1.241606   -2.004753   -1.000861
      6          1           0        2.594712    0.459249   -0.811396
      7          1           0        1.190078    1.331804    1.024671
      8          1           0       -0.400096   -2.083607    0.309031
      9          1           0       -0.808480   -1.647980   -1.342958
     10          8           0        2.352574   -1.525792   -0.401947
     11          8           0        1.306161   -2.931326   -1.803385
     12          6           0        3.716347   -0.063301    0.908903
     13          6           0        4.019881    1.344690    1.394762
     14          6           0        0.964694   -0.452732    2.142445
     15          8           0       -1.235449    0.441169    0.586259
     16         14           0       -2.844950    0.044483    0.358098
     17          6           0       -3.422743    0.176495   -1.419653
     18          6           0       -3.219857   -1.691095    0.980394
     19          6           0       -3.903944    1.237928    1.376653
     20          1           0       -4.300511   -1.859713    1.011375
     21          1           0       -2.779907   -2.448279    0.325917
     22          1           0       -2.821480   -1.830753    1.989558
     23          1           0       -4.965185    0.997361    1.265846
     24          1           0       -3.639597    1.170288    2.435875
     25          1           0       -3.742703    2.266957    1.042669
     26          1           0       -4.495105   -0.031220   -1.487672
     27          1           0       -3.250322    1.183149   -1.811500
     28          1           0       -2.902898   -0.540901   -2.060488
     29          1           0        0.006374   -0.206354    2.609634
     30          1           0        1.026879   -1.540966    2.047825
     31          1           0        1.739541   -0.139849    2.849556
     32          1           0        4.557011   -0.410982    0.293847
     33          1           0        3.684249   -0.757726    1.756529
     34          1           0        4.991674    1.366485    1.898329
     35          1           0        4.057592    2.048505    0.557267
     36          1           0        3.269621    1.696837    2.108217
     37          6           0        0.025614    0.886702   -1.475273
     38          6           0        0.164724    2.368260   -1.236112
     39          6           0        1.160435    3.121221   -1.720477
     40          1           0       -0.876083    0.750888   -2.079939
     41          1           0        0.846681    0.532282   -2.109589
     42          1           0       -0.609586    2.841485   -0.633941
     43          1           0        1.198147    4.187149   -1.514578
     44          1           0        1.952063    2.703823   -2.334956
 ---------------------------------------------------------------------
 Rotational constants (GHZ):      0.5110533      0.2619447      0.2358706
 Standard basis: 6-31G(d,p) (6D, 7F)
 There are   404 symmetry adapted cartesian basis functions of A   symmetry.
 There are   404 symmetry adapted basis functions of A   symmetry.
   404 basis functions,   710 primitive gaussians,   404 cartesian basis functions
    74 alpha electrons       74 beta electrons
       nuclear repulsion energy      1631.1778083274 Hartrees.
 NAtoms=   44 NActive=   44 NUniq=   44 SFac= 1.00D+00 NAtFMM=   60 NAOKFM=F Big=F
 Integral buffers will be    131072 words long.
 Raffenetti 2 integral format.
 Two-electron integral symmetry is turned on.
 ------------------------------------------------------------------------------
 Polarizable Continuum Model (PCM)
 =================================
 Model                : PCM (using non-symmetric T matrix).
 Atomic radii         : UFF (Universal Force Field).
 Polarization charges : Total charges.
 Charge compensation  : None.
 Solution method      : On-the-fly selection.
 Cavity type          : Scaled VdW (van der Waals Surface) (Alpha=1.100).
 Cavity algorithm     : GePol (No added spheres)
                        Default sphere list used, NSphG=   44.
                        Lebedev-Laikov grids with approx.  5.0 points / Ang**2.
                        Smoothing algorithm: Karplus/York (Gamma=1.0000).
                        Polarization charges: spherical gaussians, with
                                              point-specific exponents (IZeta= 3).
                        Self-potential: point-specific (ISelfS= 7).
                        Self-field    : sphere-specific E.n sum rule (ISelfD= 2).
 1st derivatives      : Analytical E(r).r(x)/FMM algorithm (CHGder, D1EAlg=3).
                        Cavity 1st derivative terms included.
 Solvent              : Chloroform, Eps=   4.711300 Eps(inf)=   2.090627
 ------------------------------------------------------------------------------
 One-electron integrals computed using PRISM.
 NBasis=   404 RedAO= T EigKep=  1.92D-03  NBF=   404
 NBsUse=   404 1.00D-06 EigRej= -1.00D+00 NBFU=   404
 ExpMin= 7.78D-02 ExpMax= 1.61D+04 ExpMxC= 2.43D+03 IAcc=2 IRadAn=         4 AccDes= 0.00D+00
 Harris functional with IExCor=  402 and IRadAn=       4 diagonalized for initial guess.
 HarFok:  IExCor=  402 AccDes= 0.00D+00 IRadAn=         4 IDoV= 1 UseB2=F ITyADJ=14
 ICtDFT=  3500011 ScaDFX=  1.000000  1.000000  1.000000  1.000000
 FoFCou: FMM=F IPFlag=           0 FMFlag=      100000 FMFlg1=           0
         NFxFlg=           0 DoJE=T BraDBF=F KetDBF=T FulRan=T
         wScrn=  0.000000 ICntrl=     500 IOpCl=  0 I1Cent=   200000004 NGrid=           0
         NMat0=    1 NMatS0=      1 NMatT0=    0 NMatD0=    1 NMtDS0=    0 NMtDT0=    0
 Petite list used in FoFCou.
 Requested convergence on RMS density matrix=1.00D-08 within 128 cycles.
 Requested convergence on MAX density matrix=1.00D-06.
 Requested convergence on             energy=1.00D-06.
 No special actions if energy rises.
 Inv3:  Mode=1 IEnd=    24624675.
 Iteration    1 A*A^-1 deviation from unit magnitude is 9.33D-15 for   2856.
 Iteration    1 A*A^-1 deviation from orthogonality  is 8.15D-15 for   2856   2547.
 Iteration    1 A^-1*A deviation from unit magnitude is 9.21D-15 for   2856.
 Iteration    1 A^-1*A deviation from orthogonality  is 1.27D-12 for   2738   2696.
 Error on total polarization charges =  0.00910
 SCF Done:  E(RB3LYP) =  -1064.41677077     A.U. after   13 cycles
            NFock= 13  Conv=0.53D-08     -V/T= 2.0081

 **********************************************************************

            Population analysis using the SCF density.

 **********************************************************************

 Orbital symmetries:
       Occupied  (A) (A) (A) (A) (A) (A) (A) (A) (A) (A) (A) (A)
                 (A) (A) (A) (A) (A) (A) (A) (A) (A) (A) (A) (A)
                 (A) (A) (A) (A) (A) (A) (A) (A) (A) (A) (A) (A)
                 (A) (A) (A) (A) (A) (A) (A) (A) (A) (A) (A) (A)
                 (A) (A) (A) (A) (A) (A) (A) (A) (A) (A) (A) (A)
                 (A) (A) (A) (A) (A) (A) (A) (A) (A) (A) (A) (A)
                 (A) (A)
       Virtual   (A) (A) (A) (A) (A) (A) (A) (A) (A) (A) (A) (A)
                 (A) (A) (A) (A) (A) (A) (A) (A) (A) (A) (A) (A)
                 (A) (A) (A) (A) (A) (A) (A) (A) (A) (A) (A) (A)
                 (A) (A) (A) (A) (A) (A) (A) (A) (A) (A) (A) (A)
                 (A) (A) (A) (A) (A) (A) (A) (A) (A) (A) (A) (A)
                 (A) (A) (A) (A) (A) (A) (A) (A) (A) (A) (A) (A)
                 (A) (A) (A) (A) (A) (A) (A) (A) (A) (A) (A) (A)
                 (A) (A) (A) (A) (A) (A) (A) (A) (A) (A) (A) (A)
                 (A) (A) (A) (A) (A) (A) (A) (A) (A) (A) (A) (A)
                 (A) (A) (A) (A) (A) (A) (A) (A) (A) (A) (A) (A)
                 (A) (A) (A) (A) (A) (A) (A) (A) (A) (A) (A) (A)
                 (A) (A) (A) (A) (A) (A) (A) (A) (A) (A) (A) (A)
                 (A) (A) (A) (A) (A) (A) (A) (A) (A) (A) (A) (A)
                 (A) (A) (A) (A) (A) (A) (A) (A) (A) (A) (A) (A)
                 (A) (A) (A) (A) (A) (A) (A) (A) (A) (A) (A) (A)
                 (A) (A) (A) (A) (A) (A) (A) (A) (A) (A) (A) (A)
                 (A) (A) (A) (A) (A) (A) (A) (A) (A) (A) (A) (A)
                 (A) (A) (A) (A) (A) (A) (A) (A) (A) (A) (A) (A)
                 (A) (A) (A) (A) (A) (A) (A) (A) (A) (A) (A) (A)
                 (A) (A) (A) (A) (A) (A) (A) (A) (A) (A) (A) (A)
                 (A) (A) (A) (A) (A) (A) (A) (A) (A) (A) (A) (A)
                 (A) (A) (A) (A) (A) (A) (A) (A) (A) (A) (A) (A)
                 (A) (A) (A) (A) (A) (A) (A) (A) (A) (A) (A) (A)
                 (A) (A) (A) (A) (A) (A) (A) (A) (A) (A) (A) (A)
                 (A) (A) (A) (A) (A) (A) (A) (A) (A) (A) (A) (A)
                 (A) (A) (A) (A) (A) (A) (A) (A) (A) (A) (A) (A)
                 (A) (A) (A) (A) (A) (A) (A) (A) (A) (A) (A) (A)
                 (A) (A) (A) (A) (A) (A)
 The electronic state is 1-A.
 Alpha  occ. eigenvalues --  -66.13981 -19.19190 -19.14459 -19.13712 -10.32444
 Alpha  occ. eigenvalues --  -10.26689 -10.25287 -10.20327 -10.19846 -10.19543
 Alpha  occ. eigenvalues --  -10.19379 -10.18825 -10.18238 -10.17967 -10.17599
 Alpha  occ. eigenvalues --  -10.15988 -10.15781 -10.15676  -5.28136  -3.64192
 Alpha  occ. eigenvalues --   -3.63960  -3.63926  -1.09946  -1.01556  -1.00697
 Alpha  occ. eigenvalues --   -0.82945  -0.80338  -0.78074  -0.74798  -0.71337
 Alpha  occ. eigenvalues --   -0.70759  -0.69193  -0.67698  -0.67388  -0.64485
 Alpha  occ. eigenvalues --   -0.60759  -0.59782  -0.56420  -0.52746  -0.51179
 Alpha  occ. eigenvalues --   -0.50953  -0.49243  -0.48830  -0.45817  -0.45137
 Alpha  occ. eigenvalues --   -0.44624  -0.43388  -0.42999  -0.42527  -0.41817
 Alpha  occ. eigenvalues --   -0.40863  -0.40826  -0.40490  -0.39546  -0.39178
 Alpha  occ. eigenvalues --   -0.38734  -0.38501  -0.37895  -0.37563  -0.37137
 Alpha  occ. eigenvalues --   -0.36795  -0.36130  -0.35572  -0.35242  -0.34866
 Alpha  occ. eigenvalues --   -0.33676  -0.32646  -0.31451  -0.30191  -0.29350
 Alpha  occ. eigenvalues --   -0.28483  -0.27733  -0.26579  -0.25540
 Alpha virt. eigenvalues --   -0.00590   0.01192   0.06248   0.07136   0.08387
 Alpha virt. eigenvalues --    0.09241   0.09406   0.09987   0.10904   0.11693
 Alpha virt. eigenvalues --    0.12807   0.13270   0.13633   0.14032   0.14438
 Alpha virt. eigenvalues --    0.15130   0.15440   0.16058   0.16651   0.17010
 Alpha virt. eigenvalues --    0.17097   0.17855   0.17983   0.18238   0.18670
 Alpha virt. eigenvalues --    0.19826   0.19899   0.20290   0.20693   0.21177
 Alpha virt. eigenvalues --    0.21487   0.21891   0.22700   0.22881   0.23916
 Alpha virt. eigenvalues --    0.24368   0.24634   0.26383   0.27019   0.27857
 Alpha virt. eigenvalues --    0.28772   0.30996   0.31725   0.35917   0.36515
 Alpha virt. eigenvalues --    0.37798   0.38472   0.39321   0.40566   0.44051
 Alpha virt. eigenvalues --    0.46105   0.47065   0.48840   0.50179   0.50977
 Alpha virt. eigenvalues --    0.51465   0.52346   0.53462   0.55139   0.55299
 Alpha virt. eigenvalues --    0.57054   0.58219   0.59829   0.60235   0.61066
 Alpha virt. eigenvalues --    0.61753   0.62419   0.63651   0.63972   0.65386
 Alpha virt. eigenvalues --    0.65652   0.66265   0.67546   0.67894   0.68823
 Alpha virt. eigenvalues --    0.69392   0.69808   0.70859   0.72682   0.73698
 Alpha virt. eigenvalues --    0.74456   0.75320   0.75843   0.76163   0.77167
 Alpha virt. eigenvalues --    0.78355   0.79605   0.81470   0.82460   0.83052
 Alpha virt. eigenvalues --    0.83727   0.84783   0.85699   0.85965   0.86613
 Alpha virt. eigenvalues --    0.86983   0.87397   0.87707   0.88490   0.88917
 Alpha virt. eigenvalues --    0.89985   0.90304   0.90440   0.90983   0.91351
 Alpha virt. eigenvalues --    0.91920   0.92539   0.92816   0.93017   0.93826
 Alpha virt. eigenvalues --    0.95138   0.95655   0.96001   0.97450   0.97798
 Alpha virt. eigenvalues --    0.97903   0.99439   1.00361   1.00809   1.00903
 Alpha virt. eigenvalues --    1.02749   1.03211   1.04879   1.05426   1.08158
 Alpha virt. eigenvalues --    1.10427   1.10798   1.12271   1.13138   1.17017
 Alpha virt. eigenvalues --    1.17598   1.19748   1.21949   1.25616   1.26829
 Alpha virt. eigenvalues --    1.28795   1.29279   1.30377   1.31177   1.32558
 Alpha virt. eigenvalues --    1.35049   1.36890   1.38693   1.41927   1.42889
 Alpha virt. eigenvalues --    1.44238   1.45196   1.45789   1.47696   1.48854
 Alpha virt. eigenvalues --    1.49568   1.51589   1.52643   1.54065   1.55938
 Alpha virt. eigenvalues --    1.57927   1.59565   1.59665   1.62802   1.64156
 Alpha virt. eigenvalues --    1.65779   1.67623   1.69319   1.71271   1.72494
 Alpha virt. eigenvalues --    1.73475   1.74581   1.77300   1.78204   1.80654
 Alpha virt. eigenvalues --    1.81374   1.81643   1.83391   1.84287   1.85580
 Alpha virt. eigenvalues --    1.85836   1.88168   1.89186   1.89451   1.90316
 Alpha virt. eigenvalues --    1.91744   1.92913   1.94145   1.95648   1.95922
 Alpha virt. eigenvalues --    1.97724   1.98327   2.00068   2.01655   2.02693
 Alpha virt. eigenvalues --    2.03091   2.03891   2.04836   2.04922   2.05167
 Alpha virt. eigenvalues --    2.06316   2.07030   2.07649   2.08432   2.08938
 Alpha virt. eigenvalues --    2.09723   2.10080   2.11082   2.11690   2.12361
 Alpha virt. eigenvalues --    2.12553   2.13029   2.13411   2.14507   2.14928
 Alpha virt. eigenvalues --    2.15877   2.16190   2.16853   2.17322   2.17759
 Alpha virt. eigenvalues --    2.19262   2.22197   2.23385   2.24616   2.25536
 Alpha virt. eigenvalues --    2.27063   2.28844   2.29286   2.30926   2.32219
 Alpha virt. eigenvalues --    2.33000   2.33667   2.35274   2.35681   2.36241
 Alpha virt. eigenvalues --    2.38232   2.39305   2.41030   2.42058   2.42566
 Alpha virt. eigenvalues --    2.44433   2.45353   2.46090   2.49052   2.50646
 Alpha virt. eigenvalues --    2.51125   2.53302   2.54510   2.57164   2.57543
 Alpha virt. eigenvalues --    2.59294   2.60503   2.62635   2.63827   2.64981
 Alpha virt. eigenvalues --    2.66302   2.68062   2.68238   2.68564   2.69366
 Alpha virt. eigenvalues --    2.70210   2.71529   2.72296   2.74413   2.75083
 Alpha virt. eigenvalues --    2.77141   2.78354   2.79870   2.80033   2.81567
 Alpha virt. eigenvalues --    2.82016   2.83517   2.84594   2.84956   2.85300
 Alpha virt. eigenvalues --    2.85591   2.85932   2.86516   2.87528   2.89486
 Alpha virt. eigenvalues --    2.90399   2.91186   2.91887   2.93149   2.93587
 Alpha virt. eigenvalues --    2.96101   2.97970   3.01797   3.08991   3.10538
 Alpha virt. eigenvalues --    3.16664   3.17797   3.20434   3.20648   3.20959
 Alpha virt. eigenvalues --    3.21728   3.23020   3.26707   3.30692   3.34086
 Alpha virt. eigenvalues --    3.35221   3.36790   3.39805   3.43496   3.43544
 Alpha virt. eigenvalues --    3.44217   3.44715   3.44991   3.45337   3.45726
 Alpha virt. eigenvalues --    3.46068   3.46989   3.48864   3.49150   3.51499
 Alpha virt. eigenvalues --    3.53227   3.56154   3.66565   4.01721   4.14258
 Alpha virt. eigenvalues --    4.20819   4.24064   4.34445   4.38841   4.45849
 Alpha virt. eigenvalues --    4.46444   4.47781   4.51907   4.52858   4.59830
 Alpha virt. eigenvalues --    4.61891   4.67139   4.72595   4.79580   4.80899
          Condensed to atoms (all electrons):
               1          2          3          4          5          6
     1  C    4.821400   0.309600  -0.026724  -0.012131  -0.007132   0.383163
     2  C    0.309600   5.118782   0.352174  -0.053152  -0.015984  -0.049997
     3  C   -0.026724   0.352174   4.836623   0.280771  -0.014171  -0.014015
     4  C   -0.012131  -0.053152   0.280771   5.348759   0.287183   0.001341
     5  C   -0.007132  -0.015984  -0.014171   0.287183   4.362428  -0.002496
     6  H    0.383163  -0.049997  -0.014015   0.001341  -0.002496   0.640771
     7  H   -0.026661   0.364900  -0.030719   0.006170   0.000498  -0.001173
     8  H    0.000563  -0.006872  -0.021734   0.366414  -0.023327  -0.000050
     9  H    0.000024   0.005915  -0.033590   0.357145  -0.021372   0.000082
    10  O    0.162603  -0.034558  -0.000430  -0.095421   0.259029  -0.040374
    11  O    0.001628  -0.000139   0.002216  -0.087817   0.577081   0.000264
    12  C    0.382613  -0.037749   0.004770  -0.000444   0.001397  -0.049787
    13  C   -0.040043  -0.000012   0.000035   0.000033  -0.000057  -0.001693
    14  C   -0.043916   0.351594  -0.042891  -0.007688  -0.000254   0.006030
    15  O    0.002682  -0.049439   0.182518  -0.024718   0.001428  -0.000011
    16  Si   0.000350  -0.001611  -0.014557   0.002991  -0.000502  -0.000033
    17  C    0.000002  -0.000044  -0.000638  -0.002094   0.000008   0.000000
    18  C    0.000000  -0.000005  -0.001708  -0.000307   0.000086   0.000000
    19  C    0.000000  -0.000012   0.000986  -0.000060   0.000000   0.000000
    20  H    0.000000   0.000001   0.000035   0.000055   0.000000   0.000000
    21  H   -0.000001   0.000020  -0.000139  -0.000166  -0.000011   0.000000
    22  H    0.000000   0.000009   0.000011  -0.000245  -0.000004   0.000000
    23  H    0.000000   0.000000  -0.000012   0.000001   0.000000   0.000000
    24  H    0.000000   0.000005  -0.000042  -0.000004   0.000000   0.000000
    25  H    0.000000  -0.000002  -0.000046   0.000003   0.000000   0.000000
    26  H    0.000000   0.000001   0.000008   0.000026   0.000000   0.000000
    27  H    0.000000  -0.000006  -0.000358   0.000138   0.000002   0.000000
    28  H    0.000000  -0.000005   0.000413  -0.000751  -0.000017   0.000000
    29  H    0.004450  -0.027106  -0.007105  -0.000385  -0.000039  -0.000133
    30  H   -0.006966  -0.034383  -0.007053   0.003291  -0.000044   0.000201
    31  H   -0.005314  -0.027749   0.004125  -0.000051  -0.000003  -0.000045
    32  H   -0.030353   0.005420  -0.000081   0.000017   0.000009  -0.006841
    33  H   -0.031594  -0.011223  -0.000065  -0.000007   0.000128   0.006068
    34  H    0.004032   0.000062  -0.000002   0.000000   0.000000  -0.000127
    35  H   -0.004932  -0.001694  -0.000054   0.000000   0.000003   0.005553
    36  H   -0.006567   0.002710  -0.000008  -0.000003   0.000003  -0.000272
    37  C    0.001266  -0.060055   0.345262  -0.065415  -0.000128   0.004216
    38  C   -0.002396  -0.008144  -0.035187   0.004843   0.000006   0.000798
    39  C   -0.000827   0.000212  -0.001904  -0.000054  -0.000014   0.002817
    40  H   -0.000114   0.005265  -0.028553  -0.005895  -0.000197   0.000127
    41  H    0.001183  -0.004583  -0.025502  -0.003698   0.004577  -0.000156
    42  H    0.000055  -0.000904  -0.003527   0.000109   0.000000   0.000009
    43  H    0.000021  -0.000054  -0.000064   0.000003   0.000000  -0.000024
    44  H   -0.000245  -0.000090   0.000181  -0.000007  -0.000006   0.001256
               7          8          9         10         11         12
     1  C   -0.026661   0.000563   0.000024   0.162603   0.001628   0.382613
     2  C    0.364900  -0.006872   0.005915  -0.034558  -0.000139  -0.037749
     3  C   -0.030719  -0.021734  -0.033590  -0.000430   0.002216   0.004770
     4  C    0.006170   0.366414   0.357145  -0.095421  -0.087817  -0.000444
     5  C    0.000498  -0.023327  -0.021372   0.259029   0.577081   0.001397
     6  H   -0.001173  -0.000050   0.000082  -0.040374   0.000264  -0.049787
     7  H    0.609404  -0.000054  -0.000121   0.002789   0.000004  -0.005245
     8  H   -0.000054   0.538284  -0.027167  -0.000486  -0.000599  -0.000011
     9  H   -0.000121  -0.027167   0.570332   0.003343   0.003666   0.000010
    10  O    0.002789  -0.000486   0.003343   8.334139  -0.075465  -0.038982
    11  O    0.000004  -0.000599   0.003666  -0.075465   8.078815  -0.000082
    12  C   -0.005245  -0.000011   0.000010  -0.038982  -0.000082   4.941270
    13  C    0.002478  -0.000001   0.000000   0.002589   0.000000   0.349970
    14  C   -0.041476   0.002120   0.000068  -0.003683  -0.000005  -0.007823
    15  O    0.000311  -0.001901  -0.000721  -0.000013  -0.000011  -0.000039
    16  Si   0.000316  -0.000381   0.003524  -0.000071  -0.000237  -0.000005
    17  C   -0.000001   0.000088  -0.000163   0.000000   0.000002   0.000000
    18  C    0.000003   0.000310  -0.001435   0.000000   0.000002   0.000000
    19  C   -0.000006  -0.000013   0.000006   0.000000   0.000000   0.000000
    20  H    0.000000   0.000032   0.000037   0.000000   0.000000   0.000000
    21  H    0.000000   0.001316   0.000738   0.000000   0.000000   0.000000
    22  H    0.000001   0.000676   0.000034   0.000000   0.000000   0.000000
    23  H    0.000000   0.000000   0.000000   0.000000   0.000000   0.000000
    24  H   -0.000001  -0.000002   0.000000   0.000000   0.000000   0.000000
    25  H    0.000000   0.000000   0.000000   0.000000   0.000000   0.000000
    26  H    0.000000   0.000000   0.000003   0.000000   0.000000   0.000000
    27  H    0.000000   0.000002  -0.000080   0.000000   0.000000   0.000000
    28  H    0.000000  -0.000054   0.002449   0.000000  -0.000006   0.000000
    29  H   -0.002272   0.000723  -0.000043   0.000030   0.000000   0.000159
    30  H    0.005362   0.001683   0.000040   0.006194  -0.000054  -0.001718
    31  H   -0.005503  -0.000066   0.000001   0.000039   0.000000   0.001869
    32  H   -0.000036   0.000001  -0.000001   0.001892  -0.000010   0.377870
    33  H    0.000137  -0.000010   0.000000   0.000806  -0.000004   0.379601
    34  H   -0.000033   0.000000   0.000000  -0.000051   0.000000  -0.025524
    35  H    0.000595   0.000000   0.000000   0.000016   0.000000  -0.036691
    36  H    0.001542   0.000000   0.000000  -0.000005   0.000000  -0.034907
    37  C   -0.010880   0.004574  -0.007146  -0.001943  -0.000001  -0.000110
    38  C    0.010668  -0.000119   0.000092   0.000098   0.000001   0.000007
    39  C    0.002342   0.000001   0.000001   0.000001   0.000000  -0.000061
    40  H    0.000183  -0.000076   0.003779   0.000000   0.000001  -0.000002
    41  H    0.000107   0.000082   0.000041   0.000393  -0.000135   0.000106
    42  H    0.000732   0.000004   0.000000   0.000000   0.000000   0.000003
    43  H    0.000051   0.000000   0.000000   0.000000   0.000000  -0.000001
    44  H    0.000025   0.000000   0.000000  -0.000003   0.000000   0.000008
              13         14         15         16         17         18
     1  C   -0.040043  -0.043916   0.002682   0.000350   0.000002   0.000000
     2  C   -0.000012   0.351594  -0.049439  -0.001611  -0.000044  -0.000005
     3  C    0.000035  -0.042891   0.182518  -0.014557  -0.000638  -0.001708
     4  C    0.000033  -0.007688  -0.024718   0.002991  -0.002094  -0.000307
     5  C   -0.000057  -0.000254   0.001428  -0.000502   0.000008   0.000086
     6  H   -0.001693   0.006030  -0.000011  -0.000033   0.000000   0.000000
     7  H    0.002478  -0.041476   0.000311   0.000316  -0.000001   0.000003
     8  H   -0.000001   0.002120  -0.001901  -0.000381   0.000088   0.000310
     9  H    0.000000   0.000068  -0.000721   0.003524  -0.000163  -0.001435
    10  O    0.002589  -0.003683  -0.000013  -0.000071   0.000000   0.000000
    11  O    0.000000  -0.000005  -0.000011  -0.000237   0.000002   0.000002
    12  C    0.349970  -0.007823  -0.000039  -0.000005   0.000000   0.000000
    13  C    4.935449  -0.002511   0.000000   0.000000   0.000000   0.000000
    14  C   -0.002511   4.979671  -0.007655   0.000538  -0.000001  -0.000104
    15  O    0.000000  -0.007655   8.306492   0.330672  -0.014658  -0.017251
    16  Si   0.000000   0.000538   0.330672  11.851509   0.368101   0.370068
    17  C    0.000000  -0.000001  -0.014658   0.368101   5.146514  -0.035355
    18  C    0.000000  -0.000104  -0.017251   0.370068  -0.035355   5.144507
    19  C    0.000000  -0.000004  -0.019200   0.379303  -0.031459  -0.033549
    20  H    0.000000   0.000001   0.000561  -0.013701  -0.000068   0.369983
    21  H    0.000000  -0.000016  -0.000422  -0.026857  -0.001592   0.375423
    22  H    0.000000   0.000072  -0.000566  -0.026289   0.001316   0.378583
    23  H    0.000000   0.000000   0.000489  -0.014697  -0.000729  -0.000524
    24  H    0.000000  -0.000004  -0.000407  -0.024756   0.001399  -0.001249
    25  H    0.000000   0.000000  -0.000356  -0.025306  -0.001248   0.001392
    26  H    0.000000   0.000000   0.000491  -0.013894   0.371281  -0.000328
    27  H    0.000000   0.000000  -0.000341  -0.027288   0.377843   0.001372
    28  H    0.000000   0.000000  -0.000454  -0.028044   0.374710  -0.001505
    29  H    0.000014   0.382431   0.007778   0.002669   0.000007  -0.000107
    30  H    0.000195   0.382568   0.000012  -0.000108   0.000000  -0.000011
    31  H   -0.000045   0.379080   0.000258  -0.000097   0.000000   0.000001
    32  H   -0.035594   0.000009   0.000000   0.000000   0.000000   0.000000
    33  H   -0.034848   0.004987  -0.000001  -0.000001   0.000000   0.000000
    34  H    0.382198   0.000002   0.000000   0.000000   0.000000   0.000000
    35  H    0.386384   0.000217   0.000000   0.000000   0.000000   0.000000
    36  H    0.387596   0.000052   0.000001   0.000000   0.000000   0.000000
    37  C   -0.000002   0.005378  -0.053029  -0.006635  -0.001357  -0.000133
    38  C   -0.000073   0.000090   0.000790   0.001257  -0.000235   0.000006
    39  C   -0.000136   0.000022   0.000342  -0.000082   0.000002   0.000000
    40  H    0.000000  -0.000106  -0.003244  -0.001681   0.002198  -0.000031
    41  H    0.000003  -0.000091   0.003119   0.000532   0.000006   0.000002
    42  H   -0.000001  -0.000036   0.004574   0.002379  -0.000157   0.000004
    43  H    0.000000   0.000000   0.000003   0.000008   0.000000   0.000000
    44  H   -0.000015   0.000000  -0.000002   0.000016   0.000000   0.000000
              19         20         21         22         23         24
     1  C    0.000000   0.000000  -0.000001   0.000000   0.000000   0.000000
     2  C   -0.000012   0.000001   0.000020   0.000009   0.000000   0.000005
     3  C    0.000986   0.000035  -0.000139   0.000011  -0.000012  -0.000042
     4  C   -0.000060   0.000055  -0.000166  -0.000245   0.000001  -0.000004
     5  C    0.000000   0.000000  -0.000011  -0.000004   0.000000   0.000000
     6  H    0.000000   0.000000   0.000000   0.000000   0.000000   0.000000
     7  H   -0.000006   0.000000   0.000000   0.000001   0.000000  -0.000001
     8  H   -0.000013   0.000032   0.001316   0.000676   0.000000  -0.000002
     9  H    0.000006   0.000037   0.000738   0.000034   0.000000   0.000000
    10  O    0.000000   0.000000   0.000000   0.000000   0.000000   0.000000
    11  O    0.000000   0.000000   0.000000   0.000000   0.000000   0.000000
    12  C    0.000000   0.000000   0.000000   0.000000   0.000000   0.000000
    13  C    0.000000   0.000000   0.000000   0.000000   0.000000   0.000000
    14  C   -0.000004   0.000001  -0.000016   0.000072   0.000000  -0.000004
    15  O   -0.019200   0.000561  -0.000422  -0.000566   0.000489  -0.000407
    16  Si   0.379303  -0.013701  -0.026857  -0.026289  -0.014697  -0.024756
    17  C   -0.031459  -0.000068  -0.001592   0.001316  -0.000729   0.001399
    18  C   -0.033549   0.369983   0.375423   0.378583  -0.000524  -0.001249
    19  C    5.117614  -0.001008   0.001435  -0.000955   0.373474   0.376215
    20  H   -0.001008   0.569980  -0.023249  -0.023079   0.000055  -0.000051
    21  H    0.001435  -0.023249   0.581416  -0.023196   0.000000   0.000008
    22  H   -0.000955  -0.023079  -0.023196   0.574434  -0.000014   0.000521
    23  H    0.373474   0.000055   0.000000  -0.000014   0.566820  -0.023598
    24  H    0.376215  -0.000051   0.000008   0.000521  -0.023598   0.575486
    25  H    0.375430   0.000019  -0.000028   0.000000  -0.023511  -0.022051
    26  H   -0.001017   0.000020  -0.000037   0.000016   0.000087   0.000011
    27  H   -0.001133   0.000001   0.000007  -0.000025  -0.000064   0.000004
    28  H    0.001491  -0.000029   0.000741   0.000003   0.000000  -0.000028
    29  H   -0.000085   0.000000  -0.000014   0.000285   0.000001   0.000030
    30  H    0.000000   0.000000  -0.000016   0.000038   0.000000   0.000000
    31  H    0.000000   0.000000   0.000000  -0.000001   0.000000   0.000000
    32  H    0.000000   0.000000   0.000000   0.000000   0.000000   0.000000
    33  H    0.000000   0.000000   0.000000   0.000000   0.000000   0.000000
    34  H    0.000000   0.000000   0.000000   0.000000   0.000000   0.000000
    35  H    0.000000   0.000000   0.000000   0.000000   0.000000   0.000000
    36  H    0.000000   0.000000   0.000000   0.000000   0.000000   0.000000
    37  C   -0.000087   0.000001  -0.000031   0.000000   0.000001   0.000004
    38  C   -0.000029   0.000000   0.000000   0.000000   0.000000  -0.000001
    39  C    0.000000   0.000000   0.000000   0.000000   0.000000   0.000000
    40  H   -0.000013   0.000001  -0.000009   0.000000   0.000001   0.000000
    41  H    0.000000   0.000000   0.000000   0.000000   0.000000   0.000000
    42  H   -0.000077   0.000000   0.000000   0.000000   0.000000  -0.000002
    43  H    0.000000   0.000000   0.000000   0.000000   0.000000   0.000000
    44  H    0.000000   0.000000   0.000000   0.000000   0.000000   0.000000
              25         26         27         28         29         30
     1  C    0.000000   0.000000   0.000000   0.000000   0.004450  -0.006966
     2  C   -0.000002   0.000001  -0.000006  -0.000005  -0.027106  -0.034383
     3  C   -0.000046   0.000008  -0.000358   0.000413  -0.007105  -0.007053
     4  C    0.000003   0.000026   0.000138  -0.000751  -0.000385   0.003291
     5  C    0.000000   0.000000   0.000002  -0.000017  -0.000039  -0.000044
     6  H    0.000000   0.000000   0.000000   0.000000  -0.000133   0.000201
     7  H    0.000000   0.000000   0.000000   0.000000  -0.002272   0.005362
     8  H    0.000000   0.000000   0.000002  -0.000054   0.000723   0.001683
     9  H    0.000000   0.000003  -0.000080   0.002449  -0.000043   0.000040
    10  O    0.000000   0.000000   0.000000   0.000000   0.000030   0.006194
    11  O    0.000000   0.000000   0.000000  -0.000006   0.000000  -0.000054
    12  C    0.000000   0.000000   0.000000   0.000000   0.000159  -0.001718
    13  C    0.000000   0.000000   0.000000   0.000000   0.000014   0.000195
    14  C    0.000000   0.000000   0.000000   0.000000   0.382431   0.382568
    15  O   -0.000356   0.000491  -0.000341  -0.000454   0.007778   0.000012
    16  Si  -0.025306  -0.013894  -0.027288  -0.028044   0.002669  -0.000108
    17  C   -0.001248   0.371281   0.377843   0.374710   0.000007   0.000000
    18  C    0.001392  -0.000328   0.001372  -0.001505  -0.000107  -0.000011
    19  C    0.375430  -0.001017  -0.001133   0.001491  -0.000085   0.000000
    20  H    0.000019   0.000020   0.000001  -0.000029   0.000000   0.000000
    21  H   -0.000028  -0.000037   0.000007   0.000741  -0.000014  -0.000016
    22  H    0.000000   0.000016  -0.000025   0.000003   0.000285   0.000038
    23  H   -0.023511   0.000087  -0.000064   0.000000   0.000001   0.000000
    24  H   -0.022051   0.000011   0.000004  -0.000028   0.000030   0.000000
    25  H    0.578123  -0.000032   0.000657   0.000003  -0.000001   0.000000
    26  H   -0.000032   0.564182  -0.022821  -0.022531   0.000000   0.000000
    27  H    0.000657  -0.022821   0.573822  -0.023843   0.000000   0.000000
    28  H    0.000003  -0.022531  -0.023843   0.578574   0.000000   0.000000
    29  H   -0.000001   0.000000   0.000000   0.000000   0.568387  -0.030052
    30  H    0.000000   0.000000   0.000000   0.000000  -0.030052   0.603221
    31  H    0.000000   0.000000   0.000000   0.000000  -0.029574  -0.031006
    32  H    0.000000   0.000000   0.000000   0.000000  -0.000002  -0.000038
    33  H    0.000000   0.000000   0.000000   0.000000  -0.000082   0.001198
    34  H    0.000000   0.000000   0.000000   0.000000   0.000000   0.000001
    35  H    0.000000   0.000000   0.000000   0.000000   0.000001  -0.000004
    36  H    0.000000   0.000000   0.000000   0.000000  -0.000061  -0.000020
    37  C   -0.000012   0.000131  -0.001018  -0.001314   0.000217  -0.000053
    38  C   -0.000024  -0.000004   0.000459   0.000010  -0.000006  -0.000002
    39  C    0.000000   0.000000   0.000011  -0.000001   0.000000  -0.000001
    40  H   -0.000009   0.000065   0.001373   0.002003  -0.000004   0.000001
    41  H    0.000000  -0.000002   0.000010  -0.000014  -0.000006  -0.000007
    42  H    0.000182   0.000000   0.000152   0.000003   0.000000   0.000000
    43  H    0.000000   0.000000   0.000000   0.000000   0.000000   0.000000
    44  H    0.000000   0.000000   0.000000   0.000000   0.000000   0.000000
              31         32         33         34         35         36
     1  C   -0.005314  -0.030353  -0.031594   0.004032  -0.004932  -0.006567
     2  C   -0.027749   0.005420  -0.011223   0.000062  -0.001694   0.002710
     3  C    0.004125  -0.000081  -0.000065  -0.000002  -0.000054  -0.000008
     4  C   -0.000051   0.000017  -0.000007   0.000000   0.000000  -0.000003
     5  C   -0.000003   0.000009   0.000128   0.000000   0.000003   0.000003
     6  H   -0.000045  -0.006841   0.006068  -0.000127   0.005553  -0.000272
     7  H   -0.005503  -0.000036   0.000137  -0.000033   0.000595   0.001542
     8  H   -0.000066   0.000001  -0.000010   0.000000   0.000000   0.000000
     9  H    0.000001  -0.000001   0.000000   0.000000   0.000000   0.000000
    10  O    0.000039   0.001892   0.000806  -0.000051   0.000016  -0.000005
    11  O    0.000000  -0.000010  -0.000004   0.000000   0.000000   0.000000
    12  C    0.001869   0.377870   0.379601  -0.025524  -0.036691  -0.034907
    13  C   -0.000045  -0.035594  -0.034848   0.382198   0.386384   0.387596
    14  C    0.379080   0.000009   0.004987   0.000002   0.000217   0.000052
[...]
    13  C    0.000000   0.000000   0.000000   0.000000   0.000000   0.000000
    14  C   -0.000007   0.000002  -0.000016   0.000079   0.000000  -0.000007
    15  O   -0.024845   0.000557  -0.000498  -0.000691   0.000679  -0.000560
    16  Si   0.382553  -0.013843  -0.024180  -0.025334  -0.015144  -0.022925
    17  C   -0.027520  -0.000105  -0.001253   0.001182  -0.000434   0.001186
    18  C   -0.029632   0.367796   0.376577   0.378849  -0.000190  -0.001224
    19  C    5.111911  -0.000676   0.001200  -0.000984   0.368504   0.377224
    20  H   -0.000676   0.572899  -0.023587  -0.023831   0.000031  -0.000028
    21  H    0.001200  -0.023587   0.574054  -0.023625   0.000001   0.000007
    22  H   -0.000984  -0.023831  -0.023625   0.572376  -0.000030   0.000429
    23  H    0.368504   0.000031   0.000001  -0.000030   0.575707  -0.024068
    24  H    0.377224  -0.000028   0.000007   0.000429  -0.024068   0.570219
    25  H    0.376960   0.000010  -0.000021   0.000000  -0.023987  -0.022513
    26  H   -0.000662   0.000050  -0.000043   0.000010   0.000046   0.000005
    27  H   -0.001099   0.000001   0.000003  -0.000021  -0.000062  -0.000001
    28  H    0.001205  -0.000033   0.000532  -0.000001  -0.000001  -0.000021
    29  H   -0.000145   0.000001  -0.000022   0.000497   0.000001   0.000087
    30  H    0.000000   0.000000  -0.000013   0.000037   0.000000   0.000000
    31  H    0.000000   0.000000   0.000000  -0.000002   0.000000   0.000000
    32  H    0.000000   0.000000   0.000000   0.000000   0.000000   0.000000
    33  H    0.000000   0.000000   0.000000   0.000000   0.000000   0.000000
    34  H    0.000000   0.000000   0.000000   0.000000   0.000000   0.000000
    35  H    0.000000   0.000000   0.000000   0.000000   0.000000   0.000000
    36  H    0.000000   0.000000   0.000000   0.000000   0.000000   0.000000
    37  C   -0.000074   0.000001  -0.000019  -0.000002   0.000000   0.000004
    38  C   -0.000056   0.000000   0.000000   0.000000   0.000001  -0.000002
    39  C    0.000000   0.000000   0.000000   0.000000   0.000000   0.000000
    40  H   -0.000036   0.000001  -0.000007   0.000001   0.000001   0.000001
    41  H    0.000000   0.000000   0.000000   0.000000   0.000000   0.000000
    42  H   -0.000049   0.000000   0.000000   0.000000   0.000000  -0.000005
    43  H    0.000000   0.000000   0.000000   0.000000   0.000000   0.000000
    44  H    0.000000   0.000000   0.000000   0.000000   0.000000   0.000000
              25         26         27         28         29         30
     1  C    0.000000   0.000000   0.000000   0.000000   0.004631  -0.006919
     2  C   -0.000003   0.000001  -0.000005  -0.000004  -0.029988  -0.033988
     3  C   -0.000050  -0.000002  -0.000319   0.000265  -0.007769  -0.006595
     4  C    0.000002   0.000023   0.000112  -0.000531  -0.000689   0.003193
     5  C    0.000000   0.000000   0.000001  -0.000008  -0.000062   0.000416
     6  H    0.000000   0.000000   0.000000   0.000000  -0.000149   0.000188
     7  H   -0.000001   0.000000   0.000000   0.000000  -0.001859   0.005163
     8  H    0.000000   0.000000   0.000004  -0.000065   0.000884   0.001054
     9  H    0.000000   0.000002  -0.000069   0.002002  -0.000048   0.000044
    10  O    0.000000   0.000000   0.000000   0.000000   0.000010   0.005202
    11  O    0.000000   0.000000   0.000000  -0.000002   0.000000  -0.000118
    12  C    0.000000   0.000000   0.000000   0.000000   0.000208  -0.001973
    13  C    0.000000   0.000000   0.000000   0.000000   0.000006   0.000210
    14  C    0.000000   0.000000   0.000000   0.000000   0.382377   0.383254
    15  O   -0.000504   0.000516  -0.000446  -0.000540   0.008964   0.000069
    16  Si  -0.023506  -0.014297  -0.025140  -0.025216   0.002932  -0.000122
    17  C   -0.001301   0.368545   0.377886   0.376333   0.000011   0.000000
    18  C    0.001196  -0.000238   0.001224  -0.001190  -0.000114  -0.000008
    19  C    0.376960  -0.000662  -0.001099   0.001205  -0.000145   0.000000
    20  H    0.000010   0.000050   0.000001  -0.000033   0.000001   0.000000
    21  H   -0.000021  -0.000043   0.000003   0.000532  -0.000022  -0.000013
    22  H    0.000000   0.000010  -0.000021  -0.000001   0.000497   0.000037
    23  H   -0.023987   0.000046  -0.000062  -0.000001   0.000001   0.000000
    24  H   -0.022513   0.000005  -0.000001  -0.000021   0.000087   0.000000
    25  H    0.571866  -0.000021   0.000524   0.000006  -0.000002   0.000000
    26  H   -0.000021   0.570044  -0.023355  -0.023381   0.000000   0.000000
    27  H    0.000524  -0.023355   0.570981  -0.023950   0.000000   0.000000
    28  H    0.000006  -0.023381  -0.023950   0.573524   0.000000   0.000000
    29  H   -0.000002   0.000000   0.000000   0.000000   0.565454  -0.029879
    30  H    0.000000   0.000000   0.000000   0.000000  -0.029879   0.602129
    31  H    0.000000   0.000000   0.000000   0.000000  -0.027343  -0.031754
    32  H    0.000000   0.000000   0.000000   0.000000  -0.000002  -0.000049
    33  H    0.000000   0.000000   0.000000   0.000000  -0.000095   0.001471
    34  H    0.000000   0.000000   0.000000   0.000000   0.000000   0.000000
    35  H    0.000000   0.000000   0.000000   0.000000   0.000001  -0.000004
    36  H    0.000000   0.000000   0.000000   0.000000  -0.000052  -0.000019
    37  C   -0.000011   0.000072  -0.000443  -0.000494   0.000277  -0.000073
    38  C   -0.000042  -0.000002   0.000242   0.000006  -0.000005  -0.000002
    39  C    0.000000   0.000000   0.000006   0.000000   0.000000  -0.000001
    40  H   -0.000012   0.000030   0.001258   0.001151  -0.000005   0.000001
    41  H    0.000000  -0.000001   0.000000  -0.000018  -0.000008  -0.000008
    42  H    0.000352   0.000001   0.000039   0.000002   0.000000   0.000000
    43  H    0.000000   0.000000   0.000000   0.000000   0.000000   0.000000
    44  H    0.000000   0.000000   0.000000   0.000000   0.000000   0.000000
              31         32         33         34         35         36
     1  C   -0.004624  -0.032675  -0.032866   0.003935  -0.005063  -0.006138
     2  C   -0.026537   0.005562  -0.012291   0.000037  -0.001517   0.002690
     3  C    0.004036  -0.000086  -0.000052  -0.000002  -0.000045  -0.000009
     4  C    0.000003   0.000017   0.000003   0.000000   0.000000  -0.000003
     5  C   -0.000030   0.000060   0.000153   0.000000   0.000002   0.000004
     6  H   -0.000070  -0.006179   0.006109  -0.000097   0.005650  -0.000299
     7  H   -0.005882  -0.000063   0.000148  -0.000041   0.000589   0.001322
     8  H   -0.000059   0.000001  -0.000013   0.000000   0.000000   0.000000
     9  H    0.000000  -0.000001   0.000000   0.000000   0.000000   0.000000
    10  O    0.000049   0.001842   0.001035  -0.000051   0.000016  -0.000009
    11  O    0.000000  -0.000013  -0.000012   0.000000   0.000000   0.000000
    12  C    0.001549   0.378684   0.379762  -0.025151  -0.035459  -0.033201
    13  C    0.000156  -0.033777  -0.033903   0.382241   0.385914   0.387012
    14  C    0.379458  -0.000008   0.005917   0.000015   0.000196  -0.000150
    15  O    0.000220   0.000000  -0.000001   0.000000   0.000000   0.000001
    16  Si  -0.000095   0.000000  -0.000001   0.000000   0.000000   0.000000
    17  C    0.000000   0.000000   0.000000   0.000000   0.000000   0.000000
    18  C    0.000002   0.000000   0.000000   0.000000   0.000000   0.000000
    19  C    0.000000   0.000000   0.000000   0.000000   0.000000   0.000000
    20  H    0.000000   0.000000   0.000000   0.000000   0.000000   0.000000
    21  H    0.000000   0.000000   0.000000   0.000000   0.000000   0.000000
    22  H   -0.000002   0.000000   0.000000   0.000000   0.000000   0.000000
    23  H    0.000000   0.000000   0.000000   0.000000   0.000000   0.000000
    24  H    0.000000   0.000000   0.000000   0.000000   0.000000   0.000000
    25  H    0.000000   0.000000   0.000000   0.000000   0.000000   0.000000
    26  H    0.000000   0.000000   0.000000   0.000000   0.000000   0.000000
    27  H    0.000000   0.000000   0.000000   0.000000   0.000000   0.000000
    28  H    0.000000   0.000000   0.000000   0.000000   0.000000   0.000000
    29  H   -0.027343  -0.000002  -0.000095   0.000000   0.000001  -0.000052
    30  H   -0.031754  -0.000049   0.001471   0.000000  -0.000004  -0.000019
    31  H    0.595287   0.000030   0.000231  -0.000052  -0.000050   0.002368
    32  H    0.000030   0.611979  -0.036115  -0.004569  -0.003961   0.004997
    33  H    0.000231  -0.036115   0.610101  -0.002533   0.005092  -0.005388
    34  H   -0.000052  -0.004569  -0.002533   0.591596  -0.030020  -0.030042
    35  H   -0.000050  -0.003961   0.005092  -0.030020   0.597154  -0.032699
    36  H    0.002368   0.004997  -0.005388  -0.030042  -0.032699   0.593630
    37  C   -0.000108   0.000005   0.000003   0.000000  -0.000013   0.000007
    38  C    0.000000  -0.000001  -0.000004   0.000001   0.000114  -0.000021
    39  C    0.000001   0.000001   0.000000   0.000000   0.000523  -0.000007
    40  H    0.000002   0.000000   0.000000   0.000000   0.000000   0.000000
    41  H   -0.000001   0.000001  -0.000003   0.000000  -0.000010  -0.000001
    42  H    0.000000   0.000000   0.000000   0.000000   0.000001  -0.000001
    43  H    0.000000   0.000000   0.000000   0.000000   0.000001   0.000000
    44  H    0.000000  -0.000001   0.000000   0.000000   0.000050  -0.000001
              37         38         39         40         41         42
     1  C    0.001578  -0.002983  -0.000877  -0.000123   0.001339   0.000099
     2  C   -0.061508  -0.009233   0.000131   0.005912  -0.004761  -0.001564
     3  C    0.347255  -0.032968  -0.001129  -0.030846  -0.026241  -0.003913
     4  C   -0.062543   0.004981  -0.000090  -0.007302  -0.003042   0.000198
     5  C    0.000011  -0.000046  -0.000009  -0.000170   0.002967  -0.000003
     6  H    0.005348   0.001069   0.003395   0.000177  -0.001795   0.000005
     7  H   -0.012857   0.012077   0.002004   0.000224   0.000138   0.001212
     8  H    0.004671  -0.000130   0.000001  -0.000113   0.000084   0.000004
     9  H   -0.006953   0.000098   0.000001   0.004388  -0.000009   0.000000
    10  O   -0.002365   0.000135   0.000000  -0.000001   0.001309   0.000000
    11  O    0.000009   0.000000   0.000000  -0.000005  -0.000227   0.000000
    12  C   -0.000132   0.000029  -0.000036  -0.000002   0.000163   0.000003
    13  C    0.000003  -0.000075  -0.000098   0.000000   0.000000  -0.000002
    14  C    0.005734   0.000043   0.000015  -0.000126  -0.000123  -0.000055
    15  O   -0.057970  -0.000015   0.000418  -0.003776   0.003562   0.006259
    16  Si  -0.005854   0.001041  -0.000029  -0.000569   0.000481   0.002207
    17  C   -0.000949  -0.000147  -0.000001   0.002031  -0.000005  -0.000129
    18  C   -0.000096   0.000004   0.000000  -0.000032   0.000002   0.000005
    19  C   -0.000074  -0.000056   0.000000  -0.000036   0.000000  -0.000049
    20  H    0.000001   0.000000   0.000000   0.000001   0.000000   0.000000
    21  H   -0.000019   0.000000   0.000000  -0.000007   0.000000   0.000000
    22  H   -0.000002   0.000000   0.000000   0.000001   0.000000   0.000000
    23  H    0.000000   0.000001   0.000000   0.000001   0.000000   0.000000
    24  H    0.000004  -0.000002   0.000000   0.000001   0.000000  -0.000005
    25  H   -0.000011  -0.000042   0.000000  -0.000012   0.000000   0.000352
    26  H    0.000072  -0.000002   0.000000   0.000030  -0.000001   0.000001
    27  H   -0.000443   0.000242   0.000006   0.001258   0.000000   0.000039
    28  H   -0.000494   0.000006   0.000000   0.001151  -0.000018   0.000002
    29  H    0.000277  -0.000005   0.000000  -0.000005  -0.000008   0.000000
    30  H   -0.000073  -0.000002  -0.000001   0.000001  -0.000008   0.000000
    31  H   -0.000108   0.000000   0.000001   0.000002  -0.000001   0.000000
    32  H    0.000005  -0.000001   0.000001   0.000000   0.000001   0.000000
    33  H    0.000003  -0.000004   0.000000   0.000000  -0.000003   0.000000
    34  H    0.000000   0.000001   0.000000   0.000000   0.000000   0.000000
    35  H   -0.000013   0.000114   0.000523   0.000000  -0.000010   0.000001
    36  H    0.000007  -0.000021  -0.000007   0.000000  -0.000001  -0.000001
    37  C    5.060467   0.383006  -0.040196   0.369705   0.362712  -0.053817
    38  C    0.383006   4.765758   0.652676  -0.034490  -0.038102   0.384795
    39  C   -0.040196   0.652676   4.941488  -0.000258  -0.006475  -0.044351
    40  H    0.369705  -0.034490  -0.000258   0.604290  -0.031332  -0.001483
    41  H    0.362712  -0.038102  -0.006475  -0.031332   0.623382   0.005224
    42  H   -0.053817   0.384795  -0.044351  -0.001483   0.005224   0.600571
    43  H    0.004669  -0.024802   0.376208  -0.000201   0.000093  -0.007953
    44  H   -0.012044  -0.034723   0.381661   0.000185   0.005725   0.005601
              43         44
     1  C    0.000018  -0.000187
     2  C   -0.000043  -0.000086
     3  C   -0.000078   0.000209
     4  C    0.000003  -0.000005
     5  C    0.000000  -0.000004
     6  H   -0.000024   0.000923
     7  H    0.000052   0.000028
     8  H    0.000000   0.000000
     9  H    0.000000   0.000000
    10  O    0.000000  -0.000002
    11  O    0.000000   0.000000
    12  C   -0.000001   0.000007
    13  C    0.000000  -0.000008
    14  C    0.000000   0.000000
    15  O    0.000003  -0.000003
    16  Si   0.000006   0.000012
    17  C    0.000000   0.000000
    18  C    0.000000   0.000000
    19  C    0.000000   0.000000
    20  H    0.000000   0.000000
    21  H    0.000000   0.000000
    22  H    0.000000   0.000000
    23  H    0.000000   0.000000
    24  H    0.000000   0.000000
    25  H    0.000000   0.000000
    26  H    0.000000   0.000000
    27  H    0.000000   0.000000
    28  H    0.000000   0.000000
    29  H    0.000000   0.000000
    30  H    0.000000   0.000000
    31  H    0.000000   0.000000
    32  H    0.000000  -0.000001
    33  H    0.000000   0.000000
    34  H    0.000000   0.000000
    35  H    0.000001   0.000050
    36  H    0.000000  -0.000001
    37  C    0.004669  -0.012044
    38  C   -0.024802  -0.034723
    39  C    0.376208   0.381661
    40  H   -0.000201   0.000185
    41  H    0.000093   0.005725
    42  H   -0.007953   0.005601
    43  H    0.588862  -0.043475
    44  H   -0.043475   0.593813
 Mulliken charges:
               1
     1  C    0.171588
     2  C   -0.091868
     3  C    0.312909
     4  C   -0.312974
     5  C    0.592030
     6  H    0.114816
     7  H    0.113672
     8  H    0.162979
     9  H    0.142177
    10  O   -0.490073
    11  O   -0.499055
    12  C   -0.196343
    13  C   -0.335355
    14  C   -0.340803
    15  O   -0.656297
    16  Si   0.919116
    17  C   -0.555763
    18  C   -0.552774
    19  C   -0.534684
    20  H    0.120644
    21  H    0.119280
    22  H    0.120725
    23  H    0.118958
    24  H    0.122243
    25  H    0.121057
    26  H    0.122657
    27  H    0.122626
    28  H    0.120429
    29  H    0.131895
    30  H    0.109091
    31  H    0.113216
    32  H    0.114321
    33  H    0.113249
    34  H    0.114733
    35  H    0.113538
    36  H    0.116008
    37  C   -0.227016
    38  C   -0.028224
    39  C   -0.264971
    40  H    0.121532
    41  H    0.104980
    42  H    0.106745
    43  H    0.106662
    44  H    0.102323
 Sum of Mulliken charges =   0.00000
 Mulliken charges with hydrogens summed into heavy atoms:
               1
     1  C    0.286404
     2  C    0.021804
     3  C    0.312909
     4  C   -0.007818
     5  C    0.592030
    10  O   -0.490073
    11  O   -0.499055
    12  C    0.031227
    13  C    0.008924
    14  C    0.013398
    15  O   -0.656297
    16  Si   0.919116
    17  C   -0.190051
    18  C   -0.192124
    19  C   -0.172426
    37  C   -0.000503
    38  C    0.078521
    39  C   -0.055986
 Electronic spatial extent (au):  <R**2>=           5507.9468
 Charge=              0.0000 electrons
 Dipole moment (field-independent basis, Debye):
    X=             -1.9339    Y=              3.7878    Z=              2.0689  Tot=              4.7294
 Quadrupole moment (field-independent basis, Debye-Ang):
   XX=           -111.5874   YY=           -131.1665   ZZ=           -120.2108
   XY=             11.1053   XZ=              5.5165   YZ=             -8.8156
 Traceless Quadrupole moment (field-independent basis, Debye-Ang):
   XX=              9.4008   YY=            -10.1783   ZZ=              0.7774
   XY=             11.1053   XZ=              5.5165   YZ=             -8.8156
 Octapole moment (field-independent basis, Debye-Ang**2):
  XXX=             -6.5455  YYY=             42.4497  ZZZ=              7.4800  XYY=            -21.0307
  XXY=             14.4794  XXZ=             11.1804  XZZ=              2.9212  YZZ=              7.3605
  YYZ=             27.5783  XYZ=            -16.5273
 Hexadecapole moment (field-independent basis, Debye-Ang**3):
 XXXX=          -4193.2508 YYYY=          -1877.3117 ZZZZ=          -1238.3595 XXXY=             31.7000
 XXXZ=             18.4935 YYYX=             55.7765 YYYZ=            -75.5556 ZZZX=             -7.3528
 ZZZY=              6.5705 XXYY=          -1078.1559 XXZZ=           -933.1334 YYZZ=           -563.6027
 XXYZ=            -24.0847 YYXZ=             36.5646 ZZXY=             25.1076
 N-N= 1.626529347952D+03 E-N=-5.743331785060D+03  KE= 1.055910464135D+03
 1\1\GINC-CPU-E-611\FOpt\RB3LYP\6-31G(d,p)\C14H26O3Si1\KE291\06-Feb-201
 9\0\\# b3lyp/6-31g(d,p) Opt=(maxcycles=25) scrf=(solvent=chloroform)\\
 P_ng_3ginp002\\0,1\C,-0.1513051729,0.5270624139,-0.1862149028\C,-1.483
 1339071,0.0918023152,0.4415359991\C,-1.7279825802,0.9191205637,1.73396
 50767\C,-1.7894251145,2.4029283877,1.3375163129\C,-0.7015071828,2.8768
 075707,0.3861528845\H,0.6613208096,0.2927669376,0.5099537022\H,-1.3527
 509366,-0.9494706877,0.756994714\H,-2.7363443225,2.5980856716,0.822623
 354\H,-1.7622134318,3.0628038672,2.2088709745\O,-0.0853606581,1.974653
 8319,-0.405860225\O,-0.4241651243,4.0515951211,0.2608726571\C,0.197553
 7076,-0.0985283149,-1.5368617104\C,0.3827230255,-1.6181035023,-1.47184
 48652\C,-2.6641236087,0.1563547504,-0.5402132972\O,-2.9591099329,0.468
 499632,2.2944275582\Si,-4.1402981244,1.126455876,3.2984275346\C,-3.412
 3166534,1.9796530359,4.81744028\C,-5.231553559,2.3448491342,2.35550583
 98\C,-5.1586069917,-0.3659190527,3.8206741609\H,-6.0948495274,2.625255
 313,2.9705276416\H,-4.7047070434,3.2677532039,2.0927902438\H,-5.615239
 8721,1.9001645886,1.4310508622\H,-5.9937025921,-0.0616407002,4.4614408
 948\H,-5.576262053,-0.883961422,2.9510936022\H,-4.5515391634,-1.085383
 4246,4.3798959689\H,-4.2267303218,2.3239490881,5.4658837918\H,-2.78803
 25437,1.2989854525,5.4055752636\H,-2.8094006314,2.8574060559,4.5617620
 356\H,-3.6003757608,-0.0267808649,-0.0110568662\H,-2.736067036,1.12738
 83128,-1.0405523307\H,-2.564454691,-0.6042062544,-1.3188870289\H,1.127
 325722,0.3709343658,-1.8764502518\H,-0.568961897,0.1647467341,-2.27298
 065\H,0.7303568911,-2.000593928,-2.4357325724\H,1.1248199995,-1.896722
 95,-0.7156552583\H,-0.5500664007,-2.1364567348,-1.2288519529\C,-0.6096
 050828,0.7083612488,2.7944087012\C,-0.3814644614,-0.7268546638,3.18030
 18274\C,0.8085874058,-1.3294124396,3.2138519033\H,-0.918975902,1.27859
 24088,3.6794010739\H,0.3310601612,1.1598956491,2.45909555\H,-1.2722983
 898,-1.287845126,3.4587625308\H,0.9135048165,-2.3664533382,3.519077059
 3\H,1.724376132,-0.8054681264,2.9485989132\\Version=ES64L-G09RevD.01\S
 tate=1-A\HF=-1064.4237599\RMSD=4.404e-09\RMSF=4.927e-06\Dipole=-0.7465
 829,-1.5559164,0.6956183\Quadrupole=4.2150186,-7.867695,3.6526764,-8.5
 913153,0.3036786,7.7952952\PG=C01 [X(C14H26O3Si1)]\\@


 YOU SHOULDN'T LET PEOPLE DRIVE YOU CRAZY
 WHEN YOU KNOW IT'S WITHIN WALKING DISTANCE.
 Job cpu time:       0 days  2 hours 14 minutes 35.4 seconds.
 File lengths (MBytes):  RWF=    370 Int=      0 D2E=      0 Chk=     17 Scr=      1
 Normal termination of Gaussian 09 at Wed Feb  6 11:18:14 2019.
