 Entering Gaussian System, Link 0=/usr/local/Cluster-Apps/gaussian/g09/g09
 Initial command:
 /usr/local/Cluster-Apps/gaussian/g09/l1.exe "/home/ke291/rds/hpc-work/06Feb0927IP1/Gau-371529.inp" -scrdir="/home/ke291/rds/hpc-work/06Feb0927IP1/"
 Entering Link 1 = /usr/local/Cluster-Apps/gaussian/g09/l1.exe PID=    371535.
  
 Copyright (c) 1988,1990,1992,1993,1995,1998,2003,2009,2013,
            Gaussian, Inc.  All Rights Reserved.
  
 This is part of the Gaussian(R) 09 program.  It is based on
 the Gaussian(R) 03 system (copyright 2003, Gaussian, Inc.),
 the Gaussian(R) 98 system (copyright 1998, Gaussian, Inc.),
 the Gaussian(R) 94 system (copyright 1995, Gaussian, Inc.),
 the Gaussian 92(TM) system (copyright 1992, Gaussian, Inc.),
 the Gaussian 90(TM) system (copyright 1990, Gaussian, Inc.),
 the Gaussian 88(TM) system (copyright 1988, Gaussian, Inc.),
 the Gaussian 86(TM) system (copyright 1986, Carnegie Mellon
 University), and the Gaussian 82(TM) system (copyright 1983,
 Carnegie Mellon University). Gaussian is a federally registered
 trademark of Gaussian, Inc.
  
 This software contains proprietary and confidential information,
 including trade secrets, belonging to Gaussian, Inc.
  
 This software is provided under written license and may be
 used, copied, transmitted, or stored only in accord with that
 written license.
  
 The following legend is applicable only to US Government
 contracts under FAR:
  
                    RESTRICTED RIGHTS LEGEND
  
 Use, reproduction and disclosure by the US Government is
 subject to restrictions as set forth in subparagraphs (a)
 and (c) of the Commercial Computer Software - Restricted
 Rights clause in FAR 52.227-19.
  
 Gaussian, Inc.
 340 Quinnipiac St., Bldg. 40, Wallingford CT 06492
  
  
 ---------------------------------------------------------------
 Warning -- This program may not be used in any manner that
 competes with the business of Gaussian, Inc. or will provide
 assistance to any competitor of Gaussian, Inc.  The licensee
 of this program is prohibited from giving any competitor of
 Gaussian, Inc. access to this program.  By using this program,
 the user acknowledges that Gaussian, Inc. is engaged in the
 business of creating and licensing software in the field of
 computational chemistry and represents and warrants to the
 licensee that it is not a competitor of Gaussian, Inc. and that
 it will not use this program in any manner prohibited above.
 ---------------------------------------------------------------
  

 Cite this work as:
 Gaussian 09, Revision D.01,
 M. J. Frisch, G. W. Trucks, H. B. Schlegel, G. E. Scuseria, 
 M. A. Robb, J. R. Cheeseman, G. Scalmani, V. Barone, B. Mennucci, 
 G. A. Petersson, H. Nakatsuji, M. Caricato, X. Li, H. P. Hratchian, 
 A. F. Izmaylov, J. Bloino, G. Zheng, J. L. Sonnenberg, M. Hada, 
 M. Ehara, K. Toyota, R. Fukuda, J. Hasegawa, M. Ishida, T. Nakajima, 
 Y. Honda, O. Kitao, H. Nakai, T. Vreven, J. A. Montgomery, Jr., 
 J. E. Peralta, F. Ogliaro, M. Bearpark, J. J. Heyd, E. Brothers, 
 K. N. Kudin, V. N. Staroverov, T. Keith, R. Kobayashi, J. Normand, 
 K. Raghavachari, A. Rendell, J. C. Burant, S. S. Iyengar, J. Tomasi, 
 M. Cossi, N. Rega, J. M. Millam, M. Klene, J. E. Knox, J. B. Cross, 
 V. Bakken, C. Adamo, J. Jaramillo, R. Gomperts, R. E. Stratmann, 
 O. Yazyev, A. J. Austin, R. Cammi, C. Pomelli, J. W. Ochterski, 
 R. L. Martin, K. Morokuma, V. G. Zakrzewski, G. A. Voth, 
 P. Salvador, J. J. Dannenberg, S. Dapprich, A. D. Daniels, 
 O. Farkas, J. B. Foresman, J. V. Ortiz, J. Cioslowski, 
 and D. J. Fox, Gaussian, Inc., Wallingford CT, 2013.
 
 ******************************************
 Gaussian 09:  ES64L-G09RevD.01 24-Apr-2013
                 6-Feb-2019 
 ******************************************
 %nprocshared=2
 Will use up to    2 processors via shared memory.
 %mem=6000MB
 %chk=/home/ke291/rds/hpc-work/06Feb0927IP1/P_ng_correct1ginp016.chk
 ---------------------------------------------------------------
 # b3lyp/6-31g(d,p) Opt=(maxcycles=25) scrf=(solvent=chloroform)
 ---------------------------------------------------------------
 1/6=25,14=-1,18=20,19=15,26=3,38=1/1,3;
 2/9=110,12=2,17=6,18=5,40=1/2;
 3/5=1,6=6,7=101,11=2,16=1,25=1,30=1,70=2201,71=1,72=7,74=-5/1,2,3;
 4//1;
 5/5=2,38=5,53=7/2;
 6/7=2,8=2,9=2,10=2,28=1/1;
 7//1,2,3,16;
 1/6=25,14=-1,18=20,19=15,26=3/3(2);
 2/9=110/2;
 99//99;
 2/9=110/2;
 3/5=1,6=6,7=101,11=2,16=1,25=1,30=1,70=2205,71=1,72=7,74=-5/1,2,3;
 4/5=5,16=3,69=1/1;
 5/5=2,38=5,53=7/2;
 7//1,2,3,16;
 1/6=25,14=-1,18=20,19=15,26=3/3(-5);
 2/9=110/2;
 6/7=2,8=2,9=2,10=2,19=2,28=1/1;
 99/9=1/99;
 --------------------
 P_ng_correct1ginp016
 --------------------
 Symbolic Z-matrix:
 Charge =  0 Multiplicity = 1
 C                     0.9861   -0.0981    0.88039 
 C                    -0.54561  -0.20775   0.90273 
 C                    -1.14932   1.06048   1.56883 
 C                    -0.69775   2.26014   0.7217 
 C                     0.79009   2.33832   0.53882 
 H                     1.37558  -0.18091   1.90231 
 H                    -0.89442  -0.196    -0.13618 
 H                    -1.12151   2.23091  -0.28743 
 H                    -1.0437    3.19478   1.18052 
 O                     1.45631   1.17619   0.37988 
 O                     1.36367   3.41698   0.42395 
 C                     1.70108  -1.1889    0.0618 
 C                     1.3346   -1.20725  -1.417 
 C                    -1.02141  -1.54712   1.47627 
 O                    -2.58434   0.95374   1.69112 
 Si                   -3.77521   1.1838    0.54202 
 C                    -4.0781    3.01223   0.22558 
 C                    -3.4163    0.33504  -1.09118 
 C                    -5.39362   0.45741   1.20036 
 H                    -2.54646   0.77485  -1.58645 
 H                    -3.22699  -0.73179  -0.94038 
 H                    -4.27099   0.43391  -1.76743 
 H                    -6.2008    0.60338   0.4768 
 H                    -5.28041  -0.61479   1.38495 
 H                    -5.67438   0.94411   2.13882 
 H                    -4.259     3.53845   1.16746 
 H                    -3.22157   3.47748  -0.26916 
 H                    -4.95366   3.14838  -0.41634 
 H                    -0.49564  -1.81107   2.3971 
 H                    -2.09646  -1.55227   1.67617 
 H                    -0.83197  -2.35501   0.7608 
 H                     1.51312  -2.17727   0.49491 
 H                     2.78309  -1.01673   0.12884 
 H                     1.49647  -0.23015  -1.88215 
 H                     1.95595  -1.93754  -1.94568 
 H                     0.2903   -1.49499  -1.56818 
 C                    -0.66069   1.3342    3.03846 
 C                    -0.98243   0.2759    4.05938 
 C                    -0.08081  -0.28341   4.87667 
 H                    -1.15785   2.24871   3.39292 
 H                     0.41375   1.55033   3.06042 
 H                    -2.02685  -0.02279   4.13819 
 H                    -0.38269  -1.03281   5.60255 
 H                     0.9686   -0.00691   4.85077 
 

 GradGradGradGradGradGradGradGradGradGradGradGradGradGradGradGradGradGrad
 Berny optimization.
 Initialization pass.
                           ----------------------------
                           !    Initial Parameters    !
                           ! (Angstroms and Degrees)  !
 --------------------------                            --------------------------
 ! Name  Definition              Value          Derivative Info.                !
 --------------------------------------------------------------------------------
 ! R1    R(1,2)                  1.5358         estimate D2E/DX2                !
 ! R2    R(1,6)                  1.0968         estimate D2E/DX2                !
 ! R3    R(1,10)                 1.4476         estimate D2E/DX2                !
 ! R4    R(1,12)                 1.5399         estimate D2E/DX2                !
 ! R5    R(2,3)                  1.5545         estimate D2E/DX2                !
 ! R6    R(2,7)                  1.096          estimate D2E/DX2                !
 ! R7    R(2,14)                 1.5327         estimate D2E/DX2                !
 ! R8    R(3,4)                  1.5365         estimate D2E/DX2                !
 ! R9    R(3,15)                 1.4442         estimate D2E/DX2                !
 ! R10   R(3,37)                 1.5727         estimate D2E/DX2                !
 ! R11   R(4,5)                  1.5011         estimate D2E/DX2                !
 ! R12   R(4,8)                  1.0949         estimate D2E/DX2                !
 ! R13   R(4,9)                  1.0971         estimate D2E/DX2                !
 ! R14   R(5,10)                 1.3489         estimate D2E/DX2                !
 ! R15   R(5,11)                 1.2271         estimate D2E/DX2                !
 ! R16   R(12,13)                1.5236         estimate D2E/DX2                !
 ! R17   R(12,32)                1.0954         estimate D2E/DX2                !
 ! R18   R(12,33)                1.0977         estimate D2E/DX2                !
 ! R19   R(13,34)                1.0942         estimate D2E/DX2                !
 ! R20   R(13,35)                1.0949         estimate D2E/DX2                !
 ! R21   R(13,36)                1.0937         estimate D2E/DX2                !
 ! R22   R(14,29)                1.0927         estimate D2E/DX2                !
 ! R23   R(14,30)                1.0935         estimate D2E/DX2                !
 ! R24   R(14,31)                1.0957         estimate D2E/DX2                !
 ! R25   R(15,16)                1.6708         estimate D2E/DX2                !
 ! R26   R(16,17)                1.8802         estimate D2E/DX2                !
 ! R27   R(16,18)                1.8752         estimate D2E/DX2                !
 ! R28   R(16,19)                1.8922         estimate D2E/DX2                !
 ! R29   R(17,26)                1.094          estimate D2E/DX2                !
 ! R30   R(17,27)                1.0931         estimate D2E/DX2                !
 ! R31   R(17,28)                1.0942         estimate D2E/DX2                !
 ! R32   R(18,20)                1.0933         estimate D2E/DX2                !
 ! R33   R(18,21)                1.0939         estimate D2E/DX2                !
 ! R34   R(18,22)                1.0943         estimate D2E/DX2                !
 ! R35   R(19,23)                1.0938         estimate D2E/DX2                !
 ! R36   R(19,24)                1.0938         estimate D2E/DX2                !
 ! R37   R(19,25)                1.0938         estimate D2E/DX2                !
 ! R38   R(37,38)                1.5053         estimate D2E/DX2                !
 ! R39   R(37,40)                1.0996         estimate D2E/DX2                !
 ! R40   R(37,41)                1.0962         estimate D2E/DX2                !
 ! R41   R(38,39)                1.3393         estimate D2E/DX2                !
 ! R42   R(38,42)                1.0891         estimate D2E/DX2                !
 ! R43   R(39,43)                1.0861         estimate D2E/DX2                !
 ! R44   R(39,44)                1.0855         estimate D2E/DX2                !
 ! A1    A(2,1,6)              109.5867         estimate D2E/DX2                !
 ! A2    A(2,1,10)             113.0692         estimate D2E/DX2                !
 ! A3    A(2,1,12)             114.8497         estimate D2E/DX2                !
 ! A4    A(6,1,10)             105.8601         estimate D2E/DX2                !
 ! A5    A(6,1,12)             106.0788         estimate D2E/DX2                !
 ! A6    A(10,1,12)            106.7953         estimate D2E/DX2                !
 ! A7    A(1,2,3)              109.5911         estimate D2E/DX2                !
 ! A8    A(1,2,7)              107.6302         estimate D2E/DX2                !
 ! A9    A(1,2,14)             112.1747         estimate D2E/DX2                !
 ! A10   A(3,2,7)              105.8933         estimate D2E/DX2                !
 ! A11   A(3,2,14)             115.5956         estimate D2E/DX2                !
 ! A12   A(7,2,14)             105.3834         estimate D2E/DX2                !
 ! A13   A(2,3,4)              106.6549         estimate D2E/DX2                !
 ! A14   A(2,3,15)             111.2153         estimate D2E/DX2                !
 ! A15   A(2,3,37)             114.9439         estimate D2E/DX2                !
 ! A16   A(4,3,15)             113.3551         estimate D2E/DX2                !
 ! A17   A(4,3,37)             106.7389         estimate D2E/DX2                !
 ! A18   A(15,3,37)            104.0318         estimate D2E/DX2                !
 ! A19   A(3,4,5)              113.5245         estimate D2E/DX2                !
 ! A20   A(3,4,8)              111.9364         estimate D2E/DX2                !
 ! A21   A(3,4,9)              109.9924         estimate D2E/DX2                !
 ! A22   A(5,4,8)              105.8262         estimate D2E/DX2                !
 ! A23   A(5,4,9)              108.6098         estimate D2E/DX2                !
 ! A24   A(8,4,9)              106.6273         estimate D2E/DX2                !
 ! A25   A(4,5,10)             117.3234         estimate D2E/DX2                !
 ! A26   A(4,5,11)             121.3658         estimate D2E/DX2                !
 ! A27   A(10,5,11)            121.0263         estimate D2E/DX2                !
 ! A28   A(1,10,5)             123.864          estimate D2E/DX2                !
 ! A29   A(1,12,13)            114.3817         estimate D2E/DX2                !
 ! A30   A(1,12,32)            110.4456         estimate D2E/DX2                !
 ! A31   A(1,12,33)            108.3072         estimate D2E/DX2                !
 ! A32   A(13,12,32)           109.3673         estimate D2E/DX2                !
 ! A33   A(13,12,33)           107.3538         estimate D2E/DX2                !
 ! A34   A(32,12,33)           106.6504         estimate D2E/DX2                !
 ! A35   A(12,13,34)           111.4847         estimate D2E/DX2                !
 ! A36   A(12,13,35)           109.8876         estimate D2E/DX2                !
 ! A37   A(12,13,36)           111.5305         estimate D2E/DX2                !
 ! A38   A(34,13,35)           107.8406         estimate D2E/DX2                !
 ! A39   A(34,13,36)           108.5066         estimate D2E/DX2                !
 ! A40   A(35,13,36)           107.4346         estimate D2E/DX2                !
 ! A41   A(2,14,29)            112.1509         estimate D2E/DX2                !
 ! A42   A(2,14,30)            112.1917         estimate D2E/DX2                !
 ! A43   A(2,14,31)            110.2618         estimate D2E/DX2                !
 ! A44   A(29,14,30)           108.5336         estimate D2E/DX2                !
 ! A45   A(29,14,31)           106.7969         estimate D2E/DX2                !
 ! A46   A(30,14,31)           106.6124         estimate D2E/DX2                !
 ! A47   A(3,15,16)            129.7792         estimate D2E/DX2                !
 ! A48   A(15,16,17)           111.3759         estimate D2E/DX2                !
 ! A49   A(15,16,18)           113.5934         estimate D2E/DX2                !
 ! A50   A(15,16,19)           108.5109         estimate D2E/DX2                !
 ! A51   A(17,16,18)           108.9298         estimate D2E/DX2                !
 ! A52   A(17,16,19)           107.1035         estimate D2E/DX2                !
 ! A53   A(18,16,19)           107.0358         estimate D2E/DX2                !
 ! A54   A(16,17,26)           110.4579         estimate D2E/DX2                !
 ! A55   A(16,17,27)           111.3369         estimate D2E/DX2                !
 ! A56   A(16,17,28)           110.4055         estimate D2E/DX2                !
 ! A57   A(26,17,27)           108.3322         estimate D2E/DX2                !
 ! A58   A(26,17,28)           108.236          estimate D2E/DX2                !
 ! A59   A(27,17,28)           107.9704         estimate D2E/DX2                !
 ! A60   A(16,18,20)           111.391          estimate D2E/DX2                !
 ! A61   A(16,18,21)           110.7603         estimate D2E/DX2                !
 ! A62   A(16,18,22)           110.3539         estimate D2E/DX2                !
 ! A63   A(20,18,21)           108.4855         estimate D2E/DX2                !
 ! A64   A(20,18,22)           107.7639         estimate D2E/DX2                !
 ! A65   A(21,18,22)           107.9654         estimate D2E/DX2                !
 ! A66   A(16,19,23)           110.4752         estimate D2E/DX2                !
 ! A67   A(16,19,24)           110.2729         estimate D2E/DX2                !
 ! A68   A(16,19,25)           110.3189         estimate D2E/DX2                !
 ! A69   A(23,19,24)           108.5913         estimate D2E/DX2                !
 ! A70   A(23,19,25)           108.5879         estimate D2E/DX2                !
 ! A71   A(24,19,25)           108.5381         estimate D2E/DX2                !
 ! A72   A(3,37,38)            116.4235         estimate D2E/DX2                !
 ! A73   A(3,37,40)            107.7873         estimate D2E/DX2                !
 ! A74   A(3,37,41)            110.9504         estimate D2E/DX2                !
 ! A75   A(38,37,40)           105.6315         estimate D2E/DX2                !
 ! A76   A(38,37,41)           109.5452         estimate D2E/DX2                !
 ! A77   A(40,37,41)           105.8265         estimate D2E/DX2                !
 ! A78   A(37,38,39)           124.3049         estimate D2E/DX2                !
 ! A79   A(37,38,42)           116.5424         estimate D2E/DX2                !
 ! A80   A(39,38,42)           119.1358         estimate D2E/DX2                !
 ! A81   A(38,39,43)           120.5886         estimate D2E/DX2                !
 ! A82   A(38,39,44)           121.9969         estimate D2E/DX2                !
 ! A83   A(43,39,44)           117.4125         estimate D2E/DX2                !
 ! D1    D(6,1,2,3)             69.4099         estimate D2E/DX2                !
 ! D2    D(6,1,2,7)           -175.8751         estimate D2E/DX2                !
 ! D3    D(6,1,2,14)           -60.4006         estimate D2E/DX2                !
 ! D4    D(10,1,2,3)           -48.419          estimate D2E/DX2                !
 ! D5    D(10,1,2,7)            66.296          estimate D2E/DX2                !
 ! D6    D(10,1,2,14)         -178.2295         estimate D2E/DX2                !
 ! D7    D(12,1,2,3)          -171.3315         estimate D2E/DX2                !
 ! D8    D(12,1,2,7)           -56.6165         estimate D2E/DX2                !
 ! D9    D(12,1,2,14)           58.858          estimate D2E/DX2                !
 ! D10   D(2,1,10,5)            31.5382         estimate D2E/DX2                !
 ! D11   D(6,1,10,5)           -88.448          estimate D2E/DX2                !
 ! D12   D(12,1,10,5)          158.8151         estimate D2E/DX2                !
 ! D13   D(2,1,12,13)           61.0454         estimate D2E/DX2                !
 ! D14   D(2,1,12,32)          -62.8404         estimate D2E/DX2                !
 ! D15   D(2,1,12,33)         -179.292          estimate D2E/DX2                !
 ! D16   D(6,1,12,13)         -177.7588         estimate D2E/DX2                !
 ! D17   D(6,1,12,32)           58.3554         estimate D2E/DX2                !
 ! D18   D(6,1,12,33)          -58.0962         estimate D2E/DX2                !
 ! D19   D(10,1,12,13)         -65.1718         estimate D2E/DX2                !
 ! D20   D(10,1,12,32)         170.9424         estimate D2E/DX2                !
 ! D21   D(10,1,12,33)          54.4908         estimate D2E/DX2                !
 ! D22   D(1,2,3,4)             59.8764         estimate D2E/DX2                !
 ! D23   D(1,2,3,15)          -176.068          estimate D2E/DX2                !
 ! D24   D(1,2,3,37)           -58.2027         estimate D2E/DX2                !
 ! D25   D(7,2,3,4)            -55.9469         estimate D2E/DX2                !
 ! D26   D(7,2,3,15)            68.1087         estimate D2E/DX2                !
 ! D27   D(7,2,3,37)          -174.0261         estimate D2E/DX2                !
 ! D28   D(14,2,3,4)          -172.1929         estimate D2E/DX2                !
 ! D29   D(14,2,3,15)          -48.1373         estimate D2E/DX2                !
 ! D30   D(14,2,3,37)           69.7279         estimate D2E/DX2                !
 ! D31   D(1,2,14,29)           46.2882         estimate D2E/DX2                !
 ! D32   D(1,2,14,30)          168.7481         estimate D2E/DX2                !
 ! D33   D(1,2,14,31)          -72.5847         estimate D2E/DX2                !
 ! D34   D(3,2,14,29)          -80.3475         estimate D2E/DX2                !
 ! D35   D(3,2,14,30)           42.1123         estimate D2E/DX2                !
 ! D36   D(3,2,14,31)          160.7795         estimate D2E/DX2                !
 ! D37   D(7,2,14,29)          163.1188         estimate D2E/DX2                !
 ! D38   D(7,2,14,30)          -74.4213         estimate D2E/DX2                !
 ! D39   D(7,2,14,31)           44.2459         estimate D2E/DX2                !
 ! D40   D(2,3,4,5)            -54.5852         estimate D2E/DX2                !
 ! D41   D(2,3,4,8)             65.1489         estimate D2E/DX2                !
 ! D42   D(2,3,4,9)           -176.5058         estimate D2E/DX2                !
 ! D43   D(15,3,4,5)          -177.3102         estimate D2E/DX2                !
 ! D44   D(15,3,4,8)           -57.5761         estimate D2E/DX2                !
 ! D45   D(15,3,4,9)            60.7691         estimate D2E/DX2                !
 ! D46   D(37,3,4,5)            68.7577         estimate D2E/DX2                !
 ! D47   D(37,3,4,8)          -171.5082         estimate D2E/DX2                !
 ! D48   D(37,3,4,9)           -53.1629         estimate D2E/DX2                !
 ! D49   D(2,3,15,16)          -78.9676         estimate D2E/DX2                !
 ! D50   D(4,3,15,16)           41.198          estimate D2E/DX2                !
 ! D51   D(37,3,15,16)         156.7468         estimate D2E/DX2                !
 ! D52   D(2,3,37,38)          -61.486          estimate D2E/DX2                !
 ! D53   D(2,3,37,40)         -179.8719         estimate D2E/DX2                !
 ! D54   D(2,3,37,41)           64.6907         estimate D2E/DX2                !
 ! D55   D(4,3,37,38)         -179.5179         estimate D2E/DX2                !
 ! D56   D(4,3,37,40)           62.0962         estimate D2E/DX2                !
 ! D57   D(4,3,37,41)          -53.3412         estimate D2E/DX2                !
 ! D58   D(15,3,37,38)          60.3586         estimate D2E/DX2                !
 ! D59   D(15,3,37,40)         -58.0273         estimate D2E/DX2                !
 ! D60   D(15,3,37,41)        -173.4647         estimate D2E/DX2                !
 ! D61   D(3,4,5,10)            37.5578         estimate D2E/DX2                !
 ! D62   D(3,4,5,11)          -148.5097         estimate D2E/DX2                !
 ! D63   D(8,4,5,10)           -85.5961         estimate D2E/DX2                !
 ! D64   D(8,4,5,11)            88.3363         estimate D2E/DX2                !
 ! D65   D(9,4,5,10)           160.2444         estimate D2E/DX2                !
 ! D66   D(9,4,5,11)           -25.8232         estimate D2E/DX2                !
 ! D67   D(4,5,10,1)           -25.5261         estimate D2E/DX2                !
 ! D68   D(11,5,10,1)          160.5196         estimate D2E/DX2                !
 ! D69   D(1,12,13,34)          54.7555         estimate D2E/DX2                !
 ! D70   D(1,12,13,35)         174.2616         estimate D2E/DX2                !
 ! D71   D(1,12,13,36)         -66.7103         estimate D2E/DX2                !
 ! D72   D(32,12,13,34)        179.2165         estimate D2E/DX2                !
 ! D73   D(32,12,13,35)        -61.2775         estimate D2E/DX2                !
 ! D74   D(32,12,13,36)         57.7506         estimate D2E/DX2                !
 ! D75   D(33,12,13,34)        -65.4398         estimate D2E/DX2                !
 ! D76   D(33,12,13,35)         54.0663         estimate D2E/DX2                !
 ! D77   D(33,12,13,36)        173.0944         estimate D2E/DX2                !
 ! D78   D(3,15,16,17)         -77.1416         estimate D2E/DX2                !
 ! D79   D(3,15,16,18)          46.301          estimate D2E/DX2                !
 ! D80   D(3,15,16,19)         165.2062         estimate D2E/DX2                !
 ! D81   D(15,16,17,26)        -52.1429         estimate D2E/DX2                !
 ! D82   D(15,16,17,27)         68.2631         estimate D2E/DX2                !
 ! D83   D(15,16,17,28)       -171.8215         estimate D2E/DX2                !
 ! D84   D(18,16,17,26)       -178.2022         estimate D2E/DX2                !
 ! D85   D(18,16,17,27)        -57.7962         estimate D2E/DX2                !
 ! D86   D(18,16,17,28)         62.1192         estimate D2E/DX2                !
 ! D87   D(19,16,17,26)         66.3567         estimate D2E/DX2                !
 ! D88   D(19,16,17,27)       -173.2373         estimate D2E/DX2                !
 ! D89   D(19,16,17,28)        -53.3219         estimate D2E/DX2                !
 ! D90   D(15,16,18,20)        -66.0701         estimate D2E/DX2                !
 ! D91   D(15,16,18,21)         54.7707         estimate D2E/DX2                !
 ! D92   D(15,16,18,22)        174.2728         estimate D2E/DX2                !
 ! D93   D(17,16,18,20)         58.6982         estimate D2E/DX2                !
 ! D94   D(17,16,18,21)        179.5391         estimate D2E/DX2                !
 ! D95   D(17,16,18,22)        -60.9588         estimate D2E/DX2                !
 ! D96   D(19,16,18,20)        174.1829         estimate D2E/DX2                !
 ! D97   D(19,16,18,21)        -64.9762         estimate D2E/DX2                !
 ! D98   D(19,16,18,22)         54.5259         estimate D2E/DX2                !
 ! D99   D(15,16,19,23)        179.2152         estimate D2E/DX2                !
 ! D100  D(15,16,19,24)        -60.7378         estimate D2E/DX2                !
 ! D101  D(15,16,19,25)         59.1428         estimate D2E/DX2                !
 ! D102  D(17,16,19,23)         58.872          estimate D2E/DX2                !
 ! D103  D(17,16,19,24)        178.919          estimate D2E/DX2                !
 ! D104  D(17,16,19,25)        -61.2004         estimate D2E/DX2                !
 ! D105  D(18,16,19,23)        -57.8257         estimate D2E/DX2                !
 ! D106  D(18,16,19,24)         62.2213         estimate D2E/DX2                !
 ! D107  D(18,16,19,25)       -177.8981         estimate D2E/DX2                !
 ! D108  D(3,37,38,39)         128.0466         estimate D2E/DX2                !
 ! D109  D(3,37,38,42)         -53.4682         estimate D2E/DX2                !
 ! D110  D(40,37,38,39)       -112.3985         estimate D2E/DX2                !
 ! D111  D(40,37,38,42)         66.0867         estimate D2E/DX2                !
 ! D112  D(41,37,38,39)          1.17           estimate D2E/DX2                !
 ! D113  D(41,37,38,42)        179.6552         estimate D2E/DX2                !
 ! D114  D(37,38,39,43)        179.0761         estimate D2E/DX2                !
 ! D115  D(37,38,39,44)         -0.3967         estimate D2E/DX2                !
 ! D116  D(42,38,39,43)          0.6276         estimate D2E/DX2                !
 ! D117  D(42,38,39,44)       -178.8453         estimate D2E/DX2                !
 --------------------------------------------------------------------------------
 Trust Radius=3.00D-01 FncErr=1.00D-07 GrdErr=1.00D-06
 Number of steps in this run=     25 maximum allowed number of steps=    264.
 GradGradGradGradGradGradGradGradGradGradGradGradGradGradGradGradGradGrad

                          Input orientation:                          
 ---------------------------------------------------------------------
 Center     Atomic      Atomic             Coordinates (Angstroms)
 Number     Number       Type             X           Y           Z
 ---------------------------------------------------------------------
      1          6           0        0.986099   -0.098097    0.880394
      2          6           0       -0.545611   -0.207745    0.902729
      3          6           0       -1.149315    1.060482    1.568834
      4          6           0       -0.697754    2.260143    0.721699
      5          6           0        0.790094    2.338320    0.538818
      6          1           0        1.375576   -0.180910    1.902313
      7          1           0       -0.894421   -0.196004   -0.136178
      8          1           0       -1.121509    2.230911   -0.287431
      9          1           0       -1.043704    3.194776    1.180518
     10          8           0        1.456308    1.176193    0.379878
     11          8           0        1.363666    3.416979    0.423949
     12          6           0        1.701079   -1.188899    0.061796
     13          6           0        1.334600   -1.207255   -1.416995
     14          6           0       -1.021412   -1.547124    1.476269
     15          8           0       -2.584340    0.953739    1.691118
     16         14           0       -3.775210    1.183802    0.542021
     17          6           0       -4.078100    3.012230    0.225582
     18          6           0       -3.416295    0.335043   -1.091181
     19          6           0       -5.393620    0.457407    1.200363
     20          1           0       -2.546460    0.774846   -1.586449
     21          1           0       -3.226986   -0.731792   -0.940380
     22          1           0       -4.270985    0.433908   -1.767430
     23          1           0       -6.200802    0.603376    0.476799
     24          1           0       -5.280415   -0.614787    1.384950
     25          1           0       -5.674384    0.944106    2.138821
     26          1           0       -4.259004    3.538450    1.167456
     27          1           0       -3.221573    3.477475   -0.269161
     28          1           0       -4.953658    3.148383   -0.416342
     29          1           0       -0.495637   -1.811074    2.397103
     30          1           0       -2.096464   -1.552267    1.676166
     31          1           0       -0.831965   -2.355013    0.760796
     32          1           0        1.513115   -2.177274    0.494906
     33          1           0        2.783090   -1.016730    0.128844
     34          1           0        1.496473   -0.230153   -1.882151
     35          1           0        1.955946   -1.937542   -1.945684
     36          1           0        0.290304   -1.494993   -1.568183
     37          6           0       -0.660685    1.334196    3.038463
     38          6           0       -0.982433    0.275900    4.059378
     39          6           0       -0.080805   -0.283406    4.876673
     40          1           0       -1.157853    2.248705    3.392919
     41          1           0        0.413750    1.550331    3.060421
     42          1           0       -2.026853   -0.022787    4.138188
     43          1           0       -0.382686   -1.032807    5.602550
     44          1           0        0.968604   -0.006908    4.850770
 ---------------------------------------------------------------------
                    Distance matrix (angstroms):
                    1          2          3          4          5
     1  C    0.000000
     2  C    1.535792   0.000000
     3  C    2.525123   1.554527   0.000000
     4  C    2.902041   2.479192   1.536467   0.000000
     5  C    2.468040   2.898100   2.540691   1.501083   0.000000
     6  H    1.096754   2.165837   2.833256   3.413398   2.923769
     7  H    2.139944   1.095963   2.133259   2.609078   3.117051
     8  H    3.351135   2.774019   2.194629   1.094882   2.085294
     9  H    3.879844   3.449987   2.171901   1.097149   2.123231
    10  O    1.447559   2.489244   2.866405   2.435523   1.348941
    11  O    3.564640   4.124705   3.630277   2.382515   1.227064
    12  C    1.539853   2.591804   3.931364   4.252736   3.674060
    13  C    2.574817   3.148862   4.497515   4.552727   4.085682
    14  C    2.546536   1.532733   2.612381   3.894793   4.388285
    15  O    3.809418   2.475281   1.444176   2.491118   3.825136
    16  Si   4.942451   3.535085   2.822211   3.265200   4.709026
    17  C    5.979049   4.827551   3.767151   3.498358   4.924590
    18  C    4.843118   3.537107   3.569473   3.792494   4.935962
    19  C    6.411847   4.902469   4.302743   5.052735   6.497214
    20  H    4.396171   3.341390   3.462573   3.309285   4.253681
    21  H    4.633236   3.295671   3.718214   4.255725   5.267879
    22  H    5.910240   4.628162   4.611732   4.722169   5.878783
    23  H    7.232323   5.728920   5.188353   5.752251   7.203229
    24  H    6.307990   4.776671   4.461651   5.450312   6.803518
    25  H    6.857978   5.399907   4.562311   5.339198   6.803919
    26  H    6.388895   5.281415   3.996448   3.809891   5.227704
    27  H    5.640097   4.702653   3.676185   2.972097   4.247820
    28  H    6.892160   5.695123   4.772136   4.494088   5.878709
    29  H    2.725846   2.192331   3.059274   4.407112   4.724807
    30  H    3.500008   2.193420   2.781199   4.171554   4.976188
    31  H    2.900574   2.170922   3.524095   4.617273   4.970686
    32  H    2.179294   2.878145   4.327230   4.962867   4.573322
    33  H    2.153576   3.511923   4.674633   4.817224   3.923834
    34  H    2.812397   3.453428   4.535993   4.218559   3.599599
    35  H    3.508686   4.166946   5.566204   5.637164   5.080842
    36  H    2.903615   2.908809   4.294628   4.507867   4.402673
    37  C    3.069303   2.636699   1.572733   2.495225   3.059616
    38  C    3.757783   3.223222   2.616530   3.893374   4.448570
    39  C    4.140395   4.001750   3.726868   4.910609   5.142849
    40  H    4.051764   3.551061   2.176978   2.710579   3.456649
    41  H    2.792385   2.943950   2.215391   2.684939   2.668528
    42  H    4.438105   3.563212   2.923205   4.318642   5.144461
    43  H    5.004599   4.774473   4.608736   5.896227   6.195264
    44  H    3.971462   4.233227   4.049198   4.996548   4.911710
                    6          7          8          9         10
     6  H    0.000000
     7  H    3.050993   0.000000
     8  H    4.104545   2.442205   0.000000
     9  H    4.215348   3.640517   1.757829   0.000000
    10  O    2.041092   2.770409   2.864066   3.311459   0.000000
    11  O    3.889795   4.297249   2.844102   2.533220   2.243133
    12  C    2.123558   2.785975   4.447928   5.291690   2.398906
    13  C    3.474603   2.762545   4.373714   5.637489   2.987372
    14  C    2.791703   2.107519   4.170636   4.751166   3.841565
    15  O    4.124678   2.741668   2.772309   2.767041   4.253901
    16  Si   5.499403   3.265389   2.970952   3.451495   5.234036
    17  C    6.538360   4.534253   3.100818   3.186343   5.833053
    18  C    5.673556   2.748434   3.083241   4.355213   5.158857
    19  C    6.835364   4.738785   4.858990   5.139587   6.936235
    20  H    5.335475   2.403137   2.416207   3.971202   4.477686
    21  H    5.437642   2.524811   3.692829   4.968185   5.226541
    22  H    6.762297   3.802493   3.916480   5.169926   6.161477
    23  H    7.749110   5.401151   5.388148   5.814313   7.679118
    24  H    6.690152   4.661132   5.309553   5.701253   7.042813
    25  H    7.143076   5.415119   5.317070   5.237085   7.348096
    26  H    6.791329   5.192882   3.697327   3.233641   6.234206
    27  H    6.263614   4.350606   2.442238   2.631464   5.253544
    28  H    7.517949   5.266956   3.942555   4.223725   6.753604
    29  H    2.530551   3.030675   4.892451   5.180636   4.099152
    30  H    3.739896   2.562996   4.372492   4.887575   4.663373
    31  H    3.301972   2.338757   4.713100   5.569664   4.225010
    32  H    2.446463   3.181183   5.194746   5.988849   3.355920
    33  H    2.413479   3.777289   5.095719   5.786809   2.575321
    34  H    3.786715   2.960737   3.931132   5.250008   2.663869
    35  H    4.269621   3.798929   5.440270   6.716526   3.918319
    36  H    3.866390   2.267506   4.185200   5.597220   3.505673
    37  C    2.780781   3.531924   3.475346   2.657145   3.402161
    38  C    3.228283   4.222929   4.768245   4.100174   4.505187
    39  C    3.313362   5.079201   5.837193   5.165896   4.971349
    40  H    3.813554   4.301224   3.680572   2.408900   4.130682
    41  H    2.294236   3.870303   3.745440   2.891783   2.900382
    42  H    4.074391   4.425224   5.048258   4.479632   5.262590
    43  H    4.184372   5.821951   6.774186   6.153354   5.961366
    44  H    2.981493   5.326938   5.981431   5.269812   4.650426
                   11         12         13         14         15
    11  O    0.000000
    12  C    4.632398   0.000000
    13  C    4.977294   1.523636   0.000000
    14  C    5.606986   3.088854   3.746636   0.000000
    15  O    4.822864   5.060672   5.448702   2.956894   0.000000
    16  Si   5.604379   5.987493   5.972023   3.989258   1.670786
    17  C    5.460402   7.146693   7.056871   5.629855   2.935388
    18  C    5.885743   5.462533   5.005581   3.983694   2.969195
    19  C    7.417735   7.371663   7.408820   4.817725   2.894692
    20  H    5.129488   4.961310   4.361200   4.134919   3.282664
    21  H    6.336228   5.049666   4.610997   3.371871   3.190422
    22  H    6.741672   6.453303   5.851393   5.000580   3.882853
    23  H    8.070956   8.113211   7.977915   5.696461   3.830943
    24  H    7.830867   7.128927   7.208352   4.360814   3.134140
    25  H    7.654413   7.953691   8.148499   5.319337   3.122323
    26  H    5.672916   7.687191   7.777500   6.036591   3.124012
    27  H    4.637723   6.790956   6.634978   5.756199   3.258528
    28  H    6.378622   7.957773   7.714602   6.410329   3.856361
    29  H    5.889217   3.265934   4.273372   1.092723   3.536281
    30  H    6.183361   4.142410   4.632373   1.093491   2.553099
    31  H    6.184671   2.874845   3.279348   1.095663   3.857999
    32  H    5.596699   1.095354   2.151318   2.789980   5.293704
    33  H    4.664722   1.097673   2.126979   4.070763   5.927289
    34  H    4.317095   2.177151   1.094213   4.399221   5.551836
    35  H    5.885308   2.157637   1.094944   4.552675   6.496155
    36  H    5.408157   2.177340   1.093712   3.315419   4.988277
    37  C    3.907898   4.561193   5.503748   3.297359   2.379188
    38  C    5.346672   5.032647   6.128544   3.161865   2.938406
    39  C    5.967084   5.213259   6.516681   3.747596   4.236269
    40  H    4.066658   5.575571   6.425827   4.254466   2.570589
    41  H    3.367150   4.260557   5.338492   3.763437   3.349546
    42  H    6.092879   5.645730   6.600181   3.228053   2.693055
    43  H    7.047570   5.921689   7.228659   4.206981   4.908457
    44  H    5.610332   4.986772   6.392156   4.209476   4.850738
                   16         17         18         19         20
    16  Si   0.000000
    17  C    1.880166   0.000000
    18  C    1.875249   3.056007   0.000000
    19  C    1.892172   3.034454   3.029185   0.000000
    20  H    2.491477   3.261175   1.093311   3.996675   0.000000
    21  H    2.483458   4.012675   1.093945   3.269752   1.774959
    22  H    2.478245   3.264513   1.094341   3.173115   1.767195
    23  H    2.494924   3.220489   3.206874   1.093798   4.200073
    24  H    2.492207   3.993113   3.241658   1.093841   4.270223
    25  H    2.492807   3.238170   3.987836   1.093804   4.867257
    26  H    2.483866   1.093965   4.009166   3.283483   4.260787
    27  H    2.495088   1.093097   3.253999   3.999762   3.081433
    28  H    2.483300   1.094169   3.276244   3.169961   3.577350
    29  H    4.813129   6.388568   5.030327   5.528872   5.173156
    30  H    3.404489   5.183214   3.600292   3.890555   4.032692
    31  H    4.608011   6.295327   4.164731   5.376953   4.271425
    32  H    6.266214   7.633163   5.755562   7.425780   5.433894
    33  H    6.929961   7.957249   6.461279   8.377340   5.878442
    34  H    5.972145   6.784648   5.008030   7.579447   4.176454
    35  H    6.984097   8.100886   5.895404   8.345628   5.268563
    36  H    5.306346   6.528063   4.161182   6.616926   3.633144
    37  C    3.994384   4.733585   5.064154   5.152479   5.025816
    38  C    4.582105   5.636368   5.696968   5.259799   5.879668
    39  C    5.881372   6.962200   6.864638   6.503081   6.997950
    40  H    4.014000   4.375253   5.373064   5.094877   5.375369
    41  H    4.901435   5.509099   5.777713   6.195147   5.563957
    42  H    4.176724   5.359797   5.422628   4.494054   5.803247
    43  H    6.483173   7.676600   7.475281   6.834431   7.722126
    44  H    6.518196   7.481763   7.392635   7.349759   7.375948
                   21         22         23         24         25
    21  H    0.000000
    22  H    1.769972   0.000000
    23  H    3.554525   2.964705   0.000000
    24  H    3.104420   3.472205   1.776449   0.000000
    25  H    4.275496   4.181941   1.776381   1.775860   0.000000
    26  H    4.872679   4.272222   3.586397   4.282518   3.110863
    27  H    4.262452   3.550968   4.206270   4.870475   4.269967
    28  H    4.279225   3.108031   2.971553   4.184838   3.450673
    29  H    4.445662   6.052812   6.485834   5.034844   5.871724
    30  H    2.966070   4.531201   4.788619   3.331849   4.387190
    31  H    3.356333   5.098712   6.136541   4.817329   6.019316
    32  H    5.159266   6.737377   8.199808   7.027488   8.006598
    33  H    6.111092   7.447159   9.135433   8.170647   8.911439
    34  H    4.842483   5.806695   8.093668   7.533134   8.304715
    35  H    5.415464   6.665600   8.880159   8.075130   9.121897
    36  H    3.653483   4.956381   7.121767   6.366213   7.434284
    37  C    5.165791   6.077943   6.147285   5.279635   5.108689
    38  C    5.572346   6.692625   6.338256   5.139897   5.113653
    39  C    6.628545   7.887728   7.589442   6.271992   6.347499
    40  H    5.651739   6.293988   6.053280   5.406204   4.865572
    41  H    5.871069   6.819185   7.164086   6.318105   6.187264
    42  H    5.266390   6.334116   5.587459   4.303074   4.270460
    43  H    7.140769   8.460894   7.924701   6.476931   6.626286
    44  H    7.187896   8.452703   8.420478   7.171587   7.237982
                   26         27         28         29         30
    26  H    0.000000
    27  H    1.773090   0.000000
    28  H    1.772883   1.769204   0.000000
    29  H    6.655251   6.519850   7.237792   0.000000
    30  H    5.554346   5.508945   5.885428   1.774649   0.000000
    31  H    6.829559   6.386623   6.975771   1.756840   1.755352
    32  H    8.151023   7.414665   8.426871   2.790617   3.849035
    33  H    8.451004   7.510810   8.803560   4.065222   5.146946
    34  H    7.525157   6.213550   7.427469   4.977934   5.226739
    35  H    8.848940   7.677229   8.714823   4.988592   5.448694
    36  H    7.315427   6.224643   7.098367   4.054763   4.028119
    37  C    4.615983   4.700231   5.801428   3.214235   3.499855
    38  C    5.453748   5.830959   6.637308   2.712119   3.203585
    39  C    6.769211   7.105509   7.971065   2.941789   3.989503
    40  H    4.029053   4.379457   5.452341   4.232255   4.274999
    41  H    5.419462   5.292974   6.591716   3.544858   4.224151
    42  H    5.146859   5.753600   6.274253   2.928134   2.899260
    43  H    7.456024   7.929623   8.637314   3.300507   4.315480
    44  H    7.311925   7.477446   8.530622   3.379275   4.675563
                   31         32         33         34         35
    31  H    0.000000
    32  H    2.366789   0.000000
    33  H    3.906275   1.758892   0.000000
    34  H    4.113614   3.072777   2.513601   0.000000
    35  H    3.907910   2.491997   2.415725   1.769274   0.000000
    36  H    2.724567   2.493413   3.053296   1.775736   1.764290
    37  C    4.339051   4.850310   5.084518   5.595798   6.510971
    38  C    4.221965   4.995126   5.594565   6.457773   7.042313
    39  C    4.668644   5.032614   5.592990   6.940630   7.309520
    40  H    5.313049   5.926368   6.070279   6.404416   7.464656
    41  H    4.700191   4.656770   4.560452   5.363901   6.293228
    42  H    4.274788   5.517852   6.340214   6.978632   7.519473
    43  H    5.039113   5.567036   6.323279   7.758624   7.953841
    44  H    5.048122   4.896992   5.158361   6.757271   7.134002
                   36         37         38         39         40
    36  H    0.000000
    37  C    5.489069   0.000000
    38  C    6.035343   1.505251   0.000000
    39  C    6.568244   2.516329   1.339301   0.000000
    40  H    6.381612   1.099610   2.089713   3.126203   0.000000
    41  H    5.541950   1.096178   2.138087   2.627917   1.751633
    42  H    6.332399   2.217479   1.089146   2.097710   2.543671
    43  H    7.217059   3.500647   2.110401   1.086108   4.031337
    44  H    6.624005   2.781654   2.124342   1.085533   3.425630
                   41         42         43         44
    41  H    0.000000
    42  H    3.097229   0.000000
    43  H    3.710705   2.422350   0.000000
    44  H    2.436843   3.079089   1.855701   0.000000
 Stoichiometry    C14H26O3Si
 Framework group  C1[X(C14H26O3Si)]
 Deg. of freedom   126
 Full point group                 C1      NOp   1
 Largest Abelian subgroup         C1      NOp   1
 Largest concise Abelian subgroup C1      NOp   1
                         Standard orientation:                         
 ---------------------------------------------------------------------
 Center     Atomic      Atomic             Coordinates (Angstroms)
 Number     Number       Type             X           Y           Z
 ---------------------------------------------------------------------
      1          6           0       -2.248577   -0.134362   -0.396636
      2          6           0       -0.772906   -0.006171   -0.802370
      3          6           0        0.064986    0.462683    0.420196
      4          6           0       -0.112993   -0.604335    1.511308
      5          6           0       -1.548959   -0.882400    1.848847
      6          1           0       -2.667427    0.862551   -0.213337
      7          1           0       -0.408112   -1.009750   -1.049128
      8          1           0        0.316100   -1.567254    1.215616
      9          1           0        0.408330   -0.295973    2.426114
     10          8           0       -2.436496   -0.874635    0.833043
     11          8           0       -1.886062   -1.215417    2.980724
     12          6           0       -3.155771   -0.790303   -1.453938
     13          6           0       -2.770945   -2.220114   -1.813129
     14          6           0       -0.594380    0.817524   -2.082575
     15          8           0        1.444625    0.683130    0.054624
     16         14           0        2.680436   -0.418792   -0.169126
     17          6           0        3.359125   -1.030383    1.474152
     18          6           0        2.187928   -1.897397   -1.212066
     19          6           0        4.101224    0.446790   -1.070482
     20          1           0        1.437333   -2.510247   -0.705752
     21          1           0        1.780309   -1.574529   -2.174520
     22          1           0        3.058237   -2.530779   -1.409479
     23          1           0        4.935695   -0.243999   -1.221693
     24          1           0        3.766280    0.808137   -2.047072
     25          1           0        4.456937    1.300831   -0.486968
     26          1           0        3.625189   -0.185534    2.116181
     27          1           0        2.626772   -1.646380    2.002420
     28          1           0        4.256821   -1.635310    1.314744
     29          1           0       -1.181775    1.738775   -2.065028
     30          1           0        0.452364    1.076132   -2.264704
     31          1           0       -0.931307    0.243718   -2.953037
     32          1           0       -3.183857   -0.182047   -2.364452
     33          1           0       -4.180405   -0.815887   -1.061057
     34          1           0       -2.718998   -2.856431   -0.924477
     35          1           0       -3.518293   -2.648351   -2.489136
     36          1           0       -1.805264   -2.259315   -2.325113
     37          6           0       -0.386671    1.832160    1.047912
     38          6           0       -0.310169    3.038076    0.150307
     39          6           0       -1.323930    3.887465   -0.060772
     40          1           0        0.280590    2.050023    1.894340
     41          1           0       -1.393937    1.755038    1.473438
     42          1           0        0.648712    3.226904   -0.330452
     43          1           0       -1.197370    4.748510   -0.710554
     44          1           0       -2.293329    3.754224    0.409221
 ---------------------------------------------------------------------
 Rotational constants (GHZ):      0.4454823      0.2812726      0.2605892
 Standard basis: 6-31G(d,p) (6D, 7F)
 There are   404 symmetry adapted cartesian basis functions of A   symmetry.
 There are   404 symmetry adapted basis functions of A   symmetry.
   404 basis functions,   710 primitive gaussians,   404 cartesian basis functions
    74 alpha electrons       74 beta electrons
       nuclear repulsion energy      1639.4877516597 Hartrees.
 NAtoms=   44 NActive=   44 NUniq=   44 SFac= 1.00D+00 NAtFMM=   60 NAOKFM=F Big=F
 Integral buffers will be    131072 words long.
 Raffenetti 2 integral format.
 Two-electron integral symmetry is turned on.
 ------------------------------------------------------------------------------
 Polarizable Continuum Model (PCM)
 =================================
 Model                : PCM (using non-symmetric T matrix).
 Atomic radii         : UFF (Universal Force Field).
 Polarization charges : Total charges.
 Charge compensation  : None.
 Solution method      : On-the-fly selection.
 Cavity type          : Scaled VdW (van der Waals Surface) (Alpha=1.100).
 Cavity algorithm     : GePol (No added spheres)
                        Default sphere list used, NSphG=   44.
                        Lebedev-Laikov grids with approx.  5.0 points / Ang**2.
                        Smoothing algorithm: Karplus/York (Gamma=1.0000).
                        Polarization charges: spherical gaussians, with
                                              point-specific exponents (IZeta= 3).
                        Self-potential: point-specific (ISelfS= 7).
                        Self-field    : sphere-specific E.n sum rule (ISelfD= 2).
 1st derivatives      : Analytical E(r).r(x)/FMM algorithm (CHGder, D1EAlg=3).
                        Cavity 1st derivative terms included.
 Solvent              : Chloroform, Eps=   4.711300 Eps(inf)=   2.090627
 ------------------------------------------------------------------------------
 One-electron integrals computed using PRISM.
 NBasis=   404 RedAO= T EigKep=  2.00D-03  NBF=   404
 NBsUse=   404 1.00D-06 EigRej= -1.00D+00 NBFU=   404
 ExpMin= 7.78D-02 ExpMax= 1.61D+04 ExpMxC= 2.43D+03 IAcc=2 IRadAn=         4 AccDes= 0.00D+00
 Harris functional with IExCor=  402 and IRadAn=       4 diagonalized for initial guess.
 HarFok:  IExCor=  402 AccDes= 0.00D+00 IRadAn=         4 IDoV= 1 UseB2=F ITyADJ=14
 ICtDFT=  3500011 ScaDFX=  1.000000  1.000000  1.000000  1.000000
 FoFCou: FMM=F IPFlag=           0 FMFlag=      100000 FMFlg1=           0
         NFxFlg=           0 DoJE=T BraDBF=F KetDBF=T FulRan=T
         wScrn=  0.000000 ICntrl=     500 IOpCl=  0 I1Cent=   200000004 NGrid=           0
         NMat0=    1 NMatS0=      1 NMatT0=    0 NMatD0=    1 NMtDS0=    0 NMtDT0=    0
 Petite list used in FoFCou.
 Requested convergence on RMS density matrix=1.00D-08 within 128 cycles.
 Requested convergence on MAX density matrix=1.00D-06.
 Requested convergence on             energy=1.00D-06.
 No special actions if energy rises.
 Inv3:  Mode=1 IEnd=    24196800.
 Iteration    1 A*A^-1 deviation from unit magnitude is 4.44D-15 for   2824.
 Iteration    1 A*A^-1 deviation from orthogonality  is 2.54D-15 for   2444   1375.
 Iteration    1 A^-1*A deviation from unit magnitude is 4.77D-15 for   2824.
 Iteration    1 A^-1*A deviation from orthogonality  is 1.60D-13 for   2793   2787.
 Error on total polarization charges =  0.00910
 SCF Done:  E(RB3LYP) =  -1064.41526362     A.U. after   13 cycles
            NFock= 13  Conv=0.56D-08     -V/T= 2.0080

 **********************************************************************

            Population analysis using the SCF density.

 **********************************************************************

 Orbital symmetries:
       Occupied  (A) (A) (A) (A) (A) (A) (A) (A) (A) (A) (A) (A)
                 (A) (A) (A) (A) (A) (A) (A) (A) (A) (A) (A) (A)
                 (A) (A) (A) (A) (A) (A) (A) (A) (A) (A) (A) (A)
                 (A) (A) (A) (A) (A) (A) (A) (A) (A) (A) (A) (A)
                 (A) (A) (A) (A) (A) (A) (A) (A) (A) (A) (A) (A)
                 (A) (A) (A) (A) (A) (A) (A) (A) (A) (A) (A) (A)
                 (A) (A)
       Virtual   (A) (A) (A) (A) (A) (A) (A) (A) (A) (A) (A) (A)
                 (A) (A) (A) (A) (A) (A) (A) (A) (A) (A) (A) (A)
                 (A) (A) (A) (A) (A) (A) (A) (A) (A) (A) (A) (A)
                 (A) (A) (A) (A) (A) (A) (A) (A) (A) (A) (A) (A)
                 (A) (A) (A) (A) (A) (A) (A) (A) (A) (A) (A) (A)
                 (A) (A) (A) (A) (A) (A) (A) (A) (A) (A) (A) (A)
                 (A) (A) (A) (A) (A) (A) (A) (A) (A) (A) (A) (A)
                 (A) (A) (A) (A) (A) (A) (A) (A) (A) (A) (A) (A)
                 (A) (A) (A) (A) (A) (A) (A) (A) (A) (A) (A) (A)
                 (A) (A) (A) (A) (A) (A) (A) (A) (A) (A) (A) (A)
                 (A) (A) (A) (A) (A) (A) (A) (A) (A) (A) (A) (A)
                 (A) (A) (A) (A) (A) (A) (A) (A) (A) (A) (A) (A)
                 (A) (A) (A) (A) (A) (A) (A) (A) (A) (A) (A) (A)
                 (A) (A) (A) (A) (A) (A) (A) (A) (A) (A) (A) (A)
                 (A) (A) (A) (A) (A) (A) (A) (A) (A) (A) (A) (A)
                 (A) (A) (A) (A) (A) (A) (A) (A) (A) (A) (A) (A)
                 (A) (A) (A) (A) (A) (A) (A) (A) (A) (A) (A) (A)
                 (A) (A) (A) (A) (A) (A) (A) (A) (A) (A) (A) (A)
                 (A) (A) (A) (A) (A) (A) (A) (A) (A) (A) (A) (A)
                 (A) (A) (A) (A) (A) (A) (A) (A) (A) (A) (A) (A)
                 (A) (A) (A) (A) (A) (A) (A) (A) (A) (A) (A) (A)
                 (A) (A) (A) (A) (A) (A) (A) (A) (A) (A) (A) (A)
                 (A) (A) (A) (A) (A) (A) (A) (A) (A) (A) (A) (A)
                 (A) (A) (A) (A) (A) (A) (A) (A) (A) (A) (A) (A)
                 (A) (A) (A) (A) (A) (A) (A) (A) (A) (A) (A) (A)
                 (A) (A) (A) (A) (A) (A) (A) (A) (A) (A) (A) (A)
                 (A) (A) (A) (A) (A) (A) (A) (A) (A) (A) (A) (A)
                 (A) (A) (A) (A) (A) (A)
 The electronic state is 1-A.
 Alpha  occ. eigenvalues --  -66.14025 -19.19405 -19.14537 -19.13620 -10.32461
 Alpha  occ. eigenvalues --  -10.26733 -10.25638 -10.20302 -10.20193 -10.19370
 Alpha  occ. eigenvalues --  -10.19103 -10.19040 -10.17861 -10.17770 -10.17618
 Alpha  occ. eigenvalues --  -10.16089 -10.15816 -10.15682  -5.28190  -3.64250
 Alpha  occ. eigenvalues --   -3.64013  -3.63977  -1.09968  -1.01538  -1.00815
 Alpha  occ. eigenvalues --   -0.83135  -0.80462  -0.77854  -0.75160  -0.71536
 Alpha  occ. eigenvalues --   -0.70329  -0.69223  -0.67834  -0.67413  -0.64536
 Alpha  occ. eigenvalues --   -0.60755  -0.60145  -0.56311  -0.54113  -0.51196
 Alpha  occ. eigenvalues --   -0.50905  -0.48678  -0.47134  -0.46140  -0.45341
 Alpha  occ. eigenvalues --   -0.44515  -0.43503  -0.42621  -0.42367  -0.41682
 Alpha  occ. eigenvalues --   -0.41094  -0.40890  -0.40190  -0.39857  -0.39226
 Alpha  occ. eigenvalues --   -0.39151  -0.38973  -0.38526  -0.37926  -0.37154
 Alpha  occ. eigenvalues --   -0.36258  -0.36028  -0.35609  -0.34963  -0.34790
 Alpha  occ. eigenvalues --   -0.33867  -0.32700  -0.31333  -0.30824  -0.29500
 Alpha  occ. eigenvalues --   -0.28605  -0.27406  -0.26525  -0.25115
 Alpha virt. eigenvalues --   -0.00402   0.01444   0.06229   0.06754   0.08541
 Alpha virt. eigenvalues --    0.09021   0.09608   0.10926   0.11495   0.11637
 Alpha virt. eigenvalues --    0.12489   0.13174   0.13289   0.13891   0.14119
 Alpha virt. eigenvalues --    0.14738   0.15792   0.16273   0.16895   0.16942
 Alpha virt. eigenvalues --    0.17171   0.17668   0.18330   0.18503   0.18595
 Alpha virt. eigenvalues --    0.19070   0.19685   0.20074   0.20304   0.20519
 Alpha virt. eigenvalues --    0.21296   0.21576   0.22028   0.23075   0.23866
 Alpha virt. eigenvalues --    0.24383   0.24912   0.26142   0.26734   0.28464
 Alpha virt. eigenvalues --    0.29901   0.30579   0.31874   0.35294   0.36782
 Alpha virt. eigenvalues --    0.37372   0.38375   0.39295   0.40640   0.44160
 Alpha virt. eigenvalues --    0.45698   0.47115   0.48178   0.49341   0.51095
 Alpha virt. eigenvalues --    0.51498   0.52226   0.53510   0.54749   0.55445
 Alpha virt. eigenvalues --    0.57430   0.58449   0.59399   0.60400   0.60758
 Alpha virt. eigenvalues --    0.61694   0.62733   0.63192   0.63756   0.65304
 Alpha virt. eigenvalues --    0.66199   0.66703   0.67189   0.67407   0.69071
 Alpha virt. eigenvalues --    0.69808   0.70803   0.71465   0.72508   0.73193
 Alpha virt. eigenvalues --    0.74223   0.74992   0.76007   0.77468   0.77692
 Alpha virt. eigenvalues --    0.78897   0.80012   0.80846   0.82104   0.82767
 Alpha virt. eigenvalues --    0.84200   0.84583   0.85464   0.85773   0.86168
 Alpha virt. eigenvalues --    0.86606   0.87468   0.87788   0.88261   0.88938
 Alpha virt. eigenvalues --    0.89644   0.89992   0.90229   0.90708   0.90966
 Alpha virt. eigenvalues --    0.91731   0.92217   0.92458   0.92906   0.93581
 Alpha virt. eigenvalues --    0.94118   0.94743   0.96131   0.96583   0.97588
 Alpha virt. eigenvalues --    0.97985   0.99119   1.00677   1.01007   1.01986
 Alpha virt. eigenvalues --    1.03262   1.03925   1.05063   1.05759   1.09888
 Alpha virt. eigenvalues --    1.10702   1.11925   1.13864   1.14926   1.15780
 Alpha virt. eigenvalues --    1.17324   1.20816   1.21272   1.22646   1.25208
 Alpha virt. eigenvalues --    1.28829   1.30319   1.30860   1.31628   1.32936
 Alpha virt. eigenvalues --    1.35847   1.37314   1.41267   1.42222   1.42678
 Alpha virt. eigenvalues --    1.44183   1.45078   1.46593   1.47141   1.48732
 Alpha virt. eigenvalues --    1.49297   1.49953   1.51853   1.53802   1.56536
 Alpha virt. eigenvalues --    1.57832   1.61047   1.61884   1.63447   1.64272
 Alpha virt. eigenvalues --    1.65806   1.67801   1.69971   1.71477   1.72143
 Alpha virt. eigenvalues --    1.73235   1.76740   1.77215   1.78247   1.79839
 Alpha virt. eigenvalues --    1.80486   1.81956   1.84160   1.84466   1.85552
 Alpha virt. eigenvalues --    1.86536   1.87678   1.88735   1.89608   1.90763
 Alpha virt. eigenvalues --    1.92971   1.93533   1.95590   1.96012   1.96527
 Alpha virt. eigenvalues --    1.97555   1.98031   1.99570   2.01297   2.02668
 Alpha virt. eigenvalues --    2.03914   2.04376   2.04814   2.04857   2.06191
 Alpha virt. eigenvalues --    2.06325   2.06676   2.07832   2.08603   2.08743
 Alpha virt. eigenvalues --    2.09887   2.10513   2.11081   2.11540   2.12107
 Alpha virt. eigenvalues --    2.12573   2.13077   2.13398   2.13939   2.14933
 Alpha virt. eigenvalues --    2.15383   2.16232   2.16620   2.17403   2.18229
 Alpha virt. eigenvalues --    2.19787   2.21279   2.23187   2.23981   2.26110
 Alpha virt. eigenvalues --    2.27548   2.29522   2.30260   2.31877   2.32955
 Alpha virt. eigenvalues --    2.33561   2.34418   2.35280   2.36492   2.37265
 Alpha virt. eigenvalues --    2.37806   2.38225   2.39366   2.40222   2.41830
 Alpha virt. eigenvalues --    2.42895   2.43714   2.47693   2.48431   2.51346
 Alpha virt. eigenvalues --    2.52240   2.52705   2.54660   2.57190   2.59041
 Alpha virt. eigenvalues --    2.60526   2.61647   2.62544   2.63290   2.63798
 Alpha virt. eigenvalues --    2.65102   2.66144   2.67439   2.68275   2.68793
 Alpha virt. eigenvalues --    2.70666   2.71439   2.72799   2.73624   2.75550
 Alpha virt. eigenvalues --    2.76719   2.77690   2.79061   2.80376   2.81022
 Alpha virt. eigenvalues --    2.81547   2.81946   2.84826   2.84964   2.85602
 Alpha virt. eigenvalues --    2.86156   2.86851   2.87124   2.88039   2.89241
 Alpha virt. eigenvalues --    2.90658   2.91641   2.92447   2.94171   2.96419
 Alpha virt. eigenvalues --    2.97319   2.98863   3.02600   3.06110   3.11194
 Alpha virt. eigenvalues --    3.16727   3.18250   3.20517   3.20918   3.21103
 Alpha virt. eigenvalues --    3.21920   3.23475   3.25709   3.31085   3.31751
 Alpha virt. eigenvalues --    3.34896   3.37286   3.40462   3.43331   3.43595
 Alpha virt. eigenvalues --    3.44279   3.44773   3.45036   3.45605   3.45781
 Alpha virt. eigenvalues --    3.46525   3.46688   3.47612   3.49696   3.50808
 Alpha virt. eigenvalues --    3.55578   3.56413   3.66948   4.02967   4.13712
 Alpha virt. eigenvalues --    4.21047   4.25335   4.31353   4.38591   4.45282
 Alpha virt. eigenvalues --    4.45450   4.48836   4.52610   4.55094   4.58965
 Alpha virt. eigenvalues --    4.64634   4.66097   4.76442   4.79247   4.79878
          Condensed to atoms (all electrons):
               1          2          3          4          5          6
     1  C    4.813717   0.323077  -0.026647  -0.012010  -0.005447   0.384029
     2  C    0.323077   5.091476   0.333855  -0.049444  -0.018128  -0.046527
     3  C   -0.026647   0.333855   4.842812   0.289855  -0.014965  -0.014030
     4  C   -0.012010  -0.049444   0.289855   5.329540   0.287255   0.001462
     5  C   -0.005447  -0.018128  -0.014965   0.287255   4.369238  -0.001981
     6  H    0.384029  -0.046527  -0.014030   0.001462  -0.001981   0.631539
     7  H   -0.039346   0.378218  -0.044882  -0.007618   0.000326   0.006415
     8  H    0.000265  -0.006563  -0.025214   0.361322  -0.024605   0.000007
     9  H    0.000126   0.005733  -0.031106   0.361655  -0.022271   0.000065
    10  O    0.164417  -0.029701   0.001981  -0.096211   0.254948  -0.039814
    11  O    0.001745  -0.000071   0.001907  -0.083183   0.575306   0.000100
    12  C    0.373215  -0.036859   0.005175  -0.000533   0.001196  -0.048601
    13  C   -0.039895  -0.009203  -0.000079  -0.000098   0.000288   0.005484
    14  C   -0.032504   0.345586  -0.030051   0.005159   0.000452  -0.004089
    15  O    0.002405  -0.041974   0.183850  -0.023540   0.001546  -0.000027
    16  Si   0.000490  -0.005510  -0.011035   0.002838  -0.000588  -0.000066
    17  C    0.000000  -0.000088  -0.001661  -0.000477   0.000087   0.000000
    18  C    0.000030  -0.000967  -0.000872  -0.002522  -0.000028  -0.000001
    19  C    0.000000  -0.000099   0.000952  -0.000042   0.000000   0.000000
    20  H   -0.000014  -0.001381   0.000364  -0.001067  -0.000028  -0.000001
    21  H    0.000008  -0.000826  -0.000408   0.000126   0.000005   0.000000
    22  H   -0.000001   0.000114  -0.000005   0.000042   0.000001   0.000000
    23  H    0.000000   0.000001  -0.000011   0.000001   0.000000   0.000000
    24  H    0.000000  -0.000010  -0.000050   0.000003   0.000000   0.000000
    25  H    0.000000   0.000002  -0.000037  -0.000003   0.000000   0.000000
    26  H    0.000000   0.000001   0.000021  -0.000128  -0.000002   0.000000
    27  H    0.000000  -0.000016  -0.000128   0.000089   0.000001   0.000000
    28  H    0.000000   0.000001   0.000034   0.000029  -0.000001   0.000000
    29  H   -0.005742  -0.034508  -0.004175   0.000037  -0.000015   0.005660
    30  H    0.003709  -0.025913  -0.008691   0.000204  -0.000017  -0.000080
    31  H   -0.004588  -0.026704   0.003930  -0.000128  -0.000015  -0.000035
    32  H   -0.027199  -0.006147  -0.000030   0.000027  -0.000044  -0.000324
    33  H   -0.029516   0.005245  -0.000072   0.000010   0.000013  -0.005642
    34  H   -0.007534  -0.000793  -0.000097   0.000149   0.000228   0.000278
    35  H    0.004484   0.000191  -0.000003   0.000001  -0.000007  -0.000144
    36  H   -0.005388   0.002187   0.000013  -0.000010   0.000017  -0.000068
    37  C   -0.000357  -0.059467   0.350740  -0.067707   0.001377   0.005227
    38  C   -0.001911  -0.003464  -0.032180   0.004839  -0.000011   0.000766
    39  C   -0.000740   0.001496  -0.000235  -0.000037  -0.000028   0.001951
    40  H   -0.000118   0.005588  -0.029147  -0.006973  -0.000622   0.000077
    41  H    0.001855  -0.004494  -0.028167  -0.004662   0.005917  -0.000798
    42  H    0.000024  -0.000689  -0.004437   0.000130  -0.000001   0.000009
    43  H    0.000013  -0.000034  -0.000083   0.000002   0.000000  -0.000020
    44  H   -0.000149  -0.000043   0.000109  -0.000007  -0.000006   0.000917
               7          8          9         10         11         12
     1  C   -0.039346   0.000265   0.000126   0.164417   0.001745   0.373215
     2  C    0.378218  -0.006563   0.005733  -0.029701  -0.000071  -0.036859
     3  C   -0.044882  -0.025214  -0.031106   0.001981   0.001907   0.005175
     4  C   -0.007618   0.361322   0.361655  -0.096211  -0.083183  -0.000533
     5  C    0.000326  -0.024605  -0.022271   0.254948   0.575306   0.001196
     6  H    0.006415   0.000007   0.000065  -0.039814   0.000100  -0.048601
     7  H    0.644797   0.003613   0.000151  -0.000569  -0.000024  -0.011494
     8  H    0.003613   0.555444  -0.026941   0.000704  -0.000451  -0.000046
     9  H    0.000151  -0.026941   0.564137   0.003091   0.001483   0.000007
    10  O   -0.000569   0.000704   0.003091   8.333259  -0.074687  -0.045722
    11  O   -0.000024  -0.000451   0.001483  -0.074687   8.079909  -0.000080
    12  C   -0.011494  -0.000046   0.000007  -0.045722  -0.000080   4.947518
    13  C    0.005903   0.000046   0.000001  -0.003595  -0.000003   0.361419
    14  C   -0.045505  -0.000003  -0.000132   0.002448   0.000002  -0.003523
    15  O   -0.001910  -0.003443   0.000392  -0.000016  -0.000013  -0.000036
    16  Si  -0.002020   0.005924   0.000279  -0.000109  -0.000056  -0.000031
    17  C   -0.000037  -0.001645  -0.000548   0.000000   0.000001   0.000000
    18  C    0.001953  -0.000085   0.000111   0.000003   0.000000   0.000006
    19  C   -0.000004   0.000000  -0.000004   0.000000   0.000000   0.000000
    20  H    0.002157   0.002768  -0.000007  -0.000001   0.000000   0.000000
    21  H    0.000462  -0.000104   0.000000   0.000000   0.000000   0.000001
    22  H    0.000052  -0.000016   0.000000   0.000000   0.000000   0.000000
    23  H    0.000000   0.000001   0.000000   0.000000   0.000000   0.000000
    24  H   -0.000005   0.000000   0.000000   0.000000   0.000000   0.000000
    25  H    0.000000   0.000001  -0.000001   0.000000   0.000000   0.000000
    26  H    0.000001   0.000036   0.000342   0.000000   0.000000   0.000000
    27  H   -0.000016   0.001066   0.000797   0.000000  -0.000001   0.000000
    28  H    0.000002   0.000040   0.000032   0.000000   0.000000   0.000000
    29  H    0.005652  -0.000001   0.000005   0.000026   0.000000  -0.001574
    30  H   -0.001282   0.000008  -0.000007  -0.000046   0.000000   0.000081
    31  H   -0.009267  -0.000005   0.000003  -0.000012   0.000000   0.001641
    32  H    0.000252  -0.000001   0.000000   0.002865   0.000001   0.377126
    33  H    0.000011   0.000001  -0.000001   0.000747  -0.000007   0.379772
    34  H    0.000809   0.000028  -0.000001   0.008199  -0.000024  -0.037031
    35  H   -0.000169   0.000000   0.000000   0.000080   0.000000  -0.028320
    36  H    0.001363  -0.000010   0.000000  -0.000100   0.000000  -0.036471
    37  C    0.005921   0.005034  -0.007557  -0.002686   0.000092  -0.000111
    38  C   -0.000102  -0.000122   0.000028   0.000096   0.000002   0.000027
    39  C   -0.000013   0.000001   0.000002   0.000001   0.000000   0.000005
    40  H   -0.000147  -0.000048   0.005287   0.000030  -0.000026   0.000000
    41  H   -0.000084   0.000095   0.000122   0.000914  -0.000276   0.000129
    42  H   -0.000021   0.000004   0.000000  -0.000001   0.000000   0.000001
    43  H    0.000000   0.000000   0.000000   0.000000   0.000000   0.000000
    44  H    0.000000   0.000000   0.000000  -0.000004   0.000000   0.000002
              13         14         15         16         17         18
     1  C   -0.039895  -0.032504   0.002405   0.000490   0.000000   0.000030
     2  C   -0.009203   0.345586  -0.041974  -0.005510  -0.000088  -0.000967
     3  C   -0.000079  -0.030051   0.183850  -0.011035  -0.001661  -0.000872
     4  C   -0.000098   0.005159  -0.023540   0.002838  -0.000477  -0.002522
     5  C    0.000288   0.000452   0.001546  -0.000588   0.000087  -0.000028
     6  H    0.005484  -0.004089  -0.000027  -0.000066   0.000000  -0.000001
     7  H    0.005903  -0.045505  -0.001910  -0.002020  -0.000037   0.001953
     8  H    0.000046  -0.000003  -0.003443   0.005924  -0.001645  -0.000085
     9  H    0.000001  -0.000132   0.000392   0.000279  -0.000548   0.000111
    10  O   -0.003595   0.002448  -0.000016  -0.000109   0.000000   0.000003
    11  O   -0.000003   0.000002  -0.000013  -0.000056   0.000001   0.000000
    12  C    0.361419  -0.003523  -0.000036  -0.000031   0.000000   0.000006
    13  C    4.931966  -0.001418  -0.000001  -0.000040   0.000000  -0.000051
    14  C   -0.001418   4.986068  -0.005946   0.001257   0.000002  -0.000179
    15  O   -0.000001  -0.005946   8.298439   0.332332  -0.017864  -0.014753
    16  Si  -0.000040   0.001257   0.332332  11.851232   0.371613   0.366455
    17  C    0.000000   0.000002  -0.017864   0.371613   5.139894  -0.035330
    18  C   -0.000051  -0.000179  -0.014753   0.366455  -0.035330   5.151393
    19  C    0.000000  -0.000042  -0.018831   0.378338  -0.032978  -0.031497
    20  H    0.000009   0.000005  -0.000430  -0.028909  -0.001516   0.374606
    21  H   -0.000017   0.000837  -0.000488  -0.027710   0.001313   0.378392
    22  H    0.000000  -0.000007   0.000514  -0.014168  -0.000302   0.371755
    23  H    0.000000   0.000000   0.000486  -0.015028  -0.000497  -0.000711
    24  H    0.000000  -0.000021  -0.000365  -0.025554   0.001371  -0.001202
    25  H    0.000000   0.000000  -0.000417  -0.024546  -0.001292   0.001387
    26  H    0.000000   0.000000  -0.000618  -0.025189   0.378751   0.001294
    27  H    0.000000   0.000000  -0.000499  -0.026818   0.374932  -0.001632
    28  H    0.000000   0.000000   0.000576  -0.013641   0.369628  -0.000149
    29  H    0.000149   0.380254  -0.000048  -0.000319   0.000000   0.000015
    30  H   -0.000012   0.380646   0.007217   0.003883   0.000011  -0.000499
    31  H    0.000316   0.372391   0.000122  -0.000339   0.000000  -0.000017
    32  H   -0.036459   0.003275   0.000000  -0.000004   0.000000   0.000000
    33  H   -0.042258  -0.000024   0.000000   0.000002   0.000000   0.000000
    34  H    0.389629   0.000112   0.000000  -0.000009   0.000000  -0.000002
    35  H    0.382776   0.000003   0.000000   0.000001   0.000000   0.000000
    36  H    0.386165   0.000088   0.000003  -0.000020   0.000000   0.000040
    37  C    0.000007  -0.006668  -0.062723  -0.002072  -0.000048  -0.000035
    38  C   -0.000002  -0.005220  -0.000105   0.000198   0.000004  -0.000001
    39  C    0.000000  -0.003948   0.000379   0.000013   0.000000   0.000000
    40  H    0.000000  -0.000126  -0.000466   0.001178  -0.000058   0.000005
    41  H   -0.000002   0.000271   0.003502   0.000108  -0.000001   0.000002
    42  H    0.000000   0.000355   0.006716   0.000797  -0.000001   0.000003
    43  H    0.000000   0.000018   0.000002  -0.000001   0.000000   0.000000
    44  H    0.000000   0.000024  -0.000002   0.000003   0.000000   0.000000
              19         20         21         22         23         24
     1  C    0.000000  -0.000014   0.000008  -0.000001   0.000000   0.000000
     2  C   -0.000099  -0.001381  -0.000826   0.000114   0.000001  -0.000010
     3  C    0.000952   0.000364  -0.000408  -0.000005  -0.000011  -0.000050
     4  C   -0.000042  -0.001067   0.000126   0.000042   0.000001   0.000003
     5  C    0.000000  -0.000028   0.000005   0.000001   0.000000   0.000000
     6  H    0.000000  -0.000001   0.000000   0.000000   0.000000   0.000000
     7  H   -0.000004   0.002157   0.000462   0.000052   0.000000  -0.000005
     8  H    0.000000   0.002768  -0.000104  -0.000016   0.000001   0.000000
     9  H   -0.000004  -0.000007   0.000000   0.000000   0.000000   0.000000
    10  O    0.000000  -0.000001   0.000000   0.000000   0.000000   0.000000
    11  O    0.000000   0.000000   0.000000   0.000000   0.000000   0.000000
    12  C    0.000000   0.000000   0.000001   0.000000   0.000000   0.000000
    13  C    0.000000   0.000009  -0.000017   0.000000   0.000000   0.000000
    14  C   -0.000042   0.000005   0.000837  -0.000007   0.000000  -0.000021
    15  O   -0.018831  -0.000430  -0.000488   0.000514   0.000486  -0.000365
    16  Si   0.378338  -0.028909  -0.027710  -0.014168  -0.015028  -0.025554
    17  C   -0.032978  -0.001516   0.001313  -0.000302  -0.000497   0.001371
    18  C   -0.031497   0.374606   0.378392   0.371755  -0.000711  -0.001202
    19  C    5.118095   0.001479  -0.001051  -0.001044   0.373544   0.375525
    20  H    0.001479   0.580890  -0.023752  -0.022488   0.000000   0.000003
    21  H   -0.001051  -0.023752   0.573548  -0.022655  -0.000045   0.000612
    22  H   -0.001044  -0.022488  -0.022655   0.563241   0.000137  -0.000034
    23  H    0.373544   0.000000  -0.000045   0.000137   0.566848  -0.023419
    24  H    0.375525   0.000003   0.000612  -0.000034  -0.023419   0.578213
    25  H    0.376465  -0.000028   0.000002   0.000014  -0.023528  -0.022014
    26  H   -0.001062   0.000008  -0.000024   0.000014  -0.000028   0.000004
    27  H    0.001438   0.000597   0.000005  -0.000016   0.000002  -0.000027
    28  H   -0.000784  -0.000025   0.000007   0.000042  -0.000005   0.000015
    29  H    0.000001  -0.000001  -0.000011   0.000000   0.000000  -0.000001
    30  H   -0.000176   0.000007   0.000263   0.000005   0.000002   0.000352
    31  H    0.000001  -0.000001   0.000301  -0.000001   0.000000  -0.000001
    32  H    0.000000   0.000000  -0.000001   0.000000   0.000000   0.000000
    33  H    0.000000   0.000000   0.000000   0.000000   0.000000   0.000000
    34  H    0.000000   0.000019  -0.000001   0.000000   0.000000   0.000000
    35  H    0.000000  -0.000001   0.000000   0.000000   0.000000   0.000000
    36  H    0.000000   0.000129   0.000194  -0.000001   0.000000   0.000000
    37  C   -0.000002  -0.000006  -0.000006   0.000001   0.000000  -0.000001
    38  C   -0.000015   0.000000   0.000000   0.000000   0.000000  -0.000001
    39  C    0.000000   0.000000   0.000000   0.000000   0.000000   0.000000
    40  H   -0.000011   0.000000   0.000000   0.000000   0.000000   0.000000
    41  H    0.000000   0.000000   0.000000   0.000000   0.000000   0.000000
    42  H   -0.000003   0.000000   0.000000   0.000000   0.000000   0.000003
    43  H    0.000000   0.000000   0.000000   0.000000   0.000000   0.000000
    44  H    0.000000   0.000000   0.000000   0.000000   0.000000   0.000000
              25         26         27         28         29         30
     1  C    0.000000   0.000000   0.000000   0.000000  -0.005742   0.003709
     2  C    0.000002   0.000001  -0.000016   0.000001  -0.034508  -0.025913
     3  C   -0.000037   0.000021  -0.000128   0.000034  -0.004175  -0.008691
     4  C   -0.000003  -0.000128   0.000089   0.000029   0.000037   0.000204
     5  C    0.000000  -0.000002   0.000001  -0.000001  -0.000015  -0.000017
     6  H    0.000000   0.000000   0.000000   0.000000   0.005660  -0.000080
     7  H    0.000000   0.000001  -0.000016   0.000002   0.005652  -0.001282
     8  H    0.000001   0.000036   0.001066   0.000040  -0.000001   0.000008
     9  H   -0.000001   0.000342   0.000797   0.000032   0.000005  -0.000007
    10  O    0.000000   0.000000   0.000000   0.000000   0.000026  -0.000046
    11  O    0.000000   0.000000  -0.000001   0.000000   0.000000   0.000000
    12  C    0.000000   0.000000   0.000000   0.000000  -0.001574   0.000081
    13  C    0.000000   0.000000   0.000000   0.000000   0.000149  -0.000012
    14  C    0.000000   0.000000   0.000000   0.000000   0.380254   0.380646
    15  O   -0.000417  -0.000618  -0.000499   0.000576  -0.000048   0.007217
    16  Si  -0.024546  -0.025189  -0.026818  -0.013641  -0.000319   0.003883
    17  C   -0.001292   0.378751   0.374932   0.369628   0.000000   0.000011
    18  C    0.001387   0.001294  -0.001632  -0.000149   0.000015  -0.000499
    19  C    0.376465  -0.001062   0.001438  -0.000784   0.000001  -0.000176
    20  H   -0.000028   0.000008   0.000597  -0.000025  -0.000001   0.000007
    21  H    0.000002  -0.000024   0.000005   0.000007  -0.000011   0.000263
    22  H    0.000014   0.000014  -0.000016   0.000042   0.000000   0.000005
    23  H   -0.023528  -0.000028   0.000002  -0.000005   0.000000   0.000002
    24  H   -0.022014   0.000004  -0.000027   0.000015  -0.000001   0.000352
    25  H    0.573728   0.000573   0.000007  -0.000052   0.000000  -0.000003
    26  H    0.000573   0.571881  -0.022681  -0.023400   0.000000   0.000000
    27  H    0.000007  -0.022681   0.582610  -0.023420   0.000000   0.000000
    28  H   -0.000052  -0.023400  -0.023420   0.570785   0.000000   0.000000
    29  H    0.000000   0.000000   0.000000   0.000000   0.578894  -0.026559
    30  H   -0.000003   0.000000   0.000000   0.000000  -0.026559   0.569442
    31  H    0.000000   0.000000   0.000000   0.000000  -0.030301  -0.030497
    32  H    0.000000   0.000000   0.000000   0.000000   0.000863   0.000013
    33  H    0.000000   0.000000   0.000000   0.000000  -0.000044   0.000000
    34  H    0.000000   0.000000   0.000000   0.000000  -0.000002   0.000002
    35  H    0.000000   0.000000   0.000000   0.000000   0.000002   0.000000
    36  H    0.000000   0.000000   0.000000   0.000000  -0.000040  -0.000027
    37  C    0.000006   0.000019  -0.000001   0.000001   0.000975  -0.000140
    38  C   -0.000003  -0.000001   0.000000   0.000000   0.006667   0.000501
    39  C    0.000000   0.000000   0.000000   0.000000   0.005089   0.000011
    40  H   -0.000001   0.000020  -0.000011   0.000001   0.000055  -0.000029
    41  H    0.000000   0.000000  -0.000001   0.000000  -0.000172  -0.000005
    42  H    0.000008  -0.000001   0.000000   0.000000  -0.000372   0.000302
    43  H    0.000000   0.000000   0.000000   0.000000   0.000033  -0.000004
    44  H    0.000000   0.000000   0.000000   0.000000  -0.000035   0.000000
              31         32         33         34         35         36
     1  C   -0.004588  -0.027199  -0.029516  -0.007534   0.004484  -0.005388
     2  C   -0.026704  -0.006147   0.005245  -0.000793   0.000191   0.002187
     3  C    0.003930  -0.000030  -0.000072  -0.000097  -0.000003   0.000013
     4  C   -0.000128   0.000027   0.000010   0.000149   0.000001  -0.000010
     5  C   -0.000015  -0.000044   0.000013   0.000228  -0.000007   0.000017
     6  H   -0.000035  -0.000324  -0.005642   0.000278  -0.000144  -0.000068
     7  H   -0.009267   0.000252   0.000011   0.000809  -0.000169   0.001363
     8  H   -0.000005  -0.000001   0.000001   0.000028   0.000000  -0.000010
     9  H    0.000003   0.000000  -0.000001  -0.000001   0.000000   0.000000
    10  O   -0.000012   0.002865   0.000747   0.008199   0.000080  -0.000100
    11  O    0.000000   0.000001  -0.000007  -0.000024   0.000000   0.000000
    12  C    0.001641   0.377126   0.379772  -0.037031  -0.028320  -0.036471
    13  C    0.000316  -0.036459  -0.042258   0.389629   0.382776   0.386165
    14  C    0.372391   0.003275  -0.000024   0.000112   0.000003   0.000088
[...]
    14  C   -0.000064  -0.000003   0.000465  -0.000003   0.000001  -0.000031
    15  O   -0.024680  -0.000542  -0.000589   0.000533   0.000675  -0.000501
    16  Si   0.381116  -0.026377  -0.025748  -0.014146  -0.015206  -0.024210
    17  C   -0.028696  -0.001175   0.001179  -0.000238  -0.000220   0.001189
    18  C   -0.027734   0.376374   0.378432   0.369105  -0.000392  -0.001258
    19  C    5.112865   0.001195  -0.001066  -0.000684   0.368443   0.377221
    20  H    0.001195   0.575294  -0.023697  -0.023416  -0.000002   0.000006
    21  H   -0.001066  -0.023697   0.571664  -0.023434  -0.000044   0.000492
    22  H   -0.000684  -0.023416  -0.023434   0.568677   0.000082  -0.000024
    23  H    0.368443  -0.000002  -0.000044   0.000082   0.575583  -0.023976
    24  H    0.377221   0.000006   0.000492  -0.000024  -0.023976   0.572542
    25  H    0.377613  -0.000021  -0.000001   0.000008  -0.023969  -0.022350
    26  H   -0.001083   0.000003  -0.000021   0.000009  -0.000045   0.000000
    27  H    0.001213   0.000439   0.000003  -0.000026   0.000002  -0.000021
    28  H   -0.000543  -0.000031   0.000004   0.000062  -0.000003   0.000007
    29  H    0.000002   0.000000  -0.000004   0.000000   0.000000  -0.000001
    30  H   -0.000136   0.000003   0.000227   0.000004   0.000002   0.000551
    31  H    0.000001   0.000000   0.000100   0.000000   0.000000  -0.000001
    32  H    0.000000   0.000000   0.000000   0.000000   0.000000   0.000000
    33  H    0.000000   0.000000   0.000000   0.000000   0.000000   0.000000
    34  H    0.000000   0.000009  -0.000001   0.000000   0.000000   0.000000
    35  H    0.000000   0.000000   0.000000   0.000000   0.000000   0.000000
    36  H    0.000000   0.000060   0.000107  -0.000001   0.000000   0.000000
    37  C   -0.000004  -0.000005  -0.000004   0.000001   0.000000  -0.000001
    38  C   -0.000042   0.000000   0.000000   0.000000   0.000000  -0.000005
    39  C    0.000000   0.000000   0.000000   0.000000   0.000000   0.000000
    40  H   -0.000021   0.000000   0.000000   0.000000   0.000000   0.000000
    41  H    0.000001   0.000000   0.000000   0.000000   0.000000   0.000000
    42  H    0.000068   0.000000   0.000000   0.000000   0.000000   0.000025
    43  H    0.000000   0.000000   0.000000   0.000000   0.000000   0.000000
    44  H    0.000000   0.000000   0.000000   0.000000   0.000000   0.000000
              25         26         27         28         29         30
     1  C    0.000000   0.000000   0.000000   0.000000  -0.005989   0.004120
     2  C    0.000002   0.000000  -0.000012   0.000001  -0.033203  -0.028130
     3  C   -0.000049  -0.000005  -0.000038   0.000017  -0.005176  -0.008754
     4  C   -0.000005  -0.000106   0.000195   0.000030   0.000063   0.000217
     5  C    0.000000  -0.000001  -0.000012   0.000000  -0.000015  -0.000019
     6  H    0.000000   0.000000   0.000000   0.000000   0.006228  -0.000072
     7  H    0.000000   0.000001  -0.000010   0.000001   0.005345  -0.001957
     8  H    0.000001   0.000052   0.000633   0.000029  -0.000001   0.000008
     9  H    0.000000   0.000264   0.000722   0.000022   0.000005  -0.000007
    10  O    0.000000   0.000000   0.000000   0.000000   0.000025  -0.000048
    11  O    0.000000   0.000000   0.000000   0.000000   0.000000   0.000000
    12  C    0.000000   0.000000   0.000000   0.000000  -0.001286   0.000050
    13  C    0.000000   0.000000   0.000000   0.000000   0.000117  -0.000011
    14  C    0.000000   0.000000   0.000000   0.000000   0.379159   0.379951
    15  O   -0.000567  -0.000688  -0.000536   0.000561  -0.000076   0.008491
    16  Si  -0.023117  -0.024105  -0.023837  -0.013969  -0.000281   0.003250
    17  C   -0.001262   0.378690   0.376399   0.367988   0.000000   0.000012
    18  C    0.001171   0.001178  -0.001378  -0.000148   0.000008  -0.000382
    19  C    0.377613  -0.001083   0.001213  -0.000543   0.000002  -0.000136
    20  H   -0.000021   0.000003   0.000439  -0.000031   0.000000   0.000003
    21  H   -0.000001  -0.000021   0.000003   0.000004  -0.000004   0.000227
    22  H    0.000008   0.000009  -0.000026   0.000062   0.000000   0.000004
    23  H   -0.023969  -0.000045   0.000002  -0.000003   0.000000   0.000002
    24  H   -0.022350   0.000000  -0.000021   0.000007  -0.000001   0.000551
    25  H    0.568904   0.000447   0.000006  -0.000031   0.000000  -0.000006
    26  H    0.000447   0.570495  -0.023292  -0.023905   0.000000   0.000000
    27  H    0.000006  -0.023292   0.574343  -0.023815   0.000000   0.000000
    28  H   -0.000031  -0.023905  -0.023815   0.573171   0.000000   0.000000
    29  H    0.000000   0.000000   0.000000   0.000000   0.580022  -0.027845
    30  H   -0.000006   0.000000   0.000000   0.000000  -0.027845   0.571960
    31  H    0.000000   0.000000   0.000000   0.000000  -0.029001  -0.028773
    32  H    0.000000   0.000000   0.000000   0.000000   0.000639   0.000005
    33  H    0.000000   0.000000   0.000000   0.000000  -0.000037   0.000001
    34  H    0.000000   0.000000   0.000000   0.000000  -0.000002   0.000002
    35  H    0.000000   0.000000   0.000000   0.000000   0.000001   0.000000
    36  H    0.000000   0.000000   0.000000   0.000000  -0.000028  -0.000020
    37  C    0.000011   0.000018   0.000002   0.000002   0.001118  -0.000229
    38  C   -0.000014  -0.000001   0.000000   0.000000   0.007890   0.000459
    39  C    0.000000   0.000000   0.000000   0.000000   0.004786   0.000017
    40  H   -0.000001   0.000039  -0.000014   0.000001   0.000072  -0.000032
    41  H    0.000000   0.000000   0.000000   0.000000  -0.000268  -0.000003
    42  H    0.000091  -0.000002   0.000000   0.000000  -0.000449   0.000373
    43  H    0.000000   0.000000   0.000000   0.000000   0.000018  -0.000004
    44  H    0.000000   0.000000   0.000000   0.000000  -0.000023  -0.000001
              31         32         33         34         35         36
     1  C   -0.004873  -0.030036  -0.030965  -0.007035   0.004200  -0.005086
     2  C   -0.027265  -0.005855   0.005298  -0.000766   0.000203   0.001951
     3  C    0.003847  -0.000065  -0.000080  -0.000113  -0.000003   0.000000
     4  C   -0.000133   0.000035   0.000013   0.000189   0.000001  -0.000016
     5  C   -0.000012  -0.000061   0.000042   0.000542  -0.000010   0.000030
     6  H   -0.000057  -0.000444  -0.005407   0.000244  -0.000132  -0.000054
     7  H   -0.007418   0.000270   0.000028   0.000814  -0.000154   0.001637
     8  H   -0.000004  -0.000001   0.000000   0.000014   0.000000  -0.000010
     9  H    0.000003   0.000000  -0.000001  -0.000001   0.000000   0.000000
    10  O   -0.000008   0.003307   0.000466   0.007865   0.000073  -0.000059
    11  O    0.000000   0.000001  -0.000010  -0.000059   0.000000   0.000000
    12  C    0.001634   0.373281   0.379606  -0.037509  -0.027455  -0.034488
    13  C    0.000358  -0.035261  -0.039114   0.388592   0.383122   0.386383
    14  C    0.374227   0.002905  -0.000018   0.000101  -0.000005   0.000205
    15  O    0.000105   0.000000   0.000000   0.000000   0.000000   0.000003
    16  Si  -0.000219  -0.000003   0.000001  -0.000009   0.000001  -0.000010
    17  C    0.000000   0.000000   0.000000   0.000000   0.000000   0.000000
    18  C   -0.000007   0.000000   0.000000   0.000000   0.000000   0.000015
    19  C    0.000001   0.000000   0.000000   0.000000   0.000000   0.000000
    20  H    0.000000   0.000000   0.000000   0.000009   0.000000   0.000060
    21  H    0.000100   0.000000   0.000000  -0.000001   0.000000   0.000107
    22  H    0.000000   0.000000   0.000000   0.000000   0.000000  -0.000001
    23  H    0.000000   0.000000   0.000000   0.000000   0.000000   0.000000
    24  H   -0.000001   0.000000   0.000000   0.000000   0.000000   0.000000
    25  H    0.000000   0.000000   0.000000   0.000000   0.000000   0.000000
    26  H    0.000000   0.000000   0.000000   0.000000   0.000000   0.000000
    27  H    0.000000   0.000000   0.000000   0.000000   0.000000   0.000000
    28  H    0.000000   0.000000   0.000000   0.000000   0.000000   0.000000
    29  H   -0.029001   0.000639  -0.000037  -0.000002   0.000001  -0.000028
    30  H   -0.028773   0.000005   0.000001   0.000002   0.000000  -0.000020
    31  H    0.605794   0.000577  -0.000002  -0.000035  -0.000055   0.001323
    32  H    0.000577   0.613238  -0.032234   0.005278  -0.002323  -0.005251
    33  H   -0.000002  -0.032234   0.609396  -0.003343  -0.004392   0.005047
    34  H   -0.000035   0.005278  -0.003343   0.588336  -0.029959  -0.032529
    35  H   -0.000055  -0.002323  -0.004392  -0.029959   0.595695  -0.030397
    36  H    0.001323  -0.005251   0.005047  -0.032529  -0.030397   0.600498
    37  C    0.000002  -0.000003  -0.000001   0.000000   0.000000  -0.000001
    38  C    0.000184  -0.000004   0.000000   0.000000   0.000000   0.000000
    39  C    0.000102   0.000000   0.000000   0.000000   0.000000   0.000000
    40  H    0.000005   0.000000   0.000000   0.000000   0.000000   0.000000
    41  H   -0.000001  -0.000001  -0.000001   0.000000   0.000000   0.000000
    42  H    0.000014   0.000000   0.000000   0.000000   0.000000   0.000000
    43  H    0.000000   0.000000   0.000000   0.000000   0.000000   0.000000
    44  H    0.000001   0.000000   0.000000   0.000000   0.000000   0.000000
              37         38         39         40         41         42
     1  C   -0.000240  -0.001449  -0.000426  -0.000156   0.001896   0.000027
     2  C   -0.061478  -0.003763   0.001194   0.006407  -0.005481  -0.000804
     3  C    0.347683  -0.030136   0.000710  -0.033114  -0.027358  -0.005311
     4  C   -0.063626   0.004771  -0.000076  -0.008859  -0.003553   0.000182
     5  C    0.001372  -0.000069  -0.000013  -0.000606   0.003542  -0.000004
     6  H    0.005578   0.000403   0.001287   0.000047  -0.001461  -0.000002
     7  H    0.006149  -0.000123  -0.000006  -0.000179  -0.000078  -0.000026
     8  H    0.005009  -0.000125   0.000001  -0.000010   0.000051   0.000004
     9  H   -0.007729   0.000008   0.000001   0.006095   0.000068   0.000000
    10  O   -0.003010   0.000106  -0.000003   0.000026   0.002409   0.000000
    11  O    0.000086   0.000001   0.000000  -0.000027  -0.000353   0.000000
    12  C   -0.000108   0.000020   0.000001   0.000000   0.000171   0.000001
    13  C    0.000005  -0.000001   0.000000   0.000000  -0.000002   0.000000
    14  C   -0.006821  -0.005166  -0.003235  -0.000149   0.000336   0.000395
    15  O   -0.065178  -0.000410   0.000438  -0.000232   0.003605   0.007803
    16  Si  -0.001898   0.000177   0.000013   0.001322   0.000076   0.000852
    17  C   -0.000056   0.000005   0.000000  -0.000064  -0.000001  -0.000003
    18  C   -0.000044  -0.000001   0.000000   0.000005   0.000002   0.000004
    19  C   -0.000004  -0.000042   0.000000  -0.000021   0.000001   0.000068
    20  H   -0.000005   0.000000   0.000000   0.000000   0.000000   0.000000
    21  H   -0.000004   0.000000   0.000000   0.000000   0.000000   0.000000
    22  H    0.000001   0.000000   0.000000   0.000000   0.000000   0.000000
    23  H    0.000000   0.000000   0.000000   0.000000   0.000000   0.000000
    24  H   -0.000001  -0.000005   0.000000   0.000000   0.000000   0.000025
    25  H    0.000011  -0.000014   0.000000  -0.000001   0.000000   0.000091
    26  H    0.000018  -0.000001   0.000000   0.000039   0.000000  -0.000002
    27  H    0.000002   0.000000   0.000000  -0.000014   0.000000   0.000000
    28  H    0.000002   0.000000   0.000000   0.000001   0.000000   0.000000
    29  H    0.001118   0.007890   0.004786   0.000072  -0.000268  -0.000449
    30  H   -0.000229   0.000459   0.000017  -0.000032  -0.000003   0.000373
    31  H    0.000002   0.000184   0.000102   0.000005  -0.000001   0.000014
    32  H   -0.000003  -0.000004   0.000000   0.000000  -0.000001   0.000000
    33  H   -0.000001   0.000000   0.000000   0.000000  -0.000001   0.000000
    34  H    0.000000   0.000000   0.000000   0.000000   0.000000   0.000000
    35  H    0.000000   0.000000   0.000000   0.000000   0.000000   0.000000
    36  H   -0.000001   0.000000   0.000000   0.000000   0.000000   0.000000
    37  C    5.055700   0.386758  -0.040207   0.365542   0.360420  -0.052944
    38  C    0.386758   4.759414   0.649935  -0.035769  -0.036541   0.384394
    39  C   -0.040207   0.649935   4.947255  -0.001223  -0.006328  -0.045550
    40  H    0.365542  -0.035769  -0.001223   0.607838  -0.030564  -0.000852
    41  H    0.360420  -0.036541  -0.006328  -0.030564   0.622509   0.005340
    42  H   -0.052944   0.384394  -0.045550  -0.000852   0.005340   0.603045
    43  H    0.004636  -0.024701   0.376109  -0.000211   0.000084  -0.007819
    44  H   -0.012154  -0.034457   0.381310   0.000256   0.005928   0.005656
              43         44
     1  C    0.000006  -0.000074
     2  C   -0.000024  -0.000027
     3  C   -0.000093   0.000117
     4  C    0.000002  -0.000005
     5  C    0.000000  -0.000004
     6  H   -0.000008   0.000449
     7  H    0.000000   0.000000
     8  H    0.000000   0.000000
     9  H    0.000000   0.000000
    10  O    0.000000  -0.000002
    11  O    0.000000   0.000000
    12  C    0.000000   0.000001
    13  C    0.000000   0.000000
    14  C    0.000013   0.000019
    15  O    0.000002  -0.000002
    16  Si   0.000000   0.000003
    17  C    0.000000   0.000000
    18  C    0.000000   0.000000
    19  C    0.000000   0.000000
    20  H    0.000000   0.000000
    21  H    0.000000   0.000000
    22  H    0.000000   0.000000
    23  H    0.000000   0.000000
    24  H    0.000000   0.000000
    25  H    0.000000   0.000000
    26  H    0.000000   0.000000
    27  H    0.000000   0.000000
    28  H    0.000000   0.000000
    29  H    0.000018  -0.000023
    30  H   -0.000004  -0.000001
    31  H    0.000000   0.000001
    32  H    0.000000   0.000000
    33  H    0.000000   0.000000
    34  H    0.000000   0.000000
    35  H    0.000000   0.000000
    36  H    0.000000   0.000000
    37  C    0.004636  -0.012154
    38  C   -0.024701  -0.034457
    39  C    0.376109   0.381310
    40  H   -0.000211   0.000256
    41  H    0.000084   0.005928
    42  H   -0.007819   0.005656
    43  H    0.592136  -0.043980
    44  H   -0.043980   0.597481
 Mulliken charges:
               1
     1  C    0.167629
     2  C   -0.090297
     3  C    0.309697
     4  C   -0.304039
     5  C    0.591018
     6  H    0.116537
     7  H    0.103201
     8  H    0.151116
     9  H    0.144214
    10  O   -0.485917
    11  O   -0.499002
    12  C   -0.191021
    13  C   -0.332691
    14  C   -0.339543
    15  O   -0.651643
    16  Si   0.913191
    17  C   -0.547007
    18  C   -0.559196
    19  C   -0.535809
    20  H    0.119403
    21  H    0.121989
    22  H    0.123408
    23  H    0.119079
    24  H    0.120412
    25  H    0.123138
    26  H    0.122058
    27  H    0.119038
    28  H    0.120547
    29  H    0.118186
    30  H    0.126725
    31  H    0.109590
    32  H    0.112005
    33  H    0.115706
    34  H    0.119373
    35  H    0.111588
    36  H    0.110692
    37  C   -0.224351
    38  C   -0.021749
    39  C   -0.266090
    40  H    0.124424
    41  H    0.105557
    42  H    0.105493
    43  H    0.103834
    44  H    0.099508
 Sum of Mulliken charges =   0.00000
 Mulliken charges with hydrogens summed into heavy atoms:
               1
     1  C    0.284166
     2  C    0.012905
     3  C    0.309697
     4  C   -0.008709
     5  C    0.591018
    10  O   -0.485917
    11  O   -0.499002
    12  C    0.036690
    13  C    0.008962
    14  C    0.014957
    15  O   -0.651643
    16  Si   0.913191
    17  C   -0.185365
    18  C   -0.194396
    19  C   -0.173180
    37  C    0.005629
    38  C    0.083744
    39  C   -0.062749
 Electronic spatial extent (au):  <R**2>=           5335.9439
 Charge=              0.0000 electrons
 Dipole moment (field-independent basis, Debye):
    X=              2.4814    Y=              0.9345    Z=             -4.1679  Tot=              4.9398
 Quadrupole moment (field-independent basis, Debye-Ang):
   XX=           -118.4375   YY=           -119.3788   ZZ=           -127.3757
   XY=             -8.6237   XZ=             11.2718   YZ=              6.9773
 Traceless Quadrupole moment (field-independent basis, Debye-Ang):
   XX=              3.2931   YY=              2.3518   ZZ=             -5.6450
   XY=             -8.6237   XZ=             11.2718   YZ=              6.9773
 Octapole moment (field-independent basis, Debye-Ang**2):
  XXX=             14.7407  YYY=             -1.5535  ZZZ=            -29.4876  XYY=              2.3195
  XXY=              5.5200  XXZ=            -27.7695  XZZ=             21.8785  YZZ=             18.2979
  YYZ=            -10.8433  XYZ=            -17.9599
 Hexadecapole moment (field-independent basis, Debye-Ang**3):
 XXXX=          -3648.9125 YYYY=          -1994.5922 ZZZZ=          -1529.8038 XXXY=            -46.6841
 XXXZ=             50.4279 YYYX=             -6.1597 YYYZ=            -39.8642 ZZZX=             67.7104
 ZZZY=             55.0793 XXYY=           -946.1499 XXZZ=           -907.7185 YYZZ=           -618.5347
 XXYZ=             54.3675 YYXZ=              8.8438 ZZXY=            -31.6207
 N-N= 1.632160760211D+03 E-N=-5.754499305777D+03  KE= 1.055905647920D+03
 1\1\GINC-CPU-E-532\FOpt\RB3LYP\6-31G(d,p)\C14H26O3Si1\KE291\06-Feb-201
 9\0\\# b3lyp/6-31g(d,p) Opt=(maxcycles=25) scrf=(solvent=chloroform)\\
 P_ng_correct1ginp016\\0,1\C,1.0346124381,-0.1532422437,0.8948387471\C,
 -0.4976844645,-0.2414444874,0.8771420611\C,-1.1170421018,1.0221550892,
 1.5411447841\C,-0.6622668668,2.2136105824,0.6800699695\C,0.8341150959,
 2.2884150325,0.4343190438\H,1.3782079354,-0.264490563,1.9304870837\H,-
 0.828112572,-0.2021098211,-0.1684401392\H,-1.1232891192,2.1443753795,-
 0.3125207008\H,-0.9711132601,3.1686274457,1.1109435306\O,1.5502496763,
 1.1458789106,0.454996264\O,1.3988048907,3.3277125914,0.1640344958\C,1.
 7729003631,-1.1900265189,0.0397294562\C,1.413466351,-1.1876964092,-1.4
 490356171\C,-0.9730408525,-1.5811703519,1.4576191778\O,-2.5360736039,0
 .912456221,1.5689702323\Si,-3.8058429354,1.2060424077,0.5022415656\C,-
 4.1070425147,3.0578628235,0.3005796268\C,-3.5240866427,0.4123464535,-1
 .1886306089\C,-5.2834972786,0.4107124371,1.3507785223\H,-2.688466782,0
 .8591842766,-1.7378693298\H,-3.333425709,-0.662231934,-1.0993881372\H,
 -4.4211096925,0.5389868756,-1.8063254297\H,-6.1978212674,0.5640199716,
 0.7667470078\H,-5.1406288658,-0.6679690857,1.4728759571\H,-5.445032757
 5,0.8422559068,2.34406115\H,-4.2324507942,3.5429156434,1.2745350373\H,
 -3.2909141795,3.5641291854,-0.2240947653\H,-5.0242495654,3.2282864346,
 -0.2752744887\H,-0.5276378336,-1.7853446113,2.4340349857\H,-2.05805746
 06,-1.5709248356,1.5794180739\H,-0.7181658206,-2.4049872706,0.78488210
 18\H,1.5950098502,-2.1795363422,0.4743642437\H,2.8441533528,-0.9922874
 247,0.1571626682\H,1.5475102836,-0.1922216426,-1.8828030177\H,2.060405
 9194,-1.8798397374,-1.9959951852\H,0.3789503045,-1.4990733377,-1.62522
 8181\C,-0.6806340238,1.2926154827,3.0079841454\C,-1.1063835064,0.28571
 67453,4.0408320799\C,-0.315944243,-0.1974739276,5.0010623134\H,-1.1365
 515138,2.2586764971,3.2663330206\H,0.4038304859,1.4423439316,3.0584002
 967\H,-2.1507486944,-0.0169600347,3.999984062\H,-0.688299631,-0.891255
 3632,5.749197991\H,0.731162606,0.0870936179,5.0797549055\\Version=ES64
 L-G09RevD.01\State=1-A\HF=-1064.422051\RMSD=4.492e-09\RMSF=4.952e-06\D
 ipole=-1.3024052,-1.4424187,0.0162028\Quadrupole=-1.5477885,-1.939617,
 3.4874055,-10.4884059,5.0493515,2.6299408\PG=C01 [X(C14H26O3Si1)]\\@


 THE MOLECULE ALSO HAS A BODY.  WHEN THIS BODY IS HIT, THE MOLECULE
 FEELS HURT ALL OVER -- A. KITAIGORODSKI
 Job cpu time:       0 days  2 hours 22 minutes 16.1 seconds.
 File lengths (MBytes):  RWF=    365 Int=      0 D2E=      0 Chk=     17 Scr=      1
 Normal termination of Gaussian 09 at Wed Feb  6 11:22:05 2019.
