 Entering Gaussian System, Link 0=/usr/local/Cluster-Apps/gaussian/g09/g09
 Initial command:
 /usr/local/Cluster-Apps/gaussian/g09/l1.exe "/home/ke291/rds/hpc-work/06Feb0927IP1/Gau-172850.inp" -scrdir="/home/ke291/rds/hpc-work/06Feb0927IP1/"
 Entering Link 1 = /usr/local/Cluster-Apps/gaussian/g09/l1.exe PID=    172858.
  
 Copyright (c) 1988,1990,1992,1993,1995,1998,2003,2009,2013,
            Gaussian, Inc.  All Rights Reserved.
  
 This is part of the Gaussian(R) 09 program.  It is based on
 the Gaussian(R) 03 system (copyright 2003, Gaussian, Inc.),
 the Gaussian(R) 98 system (copyright 1998, Gaussian, Inc.),
 the Gaussian(R) 94 system (copyright 1995, Gaussian, Inc.),
 the Gaussian 92(TM) system (copyright 1992, Gaussian, Inc.),
 the Gaussian 90(TM) system (copyright 1990, Gaussian, Inc.),
 the Gaussian 88(TM) system (copyright 1988, Gaussian, Inc.),
 the Gaussian 86(TM) system (copyright 1986, Carnegie Mellon
 University), and the Gaussian 82(TM) system (copyright 1983,
 Carnegie Mellon University). Gaussian is a federally registered
 trademark of Gaussian, Inc.
  
 This software contains proprietary and confidential information,
 including trade secrets, belonging to Gaussian, Inc.
  
 This software is provided under written license and may be
 used, copied, transmitted, or stored only in accord with that
 written license.
  
 The following legend is applicable only to US Government
 contracts under FAR:
  
                    RESTRICTED RIGHTS LEGEND
  
 Use, reproduction and disclosure by the US Government is
 subject to restrictions as set forth in subparagraphs (a)
 and (c) of the Commercial Computer Software - Restricted
 Rights clause in FAR 52.227-19.
  
 Gaussian, Inc.
 340 Quinnipiac St., Bldg. 40, Wallingford CT 06492
  
  
 ---------------------------------------------------------------
 Warning -- This program may not be used in any manner that
 competes with the business of Gaussian, Inc. or will provide
 assistance to any competitor of Gaussian, Inc.  The licensee
 of this program is prohibited from giving any competitor of
 Gaussian, Inc. access to this program.  By using this program,
 the user acknowledges that Gaussian, Inc. is engaged in the
 business of creating and licensing software in the field of
 computational chemistry and represents and warrants to the
 licensee that it is not a competitor of Gaussian, Inc. and that
 it will not use this program in any manner prohibited above.
 ---------------------------------------------------------------
  

 Cite this work as:
 Gaussian 09, Revision D.01,
 M. J. Frisch, G. W. Trucks, H. B. Schlegel, G. E. Scuseria, 
 M. A. Robb, J. R. Cheeseman, G. Scalmani, V. Barone, B. Mennucci, 
 G. A. Petersson, H. Nakatsuji, M. Caricato, X. Li, H. P. Hratchian, 
 A. F. Izmaylov, J. Bloino, G. Zheng, J. L. Sonnenberg, M. Hada, 
 M. Ehara, K. Toyota, R. Fukuda, J. Hasegawa, M. Ishida, T. Nakajima, 
 Y. Honda, O. Kitao, H. Nakai, T. Vreven, J. A. Montgomery, Jr., 
 J. E. Peralta, F. Ogliaro, M. Bearpark, J. J. Heyd, E. Brothers, 
 K. N. Kudin, V. N. Staroverov, T. Keith, R. Kobayashi, J. Normand, 
 K. Raghavachari, A. Rendell, J. C. Burant, S. S. Iyengar, J. Tomasi, 
 M. Cossi, N. Rega, J. M. Millam, M. Klene, J. E. Knox, J. B. Cross, 
 V. Bakken, C. Adamo, J. Jaramillo, R. Gomperts, R. E. Stratmann, 
 O. Yazyev, A. J. Austin, R. Cammi, C. Pomelli, J. W. Ochterski, 
 R. L. Martin, K. Morokuma, V. G. Zakrzewski, G. A. Voth, 
 P. Salvador, J. J. Dannenberg, S. Dapprich, A. D. Daniels, 
 O. Farkas, J. B. Foresman, J. V. Ortiz, J. Cioslowski, 
 and D. J. Fox, Gaussian, Inc., Wallingford CT, 2013.
 
 ******************************************
 Gaussian 09:  ES64L-G09RevD.01 24-Apr-2013
                 6-Feb-2019 
 ******************************************
 %nprocshared=2
 Will use up to    2 processors via shared memory.
 %mem=6000MB
 %chk=/home/ke291/rds/hpc-work/06Feb0927IP1/P_ng_2ginp010.chk
 ---------------------------------------------------------------
 # b3lyp/6-31g(d,p) Opt=(maxcycles=25) scrf=(solvent=chloroform)
 ---------------------------------------------------------------
 1/6=25,14=-1,18=20,19=15,26=3,38=1/1,3;
 2/9=110,12=2,17=6,18=5,40=1/2;
 3/5=1,6=6,7=101,11=2,16=1,25=1,30=1,70=2201,71=1,72=7,74=-5/1,2,3;
 4//1;
 5/5=2,38=5,53=7/2;
 6/7=2,8=2,9=2,10=2,28=1/1;
 7//1,2,3,16;
 1/6=25,14=-1,18=20,19=15,26=3/3(2);
 2/9=110/2;
 99//99;
 2/9=110/2;
 3/5=1,6=6,7=101,11=2,16=1,25=1,30=1,70=2205,71=1,72=7,74=-5/1,2,3;
 4/5=5,16=3,69=1/1;
 5/5=2,38=5,53=7/2;
 7//1,2,3,16;
 1/6=25,14=-1,18=20,19=15,26=3/3(-5);
 2/9=110/2;
 6/7=2,8=2,9=2,10=2,19=2,28=1/1;
 99/9=1/99;
 -------------
 P_ng_2ginp010
 -------------
 Symbolic Z-matrix:
 Charge =  0 Multiplicity = 1
 C                    -0.29096  -0.01684   1.22815 
 C                    -0.85478   1.21643   0.50949 
 C                    -1.93672   1.96849   1.34903 
 C                    -1.35691   2.21223   2.74345 
 C                    -0.70289   1.02769   3.38532 
 H                    -1.02337  -0.82833   1.24273 
 H                    -0.0211    1.92584   0.38533 
 H                    -0.60701   3.01335   2.71609 
 H                    -2.14657   2.55086   3.42292 
 O                     0.06568   0.2549    2.59679 
 O                    -0.75832   0.84316   4.59741 
 C                     0.97665  -0.56701   0.54417 
 C                     1.52962  -1.80535   1.24197 
 C                    -1.33693   0.88563  -0.91287 
 O                    -2.0322    3.2441    0.65265 
 Si                   -3.10691   4.50384   0.89158 
 C                    -4.72762   4.1863   -0.01132 
 C                    -3.48211   4.85953   2.69238 
 C                    -2.3612    6.07905   0.1554 
 H                    -4.11535   5.74774   2.78097 
 H                    -4.0119    4.02545   3.16051 
 H                    -2.56145   5.04592   3.25294 
 H                    -3.04984   6.92043   0.27495 
 H                    -1.42088   6.32425   0.65751 
 H                    -2.16047   5.9419   -0.91106 
 H                    -5.36911   5.07148   0.03366 
 H                    -4.539     3.95196  -1.0631 
 H                    -5.27208   3.35029   0.4355 
 H                    -1.8343    1.74137  -1.38027 
 H                    -0.49636   0.62201  -1.5621 
 H                    -2.03557   0.04356  -0.91563 
 H                     1.75906   0.20157   0.54397 
 H                     0.76946  -0.83054  -0.49755 
 H                     1.85007  -1.58147   2.26408 
 H                     0.77803  -2.60018   1.28132 
 H                     2.3986   -2.18702   0.6964 
 C                    -3.32701   1.25012   1.39224 
 C                    -3.42424  -0.10609   2.03304 
 C                    -3.83202  -1.2093    1.39195 
 H                    -3.74116   1.2147    0.37592 
 H                    -4.03146   1.87966   1.94978 
 H                    -3.20295  -0.18123   3.09698 
 H                    -3.91152  -2.15744   1.91678 
 H                    -4.10179  -1.19801   0.34023 
 

 GradGradGradGradGradGradGradGradGradGradGradGradGradGradGradGradGradGrad
 Berny optimization.
 Initialization pass.
                           ----------------------------
                           !    Initial Parameters    !
                           ! (Angstroms and Degrees)  !
 --------------------------                            --------------------------
 ! Name  Definition              Value          Derivative Info.                !
 --------------------------------------------------------------------------------
 ! R1    R(1,2)                  1.5347         estimate D2E/DX2                !
 ! R2    R(1,6)                  1.0932         estimate D2E/DX2                !
 ! R3    R(1,10)                 1.4402         estimate D2E/DX2                !
 ! R4    R(1,12)                 1.5419         estimate D2E/DX2                !
 ! R5    R(2,3)                  1.5624         estimate D2E/DX2                !
 ! R6    R(2,7)                  1.1017         estimate D2E/DX2                !
 ! R7    R(2,14)                 1.5379         estimate D2E/DX2                !
 ! R8    R(3,4)                  1.5297         estimate D2E/DX2                !
 ! R9    R(3,15)                 1.4565         estimate D2E/DX2                !
 ! R10   R(3,37)                 1.5655         estimate D2E/DX2                !
 ! R11   R(4,5)                  1.4976         estimate D2E/DX2                !
 ! R12   R(4,8)                  1.0977         estimate D2E/DX2                !
 ! R13   R(4,9)                  1.0954         estimate D2E/DX2                !
 ! R14   R(5,10)                 1.3452         estimate D2E/DX2                !
 ! R15   R(5,11)                 1.2273         estimate D2E/DX2                !
 ! R16   R(12,13)                1.5252         estimate D2E/DX2                !
 ! R17   R(12,32)                1.0968         estimate D2E/DX2                !
 ! R18   R(12,33)                1.0943         estimate D2E/DX2                !
 ! R19   R(13,34)                1.0943         estimate D2E/DX2                !
 ! R20   R(13,35)                1.0946         estimate D2E/DX2                !
 ! R21   R(13,36)                1.0947         estimate D2E/DX2                !
 ! R22   R(14,29)                1.0946         estimate D2E/DX2                !
 ! R23   R(14,30)                1.0943         estimate D2E/DX2                !
 ! R24   R(14,31)                1.0942         estimate D2E/DX2                !
 ! R25   R(15,16)                1.673          estimate D2E/DX2                !
 ! R26   R(16,17)                1.8822         estimate D2E/DX2                !
 ! R27   R(16,18)                1.8736         estimate D2E/DX2                !
 ! R28   R(16,19)                1.8919         estimate D2E/DX2                !
 ! R29   R(17,26)                1.0941         estimate D2E/DX2                !
 ! R30   R(17,27)                1.094          estimate D2E/DX2                !
 ! R31   R(17,28)                1.0932         estimate D2E/DX2                !
 ! R32   R(18,20)                1.0944         estimate D2E/DX2                !
 ! R33   R(18,21)                1.0934         estimate D2E/DX2                !
 ! R34   R(18,22)                1.0939         estimate D2E/DX2                !
 ! R35   R(19,23)                1.0938         estimate D2E/DX2                !
 ! R36   R(19,24)                1.0938         estimate D2E/DX2                !
 ! R37   R(19,25)                1.0938         estimate D2E/DX2                !
 ! R38   R(37,38)                1.5031         estimate D2E/DX2                !
 ! R39   R(37,40)                1.098          estimate D2E/DX2                !
 ! R40   R(37,41)                1.097          estimate D2E/DX2                !
 ! R41   R(38,39)                1.3395         estimate D2E/DX2                !
 ! R42   R(38,42)                1.0893         estimate D2E/DX2                !
 ! R43   R(39,43)                1.0866         estimate D2E/DX2                !
 ! R44   R(39,44)                1.0858         estimate D2E/DX2                !
 ! A1    A(2,1,6)              110.8922         estimate D2E/DX2                !
 ! A2    A(2,1,10)             112.6035         estimate D2E/DX2                !
 ! A3    A(2,1,12)             112.3986         estimate D2E/DX2                !
 ! A4    A(6,1,10)             107.0542         estimate D2E/DX2                !
 ! A5    A(6,1,12)             106.9681         estimate D2E/DX2                !
 ! A6    A(10,1,12)            106.5769         estimate D2E/DX2                !
 ! A7    A(1,2,3)              112.9294         estimate D2E/DX2                !
 ! A8    A(1,2,7)              106.9909         estimate D2E/DX2                !
 ! A9    A(1,2,14)             112.0505         estimate D2E/DX2                !
 ! A10   A(3,2,7)              105.9405         estimate D2E/DX2                !
 ! A11   A(3,2,14)             112.5461         estimate D2E/DX2                !
 ! A12   A(7,2,14)             105.7553         estimate D2E/DX2                !
 ! A13   A(2,3,4)              107.7008         estimate D2E/DX2                !
 ! A14   A(2,3,15)             102.1258         estimate D2E/DX2                !
 ! A15   A(2,3,37)             114.1385         estimate D2E/DX2                !
 ! A16   A(4,3,15)             108.7318         estimate D2E/DX2                !
 ! A17   A(4,3,37)             112.6169         estimate D2E/DX2                !
 ! A18   A(15,3,37)            110.9083         estimate D2E/DX2                !
 ! A19   A(3,4,5)              115.4792         estimate D2E/DX2                !
 ! A20   A(3,4,8)              110.6417         estimate D2E/DX2                !
 ! A21   A(3,4,9)              109.9655         estimate D2E/DX2                !
 ! A22   A(5,4,8)              106.8332         estimate D2E/DX2                !
 ! A23   A(5,4,9)              107.0659         estimate D2E/DX2                !
 ! A24   A(8,4,9)              106.3994         estimate D2E/DX2                !
 ! A25   A(4,5,10)             116.9137         estimate D2E/DX2                !
 ! A26   A(4,5,11)             121.4988         estimate D2E/DX2                !
 ! A27   A(10,5,11)            121.2194         estimate D2E/DX2                !
 ! A28   A(1,10,5)             121.5972         estimate D2E/DX2                !
 ! A29   A(1,12,13)            112.633          estimate D2E/DX2                !
 ! A30   A(1,12,32)            109.6649         estimate D2E/DX2                !
 ! A31   A(1,12,33)            110.6436         estimate D2E/DX2                !
 ! A32   A(13,12,32)           108.0845         estimate D2E/DX2                !
 ! A33   A(13,12,33)           107.9778         estimate D2E/DX2                !
 ! A34   A(32,12,33)           107.6764         estimate D2E/DX2                !
 ! A35   A(12,13,34)           111.5548         estimate D2E/DX2                !
 ! A36   A(12,13,35)           110.9202         estimate D2E/DX2                !
 ! A37   A(12,13,36)           110.0507         estimate D2E/DX2                !
 ! A38   A(34,13,35)           108.4242         estimate D2E/DX2                !
 ! A39   A(34,13,36)           107.7196         estimate D2E/DX2                !
 ! A40   A(35,13,36)           108.0462         estimate D2E/DX2                !
 ! A41   A(2,14,29)            111.668          estimate D2E/DX2                !
 ! A42   A(2,14,30)            111.0831         estimate D2E/DX2                !
 ! A43   A(2,14,31)            111.5966         estimate D2E/DX2                !
 ! A44   A(29,14,30)           106.5005         estimate D2E/DX2                !
 ! A45   A(29,14,31)           108.0864         estimate D2E/DX2                !
 ! A46   A(30,14,31)           107.6714         estimate D2E/DX2                !
 ! A47   A(3,15,16)            129.2943         estimate D2E/DX2                !
 ! A48   A(15,16,17)           110.9522         estimate D2E/DX2                !
 ! A49   A(15,16,18)           114.1333         estimate D2E/DX2                !
 ! A50   A(15,16,19)           108.5513         estimate D2E/DX2                !
 ! A51   A(17,16,18)           108.7033         estimate D2E/DX2                !
 ! A52   A(17,16,19)           107.0494         estimate D2E/DX2                !
 ! A53   A(18,16,19)           107.1501         estimate D2E/DX2                !
 ! A54   A(16,17,26)           110.4046         estimate D2E/DX2                !
 ! A55   A(16,17,27)           110.419          estimate D2E/DX2                !
 ! A56   A(16,17,28)           111.211          estimate D2E/DX2                !
 ! A57   A(26,17,27)           108.2962         estimate D2E/DX2                !
 ! A58   A(26,17,28)           108.0531         estimate D2E/DX2                !
 ! A59   A(27,17,28)           108.3628         estimate D2E/DX2                !
 ! A60   A(16,18,20)           110.3497         estimate D2E/DX2                !
 ! A61   A(16,18,21)           111.3291         estimate D2E/DX2                !
 ! A62   A(16,18,22)           110.8765         estimate D2E/DX2                !
 ! A63   A(20,18,21)           107.7031         estimate D2E/DX2                !
 ! A64   A(20,18,22)           107.8916         estimate D2E/DX2                !
 ! A65   A(21,18,22)           108.5658         estimate D2E/DX2                !
 ! A66   A(16,19,23)           110.473          estimate D2E/DX2                !
 ! A67   A(16,19,24)           110.2956         estimate D2E/DX2                !
 ! A68   A(16,19,25)           110.3234         estimate D2E/DX2                !
 ! A69   A(23,19,24)           108.5792         estimate D2E/DX2                !
 ! A70   A(23,19,25)           108.5753         estimate D2E/DX2                !
 ! A71   A(24,19,25)           108.5369         estimate D2E/DX2                !
 ! A72   A(3,37,38)            118.897          estimate D2E/DX2                !
 ! A73   A(3,37,40)            108.918          estimate D2E/DX2                !
 ! A74   A(3,37,41)            108.7224         estimate D2E/DX2                !
 ! A75   A(38,37,40)           109.9429         estimate D2E/DX2                !
 ! A76   A(38,37,41)           105.0444         estimate D2E/DX2                !
 ! A77   A(40,37,41)           104.2836         estimate D2E/DX2                !
 ! A78   A(37,38,39)           123.9686         estimate D2E/DX2                !
 ! A79   A(37,38,42)           117.7411         estimate D2E/DX2                !
 ! A80   A(39,38,42)           118.196          estimate D2E/DX2                !
 ! A81   A(38,39,43)           120.6457         estimate D2E/DX2                !
 ! A82   A(38,39,44)           122.0484         estimate D2E/DX2                !
 ! A83   A(43,39,44)           117.3046         estimate D2E/DX2                !
 ! D1    D(6,1,2,3)             72.918          estimate D2E/DX2                !
 ! D2    D(6,1,2,7)           -170.9099         estimate D2E/DX2                !
 ! D3    D(6,1,2,14)           -55.4364         estimate D2E/DX2                !
 ! D4    D(10,1,2,3)           -47.0126         estimate D2E/DX2                !
 ! D5    D(10,1,2,7)            69.1595         estimate D2E/DX2                !
 ! D6    D(10,1,2,14)         -175.367          estimate D2E/DX2                !
 ! D7    D(12,1,2,3)          -167.4001         estimate D2E/DX2                !
 ! D8    D(12,1,2,7)           -51.228          estimate D2E/DX2                !
 ! D9    D(12,1,2,14)           64.2455         estimate D2E/DX2                !
 ! D10   D(2,1,10,5)            40.4443         estimate D2E/DX2                !
 ! D11   D(6,1,10,5)           -81.6805         estimate D2E/DX2                !
 ! D12   D(12,1,10,5)          164.1263         estimate D2E/DX2                !
 ! D13   D(2,1,12,13)         -179.1414         estimate D2E/DX2                !
 ! D14   D(2,1,12,32)           60.451          estimate D2E/DX2                !
 ! D15   D(2,1,12,33)          -58.1824         estimate D2E/DX2                !
 ! D16   D(6,1,12,13)          -57.2023         estimate D2E/DX2                !
 ! D17   D(6,1,12,32)         -177.6098         estimate D2E/DX2                !
 ! D18   D(6,1,12,33)           63.7567         estimate D2E/DX2                !
 ! D19   D(10,1,12,13)          57.0496         estimate D2E/DX2                !
 ! D20   D(10,1,12,32)         -63.358          estimate D2E/DX2                !
 ! D21   D(10,1,12,33)         178.0086         estimate D2E/DX2                !
 ! D22   D(1,2,3,4)             50.6327         estimate D2E/DX2                !
 ! D23   D(1,2,3,15)           165.0489         estimate D2E/DX2                !
 ! D24   D(1,2,3,37)           -75.1973         estimate D2E/DX2                !
 ! D25   D(7,2,3,4)            -66.1625         estimate D2E/DX2                !
 ! D26   D(7,2,3,15)            48.2538         estimate D2E/DX2                !
 ! D27   D(7,2,3,37)           168.0076         estimate D2E/DX2                !
 ! D28   D(14,2,3,4)           178.729          estimate D2E/DX2                !
 ! D29   D(14,2,3,15)          -66.8547         estimate D2E/DX2                !
 ! D30   D(14,2,3,37)           52.8991         estimate D2E/DX2                !
 ! D31   D(1,2,14,29)          173.9155         estimate D2E/DX2                !
 ! D32   D(1,2,14,30)          -67.3523         estimate D2E/DX2                !
 ! D33   D(1,2,14,31)           52.8142         estimate D2E/DX2                !
 ! D34   D(3,2,14,29)           45.3588         estimate D2E/DX2                !
 ! D35   D(3,2,14,30)          164.0911         estimate D2E/DX2                !
 ! D36   D(3,2,14,31)          -75.7424         estimate D2E/DX2                !
 ! D37   D(7,2,14,29)          -69.8616         estimate D2E/DX2                !
 ! D38   D(7,2,14,30)           48.8706         estimate D2E/DX2                !
 ! D39   D(7,2,14,31)          169.0371         estimate D2E/DX2                !
 ! D40   D(2,3,4,5)            -47.2622         estimate D2E/DX2                !
 ! D41   D(2,3,4,8)             74.2247         estimate D2E/DX2                !
 ! D42   D(2,3,4,9)           -168.5271         estimate D2E/DX2                !
 ! D43   D(15,3,4,5)          -157.2035         estimate D2E/DX2                !
 ! D44   D(15,3,4,8)           -35.7165         estimate D2E/DX2                !
 ! D45   D(15,3,4,9)            81.5317         estimate D2E/DX2                !
 ! D46   D(37,3,4,5)            79.4639         estimate D2E/DX2                !
 ! D47   D(37,3,4,8)          -159.0491         estimate D2E/DX2                !
 ! D48   D(37,3,4,9)           -41.8009         estimate D2E/DX2                !
 ! D49   D(2,3,15,16)          172.9997         estimate D2E/DX2                !
 ! D50   D(4,3,15,16)          -73.3448         estimate D2E/DX2                !
 ! D51   D(37,3,15,16)          51.0051         estimate D2E/DX2                !
 ! D52   D(2,3,37,38)           63.3747         estimate D2E/DX2                !
 ! D53   D(2,3,37,40)          -63.5674         estimate D2E/DX2                !
 ! D54   D(2,3,37,41)         -176.6176         estimate D2E/DX2                !
 ! D55   D(4,3,37,38)          -59.8298         estimate D2E/DX2                !
 ! D56   D(4,3,37,40)          173.228          estimate D2E/DX2                !
 ! D57   D(4,3,37,41)           60.1778         estimate D2E/DX2                !
 ! D58   D(15,3,37,38)         178.0585         estimate D2E/DX2                !
 ! D59   D(15,3,37,40)          51.1163         estimate D2E/DX2                !
 ! D60   D(15,3,37,41)         -61.9339         estimate D2E/DX2                !
 ! D61   D(3,4,5,10)            41.377          estimate D2E/DX2                !
 ! D62   D(3,4,5,11)          -145.5089         estimate D2E/DX2                !
 ! D63   D(8,4,5,10)           -82.1383         estimate D2E/DX2                !
 ! D64   D(8,4,5,11)            90.9758         estimate D2E/DX2                !
 ! D65   D(9,4,5,10)           164.1937         estimate D2E/DX2                !
 ! D66   D(9,4,5,11)           -22.6922         estimate D2E/DX2                !
 ! D67   D(4,5,10,1)           -37.3996         estimate D2E/DX2                !
 ! D68   D(11,5,10,1)          149.4658         estimate D2E/DX2                !
 ! D69   D(1,12,13,34)         -63.1314         estimate D2E/DX2                !
 ! D70   D(1,12,13,35)          57.8525         estimate D2E/DX2                !
 ! D71   D(1,12,13,36)         177.3616         estimate D2E/DX2                !
 ! D72   D(32,12,13,34)         58.1804         estimate D2E/DX2                !
 ! D73   D(32,12,13,35)        179.1643         estimate D2E/DX2                !
 ! D74   D(32,12,13,36)        -61.3265         estimate D2E/DX2                !
 ! D75   D(33,12,13,34)        174.3978         estimate D2E/DX2                !
 ! D76   D(33,12,13,35)        -64.6183         estimate D2E/DX2                !
 ! D77   D(33,12,13,36)         54.8909         estimate D2E/DX2                !
 ! D78   D(3,15,16,17)         -82.9737         estimate D2E/DX2                !
 ! D79   D(3,15,16,18)          40.243          estimate D2E/DX2                !
 ! D80   D(3,15,16,19)         159.661          estimate D2E/DX2                !
 ! D81   D(15,16,17,26)       -172.1179         estimate D2E/DX2                !
 ! D82   D(15,16,17,27)        -52.3898         estimate D2E/DX2                !
 ! D83   D(15,16,17,28)         67.9457         estimate D2E/DX2                !
 ! D84   D(18,16,17,26)         61.5938         estimate D2E/DX2                !
 ! D85   D(18,16,17,27)       -178.6781         estimate D2E/DX2                !
 ! D86   D(18,16,17,28)        -58.3427         estimate D2E/DX2                !
 ! D87   D(19,16,17,26)        -53.8388         estimate D2E/DX2                !
 ! D88   D(19,16,17,27)         65.8893         estimate D2E/DX2                !
 ! D89   D(19,16,17,28)       -173.7752         estimate D2E/DX2                !
 ! D90   D(15,16,18,20)        174.827          estimate D2E/DX2                !
 ! D91   D(15,16,18,21)        -65.6351         estimate D2E/DX2                !
 ! D92   D(15,16,18,22)         55.3451         estimate D2E/DX2                !
 ! D93   D(17,16,18,20)        -60.7459         estimate D2E/DX2                !
 ! D94   D(17,16,18,21)         58.792          estimate D2E/DX2                !
 ! D95   D(17,16,18,22)        179.7722         estimate D2E/DX2                !
 ! D96   D(19,16,18,20)         54.6214         estimate D2E/DX2                !
 ! D97   D(19,16,18,21)        174.1593         estimate D2E/DX2                !
 ! D98   D(19,16,18,22)        -64.8605         estimate D2E/DX2                !
 ! D99   D(15,16,19,23)        178.7448         estimate D2E/DX2                !
 ! D100  D(15,16,19,24)        -61.2101         estimate D2E/DX2                !
 ! D101  D(15,16,19,25)         58.6865         estimate D2E/DX2                !
 ! D102  D(17,16,19,23)         58.9138         estimate D2E/DX2                !
 ! D103  D(17,16,19,24)        178.959          estimate D2E/DX2                !
 ! D104  D(17,16,19,25)        -61.1445         estimate D2E/DX2                !
 ! D105  D(18,16,19,23)        -57.5514         estimate D2E/DX2                !
 ! D106  D(18,16,19,24)         62.4938         estimate D2E/DX2                !
 ! D107  D(18,16,19,25)       -177.6096         estimate D2E/DX2                !
 ! D108  D(3,37,38,39)        -120.1826         estimate D2E/DX2                !
 ! D109  D(3,37,38,42)          63.4173         estimate D2E/DX2                !
 ! D110  D(40,37,38,39)          6.2745         estimate D2E/DX2                !
 ! D111  D(40,37,38,42)       -170.1256         estimate D2E/DX2                !
 ! D112  D(41,37,38,39)        117.947          estimate D2E/DX2                !
 ! D113  D(41,37,38,42)        -58.4532         estimate D2E/DX2                !
 ! D114  D(37,38,39,43)       -178.0759         estimate D2E/DX2                !
 ! D115  D(37,38,39,44)          1.4867         estimate D2E/DX2                !
 ! D116  D(42,38,39,43)         -1.691          estimate D2E/DX2                !
 ! D117  D(42,38,39,44)        177.8716         estimate D2E/DX2                !
 --------------------------------------------------------------------------------
 Trust Radius=3.00D-01 FncErr=1.00D-07 GrdErr=1.00D-06
 Number of steps in this run=     25 maximum allowed number of steps=    264.
 GradGradGradGradGradGradGradGradGradGradGradGradGradGradGradGradGradGrad

                          Input orientation:                          
 ---------------------------------------------------------------------
 Center     Atomic      Atomic             Coordinates (Angstroms)
 Number     Number       Type             X           Y           Z
 ---------------------------------------------------------------------
      1          6           0       -0.290960   -0.016840    1.228149
      2          6           0       -0.854783    1.216434    0.509492
      3          6           0       -1.936722    1.968486    1.349031
      4          6           0       -1.356913    2.212234    2.743448
      5          6           0       -0.702887    1.027694    3.385319
      6          1           0       -1.023373   -0.828328    1.242734
      7          1           0       -0.021103    1.925840    0.385334
      8          1           0       -0.607009    3.013348    2.716093
      9          1           0       -2.146567    2.550860    3.422917
     10          8           0        0.065680    0.254901    2.596793
     11          8           0       -0.758316    0.843157    4.597410
     12          6           0        0.976647   -0.567014    0.544173
     13          6           0        1.529616   -1.805352    1.241974
     14          6           0       -1.336925    0.885629   -0.912868
     15          8           0       -2.032203    3.244104    0.652647
     16         14           0       -3.106913    4.503838    0.891578
     17          6           0       -4.727620    4.186302   -0.011322
     18          6           0       -3.482109    4.859531    2.692384
     19          6           0       -2.361200    6.079051    0.155397
     20          1           0       -4.115350    5.747735    2.780969
     21          1           0       -4.011904    4.025450    3.160508
     22          1           0       -2.561449    5.045921    3.252944
     23          1           0       -3.049840    6.920427    0.274947
     24          1           0       -1.420884    6.324254    0.657514
     25          1           0       -2.160469    5.941896   -0.911060
     26          1           0       -5.369114    5.071479    0.033657
     27          1           0       -4.539003    3.951955   -1.063099
     28          1           0       -5.272080    3.350293    0.435502
     29          1           0       -1.834303    1.741370   -1.380267
     30          1           0       -0.496364    0.622011   -1.562100
     31          1           0       -2.035565    0.043557   -0.915632
     32          1           0        1.759061    0.201573    0.543971
     33          1           0        0.769462   -0.830537   -0.497545
     34          1           0        1.850071   -1.581469    2.264077
     35          1           0        0.778034   -2.600175    1.281323
     36          1           0        2.398595   -2.187021    0.696397
     37          6           0       -3.327007    1.250122    1.392242
     38          6           0       -3.424243   -0.106093    2.033045
     39          6           0       -3.832016   -1.209301    1.391946
     40          1           0       -3.741161    1.214703    0.375920
     41          1           0       -4.031457    1.879655    1.949784
     42          1           0       -3.202945   -0.181229    3.096984
     43          1           0       -3.911515   -2.157443    1.916782
     44          1           0       -4.101794   -1.198012    0.340232
 ---------------------------------------------------------------------
                    Distance matrix (angstroms):
                    1          2          3          4          5
     1  C    0.000000
     2  C    1.534708   0.000000
     3  C    2.581601   1.562370   0.000000
     4  C    2.898475   2.496860   1.529703   0.000000
     5  C    2.431896   2.886014   2.560060   1.497626   0.000000
     6  H    1.093231   2.178788   2.944091   3.407111   2.852753
     7  H    2.134752   1.101678   2.144791   2.725273   3.204903
     8  H    3.390561   2.856463   2.174565   1.097674   2.097589
     9  H    3.854007   3.455061   2.164301   1.095399   2.098966
    10  O    1.440216   2.475606   2.915973   2.424135   1.345243
    11  O    3.508552   4.106058   3.634140   2.381148   1.227310
    12  C    1.541863   2.556565   3.945158   4.243410   3.665520
    13  C    2.552149   3.918301   5.125311   5.169862   4.195730
    14  C    2.548028   1.537856   2.578473   3.889592   4.347022
    15  O    3.741241   2.349097   1.456458   2.427390   3.761257
    16  Si   5.336609   4.003137   2.829597   3.426860   4.907307
    17  C    6.235916   4.908180   3.815544   4.779892   6.141046
    18  C    6.008861   4.993998   3.542733   3.395180   4.784058
    19  C    6.526605   5.102913   4.301359   4.760134   6.220820
    20  H    7.089960   6.026906   4.591251   4.484434   5.855675
    21  H    5.824049   4.988574   3.437867   3.242016   4.470646
    22  H    5.906476   5.010410   3.672298   3.120941   4.429213
    23  H    7.526333   6.116275   5.187910   5.579120   7.064482
    24  H    6.466206   5.141226   4.440383   4.611282   6.000832
    25  H    6.601349   5.104192   4.576687   5.283134   6.688258
    26  H    7.287349   5.955416   4.810415   5.622811   7.025632
    27  H    6.248762   4.850731   4.065020   5.257578   6.561670
    28  H    6.064440   4.906255   3.724049   4.685117   5.913832
    29  H    3.503861   2.192306   2.740646   4.177875   4.949772
    30  H    2.869810   2.184787   3.516008   4.669807   4.968318
    31  H    2.764614   2.191088   2.973856   4.307272   4.608984
    32  H    2.172186   2.804160   4.174795   4.311583   3.849276
    33  H    2.182800   2.800426   4.309038   4.927876   4.549447
    34  H    2.846968   4.268848   5.270606   4.990664   3.818705
    35  H    2.796282   4.222359   5.314805   5.463981   4.447624
    36  H    3.496591   4.711996   6.040624   6.135772   5.213817
    37  C    3.293888   2.625314   1.565505   2.575400   3.302701
    38  C    3.236246   3.266866   2.642815   3.186403   3.243439
    39  C    3.740036   3.940410   3.700312   4.433914   4.332335
    40  H    3.761234   2.889468   2.184293   3.504982   4.280486
    41  H    4.255440   3.550431   2.180988   2.809572   3.723705
    42  H    3.463990   3.763302   3.046299   3.043269   2.791939
    43  H    4.262020   4.765199   4.609277   5.128688   4.753629
    44  H    4.087300   4.049849   3.966349   4.993956   5.077292
                    6          7          8          9         10
     6  H    0.000000
     7  H    3.053706   0.000000
     8  H    4.135531   2.637877   0.000000
     9  H    4.175365   3.759675   1.756056   0.000000
    10  O    2.047657   2.773106   2.841790   3.293622   0.000000
    11  O    3.757389   4.411040   2.876104   2.494579   2.242205
    12  C    2.134561   2.689806   4.477074   5.269039   2.391371
    13  C    2.733556   4.130418   5.473396   6.103066   2.867627
    14  C    2.771747   2.121027   4.269581   4.714610   3.831819
    15  O    4.236820   2.419463   2.518380   2.857982   4.137167
    16  Si   5.735542   4.052725   3.435103   3.338273   5.570150
    17  C    6.359294   5.236251   5.078784   4.596793   6.725615
    18  C    6.363852   5.089949   3.416892   2.765377   5.813653
    19  C    7.119267   4.772639   4.362669   4.813615   6.765418
    20  H    7.427725   6.091700   4.448543   3.808965   6.905516
    21  H    6.014012   5.294945   3.579828   2.392228   5.582249
    22  H    6.396360   4.940795   2.870435   2.535024   5.503291
    23  H    8.067613   5.842203   5.214584   5.460653   7.715353
    24  H    7.187484   4.623799   3.982743   4.734192   6.542761
    25  H    7.194981   4.731409   4.913845   5.502970   7.042917
    26  H    7.426645   6.214495   5.840292   5.312759   7.701044
    27  H    6.366131   5.158926   5.533882   5.273628   6.947382
    28  H    6.013652   5.440987   5.203606   4.396882   6.537913
    29  H    3.760464   2.537532   4.461428   4.880918   4.651509
    30  H    3.201299   2.391306   4.902415   5.594106   4.212725
    31  H    2.538358   3.048534   4.904065   5.012175   4.098418
    32  H    3.048099   2.483394   4.268780   5.390864   2.661665
    33  H    2.498566   3.000347   5.195921   5.941977   3.353865
    34  H    3.141185   4.396838   5.230096   5.864484   2.582055
    35  H    2.527053   4.682545   5.957227   6.298641   3.223254
    36  H    3.722149   4.781979   6.336929   7.109144   3.875175
    37  C    3.106290   3.521287   3.501419   2.684958   3.735202
    38  C    2.628762   4.292443   4.258436   3.259386   3.553546
    39  C    2.838288   5.036411   5.475838   4.593952   4.334464
    40  H    3.508805   3.787431   4.305165   3.689476   4.510603
    41  H    4.108730   4.304948   3.687727   2.484642   4.454770
    42  H    2.933857   4.681549   4.133919   2.947283   3.335313
    43  H    3.249962   5.844129   6.188355   5.248962   4.701053
    44  H    3.229218   5.139312   5.966053   5.232581   4.956901
                   11         12         13         14         15
    11  O    0.000000
    12  C    4.628975   0.000000
    13  C    4.848524   1.525183   0.000000
    14  C    5.540736   3.096087   4.483501   0.000000
    15  O    4.790458   4.856909   6.207324   2.914902   0.000000
    16  Si   5.713990   6.519946   7.837478   4.413651   1.673027
    17  C    6.940634   7.445888   8.753495   4.817057   2.931529
    18  C    5.213390   7.344570   8.464144   5.778543   2.978651
    19  C    7.050908   7.447318   8.859058   5.400182   2.896968
    20  H    6.214823   8.414734   9.554228   6.708513   3.890684
    21  H    4.772579   7.267845   8.269672   5.797101   3.289238
    22  H    4.766771   7.166631   8.229262   6.013441   3.207521
    23  H    7.801793   8.505695   9.901807   6.384651   3.833222
    24  H    6.782640   7.297299   8.668191   5.661430   3.140232
    25  H    7.635864   7.370557   8.847154   5.122896   3.120851
    26  H    7.743772   8.504229   9.815463   5.888616   3.854533
    27  H    7.483287   7.309364   8.676871   4.436015   3.119116
    28  H    6.631838   7.375886   8.572872   4.835092   3.248882
    29  H    6.139801   4.115039   5.547192   1.094596   2.535767
    30  H    6.169043   2.831948   4.226052   1.094321   3.760223
    31  H    5.715274   3.402536   4.558974   1.094162   3.564128
    32  H    4.814477   1.096767   2.137195   3.489333   4.862354
    33  H    5.576193   1.094325   2.134016   2.748561   5.076905
    34  H    4.257574   2.179463   1.094308   5.131910   6.399603
    35  H    5.021289   2.171769   1.094608   4.630157   6.515233
    36  H    5.862249   2.160910   1.094737   5.097551   7.009351
    37  C    4.127577   4.747909   5.739799   3.067053   2.489876
    38  C    3.818928   4.668728   5.296602   3.744170   3.881635
    39  C    4.892363   4.924885   5.396746   3.990787   4.859908
    40  H    5.182315   5.045844   6.136112   2.747656   2.667505
    41  H    4.335632   5.748307   6.708637   4.055042   2.746143
    42  H    3.045793   4.912704   5.336288   4.549630   4.367874
    43  H    5.111950   5.320493   5.494110   4.888325   5.857180
    44  H    5.785221   5.121554   5.735397   3.681891   4.910520
                   16         17         18         19         20
    16  Si   0.000000
    17  C    1.882219   0.000000
    18  C    1.873551   3.051977   0.000000
    19  C    1.891916   3.034837   3.029846   0.000000
    20  H    2.476696   3.257274   1.094417   3.174971   0.000000
    21  H    2.489158   3.255553   1.093396   3.996598   1.766640
    22  H    2.483432   4.010820   1.093885   3.271430   1.769156
    23  H    2.494673   3.220611   3.205955   1.093815   2.964905
    24  H    2.492267   3.994081   3.245729   1.093819   3.478733
    25  H    2.492643   3.237577   3.987863   1.093817   4.182145
    26  H    2.485115   1.094110   3.267191   3.174519   3.094668
    27  H    2.485200   1.093951   4.005543   3.279039   4.263938
    28  H    2.495320   1.093160   3.251970   3.999725   3.547812
    29  H    3.796320   4.027777   5.387456   4.631561   6.210477
    30  H    5.282432   5.745660   6.706108   6.017200   7.631013
    31  H    4.930304   5.022676   6.189012   6.138431   7.108306
    32  H    6.504461   7.633050   7.333629   7.188344   8.382886
    33  H    6.738806   7.458083   7.786423   7.613789   8.825174
    34  H    7.967836   9.039394   8.372698   8.992491   9.464178
    35  H    8.106276   8.833993   8.705580   9.297928   9.791923
    36  H    8.666966   9.586608   9.392579   9.553862  10.475556
    37  C    3.299360   3.543002   3.839565   5.077512   4.772690
    38  C    4.759738   4.929795   5.009541   6.550697   5.941744
    39  C    5.780666   5.646574   6.216454   7.537402   7.100001
    40  H    3.389186   3.154910   4.326417   5.061107   5.145159
    41  H    2.976729   3.106638   3.119759   4.862562   3.957265
    42  H    5.179082   5.573287   5.064671   6.967968   6.007076
    43  H    6.787569   6.680323   7.072756   8.564215   7.954886
    44  H    5.814195   5.431950   6.527668   7.484616   7.362118
                   21         22         23         24         25
    21  H    0.000000
    22  H    1.775873   0.000000
    23  H    4.199157   3.552572   0.000000
    24  H    4.273507   3.109868   1.776310   0.000000
    25  H    4.866029   4.278140   1.776265   1.775840   0.000000
    26  H    3.565585   4.271703   2.975880   4.188933   3.456229
    27  H    4.257005   4.871931   3.580475   4.279133   3.104900
    28  H    3.077261   4.261532   4.208323   4.870877   4.267524
    29  H    5.529702   5.737198   5.571346   5.032523   4.239217
    30  H    6.800400   6.857128   7.040243   6.188457   5.611976
    31  H    6.031277   6.532781   7.052487   6.503828   5.899663
    32  H    7.400834   7.033708   8.266856   6.900157   7.101488
    33  H    7.734560   7.726182   8.675324   7.571183   7.390625
    34  H    8.161120   8.022572  10.012392   8.705208   9.097634
    35  H    8.388906   8.573344  10.310542   9.212481   9.295608
    36  H    9.260731   9.135284  10.621143   9.329080   9.457710
    37  C    3.361294   4.296089   5.785977   5.469913   5.355255
    38  C    4.322750   5.364309   7.252797   6.874220   6.844198
    39  C    5.528362   6.648718   8.243298   7.944017   7.696592
    40  H    3.965795   4.934290   5.748339   5.618762   5.147937
    41  H    2.463873   3.726176   5.401669   5.314086   5.309127
    42  H    4.284227   5.268675   7.643353   7.172731   7.392147
    43  H    6.307543   7.449595   9.265302   8.929064   8.755692
    44  H    5.936884   7.059975   8.186570   7.992023   7.504183
                   26         27         28         29         30
    26  H    0.000000
    27  H    1.773497   0.000000
    28  H    1.770135   1.773472   0.000000
    29  H    5.058033   3.507518   4.207608   0.000000
    30  H    6.788807   5.261222   5.851615   1.753884   0.000000
    31  H    6.106857   4.643762   4.820280   1.771711   1.766825
    32  H    8.647964   7.504242   7.704748   4.357285   3.114361
    33  H    8.532179   7.167418   7.406088   3.764770   2.201247
    34  H   10.067429   9.083455   8.853869   6.156063   5.000071
    35  H    9.909509   8.757717   8.528034   5.723406   4.482368
    36  H   10.651871   9.429375   9.464099   6.136955   4.623014
    37  C    4.540784   3.846756   3.018175   3.186894   4.139469
    38  C    5.881099   5.224610   4.232405   4.194249   4.693365
    39  C    6.607255   5.758962   4.876317   4.514696   4.817330
    40  H    4.200250   3.193724   2.628309   2.645313   3.825691
    41  H    3.955832   3.691814   2.448463   3.991973   5.139249
    42  H    6.455014   6.014528   4.882259   5.061160   5.447737
    43  H    7.611049   6.826286   5.863487   5.512357   5.611706
    44  H    6.403640   5.355619   4.697417   4.091650   4.464356
                   31         32         33         34         35
    31  H    0.000000
    32  H    4.068734   0.000000
    33  H    2.967661   1.768986   0.000000
    34  H    5.277256   2.479170   3.059113   0.000000
    35  H    4.442102   3.058741   2.509196   1.775621   0.000000
    36  H    5.218802   2.477422   2.433027   1.767821   1.771737
    37  C    2.906872   5.261854   4.968047   5.964909   5.629250
    38  C    3.262747   5.401726   4.951350   5.481651   4.944154
    39  C    3.181479   5.828359   4.988711   5.760663   4.816568
    40  H    2.439005   5.595276   5.029082   6.530359   5.982990
    41  H    3.945307   6.190506   6.031864   6.831583   6.606582
    42  H    4.185020   5.593381   5.396504   5.309179   4.999612
    43  H    4.047982   6.293250   5.431501   5.800710   4.753072
    44  H    2.718086   6.029094   4.956414   6.266811   5.163762
                   36         37         38         39         40
    36  H    0.000000
    37  C    6.714214   0.000000
    38  C    6.326321   1.503131   0.000000
    39  C    6.345096   2.510736   1.339535   0.000000
    40  H    7.026453   1.098038   2.142662   2.629897   0.000000
    41  H    7.710668   1.097003   2.078181   3.145252   1.733055
    42  H    6.415861   2.229417   1.089305   2.088017   3.105236
    43  H    6.427107   3.496897   2.111632   1.086621   3.711421
    44  H    6.584835   2.774956   2.125318   1.085822   2.439779
                   41         42         43         44
    41  H    0.000000
    42  H    2.499949   0.000000
    43  H    4.039014   2.408396   0.000000
    44  H    3.473851   3.072696   1.855323   0.000000
 Stoichiometry    C14H26O3Si
 Framework group  C1[X(C14H26O3Si)]
 Deg. of freedom   126
 Full point group                 C1      NOp   1
 Largest Abelian subgroup         C1      NOp   1
 Largest concise Abelian subgroup C1      NOp   1
                         Standard orientation:                         
 ---------------------------------------------------------------------
 Center     Atomic      Atomic             Coordinates (Angstroms)
 Number     Number       Type             X           Y           Z
 ---------------------------------------------------------------------
      1          6           0        2.305578   -0.421407   -0.361280
      2          6           0        0.884006   -0.958069   -0.576815
      3          6           0       -0.216936   -0.019202    0.012639
      4          6           0        0.051297    1.394771   -0.505744
      5          6           0        1.470033    1.862151   -0.397912
      6          1           0        2.605098   -0.520313    0.685457
      7          1           0        0.710467   -0.982193   -1.664471
      8          1           0       -0.231829    1.479545   -1.562882
      9          1           0       -0.567175    2.116411    0.038892
     10          8           0        2.429720    0.971339   -0.706345
     11          8           0        1.742560    3.036179   -0.166225
     12          6           0        3.353050   -1.178074   -1.202470
     13          6           0        4.770656   -0.662757   -0.976588
     14          6           0        0.737068   -2.412134   -0.098164
     15          8           0       -1.425056   -0.528554   -0.621614
     16         14           0       -3.022074   -0.112692   -0.346639
     17          6           0       -3.716494   -1.048887    1.131221
     18          6           0       -3.301463    1.720849   -0.081574
     19          6           0       -4.044619   -0.620465   -1.855253
     20          1           0       -4.371615    1.934792    0.000596
     21          1           0       -2.821561    2.067452    0.837705
     22          1           0       -2.906296    2.300694   -0.920744
     23          1           0       -5.100759   -0.382388   -1.699313
     24          1           0       -3.695674   -0.090214   -2.746045
     25          1           0       -3.952318   -1.695910   -2.032266
     26          1           0       -4.793704   -0.878529    1.218807
     27          1           0       -3.546979   -2.123489    1.016222
     28          1           0       -3.245256   -0.723621    2.062423
     29          1           0       -0.301405   -2.753401   -0.155165
     30          1           0        1.322833   -3.093336   -0.722970
     31          1           0        1.078007   -2.532580    0.934523
     32          1           0        3.117687   -1.071056   -2.268327
     33          1           0        3.340096   -2.246231   -0.964942
     34          1           0        4.874204    0.380217   -1.291218
     35          1           0        5.049052   -0.734767    0.079573
     36          1           0        5.483263   -1.258035   -1.556490
     37          6           0       -0.338477   -0.075632    1.572398
     38          6           0        0.829384    0.367619    2.408480
     39          6           0        1.466105   -0.422056    3.283326
     40          1           0       -0.649272   -1.086158    1.868932
     41          1           0       -1.171724    0.566202    1.884107
     42          1           0        1.137525    1.409986    2.337030
     43          1           0        2.285784   -0.036081    3.883239
     44          1           0        1.187679   -1.461252    3.430163
 ---------------------------------------------------------------------
 Rotational constants (GHZ):      0.5713854      0.2343738      0.2302267
 Standard basis: 6-31G(d,p) (6D, 7F)
 There are   404 symmetry adapted cartesian basis functions of A   symmetry.
 There are   404 symmetry adapted basis functions of A   symmetry.
   404 basis functions,   710 primitive gaussians,   404 cartesian basis functions
    74 alpha electrons       74 beta electrons
       nuclear repulsion energy      1623.6808523551 Hartrees.
 NAtoms=   44 NActive=   44 NUniq=   44 SFac= 1.00D+00 NAtFMM=   60 NAOKFM=F Big=F
 Integral buffers will be    131072 words long.
 Raffenetti 2 integral format.
 Two-electron integral symmetry is turned on.
 ------------------------------------------------------------------------------
 Polarizable Continuum Model (PCM)
 =================================
 Model                : PCM (using non-symmetric T matrix).
 Atomic radii         : UFF (Universal Force Field).
 Polarization charges : Total charges.
 Charge compensation  : None.
 Solution method      : On-the-fly selection.
 Cavity type          : Scaled VdW (van der Waals Surface) (Alpha=1.100).
 Cavity algorithm     : GePol (No added spheres)
                        Default sphere list used, NSphG=   44.
                        Lebedev-Laikov grids with approx.  5.0 points / Ang**2.
                        Smoothing algorithm: Karplus/York (Gamma=1.0000).
                        Polarization charges: spherical gaussians, with
                                              point-specific exponents (IZeta= 3).
                        Self-potential: point-specific (ISelfS= 7).
                        Self-field    : sphere-specific E.n sum rule (ISelfD= 2).
 1st derivatives      : Analytical E(r).r(x)/FMM algorithm (CHGder, D1EAlg=3).
                        Cavity 1st derivative terms included.
 Solvent              : Chloroform, Eps=   4.711300 Eps(inf)=   2.090627
 ------------------------------------------------------------------------------
 One-electron integrals computed using PRISM.
 NBasis=   404 RedAO= T EigKep=  1.64D-03  NBF=   404
 NBsUse=   404 1.00D-06 EigRej= -1.00D+00 NBFU=   404
 ExpMin= 7.78D-02 ExpMax= 1.61D+04 ExpMxC= 2.43D+03 IAcc=2 IRadAn=         4 AccDes= 0.00D+00
 Harris functional with IExCor=  402 and IRadAn=       4 diagonalized for initial guess.
 HarFok:  IExCor=  402 AccDes= 0.00D+00 IRadAn=         4 IDoV= 1 UseB2=F ITyADJ=14
 ICtDFT=  3500011 ScaDFX=  1.000000  1.000000  1.000000  1.000000
 FoFCou: FMM=F IPFlag=           0 FMFlag=      100000 FMFlg1=           0
         NFxFlg=           0 DoJE=T BraDBF=F KetDBF=T FulRan=T
         wScrn=  0.000000 ICntrl=     500 IOpCl=  0 I1Cent=   200000004 NGrid=           0
         NMat0=    1 NMatS0=      1 NMatT0=    0 NMatD0=    1 NMtDS0=    0 NMtDT0=    0
 Petite list used in FoFCou.
 Requested convergence on RMS density matrix=1.00D-08 within 128 cycles.
 Requested convergence on MAX density matrix=1.00D-06.
 Requested convergence on             energy=1.00D-06.
 No special actions if energy rises.
 Inv3:  Mode=1 IEnd=    24470208.
 Iteration    1 A*A^-1 deviation from unit magnitude is 5.77D-15 for   2817.
 Iteration    1 A*A^-1 deviation from orthogonality  is 6.25D-15 for   2817   2748.
 Iteration    1 A^-1*A deviation from unit magnitude is 5.55D-15 for   2817.
 Iteration    1 A^-1*A deviation from orthogonality  is 6.45D-14 for   2060   2032.
 Error on total polarization charges =  0.00930
 SCF Done:  E(RB3LYP) =  -1064.41487922     A.U. after   13 cycles
            NFock= 13  Conv=0.46D-08     -V/T= 2.0080

 **********************************************************************

            Population analysis using the SCF density.

 **********************************************************************

 Orbital symmetries:
       Occupied  (A) (A) (A) (A) (A) (A) (A) (A) (A) (A) (A) (A)
                 (A) (A) (A) (A) (A) (A) (A) (A) (A) (A) (A) (A)
                 (A) (A) (A) (A) (A) (A) (A) (A) (A) (A) (A) (A)
                 (A) (A) (A) (A) (A) (A) (A) (A) (A) (A) (A) (A)
                 (A) (A) (A) (A) (A) (A) (A) (A) (A) (A) (A) (A)
                 (A) (A) (A) (A) (A) (A) (A) (A) (A) (A) (A) (A)
                 (A) (A)
       Virtual   (A) (A) (A) (A) (A) (A) (A) (A) (A) (A) (A) (A)
                 (A) (A) (A) (A) (A) (A) (A) (A) (A) (A) (A) (A)
                 (A) (A) (A) (A) (A) (A) (A) (A) (A) (A) (A) (A)
                 (A) (A) (A) (A) (A) (A) (A) (A) (A) (A) (A) (A)
                 (A) (A) (A) (A) (A) (A) (A) (A) (A) (A) (A) (A)
                 (A) (A) (A) (A) (A) (A) (A) (A) (A) (A) (A) (A)
                 (A) (A) (A) (A) (A) (A) (A) (A) (A) (A) (A) (A)
                 (A) (A) (A) (A) (A) (A) (A) (A) (A) (A) (A) (A)
                 (A) (A) (A) (A) (A) (A) (A) (A) (A) (A) (A) (A)
                 (A) (A) (A) (A) (A) (A) (A) (A) (A) (A) (A) (A)
                 (A) (A) (A) (A) (A) (A) (A) (A) (A) (A) (A) (A)
                 (A) (A) (A) (A) (A) (A) (A) (A) (A) (A) (A) (A)
                 (A) (A) (A) (A) (A) (A) (A) (A) (A) (A) (A) (A)
                 (A) (A) (A) (A) (A) (A) (A) (A) (A) (A) (A) (A)
                 (A) (A) (A) (A) (A) (A) (A) (A) (A) (A) (A) (A)
                 (A) (A) (A) (A) (A) (A) (A) (A) (A) (A) (A) (A)
                 (A) (A) (A) (A) (A) (A) (A) (A) (A) (A) (A) (A)
                 (A) (A) (A) (A) (A) (A) (A) (A) (A) (A) (A) (A)
                 (A) (A) (A) (A) (A) (A) (A) (A) (A) (A) (A) (A)
                 (A) (A) (A) (A) (A) (A) (A) (A) (A) (A) (A) (A)
                 (A) (A) (A) (A) (A) (A) (A) (A) (A) (A) (A) (A)
                 (A) (A) (A) (A) (A) (A) (A) (A) (A) (A) (A) (A)
                 (A) (A) (A) (A) (A) (A) (A) (A) (A) (A) (A) (A)
                 (A) (A) (A) (A) (A) (A) (A) (A) (A) (A) (A) (A)
                 (A) (A) (A) (A) (A) (A) (A) (A) (A) (A) (A) (A)
                 (A) (A) (A) (A) (A) (A) (A) (A) (A) (A) (A) (A)
                 (A) (A) (A) (A) (A) (A) (A) (A) (A) (A) (A) (A)
                 (A) (A) (A) (A) (A) (A)
 The electronic state is 1-A.
 Alpha  occ. eigenvalues --  -66.13817 -19.18895 -19.14245 -19.13542 -10.32129
 Alpha  occ. eigenvalues --  -10.26728 -10.24868 -10.20000 -10.19923 -10.19863
 Alpha  occ. eigenvalues --  -10.19787 -10.18736 -10.18667 -10.17804 -10.17200
 Alpha  occ. eigenvalues --  -10.15916 -10.15708 -10.15550  -5.27982  -3.64036
 Alpha  occ. eigenvalues --   -3.63807  -3.63772  -1.09898  -1.01413  -1.00375
 Alpha  occ. eigenvalues --   -0.82833  -0.80415  -0.78067  -0.75036  -0.71152
 Alpha  occ. eigenvalues --   -0.70406  -0.69292  -0.67662  -0.67277  -0.64184
 Alpha  occ. eigenvalues --   -0.61110  -0.59559  -0.56228  -0.54697  -0.51136
 Alpha  occ. eigenvalues --   -0.50662  -0.48376  -0.46866  -0.46102  -0.45053
 Alpha  occ. eigenvalues --   -0.44535  -0.43372  -0.43229  -0.42415  -0.41896
 Alpha  occ. eigenvalues --   -0.40994  -0.40598  -0.39989  -0.39726  -0.39051
 Alpha  occ. eigenvalues --   -0.38939  -0.38661  -0.38397  -0.37799  -0.37123
 Alpha  occ. eigenvalues --   -0.36097  -0.35897  -0.35482  -0.34424  -0.34264
 Alpha  occ. eigenvalues --   -0.33785  -0.32773  -0.31778  -0.30381  -0.29201
 Alpha  occ. eigenvalues --   -0.28502  -0.27659  -0.26441  -0.25469
 Alpha virt. eigenvalues --   -0.01117   0.01084   0.06639   0.07107   0.09425
 Alpha virt. eigenvalues --    0.09544   0.10407   0.10728   0.11055   0.11382
 Alpha virt. eigenvalues --    0.12137   0.12964   0.13205   0.13318   0.14259
 Alpha virt. eigenvalues --    0.14773   0.15309   0.15819   0.16474   0.16984
 Alpha virt. eigenvalues --    0.17223   0.17589   0.18040   0.18651   0.18984
 Alpha virt. eigenvalues --    0.19136   0.19648   0.20110   0.20521   0.21022
 Alpha virt. eigenvalues --    0.21569   0.22233   0.22433   0.23137   0.23926
 Alpha virt. eigenvalues --    0.24551   0.25498   0.26141   0.26720   0.28760
 Alpha virt. eigenvalues --    0.29595   0.30314   0.32633   0.35086   0.36203
 Alpha virt. eigenvalues --    0.38036   0.38232   0.39463   0.41409   0.42998
 Alpha virt. eigenvalues --    0.45614   0.47425   0.48296   0.49238   0.49835
 Alpha virt. eigenvalues --    0.52396   0.53061   0.53454   0.55386   0.55731
 Alpha virt. eigenvalues --    0.57093   0.58172   0.59049   0.59456   0.60318
 Alpha virt. eigenvalues --    0.60610   0.62095   0.64054   0.64600   0.65417
 Alpha virt. eigenvalues --    0.65975   0.66102   0.66794   0.67966   0.69059
 Alpha virt. eigenvalues --    0.69947   0.71287   0.71467   0.72519   0.73862
 Alpha virt. eigenvalues --    0.74722   0.75692   0.76294   0.76889   0.77773
 Alpha virt. eigenvalues --    0.80126   0.80619   0.81469   0.81867   0.82792
 Alpha virt. eigenvalues --    0.83983   0.84221   0.84679   0.86067   0.86244
 Alpha virt. eigenvalues --    0.86768   0.87327   0.87626   0.88082   0.88176
 Alpha virt. eigenvalues --    0.89670   0.90386   0.90617   0.90904   0.91360
 Alpha virt. eigenvalues --    0.92109   0.92410   0.93082   0.93608   0.93733
 Alpha virt. eigenvalues --    0.93999   0.94903   0.95650   0.96127   0.96728
 Alpha virt. eigenvalues --    0.97736   0.99036   0.99677   1.00454   1.01149
 Alpha virt. eigenvalues --    1.01688   1.02670   1.04741   1.06417   1.07307
 Alpha virt. eigenvalues --    1.10309   1.11369   1.13078   1.16595   1.17404
 Alpha virt. eigenvalues --    1.19204   1.20695   1.20917   1.25508   1.27650
 Alpha virt. eigenvalues --    1.28712   1.30378   1.30663   1.32164   1.33458
 Alpha virt. eigenvalues --    1.36275   1.37752   1.38962   1.41420   1.43213
 Alpha virt. eigenvalues --    1.43812   1.44552   1.45114   1.47770   1.48090
 Alpha virt. eigenvalues --    1.49513   1.51484   1.52780   1.54678   1.58171
 Alpha virt. eigenvalues --    1.58685   1.61325   1.61498   1.64161   1.64665
 Alpha virt. eigenvalues --    1.66041   1.67190   1.69843   1.71867   1.73106
 Alpha virt. eigenvalues --    1.75049   1.76261   1.77009   1.78518   1.78939
 Alpha virt. eigenvalues --    1.80585   1.82796   1.83482   1.84277   1.85664
 Alpha virt. eigenvalues --    1.86750   1.87792   1.88046   1.88609   1.90335
 Alpha virt. eigenvalues --    1.92435   1.93730   1.94835   1.95515   1.96291
 Alpha virt. eigenvalues --    1.98184   1.98912   1.99897   2.01228   2.02288
 Alpha virt. eigenvalues --    2.03893   2.04649   2.04901   2.05250   2.05617
 Alpha virt. eigenvalues --    2.06171   2.06785   2.08038   2.08762   2.08921
 Alpha virt. eigenvalues --    2.09642   2.10564   2.10981   2.11216   2.11917
 Alpha virt. eigenvalues --    2.12707   2.13321   2.13670   2.14078   2.14987
 Alpha virt. eigenvalues --    2.15757   2.16260   2.16889   2.17612   2.18730
 Alpha virt. eigenvalues --    2.20256   2.21438   2.23354   2.27109   2.27243
 Alpha virt. eigenvalues --    2.28928   2.29310   2.31021   2.32114   2.32992
 Alpha virt. eigenvalues --    2.33691   2.34843   2.35664   2.36488   2.37626
 Alpha virt. eigenvalues --    2.37886   2.38874   2.39146   2.40002   2.40471
 Alpha virt. eigenvalues --    2.43721   2.45052   2.48153   2.50013   2.50399
 Alpha virt. eigenvalues --    2.52868   2.53981   2.55299   2.56444   2.59728
 Alpha virt. eigenvalues --    2.60912   2.61563   2.62826   2.62993   2.64038
 Alpha virt. eigenvalues --    2.65979   2.66573   2.68298   2.69298   2.69807
 Alpha virt. eigenvalues --    2.71966   2.73320   2.73713   2.73937   2.75502
 Alpha virt. eigenvalues --    2.77500   2.79121   2.79674   2.81518   2.81638
 Alpha virt. eigenvalues --    2.82181   2.83383   2.84331   2.84735   2.85152
 Alpha virt. eigenvalues --    2.85401   2.86311   2.87233   2.88552   2.89118
 Alpha virt. eigenvalues --    2.91398   2.91930   2.92634   2.95462   2.96063
 Alpha virt. eigenvalues --    2.97457   2.98917   3.01579   3.09202   3.10988
 Alpha virt. eigenvalues --    3.16318   3.18532   3.20012   3.20739   3.20932
 Alpha virt. eigenvalues --    3.22076   3.22380   3.25838   3.29624   3.32198
 Alpha virt. eigenvalues --    3.32684   3.35140   3.40276   3.43372   3.43704
 Alpha virt. eigenvalues --    3.44514   3.44589   3.44840   3.45401   3.45790
 Alpha virt. eigenvalues --    3.46188   3.47638   3.48890   3.49811   3.50740
 Alpha virt. eigenvalues --    3.54341   3.56863   3.65718   4.02985   4.10167
 Alpha virt. eigenvalues --    4.23468   4.26055   4.32725   4.37885   4.44475
 Alpha virt. eigenvalues --    4.45705   4.49187   4.52066   4.53699   4.59362
 Alpha virt. eigenvalues --    4.62187   4.64636   4.75399   4.77638   4.80825
          Condensed to atoms (all electrons):
               1          2          3          4          5          6
     1  C    4.835456   0.319898  -0.023803  -0.008897  -0.010283   0.373455
     2  C    0.319898   5.062708   0.349056  -0.055279  -0.014128  -0.043715
     3  C   -0.023803   0.349056   4.849767   0.296815  -0.015647  -0.009647
     4  C   -0.008897  -0.055279   0.296815   5.314343   0.296058   0.000939
     5  C   -0.010283  -0.014128  -0.015647   0.296058   4.368794  -0.001880
     6  H    0.373455  -0.043715  -0.009647   0.000939  -0.001880   0.626572
     7  H   -0.040777   0.376232  -0.041904  -0.004312   0.000080   0.006199
     8  H    0.000263  -0.005186  -0.020569   0.366327  -0.025508   0.000011
     9  H    0.000112   0.005493  -0.032965   0.355564  -0.022871   0.000083
    10  O    0.167516  -0.028054  -0.002788  -0.096018   0.260110  -0.041690
    11  O    0.001238  -0.000037   0.002021  -0.086967   0.564538   0.000315
    12  C    0.372986  -0.034909   0.004401  -0.000721   0.001492  -0.048963
    13  C   -0.038552   0.004167  -0.000100   0.000006   0.000116  -0.006751
    14  C   -0.033956   0.347580  -0.030906   0.004974   0.000567  -0.003861
    15  O    0.003156  -0.048367   0.163544  -0.034037   0.001407  -0.000030
    16  Si   0.000173  -0.001464  -0.012758  -0.004997   0.000356  -0.000015
    17  C    0.000001  -0.000017  -0.001665  -0.000130   0.000000   0.000000
    18  C    0.000002  -0.000029  -0.001172  -0.000212   0.000087   0.000000
    19  C    0.000000  -0.000007   0.001098  -0.000155  -0.000002   0.000000
    20  H    0.000000   0.000001   0.000000   0.000112  -0.000001   0.000000
    21  H    0.000000  -0.000004   0.000590  -0.001707  -0.000041   0.000000
    22  H    0.000000  -0.000006  -0.000409  -0.000163   0.000002   0.000000
    23  H    0.000000   0.000000  -0.000014   0.000002   0.000000   0.000000
    24  H    0.000000  -0.000004  -0.000023  -0.000028   0.000000   0.000000
    25  H    0.000000   0.000005  -0.000031   0.000005   0.000000   0.000000
    26  H    0.000000   0.000001   0.000025   0.000002   0.000000   0.000000
    27  H    0.000000   0.000010  -0.000026   0.000004   0.000000   0.000000
    28  H    0.000000   0.000002  -0.000183  -0.000024   0.000000   0.000000
    29  H    0.003926  -0.027246  -0.006793   0.000266  -0.000021  -0.000102
    30  H   -0.004271  -0.027196   0.004105  -0.000142  -0.000011  -0.000016
    31  H   -0.006819  -0.034205  -0.006967   0.000038  -0.000007   0.005789
    32  H   -0.033019  -0.006612  -0.000074   0.000007   0.000076   0.006046
    33  H   -0.029926  -0.004570  -0.000003   0.000026  -0.000038  -0.000662
    34  H   -0.007658   0.000139  -0.000005   0.000038   0.000226   0.000042
    35  H   -0.004922   0.000099   0.000001   0.000001  -0.000027   0.005667
    36  H    0.004005  -0.000094   0.000002   0.000000  -0.000002  -0.000056
    37  C   -0.001395  -0.055846   0.344184  -0.061262  -0.001047   0.000378
    38  C   -0.006133   0.000446  -0.028409  -0.004361   0.002572   0.008918
    39  C   -0.004869   0.001619  -0.000936  -0.000021   0.000181   0.006763
    40  H    0.000324  -0.009932  -0.026712   0.005155  -0.000011  -0.000002
    41  H   -0.000098   0.005288  -0.031405  -0.007790  -0.000114   0.000077
    42  H   -0.000201  -0.000091  -0.003342   0.001256   0.004925   0.000572
    43  H    0.000011  -0.000042  -0.000045   0.000003  -0.000002  -0.000015
    44  H    0.000012   0.000008   0.000071   0.000004   0.000002  -0.000015
               7          8          9         10         11         12
     1  C   -0.040777   0.000263   0.000112   0.167516   0.001238   0.372986
     2  C    0.376232  -0.005186   0.005493  -0.028054  -0.000037  -0.034909
     3  C   -0.041904  -0.020569  -0.032965  -0.002788   0.002021   0.004401
     4  C   -0.004312   0.366327   0.355564  -0.096018  -0.086967  -0.000721
     5  C    0.000080  -0.025508  -0.022871   0.260110   0.564538   0.001492
     6  H    0.006199   0.000011   0.000083  -0.041690   0.000315  -0.048963
     7  H    0.635560   0.003073  -0.000019  -0.000070  -0.000007  -0.011679
     8  H    0.003073   0.539668  -0.025626  -0.000023  -0.000443  -0.000052
     9  H   -0.000019  -0.025626   0.579996   0.003666   0.003416   0.000012
    10  O   -0.000070  -0.000023   0.003666   8.330383  -0.076753  -0.044982
    11  O   -0.000007  -0.000443   0.003416  -0.076753   8.096349  -0.000076
    12  C   -0.011679  -0.000052   0.000012  -0.044982  -0.000076   4.944049
    13  C    0.000054   0.000001   0.000000  -0.002668  -0.000014   0.361338
    14  C   -0.041370  -0.000072  -0.000133   0.002513   0.000002  -0.005279
    15  O    0.000457  -0.002453   0.000017  -0.000019  -0.000015  -0.000047
    16  Si   0.000703   0.002204  -0.001064  -0.000031  -0.000085   0.000000
    17  C    0.000006   0.000013  -0.000009   0.000000   0.000000   0.000000
    18  C   -0.000003  -0.000357  -0.000001  -0.000001  -0.000002   0.000000
    19  C   -0.000030  -0.000122   0.000008   0.000000   0.000000   0.000000
    20  H    0.000000  -0.000002   0.000092   0.000000   0.000000   0.000000
    21  H    0.000000  -0.000047   0.002348   0.000000  -0.000003   0.000000
    22  H   -0.000001   0.000639   0.000730   0.000000   0.000002   0.000000
    23  H    0.000000   0.000002   0.000000   0.000000   0.000000   0.000000
    24  H    0.000000   0.000006  -0.000003   0.000000   0.000000   0.000000
    25  H   -0.000003  -0.000002   0.000000   0.000000   0.000000   0.000000
    26  H    0.000000   0.000000   0.000001   0.000000   0.000000   0.000000
    27  H    0.000000   0.000000   0.000000   0.000000   0.000000   0.000000
    28  H    0.000000  -0.000001  -0.000005   0.000000   0.000000   0.000000
    29  H   -0.002083   0.000006  -0.000008  -0.000048   0.000000   0.000101
    30  H   -0.006593  -0.000002   0.000003  -0.000006   0.000000   0.001190
    31  H    0.005468   0.000001   0.000005   0.000016   0.000000  -0.000611
    32  H    0.007001   0.000004   0.000001  -0.000568  -0.000004   0.375400
    33  H    0.000151  -0.000001   0.000000   0.002922   0.000001   0.379076
    34  H    0.000006  -0.000001   0.000000   0.008198   0.000019  -0.033192
    35  H    0.000015   0.000000   0.000000  -0.000371   0.000000  -0.037387
    36  H   -0.000006   0.000000   0.000000   0.000145   0.000000  -0.028264
    37  C    0.005532   0.004806  -0.007917  -0.000433   0.000095  -0.000072
    38  C   -0.000102  -0.000027   0.000140   0.000574  -0.001817   0.000185
    39  C   -0.000023  -0.000003   0.000009  -0.000059   0.000010   0.000171
    40  H    0.000024  -0.000139   0.000034  -0.000009   0.000000  -0.000010
    41  H   -0.000146  -0.000004   0.003900  -0.000004  -0.000006   0.000002
    42  H    0.000003   0.000058   0.000383  -0.001016   0.003336  -0.000007
    43  H    0.000000   0.000000   0.000000   0.000004  -0.000002   0.000000
    44  H    0.000001   0.000000   0.000000  -0.000002   0.000000  -0.000002
              13         14         15         16         17         18
     1  C   -0.038552  -0.033956   0.003156   0.000173   0.000001   0.000002
     2  C    0.004167   0.347580  -0.048367  -0.001464  -0.000017  -0.000029
     3  C   -0.000100  -0.030906   0.163544  -0.012758  -0.001665  -0.001172
     4  C    0.000006   0.004974  -0.034037  -0.004997  -0.000130  -0.000212
     5  C    0.000116   0.000567   0.001407   0.000356   0.000000   0.000087
     6  H   -0.006751  -0.003861  -0.000030  -0.000015   0.000000   0.000000
     7  H    0.000054  -0.041370   0.000457   0.000703   0.000006  -0.000003
     8  H    0.000001  -0.000072  -0.002453   0.002204   0.000013  -0.000357
     9  H    0.000000  -0.000133   0.000017  -0.001064  -0.000009  -0.000001
    10  O   -0.002668   0.002513  -0.000019  -0.000031   0.000000  -0.000001
    11  O   -0.000014   0.000002  -0.000015  -0.000085   0.000000  -0.000002
    12  C    0.361338  -0.005279  -0.000047   0.000000   0.000000   0.000000
    13  C    4.933346   0.000120   0.000000   0.000000   0.000000   0.000000
    14  C    0.000120   4.976736  -0.007762   0.000189  -0.000050  -0.000002
    15  O    0.000000  -0.007762   8.306780   0.335225  -0.017706  -0.014388
    16  Si   0.000000   0.000189   0.335225  11.854232   0.368983   0.365425
    17  C    0.000000  -0.000050  -0.017706   0.368983   5.143683  -0.034445
    18  C    0.000000  -0.000002  -0.014388   0.365425  -0.034445   5.150795
    19  C    0.000000   0.000001  -0.020080   0.377035  -0.034303  -0.031345
    20  H    0.000000   0.000000   0.000484  -0.013789  -0.000450   0.371765
    21  H    0.000000   0.000000  -0.000433  -0.027977  -0.001609   0.375473
    22  H    0.000000   0.000000  -0.000415  -0.026564   0.001339   0.377841
    23  H    0.000000   0.000000   0.000483  -0.014553  -0.000457  -0.000793
    24  H    0.000000   0.000000  -0.000475  -0.024623   0.001377  -0.001256
    25  H    0.000000   0.000000  -0.000512  -0.024397  -0.001405   0.001404
    26  H    0.000000   0.000001   0.000587  -0.013321   0.369087  -0.000208
    27  H    0.000000  -0.000013  -0.000593  -0.026137   0.378990   0.001321
    28  H    0.000000  -0.000004  -0.000630  -0.026826   0.375259  -0.001599
    29  H    0.000000   0.378537   0.008675   0.001980  -0.000029   0.000007
    30  H   -0.000109   0.379891   0.000039  -0.000075   0.000000   0.000000
    31  H   -0.000032   0.381770   0.000141  -0.000046  -0.000001   0.000000
    32  H   -0.041505  -0.000274  -0.000005  -0.000003   0.000000   0.000000
    33  H   -0.036859   0.001103   0.000000   0.000000   0.000000   0.000000
    34  H    0.388944  -0.000007   0.000000   0.000000   0.000000   0.000000
    35  H    0.385725  -0.000015   0.000000   0.000000   0.000000   0.000000
    36  H    0.380125  -0.000003   0.000000   0.000000   0.000000   0.000000
    37  C    0.000002  -0.006896  -0.033346   0.003860  -0.000933  -0.002139
    38  C    0.000004  -0.001550   0.002700  -0.000819   0.000104  -0.000002
    39  C   -0.000004  -0.000880  -0.000032   0.000049   0.000000   0.000000
    40  H    0.000000   0.003443  -0.000692   0.000751  -0.000166   0.000096
    41  H    0.000000  -0.000049  -0.003160   0.008747  -0.002226  -0.000701
    42  H   -0.000002  -0.000001  -0.000022  -0.000006  -0.000001   0.000001
    43  H    0.000000   0.000027   0.000000  -0.000002   0.000000   0.000000
    44  H    0.000000  -0.000277  -0.000003  -0.000022   0.000000   0.000000
              19         20         21         22         23         24
     1  C    0.000000   0.000000   0.000000   0.000000   0.000000   0.000000
     2  C   -0.000007   0.000001  -0.000004  -0.000006   0.000000  -0.000004
     3  C    0.001098   0.000000   0.000590  -0.000409  -0.000014  -0.000023
     4  C   -0.000155   0.000112  -0.001707  -0.000163   0.000002  -0.000028
     5  C   -0.000002  -0.000001  -0.000041   0.000002   0.000000   0.000000
     6  H    0.000000   0.000000   0.000000   0.000000   0.000000   0.000000
     7  H   -0.000030   0.000000   0.000000  -0.000001   0.000000   0.000000
     8  H   -0.000122  -0.000002  -0.000047   0.000639   0.000002   0.000006
     9  H    0.000008   0.000092   0.002348   0.000730   0.000000  -0.000003
    10  O    0.000000   0.000000   0.000000   0.000000   0.000000   0.000000
    11  O    0.000000   0.000000  -0.000003   0.000002   0.000000   0.000000
    12  C    0.000000   0.000000   0.000000   0.000000   0.000000   0.000000
    13  C    0.000000   0.000000   0.000000   0.000000   0.000000   0.000000
    14  C    0.000001   0.000000   0.000000   0.000000   0.000000   0.000000
    15  O   -0.020080   0.000484  -0.000433  -0.000415   0.000483  -0.000475
    16  Si   0.377035  -0.013789  -0.027977  -0.026564  -0.014553  -0.024623
    17  C   -0.034303  -0.000450  -0.001609   0.001339  -0.000457   0.001377
    18  C   -0.031345   0.371765   0.375473   0.377841  -0.000793  -0.001256
    19  C    5.119497  -0.001024   0.001473  -0.001106   0.373118   0.375221
    20  H   -0.001024   0.563522  -0.022707  -0.022620   0.000111  -0.000039
    21  H    0.001473  -0.022707   0.578595  -0.023665   0.000000   0.000001
    22  H   -0.001106  -0.022620  -0.023665   0.572239  -0.000049   0.000604
    23  H    0.373118   0.000111   0.000000  -0.000049   0.568015  -0.023635
    24  H    0.375221  -0.000039   0.000001   0.000604  -0.023635   0.577943
    25  H    0.376180   0.000016  -0.000027   0.000003  -0.023815  -0.022124
    26  H   -0.000745   0.000065  -0.000017   0.000006   0.000017   0.000017
    27  H   -0.001151   0.000013   0.000008  -0.000024  -0.000024   0.000005
    28  H    0.001418  -0.000011   0.000599   0.000005   0.000004  -0.000027
    29  H   -0.000047   0.000000   0.000000   0.000000   0.000000  -0.000001
    30  H    0.000000   0.000000   0.000000   0.000000   0.000000   0.000000
    31  H    0.000000   0.000000   0.000000   0.000000   0.000000   0.000000
    32  H    0.000000   0.000000   0.000000   0.000000   0.000000   0.000000
    33  H    0.000000   0.000000   0.000000   0.000000   0.000000   0.000000
    34  H    0.000000   0.000000   0.000000   0.000000   0.000000   0.000000
    35  H    0.000000   0.000000   0.000000   0.000000   0.000000   0.000000
    36  H    0.000000   0.000000   0.000000   0.000000   0.000000   0.000000
    37  C   -0.000065   0.000034  -0.000933   0.000146   0.000002   0.000003
    38  C    0.000000   0.000000  -0.000028   0.000004   0.000000   0.000000
    39  C    0.000000   0.000000   0.000000   0.000000   0.000000   0.000000
    40  H   -0.000008  -0.000001  -0.000015  -0.000003   0.000000   0.000000
    41  H    0.000006  -0.000003   0.002441  -0.000066   0.000001   0.000000
    42  H    0.000000   0.000000   0.000000   0.000000   0.000000   0.000000
    43  H    0.000000   0.000000   0.000000   0.000000   0.000000   0.000000
    44  H    0.000000   0.000000   0.000000   0.000000   0.000000   0.000000
              25         26         27         28         29         30
     1  C    0.000000   0.000000   0.000000   0.000000   0.003926  -0.004271
     2  C    0.000005   0.000001   0.000010   0.000002  -0.027246  -0.027196
     3  C   -0.000031   0.000025  -0.000026  -0.000183  -0.006793   0.004105
     4  C    0.000005   0.000002   0.000004  -0.000024   0.000266  -0.000142
     5  C    0.000000   0.000000   0.000000   0.000000  -0.000021  -0.000011
     6  H    0.000000   0.000000   0.000000   0.000000  -0.000102  -0.000016
     7  H   -0.000003   0.000000   0.000000   0.000000  -0.002083  -0.006593
     8  H   -0.000002   0.000000   0.000000  -0.000001   0.000006  -0.000002
     9  H    0.000000   0.000001   0.000000  -0.000005  -0.000008   0.000003
    10  O    0.000000   0.000000   0.000000   0.000000  -0.000048  -0.000006
    11  O    0.000000   0.000000   0.000000   0.000000   0.000000   0.000000
    12  C    0.000000   0.000000   0.000000   0.000000   0.000101   0.001190
    13  C    0.000000   0.000000   0.000000   0.000000   0.000000  -0.000109
    14  C    0.000000   0.000001  -0.000013  -0.000004   0.378537   0.379891
    15  O   -0.000512   0.000587  -0.000593  -0.000630   0.008675   0.000039
    16  Si  -0.024397  -0.013321  -0.026137  -0.026826   0.001980  -0.000075
    17  C   -0.001405   0.369087   0.378990   0.375259  -0.000029   0.000000
    18  C    0.001404  -0.000208   0.001321  -0.001599   0.000007   0.000000
    19  C    0.376180  -0.000745  -0.001151   0.001418  -0.000047   0.000000
    20  H    0.000016   0.000065   0.000013  -0.000011   0.000000   0.000000
    21  H   -0.000027  -0.000017   0.000008   0.000599   0.000000   0.000000
    22  H    0.000003   0.000006  -0.000024   0.000005   0.000000   0.000000
    23  H   -0.023815   0.000017  -0.000024   0.000004   0.000000   0.000000
    24  H   -0.022124   0.000017   0.000005  -0.000027  -0.000001   0.000000
    25  H    0.575507  -0.000043   0.000583   0.000006  -0.000001   0.000000
    26  H   -0.000043   0.573965  -0.023807  -0.023801   0.000000   0.000000
    27  H    0.000583  -0.023807   0.576414  -0.022925   0.000229   0.000000
    28  H    0.000006  -0.023801  -0.022925   0.584841  -0.000019   0.000000
    29  H   -0.000001   0.000000   0.000229  -0.000019   0.573120  -0.028920
    30  H    0.000000   0.000000   0.000000   0.000000  -0.028920   0.599272
    31  H    0.000000   0.000000  -0.000001  -0.000002  -0.029764  -0.031613
    32  H    0.000000   0.000000   0.000000   0.000000  -0.000035   0.000512
    33  H    0.000000   0.000000   0.000000   0.000000   0.000002   0.002111
    34  H    0.000000   0.000000   0.000000   0.000000   0.000000   0.000000
    35  H    0.000000   0.000000   0.000000   0.000000   0.000000   0.000013
    36  H    0.000000   0.000000   0.000000   0.000000   0.000000   0.000005
    37  C   -0.000003   0.000046  -0.000124  -0.000010  -0.001276   0.000108
    38  C    0.000000  -0.000001  -0.000003  -0.000040   0.000155   0.000021
    39  C    0.000000   0.000000   0.000000  -0.000004  -0.000017   0.000007
    40  H   -0.000001   0.000026   0.000375   0.000888   0.001665  -0.000072
    41  H    0.000001   0.000046   0.000040   0.001418  -0.000050  -0.000002
    42  H    0.000000   0.000000   0.000000   0.000001   0.000000   0.000001
    43  H    0.000000   0.000000   0.000000   0.000000   0.000000   0.000000
    44  H    0.000000   0.000000   0.000000   0.000000  -0.000001   0.000005
              31         32         33         34         35         36
     1  C   -0.006819  -0.033019  -0.029926  -0.007658  -0.004922   0.004005
     2  C   -0.034205  -0.006612  -0.004570   0.000139   0.000099  -0.000094
     3  C   -0.006967  -0.000074  -0.000003  -0.000005   0.000001   0.000002
     4  C    0.000038   0.000007   0.000026   0.000038   0.000001   0.000000
     5  C   -0.000007   0.000076  -0.000038   0.000226  -0.000027  -0.000002
     6  H    0.005789   0.006046  -0.000662   0.000042   0.005667  -0.000056
     7  H    0.005468   0.007001   0.000151   0.000006   0.000015  -0.000006
     8  H    0.000001   0.000004  -0.000001  -0.000001   0.000000   0.000000
     9  H    0.000005   0.000001   0.000000   0.000000   0.000000   0.000000
    10  O    0.000016  -0.000568   0.002922   0.008198  -0.000371   0.000145
    11  O    0.000000  -0.000004   0.000001   0.000019   0.000000   0.000000
    12  C   -0.000611   0.375400   0.379076  -0.033192  -0.037387  -0.028264
    13  C   -0.000032  -0.041505  -0.036859   0.388944   0.385725   0.380125
    14  C    0.381770  -0.000274   0.001103  -0.000007  -0.000015  -0.000003
[...]
    14  C    0.000000   0.000000   0.000000   0.000000   0.000000   0.000000
    15  O   -0.026188   0.000520  -0.000584  -0.000447   0.000663  -0.000634
    16  Si   0.379916  -0.014026  -0.025876  -0.024481  -0.015026  -0.022802
    17  C   -0.030563  -0.000371  -0.001188   0.001193  -0.000187   0.001197
    18  C   -0.027447   0.368993   0.376768   0.378307  -0.000441  -0.001361
    19  C    5.113975  -0.000640   0.001201  -0.001182   0.368213   0.376657
    20  H   -0.000640   0.569299  -0.023412  -0.023412   0.000062  -0.000029
    21  H    0.001201  -0.023412   0.573878  -0.023817  -0.000003   0.000004
    22  H   -0.001182  -0.023412  -0.023817   0.569365  -0.000051   0.000525
    23  H    0.368213   0.000062  -0.000003  -0.000051   0.576879  -0.024116
    24  H    0.376657  -0.000029   0.000004   0.000525  -0.024116   0.572138
    25  H    0.377067   0.000007  -0.000021   0.000001  -0.024265  -0.022622
    26  H   -0.000558   0.000088  -0.000021   0.000003   0.000017   0.000011
    27  H   -0.001110   0.000010   0.000001  -0.000021  -0.000033   0.000002
    28  H    0.001200  -0.000027   0.000410   0.000004   0.000003  -0.000021
    29  H   -0.000096   0.000000   0.000000   0.000000   0.000000  -0.000001
    30  H    0.000000   0.000000   0.000000   0.000000   0.000000   0.000000
    31  H    0.000000   0.000000   0.000000   0.000000   0.000000   0.000000
    32  H    0.000000   0.000000   0.000000   0.000000   0.000000   0.000000
    33  H    0.000000   0.000000   0.000000   0.000000   0.000000   0.000000
    34  H    0.000000   0.000000   0.000000   0.000000   0.000000   0.000000
    35  H    0.000000   0.000000   0.000000   0.000000   0.000000   0.000000
    36  H    0.000000   0.000000   0.000000   0.000000   0.000000   0.000000
    37  C   -0.000069   0.000037  -0.000827   0.000129   0.000002   0.000003
    38  C    0.000000   0.000000  -0.000018   0.000003   0.000000   0.000000
    39  C    0.000000   0.000000   0.000000   0.000000   0.000000   0.000000
    40  H   -0.000009  -0.000001  -0.000003  -0.000001   0.000000   0.000000
    41  H    0.000007  -0.000014   0.002161  -0.000072   0.000001   0.000000
    42  H    0.000000   0.000000   0.000002   0.000000   0.000000   0.000000
    43  H    0.000000   0.000000   0.000000   0.000000   0.000000   0.000000
    44  H    0.000000   0.000000   0.000000   0.000000   0.000000   0.000000
              25         26         27         28         29         30
     1  C    0.000000   0.000000   0.000000   0.000000   0.004020  -0.003461
     2  C    0.000010   0.000001   0.000008   0.000002  -0.030051  -0.027268
     3  C   -0.000038   0.000016  -0.000041  -0.000109  -0.007488   0.004034
     4  C    0.000006   0.000001   0.000002  -0.000014   0.000303  -0.000141
     5  C    0.000000   0.000000   0.000000   0.000000  -0.000022  -0.000009
     6  H    0.000000   0.000000   0.000000   0.000000  -0.000045  -0.000060
     7  H   -0.000005   0.000000   0.000000   0.000000  -0.001688  -0.006231
     8  H   -0.000004   0.000000   0.000000   0.000000   0.000003  -0.000003
     9  H    0.000000   0.000001   0.000000  -0.000003  -0.000007   0.000002
    10  O    0.000000   0.000000   0.000000   0.000000  -0.000047  -0.000012
    11  O    0.000000   0.000000   0.000000   0.000000   0.000000   0.000000
    12  C    0.000000   0.000000   0.000000   0.000000   0.000058   0.000566
    13  C    0.000000   0.000000   0.000000   0.000000   0.000002  -0.000122
    14  C    0.000000   0.000001  -0.000013  -0.000003   0.378999   0.379891
    15  O   -0.000725   0.000556  -0.000659  -0.000597   0.009510   0.000050
    16  Si  -0.022816  -0.013576  -0.025199  -0.024226   0.002384  -0.000085
    17  C   -0.001316   0.367977   0.379086   0.376842  -0.000042   0.000000
    18  C    0.001195  -0.000212   0.001194  -0.001327   0.000009   0.000000
    19  C    0.377067  -0.000558  -0.001110   0.001200  -0.000096   0.000000
    20  H    0.000007   0.000088   0.000010  -0.000027   0.000000   0.000000
    21  H   -0.000021  -0.000021   0.000001   0.000410   0.000000   0.000000
    22  H    0.000001   0.000003  -0.000021   0.000004   0.000000   0.000000
    23  H   -0.024265   0.000017  -0.000033   0.000003   0.000000   0.000000
    24  H   -0.022622   0.000011   0.000002  -0.000021  -0.000001   0.000000
    25  H    0.570965  -0.000023   0.000452   0.000004   0.000027   0.000000
    26  H   -0.000023   0.574735  -0.024289  -0.024130   0.000000   0.000000
    27  H    0.000452  -0.024289   0.573903  -0.023387   0.000319   0.000000
    28  H    0.000004  -0.024130  -0.023387   0.576591  -0.000016   0.000000
    29  H    0.000027   0.000000   0.000319  -0.000016   0.569475  -0.027194
    30  H    0.000000   0.000000   0.000000   0.000000  -0.027194   0.595594
    31  H    0.000000   0.000000  -0.000001  -0.000002  -0.029020  -0.031999
    32  H    0.000000   0.000000   0.000000   0.000000  -0.000025   0.000310
    33  H    0.000000   0.000000   0.000000   0.000000  -0.000023   0.002779
    34  H    0.000000   0.000000   0.000000   0.000000   0.000000   0.000000
    35  H    0.000000   0.000000   0.000000   0.000000   0.000000   0.000013
    36  H    0.000000   0.000000   0.000000   0.000000   0.000000   0.000004
    37  C   -0.000006   0.000039  -0.000112   0.000133  -0.001255   0.000141
    38  C    0.000000  -0.000001  -0.000002  -0.000031   0.000104   0.000012
    39  C    0.000000   0.000000   0.000000  -0.000001  -0.000014   0.000001
    40  H   -0.000001   0.000020   0.000309   0.000619   0.001597  -0.000102
    41  H    0.000002   0.000043   0.000053   0.000926  -0.000063  -0.000001
    42  H    0.000000   0.000000   0.000000   0.000001   0.000000   0.000001
    43  H    0.000000   0.000000   0.000000   0.000000   0.000000   0.000000
    44  H    0.000000   0.000000   0.000000   0.000001  -0.000004   0.000003
              31         32         33         34         35         36
     1  C   -0.007173  -0.033536  -0.034608  -0.008033  -0.004360   0.003824
     2  C   -0.033713  -0.007084  -0.004023   0.000171   0.000060  -0.000095
     3  C   -0.006786  -0.000122   0.000028  -0.000003   0.000000   0.000001
     4  C    0.000027   0.000012   0.000038   0.000042   0.000001   0.000001
     5  C   -0.000003   0.000270  -0.000045   0.000296  -0.000016  -0.000003
     6  H    0.006784   0.006092  -0.000346   0.000074   0.005115  -0.000026
     7  H    0.005278   0.007093   0.000115   0.000003   0.000013  -0.000006
     8  H    0.000002   0.000011  -0.000003  -0.000001   0.000000   0.000000
     9  H    0.000004   0.000002   0.000000   0.000000   0.000000   0.000000
    10  O    0.000029  -0.000474   0.003397   0.009224  -0.000253   0.000123
    11  O    0.000000  -0.000027   0.000001   0.000023   0.000000   0.000000
    12  C   -0.000379   0.374372   0.374959  -0.033771  -0.036146  -0.027291
    13  C   -0.000027  -0.038438  -0.035394   0.388530   0.385436   0.380348
    14  C    0.382604  -0.000049   0.000940  -0.000009  -0.000007  -0.000002
    15  O    0.000108  -0.000004   0.000000   0.000000   0.000000   0.000000
    16  Si  -0.000062  -0.000003   0.000000   0.000000   0.000000   0.000000
    17  C   -0.000002   0.000000   0.000000   0.000000   0.000000   0.000000
    18  C    0.000000   0.000000   0.000000   0.000000   0.000000   0.000000
    19  C    0.000000   0.000000   0.000000   0.000000   0.000000   0.000000
    20  H    0.000000   0.000000   0.000000   0.000000   0.000000   0.000000
    21  H    0.000000   0.000000   0.000000   0.000000   0.000000   0.000000
    22  H    0.000000   0.000000   0.000000   0.000000   0.000000   0.000000
    23  H    0.000000   0.000000   0.000000   0.000000   0.000000   0.000000
    24  H    0.000000   0.000000   0.000000   0.000000   0.000000   0.000000
    25  H    0.000000   0.000000   0.000000   0.000000   0.000000   0.000000
    26  H    0.000000   0.000000   0.000000   0.000000   0.000000   0.000000
    27  H   -0.000001   0.000000   0.000000   0.000000   0.000000   0.000000
    28  H   -0.000002   0.000000   0.000000   0.000000   0.000000   0.000000
    29  H   -0.029020  -0.000025  -0.000023   0.000000   0.000000   0.000000
    30  H   -0.031999   0.000310   0.002779   0.000000   0.000013   0.000004
    31  H    0.596877   0.000053   0.000447   0.000001  -0.000002   0.000000
    32  H    0.000053   0.618936  -0.032399  -0.003693   0.005174  -0.003216
    33  H    0.000447  -0.032399   0.617064   0.005011  -0.004301  -0.003461
    34  H    0.000001  -0.003693   0.005011   0.577746  -0.030634  -0.030173
    35  H   -0.000002   0.005174  -0.004301  -0.030634   0.605022  -0.031389
    36  H    0.000000  -0.003216  -0.003461  -0.030173  -0.031389   0.605631
    37  C    0.001765   0.000003  -0.000004   0.000000   0.000000   0.000000
    38  C    0.000367  -0.000009   0.000000  -0.000001  -0.000007   0.000000
    39  C    0.000996  -0.000002   0.000001   0.000000  -0.000005   0.000000
    40  H    0.001021   0.000000   0.000000   0.000000   0.000000   0.000000
    41  H    0.000049   0.000000   0.000000   0.000000   0.000000   0.000000
    42  H    0.000005   0.000001   0.000001   0.000001   0.000001   0.000000
    43  H   -0.000019   0.000000   0.000000   0.000000   0.000001   0.000000
    44  H    0.000892   0.000000   0.000000   0.000000   0.000000   0.000000
              37         38         39         40         41         42
     1  C   -0.001187  -0.005484  -0.003918   0.000308  -0.000056  -0.000309
     2  C   -0.056605   0.000909   0.001166  -0.010972   0.005727  -0.000026
     3  C    0.345661  -0.029950  -0.000265  -0.028848  -0.032827  -0.004680
     4  C   -0.061293  -0.005230   0.000044   0.005473  -0.008291   0.001717
     5  C   -0.000831   0.001436   0.000164  -0.000001  -0.000069   0.005914
     6  H    0.001359   0.007142   0.006722  -0.000076   0.000078   0.000462
     7  H    0.006217  -0.000136  -0.000014   0.000024  -0.000181   0.000003
     8  H    0.005365  -0.000007  -0.000005  -0.000160  -0.000046   0.000073
     9  H   -0.007022   0.000329   0.000010   0.000000   0.003703   0.000229
    10  O   -0.001296   0.002278  -0.000234  -0.000010  -0.000009  -0.002156
    11  O    0.000128  -0.001628   0.000006   0.000000  -0.000006   0.002765
    12  C   -0.000107   0.000253   0.000129  -0.000014   0.000003  -0.000018
    13  C    0.000002   0.000001  -0.000006   0.000000   0.000000  -0.000002
    14  C   -0.007785  -0.000887  -0.000397   0.003845  -0.000078  -0.000005
    15  O   -0.038419   0.003107  -0.000046  -0.000235  -0.004988  -0.000010
    16  Si   0.002703  -0.000718   0.000016   0.001202   0.010061   0.000009
    17  C   -0.000635   0.000069   0.000001  -0.000091  -0.002077  -0.000001
    18  C   -0.002112  -0.000003   0.000000   0.000071  -0.000382  -0.000001
    19  C   -0.000069   0.000000   0.000000  -0.000009   0.000007   0.000000
    20  H    0.000037   0.000000   0.000000  -0.000001  -0.000014   0.000000
    21  H   -0.000827  -0.000018   0.000000  -0.000003   0.002161   0.000002
    22  H    0.000129   0.000003   0.000000  -0.000001  -0.000072   0.000000
    23  H    0.000002   0.000000   0.000000   0.000000   0.000001   0.000000
    24  H    0.000003   0.000000   0.000000   0.000000   0.000000   0.000000
    25  H   -0.000006   0.000000   0.000000  -0.000001   0.000002   0.000000
    26  H    0.000039  -0.000001   0.000000   0.000020   0.000043   0.000000
    27  H   -0.000112  -0.000002   0.000000   0.000309   0.000053   0.000000
    28  H    0.000133  -0.000031  -0.000001   0.000619   0.000926   0.000001
    29  H   -0.001255   0.000104  -0.000014   0.001597  -0.000063   0.000000
    30  H    0.000141   0.000012   0.000001  -0.000102  -0.000001   0.000001
    31  H    0.001765   0.000367   0.000996   0.001021   0.000049   0.000005
    32  H    0.000003  -0.000009  -0.000002   0.000000   0.000000   0.000001
    33  H   -0.000004   0.000000   0.000001   0.000000   0.000000   0.000001
    34  H    0.000000  -0.000001   0.000000   0.000000   0.000000   0.000001
    35  H    0.000000  -0.000007  -0.000005   0.000000   0.000000   0.000001
    36  H    0.000000   0.000000   0.000000   0.000000   0.000000   0.000000
    37  C    5.041239   0.352329  -0.034559   0.379770   0.370931  -0.050472
    38  C    0.352329   4.827324   0.658866  -0.038766  -0.035236   0.375895
    39  C   -0.034559   0.658866   4.915041  -0.006961   0.000074  -0.040257
    40  H    0.379770  -0.038766  -0.006961   0.598657  -0.036051   0.004634
    41  H    0.370931  -0.035236   0.000074  -0.036051   0.605306  -0.002433
    42  H   -0.050472   0.375895  -0.040257   0.004634  -0.002433   0.602090
    43  H    0.004263  -0.023182   0.375910   0.000134  -0.000211  -0.008268
    44  H   -0.011708  -0.037732   0.384666   0.005783   0.000186   0.005649
              43         44
     1  C    0.000022  -0.000017
     2  C   -0.000032   0.000024
     3  C   -0.000057   0.000035
     4  C    0.000004   0.000006
     5  C   -0.000004   0.000003
     6  H   -0.000053   0.000136
     7  H    0.000000   0.000001
     8  H    0.000000   0.000000
     9  H    0.000000   0.000000
    10  O    0.000010  -0.000004
    11  O   -0.000001   0.000000
    12  C    0.000000  -0.000002
    13  C    0.000000   0.000000
    14  C    0.000013  -0.000152
    15  O    0.000000  -0.000003
    16  Si  -0.000001  -0.000017
    17  C    0.000000   0.000000
    18  C    0.000000   0.000000
    19  C    0.000000   0.000000
    20  H    0.000000   0.000000
    21  H    0.000000   0.000000
    22  H    0.000000   0.000000
    23  H    0.000000   0.000000
    24  H    0.000000   0.000000
    25  H    0.000000   0.000000
    26  H    0.000000   0.000000
    27  H    0.000000   0.000000
    28  H    0.000000   0.000001
    29  H    0.000000  -0.000004
    30  H    0.000000   0.000003
    31  H   -0.000019   0.000892
    32  H    0.000000   0.000000
    33  H    0.000000   0.000000
    34  H    0.000000   0.000000
    35  H    0.000001   0.000000
    36  H    0.000000   0.000000
    37  C    0.004263  -0.011708
    38  C   -0.023182  -0.037732
    39  C    0.375910   0.384666
    40  H    0.000134   0.005783
    41  H   -0.000211   0.000186
    42  H   -0.008268   0.005649
    43  H    0.580815  -0.042182
    44  H   -0.042182   0.588715
 Mulliken charges:
               1
     1  C    0.181765
     2  C   -0.085297
     3  C    0.298089
     4  C   -0.289693
     5  C    0.594476
     6  H    0.114602
     7  H    0.105640
     8  H    0.159281
     9  H    0.136761
    10  O   -0.489244
    11  O   -0.509210
    12  C   -0.186853
    13  C   -0.328518
    14  C   -0.343683
    15  O   -0.644026
    16  Si   0.905331
    17  C   -0.548151
    18  C   -0.558933
    19  C   -0.531282
    20  H    0.122836
    21  H    0.120255
    22  H    0.123200
    23  H    0.118293
    24  H    0.121089
    25  H    0.122106
    26  H    0.119301
    27  H    0.119528
    28  H    0.117158
    29  H    0.130292
    30  H    0.113287
    31  H    0.111881
    32  H    0.106750
    33  H    0.109827
    34  H    0.125198
    35  H    0.106286
    36  H    0.105730
    37  C   -0.235915
    38  C   -0.051395
    39  C   -0.257127
    40  H    0.118837
    41  H    0.123781
    42  H    0.109187
    43  H    0.112839
    44  H    0.105721
 Sum of Mulliken charges =   0.00000
 Mulliken charges with hydrogens summed into heavy atoms:
               1
     1  C    0.296367
     2  C    0.020342
     3  C    0.298089
     4  C    0.006349
     5  C    0.594476
    10  O   -0.489244
    11  O   -0.509210
    12  C    0.029724
    13  C    0.008696
    14  C    0.011777
    15  O   -0.644026
    16  Si   0.905331
    17  C   -0.192164
    18  C   -0.192642
    19  C   -0.169794
    37  C    0.006702
    38  C    0.057792
    39  C   -0.038567
 Electronic spatial extent (au):  <R**2>=           5707.9560
 Charge=              0.0000 electrons
 Dipole moment (field-independent basis, Debye):
    X=             -2.7831    Y=             -3.6583    Z=              2.2489  Tot=              5.1172
 Quadrupole moment (field-independent basis, Debye-Ang):
   XX=           -117.4633   YY=           -127.0670   ZZ=           -117.1798
   XY=            -12.5654   XZ=              5.6123   YZ=              5.4200
 Traceless Quadrupole moment (field-independent basis, Debye-Ang):
   XX=              3.1067   YY=             -6.4969   ZZ=              3.3903
   XY=            -12.5654   XZ=              5.6123   YZ=              5.4200
 Octapole moment (field-independent basis, Debye-Ang**2):
  XXX=            -28.6632  YYY=            -31.9263  ZZZ=             -6.1520  XYY=            -15.2233
  XXY=            -21.6599  XXZ=              8.6346  XZZ=              5.9608  YZZ=             -7.0382
  YYZ=             17.0453  XYZ=             18.9038
 Hexadecapole moment (field-independent basis, Debye-Ang**3):
 XXXX=          -4849.5970 YYYY=          -1481.0522 ZZZZ=          -1295.2154 XXXY=            -53.7821
 XXXZ=             19.3216 YYYX=            -47.6755 YYYZ=             45.5837 ZZZX=             23.7565
 ZZZY=            -15.1073 XXYY=          -1095.2951 XXZZ=          -1054.6982 YYZZ=           -485.0869
 XXYZ=             35.5742 YYXZ=             31.1965 ZZXY=             -8.7572
 N-N= 1.618980648115D+03 E-N=-5.728393521392D+03  KE= 1.055914113359D+03
 1\1\GINC-CPU-E-609\FOpt\RB3LYP\6-31G(d,p)\C14H26O3Si1\KE291\06-Feb-201
 9\0\\# b3lyp/6-31g(d,p) Opt=(maxcycles=25) scrf=(solvent=chloroform)\\
 P_ng_2ginp010\\0,1\C,-0.3128910974,-0.0448743573,1.1543508694\C,-0.849
 0083045,1.2461089844,0.5124074303\C,-1.929530621,1.9582718056,1.374023
 0883\C,-1.333529541,2.1642791755,2.7761744569\C,-0.6599051537,0.961892
 9581,3.4052587833\H,-1.0551929011,-0.8410277413,1.0345588278\H,-0.0218
 343581,1.9675724041,0.4706247776\H,-0.5583887623,2.9357690035,2.690094
 1197\H,-2.0719441966,2.5349128402,3.4903241625\O,-0.0944154971,0.04627
 2214,2.5982921396\O,-0.5501669614,0.8315835897,4.6079325673\C,1.025579
 5548,-0.5031275991,0.5693040431\C,1.519379011,-1.8388815177,1.13342618
 \C,-1.3187195147,0.9812329748,-0.9265008728\O,-2.0948295294,3.24099649
 55,0.7641412653\Si,-3.1866889498,4.5158282353,0.899254484\C,-4.7612575
 015,4.167123346,-0.081924093\C,-3.6236346458,4.908948043,2.6934233377\
 C,-2.273062321,5.9678948439,0.1279462075\H,-4.2754929562,5.7900554477,
 2.7246359872\H,-4.1582222988,4.0934398153,3.1915092001\H,-2.7309928031
 ,5.1384542092,3.2844514594\H,-2.9050036688,6.8629884288,0.1156359039\H
 ,-1.3628893441,6.2069786562,0.6876725262\H,-1.983833221,5.7491311889,-
 0.9052490301\H,-5.3928255407,5.0628871067,-0.1099524171\H,-4.527371976
 6,3.8952319,-1.1169387761\H,-5.3562733185,3.3572893403,0.3514034142\H,
 -1.8126232785,1.8705144942,-1.3232565408\H,-0.4771926636,0.7483317604,
 -1.5833019582\H,-2.0220565768,0.1435588446,-0.977159124\H,1.7683292864
 ,0.2837918365,0.7517523087\H,0.9137259046,-0.5862686412,-0.5166686756\
 H,1.6588518006,-1.7831878217,2.2157213996\H,0.8038812959,-2.6427234281
 ,0.9269919596\H,2.4751506953,-2.1185499945,0.6800344066\C,-3.309955393
 3,1.2440153889,1.4240869614\C,-3.3947884098,-0.0894899737,2.1197423115
 \C,-3.8770537029,-1.203640733,1.5653780633\H,-3.6925570525,1.155027616
 ,0.4030832435\H,-3.984926995,1.9315297959,1.9519850281\H,-3.0903629717
 ,-0.1177407094,3.1657056723\H,-3.9560886021,-2.129495192,2.1270906891\
 H,-4.2162869186,-1.227909034,0.5322582126\\Version=ES64L-G09RevD.01\St
 ate=1-A\HF=-1064.4230561\RMSD=5.226e-09\RMSF=5.421e-06\Dipole=-0.82871
 42,0.515198,-1.7609812\Quadrupole=3.3500959,5.5071766,-8.8572725,0.194
 4053,-5.8896876,6.6110374\PG=C01 [X(C14H26O3Si1)]\\@


 A COMPLEXITY IS MERELY A DISARRANGEMENT OF SIMPLICITIES.

                                    -- G. O. ABELL IN "EXPLORATION OF THE UNIVERSE"
 Job cpu time:       0 days  2 hours 19 minutes 46.1 seconds.
 File lengths (MBytes):  RWF=    368 Int=      0 D2E=      0 Chk=     17 Scr=      1
 Normal termination of Gaussian 09 at Wed Feb  6 11:20:51 2019.
