 Entering Gaussian System, Link 0=/usr/local/Cluster-Apps/gaussian/g09/g09
 Initial command:
 /usr/local/Cluster-Apps/gaussian/g09/l1.exe "/home/ke291/rds/hpc-work/06Feb0927IP1/Gau-382552.inp" -scrdir="/home/ke291/rds/hpc-work/06Feb0927IP1/"
 Entering Link 1 = /usr/local/Cluster-Apps/gaussian/g09/l1.exe PID=    382562.
  
 Copyright (c) 1988,1990,1992,1993,1995,1998,2003,2009,2013,
            Gaussian, Inc.  All Rights Reserved.
  
 This is part of the Gaussian(R) 09 program.  It is based on
 the Gaussian(R) 03 system (copyright 2003, Gaussian, Inc.),
 the Gaussian(R) 98 system (copyright 1998, Gaussian, Inc.),
 the Gaussian(R) 94 system (copyright 1995, Gaussian, Inc.),
 the Gaussian 92(TM) system (copyright 1992, Gaussian, Inc.),
 the Gaussian 90(TM) system (copyright 1990, Gaussian, Inc.),
 the Gaussian 88(TM) system (copyright 1988, Gaussian, Inc.),
 the Gaussian 86(TM) system (copyright 1986, Carnegie Mellon
 University), and the Gaussian 82(TM) system (copyright 1983,
 Carnegie Mellon University). Gaussian is a federally registered
 trademark of Gaussian, Inc.
  
 This software contains proprietary and confidential information,
 including trade secrets, belonging to Gaussian, Inc.
  
 This software is provided under written license and may be
 used, copied, transmitted, or stored only in accord with that
 written license.
  
 The following legend is applicable only to US Government
 contracts under FAR:
  
                    RESTRICTED RIGHTS LEGEND
  
 Use, reproduction and disclosure by the US Government is
 subject to restrictions as set forth in subparagraphs (a)
 and (c) of the Commercial Computer Software - Restricted
 Rights clause in FAR 52.227-19.
  
 Gaussian, Inc.
 340 Quinnipiac St., Bldg. 40, Wallingford CT 06492
  
  
 ---------------------------------------------------------------
 Warning -- This program may not be used in any manner that
 competes with the business of Gaussian, Inc. or will provide
 assistance to any competitor of Gaussian, Inc.  The licensee
 of this program is prohibited from giving any competitor of
 Gaussian, Inc. access to this program.  By using this program,
 the user acknowledges that Gaussian, Inc. is engaged in the
 business of creating and licensing software in the field of
 computational chemistry and represents and warrants to the
 licensee that it is not a competitor of Gaussian, Inc. and that
 it will not use this program in any manner prohibited above.
 ---------------------------------------------------------------
  

 Cite this work as:
 Gaussian 09, Revision D.01,
 M. J. Frisch, G. W. Trucks, H. B. Schlegel, G. E. Scuseria, 
 M. A. Robb, J. R. Cheeseman, G. Scalmani, V. Barone, B. Mennucci, 
 G. A. Petersson, H. Nakatsuji, M. Caricato, X. Li, H. P. Hratchian, 
 A. F. Izmaylov, J. Bloino, G. Zheng, J. L. Sonnenberg, M. Hada, 
 M. Ehara, K. Toyota, R. Fukuda, J. Hasegawa, M. Ishida, T. Nakajima, 
 Y. Honda, O. Kitao, H. Nakai, T. Vreven, J. A. Montgomery, Jr., 
 J. E. Peralta, F. Ogliaro, M. Bearpark, J. J. Heyd, E. Brothers, 
 K. N. Kudin, V. N. Staroverov, T. Keith, R. Kobayashi, J. Normand, 
 K. Raghavachari, A. Rendell, J. C. Burant, S. S. Iyengar, J. Tomasi, 
 M. Cossi, N. Rega, J. M. Millam, M. Klene, J. E. Knox, J. B. Cross, 
 V. Bakken, C. Adamo, J. Jaramillo, R. Gomperts, R. E. Stratmann, 
 O. Yazyev, A. J. Austin, R. Cammi, C. Pomelli, J. W. Ochterski, 
 R. L. Martin, K. Morokuma, V. G. Zakrzewski, G. A. Voth, 
 P. Salvador, J. J. Dannenberg, S. Dapprich, A. D. Daniels, 
 O. Farkas, J. B. Foresman, J. V. Ortiz, J. Cioslowski, 
 and D. J. Fox, Gaussian, Inc., Wallingford CT, 2013.
 
 ******************************************
 Gaussian 09:  ES64L-G09RevD.01 24-Apr-2013
                 6-Feb-2019 
 ******************************************
 %nprocshared=2
 Will use up to    2 processors via shared memory.
 %mem=6000MB
 %chk=/home/ke291/rds/hpc-work/06Feb0927IP1/P_ng_4ginp007.chk
 ---------------------------------------------------------------
 # b3lyp/6-31g(d,p) Opt=(maxcycles=25) scrf=(solvent=chloroform)
 ---------------------------------------------------------------
 1/6=25,14=-1,18=20,19=15,26=3,38=1/1,3;
 2/9=110,12=2,17=6,18=5,40=1/2;
 3/5=1,6=6,7=101,11=2,16=1,25=1,30=1,70=2201,71=1,72=7,74=-5/1,2,3;
 4//1;
 5/5=2,38=5,53=7/2;
 6/7=2,8=2,9=2,10=2,28=1/1;
 7//1,2,3,16;
 1/6=25,14=-1,18=20,19=15,26=3/3(2);
 2/9=110/2;
 99//99;
 2/9=110/2;
 3/5=1,6=6,7=101,11=2,16=1,25=1,30=1,70=2205,71=1,72=7,74=-5/1,2,3;
 4/5=5,16=3,69=1/1;
 5/5=2,38=5,53=7/2;
 7//1,2,3,16;
 1/6=25,14=-1,18=20,19=15,26=3/3(-5);
 2/9=110/2;
 6/7=2,8=2,9=2,10=2,19=2,28=1/1;
 99/9=1/99;
 -------------
 P_ng_4ginp007
 -------------
 Symbolic Z-matrix:
 Charge =  0 Multiplicity = 1
 C                     0.25105   1.881    -0.42941 
 C                    -0.07151   1.20208   0.90852 
 C                    -1.22809   1.98162   1.61604 
 C                    -0.74537   3.42479   1.81043 
 C                    -0.17865   4.06692   0.57347 
 H                    -0.61419   1.80425  -1.09748 
 H                    -0.39809   0.17202   0.71671 
 H                    -1.57489   4.0552    2.15173 
 H                     0.02784   3.48553   2.58425 
 O                     0.528     3.28678  -0.27126 
 O                    -0.25548   5.27921   0.39624 
 C                     1.43815   1.2466   -1.17261 
 C                     1.5816    1.78478  -2.592 
 C                     1.17916   1.06361   1.80383 
 O                    -1.44976   1.27113   2.85322 
 Si                   -2.18768   1.79948   4.25758 
 C                    -1.00705   2.84527   5.28684 
 C                    -3.76164   2.78076   3.99198 
 C                    -2.64338   0.28878   5.30212 
 H                    -4.20023   3.06096   4.95482 
 H                    -3.56997   3.701     3.43396 
 H                    -4.50362   2.19118   3.447 
 H                    -1.74917  -0.29773   5.53189 
 H                    -3.10765   0.5997    6.24242 
 H                    -3.34756  -0.34854   4.75949 
 H                    -0.82413   3.81308   4.81239 
 H                    -1.42807   3.02955   6.27975 
 H                    -0.04886   2.33194   5.40911 
 H                     1.89642   0.3654    1.35945 
 H                     1.69388   2.01851   1.94643 
 H                     0.93001   0.66008   2.78988 
 H                     1.31225   0.15889  -1.2185 
 H                     2.37528   1.45957  -0.64554 
 H                     2.42398   1.29942  -3.09508 
 H                     0.67851   1.58846  -3.17861 
 H                     1.76552   2.86364  -2.59279 
 C                    -2.55346   1.98283   0.77472 
 C                    -3.09552   0.62304   0.41026 
 C                    -4.28699   0.15626   0.80539 
 H                    -2.4184    2.54388  -0.15723 
 H                    -3.32681   2.53481   1.31947 
 H                    -2.48656  -0.00597  -0.2346 
 H                    -4.62512  -0.82996   0.50128 
 H                    -4.95102   0.73626   1.43802 
 

 GradGradGradGradGradGradGradGradGradGradGradGradGradGradGradGradGradGrad
 Berny optimization.
 Initialization pass.
                           ----------------------------
                           !    Initial Parameters    !
                           ! (Angstroms and Degrees)  !
 --------------------------                            --------------------------
 ! Name  Definition              Value          Derivative Info.                !
 --------------------------------------------------------------------------------
 ! R1    R(1,2)                  1.5346         estimate D2E/DX2                !
 ! R2    R(1,6)                  1.0958         estimate D2E/DX2                !
 ! R3    R(1,10)                 1.4415         estimate D2E/DX2                !
 ! R4    R(1,12)                 1.5375         estimate D2E/DX2                !
 ! R5    R(2,3)                  1.5639         estimate D2E/DX2                !
 ! R6    R(2,7)                  1.0975         estimate D2E/DX2                !
 ! R7    R(2,14)                 1.5443         estimate D2E/DX2                !
 ! R8    R(3,4)                  1.5341         estimate D2E/DX2                !
 ! R9    R(3,15)                 1.4438         estimate D2E/DX2                !
 ! R10   R(3,37)                 1.5699         estimate D2E/DX2                !
 ! R11   R(4,5)                  1.5045         estimate D2E/DX2                !
 ! R12   R(4,8)                  1.0964         estimate D2E/DX2                !
 ! R13   R(4,9)                  1.0956         estimate D2E/DX2                !
 ! R14   R(5,10)                 1.3496         estimate D2E/DX2                !
 ! R15   R(5,11)                 1.2276         estimate D2E/DX2                !
 ! R16   R(12,13)                1.5248         estimate D2E/DX2                !
 ! R17   R(12,32)                1.0959         estimate D2E/DX2                !
 ! R18   R(12,33)                1.0961         estimate D2E/DX2                !
 ! R19   R(13,34)                1.0947         estimate D2E/DX2                !
 ! R20   R(13,35)                1.0946         estimate D2E/DX2                !
 ! R21   R(13,36)                1.0944         estimate D2E/DX2                !
 ! R22   R(14,29)                1.0952         estimate D2E/DX2                !
 ! R23   R(14,30)                1.0941         estimate D2E/DX2                !
 ! R24   R(14,31)                1.0942         estimate D2E/DX2                !
 ! R25   R(15,16)                1.6721         estimate D2E/DX2                !
 ! R26   R(16,17)                1.8833         estimate D2E/DX2                !
 ! R27   R(16,18)                1.8737         estimate D2E/DX2                !
 ! R28   R(16,19)                1.8923         estimate D2E/DX2                !
 ! R29   R(17,26)                1.0933         estimate D2E/DX2                !
 ! R30   R(17,27)                1.0941         estimate D2E/DX2                !
 ! R31   R(17,28)                1.0939         estimate D2E/DX2                !
 ! R32   R(18,20)                1.0945         estimate D2E/DX2                !
 ! R33   R(18,21)                1.0931         estimate D2E/DX2                !
 ! R34   R(18,22)                1.0932         estimate D2E/DX2                !
 ! R35   R(19,23)                1.0938         estimate D2E/DX2                !
 ! R36   R(19,24)                1.0938         estimate D2E/DX2                !
 ! R37   R(19,25)                1.0938         estimate D2E/DX2                !
 ! R38   R(37,38)                1.5085         estimate D2E/DX2                !
 ! R39   R(37,40)                1.0961         estimate D2E/DX2                !
 ! R40   R(37,41)                1.0952         estimate D2E/DX2                !
 ! R41   R(38,39)                1.3393         estimate D2E/DX2                !
 ! R42   R(38,42)                1.0874         estimate D2E/DX2                !
 ! R43   R(39,43)                1.086          estimate D2E/DX2                !
 ! R44   R(39,44)                1.0852         estimate D2E/DX2                !
 ! A1    A(2,1,6)              109.5465         estimate D2E/DX2                !
 ! A2    A(2,1,10)             112.0971         estimate D2E/DX2                !
 ! A3    A(2,1,12)             113.6512         estimate D2E/DX2                !
 ! A4    A(6,1,10)             106.6712         estimate D2E/DX2                !
 ! A5    A(6,1,12)             106.6202         estimate D2E/DX2                !
 ! A6    A(10,1,12)            107.8829         estimate D2E/DX2                !
 ! A7    A(1,2,3)              109.2287         estimate D2E/DX2                !
 ! A8    A(1,2,7)              108.9899         estimate D2E/DX2                !
 ! A9    A(1,2,14)             112.0174         estimate D2E/DX2                !
 ! A10   A(3,2,7)              109.0764         estimate D2E/DX2                !
 ! A11   A(3,2,14)             112.4158         estimate D2E/DX2                !
 ! A12   A(7,2,14)             104.9604         estimate D2E/DX2                !
 ! A13   A(2,3,4)              107.069          estimate D2E/DX2                !
 ! A14   A(2,3,15)             104.8274         estimate D2E/DX2                !
 ! A15   A(2,3,37)             112.4757         estimate D2E/DX2                !
 ! A16   A(4,3,15)             113.7442         estimate D2E/DX2                !
 ! A17   A(4,3,37)             109.4414         estimate D2E/DX2                !
 ! A18   A(15,3,37)            109.2675         estimate D2E/DX2                !
 ! A19   A(3,4,5)              114.572          estimate D2E/DX2                !
 ! A20   A(3,4,8)              110.0159         estimate D2E/DX2                !
 ! A21   A(3,4,9)              111.3286         estimate D2E/DX2                !
 ! A22   A(5,4,8)              107.1894         estimate D2E/DX2                !
 ! A23   A(5,4,9)              106.9297         estimate D2E/DX2                !
 ! A24   A(8,4,9)              106.3929         estimate D2E/DX2                !
 ! A25   A(4,5,10)             117.7169         estimate D2E/DX2                !
 ! A26   A(4,5,11)             121.1048         estimate D2E/DX2                !
 ! A27   A(10,5,11)            120.8798         estimate D2E/DX2                !
 ! A28   A(1,10,5)             122.1256         estimate D2E/DX2                !
 ! A29   A(1,12,13)            112.1465         estimate D2E/DX2                !
 ! A30   A(1,12,32)            109.9412         estimate D2E/DX2                !
 ! A31   A(1,12,33)            110.3352         estimate D2E/DX2                !
 ! A32   A(13,12,32)           108.7922         estimate D2E/DX2                !
 ! A33   A(13,12,33)           107.3747         estimate D2E/DX2                !
 ! A34   A(32,12,33)           108.1318         estimate D2E/DX2                !
 ! A35   A(12,13,34)           110.1034         estimate D2E/DX2                !
 ! A36   A(12,13,35)           110.9741         estimate D2E/DX2                !
 ! A37   A(12,13,36)           111.3717         estimate D2E/DX2                !
 ! A38   A(34,13,35)           108.004          estimate D2E/DX2                !
 ! A39   A(34,13,36)           107.9044         estimate D2E/DX2                !
 ! A40   A(35,13,36)           108.3642         estimate D2E/DX2                !
 ! A41   A(2,14,29)            110.6292         estimate D2E/DX2                !
 ! A42   A(2,14,30)            112.2278         estimate D2E/DX2                !
 ! A43   A(2,14,31)            111.7847         estimate D2E/DX2                !
 ! A44   A(29,14,30)           107.5286         estimate D2E/DX2                !
 ! A45   A(29,14,31)           106.2408         estimate D2E/DX2                !
 ! A46   A(30,14,31)           108.1519         estimate D2E/DX2                !
 ! A47   A(3,15,16)            129.1939         estimate D2E/DX2                !
 ! A48   A(15,16,17)           110.9658         estimate D2E/DX2                !
 ! A49   A(15,16,18)           114.6541         estimate D2E/DX2                !
 ! A50   A(15,16,19)           108.5186         estimate D2E/DX2                !
 ! A51   A(17,16,18)           108.2558         estimate D2E/DX2                !
 ! A52   A(17,16,19)           107.0138         estimate D2E/DX2                !
 ! A53   A(18,16,19)           107.1003         estimate D2E/DX2                !
 ! A54   A(16,17,26)           111.0563         estimate D2E/DX2                !
 ! A55   A(16,17,27)           110.3804         estimate D2E/DX2                !
 ! A56   A(16,17,28)           110.4643         estimate D2E/DX2                !
 ! A57   A(26,17,27)           108.0065         estimate D2E/DX2                !
 ! A58   A(26,17,28)           108.5041         estimate D2E/DX2                !
 ! A59   A(27,17,28)           108.3408         estimate D2E/DX2                !
 ! A60   A(16,18,20)           110.2423         estimate D2E/DX2                !
 ! A61   A(16,18,21)           111.4659         estimate D2E/DX2                !
 ! A62   A(16,18,22)           110.9996         estimate D2E/DX2                !
 ! A63   A(20,18,21)           107.6863         estimate D2E/DX2                !
 ! A64   A(20,18,22)           107.7364         estimate D2E/DX2                !
 ! A65   A(21,18,22)           108.5735         estimate D2E/DX2                !
 ! A66   A(16,19,23)           110.3136         estimate D2E/DX2                !
 ! A67   A(16,19,24)           110.4758         estimate D2E/DX2                !
 ! A68   A(16,19,25)           110.2637         estimate D2E/DX2                !
 ! A69   A(23,19,24)           108.5927         estimate D2E/DX2                !
 ! A70   A(23,19,25)           108.5473         estimate D2E/DX2                !
 ! A71   A(24,19,25)           108.5916         estimate D2E/DX2                !
 ! A72   A(3,37,38)            115.6046         estimate D2E/DX2                !
 ! A73   A(3,37,40)            110.6102         estimate D2E/DX2                !
 ! A74   A(3,37,41)            109.2672         estimate D2E/DX2                !
 ! A75   A(38,37,40)           107.4717         estimate D2E/DX2                !
 ! A76   A(38,37,41)           108.7073         estimate D2E/DX2                !
 ! A77   A(40,37,41)           104.5912         estimate D2E/DX2                !
 ! A78   A(37,38,39)           124.2336         estimate D2E/DX2                !
 ! A79   A(37,38,42)           117.6118         estimate D2E/DX2                !
 ! A80   A(39,38,42)           118.1377         estimate D2E/DX2                !
 ! A81   A(38,39,43)           120.7222         estimate D2E/DX2                !
 ! A82   A(38,39,44)           122.013          estimate D2E/DX2                !
 ! A83   A(43,39,44)           117.2647         estimate D2E/DX2                !
 ! D1    D(6,1,2,3)            -64.4774         estimate D2E/DX2                !
 ! D2    D(6,1,2,7)             54.6067         estimate D2E/DX2                !
 ! D3    D(6,1,2,14)           170.3058         estimate D2E/DX2                !
 ! D4    D(10,1,2,3)            53.7322         estimate D2E/DX2                !
 ! D5    D(10,1,2,7)           172.8163         estimate D2E/DX2                !
 ! D6    D(10,1,2,14)          -71.4846         estimate D2E/DX2                !
 ! D7    D(12,1,2,3)           176.3896         estimate D2E/DX2                !
 ! D8    D(12,1,2,7)           -64.5263         estimate D2E/DX2                !
 ! D9    D(12,1,2,14)           51.1728         estimate D2E/DX2                !
 ! D10   D(2,1,10,5)           -40.1194         estimate D2E/DX2                !
 ! D11   D(6,1,10,5)            79.7828         estimate D2E/DX2                !
 ! D12   D(12,1,10,5)         -165.9897         estimate D2E/DX2                !
 ! D13   D(2,1,12,13)          170.2955         estimate D2E/DX2                !
 ! D14   D(2,1,12,32)           49.1213         estimate D2E/DX2                !
 ! D15   D(2,1,12,33)          -70.0562         estimate D2E/DX2                !
 ! D16   D(6,1,12,13)           49.5047         estimate D2E/DX2                !
 ! D17   D(6,1,12,32)          -71.6695         estimate D2E/DX2                !
 ! D18   D(6,1,12,33)          169.153          estimate D2E/DX2                !
 ! D19   D(10,1,12,13)         -64.7566         estimate D2E/DX2                !
 ! D20   D(10,1,12,32)         174.0692         estimate D2E/DX2                !
 ! D21   D(10,1,12,33)          54.8917         estimate D2E/DX2                !
 ! D22   D(1,2,3,4)            -58.7315         estimate D2E/DX2                !
 ! D23   D(1,2,3,15)          -179.8626         estimate D2E/DX2                !
 ! D24   D(1,2,3,37)            61.5222         estimate D2E/DX2                !
 ! D25   D(7,2,3,4)           -177.7619         estimate D2E/DX2                !
 ! D26   D(7,2,3,15)            61.107          estimate D2E/DX2                !
 ! D27   D(7,2,3,37)           -57.5082         estimate D2E/DX2                !
 ! D28   D(14,2,3,4)            66.2538         estimate D2E/DX2                !
 ! D29   D(14,2,3,15)          -54.8773         estimate D2E/DX2                !
 ! D30   D(14,2,3,37)         -173.4925         estimate D2E/DX2                !
 ! D31   D(1,2,14,29)          -66.8246         estimate D2E/DX2                !
 ! D32   D(1,2,14,30)           53.2743         estimate D2E/DX2                !
 ! D33   D(1,2,14,31)          174.9934         estimate D2E/DX2                !
 ! D34   D(3,2,14,29)          169.7338         estimate D2E/DX2                !
 ! D35   D(3,2,14,30)          -70.1673         estimate D2E/DX2                !
 ! D36   D(3,2,14,31)           51.5518         estimate D2E/DX2                !
 ! D37   D(7,2,14,29)           51.2985         estimate D2E/DX2                !
 ! D38   D(7,2,14,30)          171.3973         estimate D2E/DX2                !
 ! D39   D(7,2,14,31)          -66.8836         estimate D2E/DX2                !
 ! D40   D(2,3,4,5)             49.9143         estimate D2E/DX2                !
 ! D41   D(2,3,4,8)            170.7394         estimate D2E/DX2                !
 ! D42   D(2,3,4,9)            -71.5705         estimate D2E/DX2                !
 ! D43   D(15,3,4,5)           165.2247         estimate D2E/DX2                !
 ! D44   D(15,3,4,8)           -73.9503         estimate D2E/DX2                !
 ! D45   D(15,3,4,9)            43.7398         estimate D2E/DX2                !
 ! D46   D(37,3,4,5)           -72.2578         estimate D2E/DX2                !
 ! D47   D(37,3,4,8)            48.5673         estimate D2E/DX2                !
 ! D48   D(37,3,4,9)           166.2574         estimate D2E/DX2                !
 ! D49   D(2,3,15,16)          159.5735         estimate D2E/DX2                !
 ! D50   D(4,3,15,16)           42.9478         estimate D2E/DX2                !
 ! D51   D(37,3,15,16)         -79.6654         estimate D2E/DX2                !
 ! D52   D(2,3,37,38)           56.6531         estimate D2E/DX2                !
 ! D53   D(2,3,37,40)          -65.7531         estimate D2E/DX2                !
 ! D54   D(2,3,37,41)          179.6283         estimate D2E/DX2                !
 ! D55   D(4,3,37,38)          175.5271         estimate D2E/DX2                !
 ! D56   D(4,3,37,40)           53.1209         estimate D2E/DX2                !
 ! D57   D(4,3,37,41)          -61.4977         estimate D2E/DX2                !
 ! D58   D(15,3,37,38)         -59.3229         estimate D2E/DX2                !
 ! D59   D(15,3,37,40)         178.2709         estimate D2E/DX2                !
 ! D60   D(15,3,37,41)          63.6523         estimate D2E/DX2                !
 ! D61   D(3,4,5,10)           -35.9516         estimate D2E/DX2                !
 ! D62   D(3,4,5,11)           150.2692         estimate D2E/DX2                !
 ! D63   D(8,4,5,10)          -158.3234         estimate D2E/DX2                !
 ! D64   D(8,4,5,11)            27.8974         estimate D2E/DX2                !
 ! D65   D(9,4,5,10)            87.913          estimate D2E/DX2                !
 ! D66   D(9,4,5,11)           -85.8662         estimate D2E/DX2                !
 ! D67   D(4,5,10,1)            30.5369         estimate D2E/DX2                !
 ! D68   D(11,5,10,1)         -155.6692         estimate D2E/DX2                !
 ! D69   D(1,12,13,34)        -179.0301         estimate D2E/DX2                !
 ! D70   D(1,12,13,35)         -59.5053         estimate D2E/DX2                !
 ! D71   D(1,12,13,36)          61.3146         estimate D2E/DX2                !
 ! D72   D(32,12,13,34)        -57.1969         estimate D2E/DX2                !
 ! D73   D(32,12,13,35)         62.3279         estimate D2E/DX2                !
 ! D74   D(32,12,13,36)       -176.8522         estimate D2E/DX2                !
 ! D75   D(33,12,13,34)         59.6054         estimate D2E/DX2                !
 ! D76   D(33,12,13,35)        179.1302         estimate D2E/DX2                !
 ! D77   D(33,12,13,36)        -60.0499         estimate D2E/DX2                !
 ! D78   D(3,15,16,17)         -79.8668         estimate D2E/DX2                !
 ! D79   D(3,15,16,18)          43.1571         estimate D2E/DX2                !
 ! D80   D(3,15,16,19)         162.8231         estimate D2E/DX2                !
 ! D81   D(15,16,17,26)         70.7604         estimate D2E/DX2                !
 ! D82   D(15,16,17,27)       -169.4782         estimate D2E/DX2                !
 ! D83   D(15,16,17,28)        -49.6811         estimate D2E/DX2                !
 ! D84   D(18,16,17,26)        -55.8797         estimate D2E/DX2                !
 ! D85   D(18,16,17,27)         63.8817         estimate D2E/DX2                !
 ! D86   D(18,16,17,28)       -176.3212         estimate D2E/DX2                !
 ! D87   D(19,16,17,26)       -171.0137         estimate D2E/DX2                !
 ! D88   D(19,16,17,27)        -51.2523         estimate D2E/DX2                !
 ! D89   D(19,16,17,28)         68.5448         estimate D2E/DX2                !
 ! D90   D(15,16,18,20)        178.1346         estimate D2E/DX2                !
 ! D91   D(15,16,18,21)        -62.331          estimate D2E/DX2                !
 ! D92   D(15,16,18,22)         58.8372         estimate D2E/DX2                !
 ! D93   D(17,16,18,20)        -57.3961         estimate D2E/DX2                !
 ! D94   D(17,16,18,21)         62.1383         estimate D2E/DX2                !
 ! D95   D(17,16,18,22)       -176.6935         estimate D2E/DX2                !
 ! D96   D(19,16,18,20)         57.6812         estimate D2E/DX2                !
 ! D97   D(19,16,18,21)        177.2157         estimate D2E/DX2                !
 ! D98   D(19,16,18,22)        -61.6162         estimate D2E/DX2                !
 ! D99   D(15,16,19,23)         58.5442         estimate D2E/DX2                !
 ! D100  D(15,16,19,24)        178.6196         estimate D2E/DX2                !
 ! D101  D(15,16,19,25)        -61.3386         estimate D2E/DX2                !
 ! D102  D(17,16,19,23)        -61.2651         estimate D2E/DX2                !
 ! D103  D(17,16,19,24)         58.8103         estimate D2E/DX2                !
 ! D104  D(17,16,19,25)        178.8521         estimate D2E/DX2                !
 ! D105  D(18,16,19,23)       -177.1705         estimate D2E/DX2                !
 ! D106  D(18,16,19,24)        -57.0951         estimate D2E/DX2                !
 ! D107  D(18,16,19,25)         62.9466         estimate D2E/DX2                !
 ! D108  D(3,37,38,39)         117.9634         estimate D2E/DX2                !
 ! D109  D(3,37,38,42)         -63.5654         estimate D2E/DX2                !
 ! D110  D(40,37,38,39)       -117.9769         estimate D2E/DX2                !
 ! D111  D(40,37,38,42)         60.4943         estimate D2E/DX2                !
 ! D112  D(41,37,38,39)         -5.307          estimate D2E/DX2                !
 ! D113  D(41,37,38,42)        173.1642         estimate D2E/DX2                !
 ! D114  D(37,38,39,43)        179.4321         estimate D2E/DX2                !
 ! D115  D(37,38,39,44)         -0.7101         estimate D2E/DX2                !
 ! D116  D(42,38,39,43)          0.9684         estimate D2E/DX2                !
 ! D117  D(42,38,39,44)       -179.1739         estimate D2E/DX2                !
 --------------------------------------------------------------------------------
 Trust Radius=3.00D-01 FncErr=1.00D-07 GrdErr=1.00D-06
 Number of steps in this run=     25 maximum allowed number of steps=    264.
 GradGradGradGradGradGradGradGradGradGradGradGradGradGradGradGradGradGrad

                          Input orientation:                          
 ---------------------------------------------------------------------
 Center     Atomic      Atomic             Coordinates (Angstroms)
 Number     Number       Type             X           Y           Z
 ---------------------------------------------------------------------
      1          6           0        0.251050    1.880995   -0.429405
      2          6           0       -0.071511    1.202081    0.908518
      3          6           0       -1.228086    1.981624    1.616035
      4          6           0       -0.745365    3.424789    1.810432
      5          6           0       -0.178650    4.066917    0.573469
      6          1           0       -0.614188    1.804251   -1.097482
      7          1           0       -0.398089    0.172023    0.716711
      8          1           0       -1.574886    4.055195    2.151732
      9          1           0        0.027842    3.485528    2.584250
     10          8           0        0.528003    3.286779   -0.271261
     11          8           0       -0.255477    5.279208    0.396243
     12          6           0        1.438146    1.246601   -1.172605
     13          6           0        1.581595    1.784776   -2.592003
     14          6           0        1.179157    1.063606    1.803830
     15          8           0       -1.449760    1.271127    2.853218
     16         14           0       -2.187679    1.799484    4.257585
     17          6           0       -1.007047    2.845274    5.286838
     18          6           0       -3.761640    2.780757    3.991982
     19          6           0       -2.643377    0.288782    5.302117
     20          1           0       -4.200231    3.060963    4.954821
     21          1           0       -3.569974    3.701002    3.433960
     22          1           0       -4.503621    2.191181    3.446995
     23          1           0       -1.749168   -0.297729    5.531893
     24          1           0       -3.107655    0.599695    6.242418
     25          1           0       -3.347560   -0.348537    4.759487
     26          1           0       -0.824129    3.813081    4.812390
     27          1           0       -1.428066    3.029545    6.279751
     28          1           0       -0.048860    2.331944    5.409105
     29          1           0        1.896423    0.365397    1.359447
     30          1           0        1.693881    2.018512    1.946434
     31          1           0        0.930008    0.660075    2.789883
     32          1           0        1.312247    0.158892   -1.218495
     33          1           0        2.375277    1.459574   -0.645541
     34          1           0        2.423981    1.299416   -3.095076
     35          1           0        0.678506    1.588457   -3.178612
     36          1           0        1.765517    2.863638   -2.592791
     37          6           0       -2.553460    1.982827    0.774719
     38          6           0       -3.095523    0.623042    0.410259
     39          6           0       -4.286993    0.156259    0.805389
     40          1           0       -2.418401    2.543877   -0.157227
     41          1           0       -3.326808    2.534806    1.319468
     42          1           0       -2.486558   -0.005970   -0.234600
     43          1           0       -4.625116   -0.829962    0.501278
     44          1           0       -4.951023    0.736256    1.438019
 ---------------------------------------------------------------------
                    Distance matrix (angstroms):
                    1          2          3          4          5
     1  C    0.000000
     2  C    1.534603   0.000000
     3  C    2.526221   1.563948   0.000000
     4  C    2.897070   2.491578   1.534124   0.000000
     5  C    2.443083   2.886351   2.556698   1.504517   0.000000
     6  H    1.095835   2.163595   2.787742   3.331563   2.846301
     7  H    2.157672   1.097480   2.184567   3.449248   3.903700
     8  H    3.837116   3.456295   2.169548   1.096359   2.107256
     9  H    3.421471   2.834092   2.185526   1.095597   2.103305
    10  O    1.441507   2.469263   2.889492   2.444168   1.349645
    11  O    3.533570   4.113300   3.648002   2.383021   1.227583
    12  C    1.537530   2.571404   3.927539   4.290773   3.690120
    13  C    2.540952   3.914836   5.063659   5.242692   4.280986
    14  C    2.552811   1.544322   2.583185   3.046147   3.518139
    15  O    3.747040   2.384575   1.443803   2.494361   3.824842
    16  Si   5.284119   4.006408   2.816342   3.272681   4.769713
    17  C    5.931954   4.769172   3.777505   3.534079   4.939079
    18  C    6.038205   5.061326   3.564075   3.777811   5.116469
    19  C    6.615376   5.172265   4.296040   5.062495   6.535235
    20  H    7.084922   6.072424   4.598490   4.685686   6.031692
    21  H    5.730466   4.986152   3.427178   3.269641   4.451672
    22  H    6.142442   5.202479   3.758385   4.280726   5.520952
    23  H    6.654681   5.141941   4.560803   5.358548   6.789892
    24  H    7.578644   6.166971   5.181306   5.762297   7.262071
    25  H    6.696671   5.288372   4.450069   5.450352   6.860100
    26  H    5.689058   4.756466   3.705955   3.027990   4.295291
    27  H    7.010804   5.833525   4.784180   4.538404   5.932861
    28  H    5.863574   4.640300   3.987565   3.824902   5.139100
    29  H    2.864312   2.185438   3.527121   4.067224   4.315662
    30  H    2.783035   2.204640   2.940819   2.818871   3.096348
    31  H    3.509337   2.199169   2.789584   3.377846   4.212860
    32  H    2.171276   2.743577   4.220214   4.906552   4.550447
    33  H    2.176385   2.910013   4.286197   4.430833   3.847956
    34  H    3.487931   4.718657   5.999797   6.214980   5.281190
    35  H    2.797577   4.173301   5.174777   5.503643   4.577728
    36  H    2.817701   4.288894   5.239640   5.099783   3.905492
    37  C    3.053778   2.605290   1.569850   2.534001   3.166016
    38  C    3.672469   3.119006   2.605180   3.915803   4.516089
    39  C    5.009318   4.344499   3.653220   4.923061   5.676752
    40  H    2.763958   2.905877   2.208492   2.728871   2.805361
    41  H    4.035727   3.541468   2.190570   2.774340   3.579773
    42  H    3.330628   2.932330   2.993181   4.357065   4.750560
    43  H    5.656187   5.003035   4.548353   5.905020   6.614809
    44  H    5.644401   4.930213   3.929744   5.005443   5.883561
                    6          7          8          9         10
     6  H    0.000000
     7  H    2.449931   0.000000
     8  H    4.067810   4.303854   0.000000
     9  H    4.098054   3.827327   1.755087   0.000000
    10  O    2.045759   3.396386   3.299015   2.905788   0.000000
    11  O    3.799370   5.119216   2.514118   2.843402   2.242582
    12  C    2.128072   2.845346   5.293182   4.595183   2.408964
    13  C    2.656207   4.179439   6.133612   5.665713   2.958363
    14  C    3.490308   2.112925   4.081102   2.792900   3.110065
    15  O    4.073135   2.622728   2.873808   2.675672   4.211504
    16  Si   5.581455   4.288246   3.146167   3.248281   5.486112
    17  C    6.480556   5.329462   3.408114   2.963934   5.783059
    18  C    6.063222   5.370882   3.129314   4.103485   6.068965
    19  C    6.882523   5.106946   5.025183   4.974072   7.078713
    20  H    7.146286   6.384656   3.967145   4.865847   7.051179
    21  H    5.733088   5.467905   2.397903   3.703068   5.540186
    22  H    5.994137   5.327930   3.705367   4.791015   6.351614
    23  H    7.046638   5.023152   5.513965   5.114626   7.191022
    24  H    7.844901   6.169124   5.569881   5.616188   7.928836
    25  H    6.812482   5.031342   5.416236   5.552031   7.317372
    26  H    6.245483   5.496672   2.775132   2.407852   5.286659
    27  H    7.522454   6.338273   4.256061   3.998039   6.841647
    28  H    6.552384   5.177430   3.988587   3.052285   5.788872
    29  H    3.796046   2.390667   5.127603   3.837571   3.614727
    30  H    3.826031   3.049275   3.856820   2.309682   2.808192
    31  H    4.336506   2.509996   4.267150   2.973108   4.053614
    32  H    2.536336   2.582720   5.905518   5.213163   3.360947
    33  H    3.043017   3.347399   5.492338   4.477331   2.625107
    34  H    3.670928   4.874917   7.149423   6.540284   3.939324
    35  H    2.459416   4.282392   6.290877   6.101870   3.370406
    36  H    3.003539   4.783177   5.923563   5.496182   2.664581
    37  C    2.701444   2.815670   2.673664   3.492225   3.505678
    38  C    3.134575   2.751996   4.138205   4.761877   4.548616
    39  C    4.452672   3.889947   4.936584   5.732903   5.843245
    40  H    2.164789   3.235911   2.885635   3.792955   3.040757
    41  H    3.705896   3.810965   2.464442   3.709073   4.237387
    42  H    2.743581   2.301820   4.797790   5.143800   4.464428
    43  H    5.057930   4.349499   5.991048   6.679240   6.640708
    44  H    5.135905   4.644120   4.787802   5.801848   6.280647
                   11         12         13         14         15
    11  O    0.000000
    12  C    4.646672   0.000000
    13  C    4.951313   1.524762   0.000000
    14  C    4.670201   2.993280   4.472739   0.000000
    15  O    4.850541   4.954579   6.253270   2.838219   0.000000
    16  Si   5.545435   6.552805   7.818216   4.230605   1.672104
    17  C    5.514237   7.089367   8.360733   4.481649   2.931969
    18  C    5.609347   7.487614   8.537622   5.669929   2.986730
    19  C    7.394188   7.713512   9.077748   5.239287   2.896002
    20  H    6.423576   8.522239   9.592326   6.546449   3.896837
    21  H    4.764908   7.233657   8.156152   5.671634   3.276715
    22  H    6.073691   7.585350   8.582803   6.022075   3.244247
    23  H    7.727111   7.582494   9.023774   4.932218   3.118694
    24  H    8.013147   8.721546  10.071766   6.188137   3.832247
    25  H    7.763401   7.786987   9.104504   5.587595   3.139875
    26  H    4.687776   6.893829   8.045282   4.541388   3.269755
    27  H    6.407153   8.181178   9.450689   5.540433   3.851446
    28  H    5.818749   6.834330   8.183856   4.014314   3.101679
    29  H    5.450135   2.719894   4.210429   1.095191   3.774737
    30  H    4.103075   3.223298   4.545839   1.094131   3.356087
    31  H    5.335848   4.037763   5.536625   1.094172   2.457782
    32  H    5.593101   1.095932   2.145360   3.157637   5.044264
    33  H    4.753502   1.096070   2.127064   2.754435   5.187267
    34  H    5.933595   2.161147   1.094656   5.060086   7.098512
    35  H    5.222409   2.172092   1.094633   5.034963   6.404154
    36  H    4.342087   2.176903   1.094427   4.786879   6.521741
    37  C    4.036099   4.501890   5.335984   3.979506   2.458623
    38  C    5.453984   4.842359   5.677908   4.517635   3.016057
    39  C    6.531855   6.154553   6.973856   5.630183   3.672387
    40  H    3.530808   4.193671   4.743874   4.356532   3.408950
    41  H    4.221038   5.529438   6.320963   4.764741   2.733603
    42  H    5.771377   4.225173   5.031301   4.328586   3.498649
    43  H    7.511773   6.623983   7.411377   6.242742   4.475386
    44  H    6.616031   6.920787   7.746972   6.149803   3.814147
                   16         17         18         19         20
    16  Si   0.000000
    17  C    1.883330   0.000000
    18  C    1.873712   3.044437   0.000000
    19  C    1.892334   3.035368   3.029341   0.000000
    20  H    2.475446   3.217636   1.094503   3.198343   0.000000
    21  H    2.490957   3.276282   1.093149   3.998980   1.766322
    22  H    2.484768   4.004858   1.093228   3.243626   1.766948
    23  H    2.492881   3.238713   3.987285   1.093802   4.197801
    24  H    2.495077   3.219986   3.201436   1.093795   2.984873
    25  H    2.492233   3.994562   3.248539   1.093845   3.519928
    26  H    2.494324   1.093257   3.219896   3.996271   3.461796
    27  H    2.485803   1.094116   3.277400   3.153495   3.072674
    28  H    2.486777   1.093883   3.999301   3.304160   4.239307
    29  H    5.209194   5.477621   6.691628   6.013344   7.573769
    30  H    4.522820   4.374568   5.876053   5.750164   6.699078
    31  H    3.629377   3.842143   5.287144   4.383863   6.063874
    32  H    6.702871   7.410474   7.730949   7.627727   8.770363
    33  H    6.706471   6.968027   7.804735   7.869706   8.784407
    34  H    8.693624   9.187933   9.522745   9.859632  10.572799
    35  H    7.972238   8.722644   8.517857   9.200371   9.598077
    36  H    7.980466   8.353203   8.597416   9.402011   9.622657
    37  C    3.506817   4.847105   3.528055   4.834791   4.620334
    38  C    4.124332   5.751615   4.234169   4.924067   5.274171
    39  C    4.361762   6.170270   4.161533   4.789530   5.065829
    40  H    4.483070   5.632105   4.367647   5.911049   5.438321
    41  H    3.235868   4.606268   2.718805   4.623115   3.775646
    42  H    4.850641   6.387865   5.220697   5.546774   6.266805
    43  H    5.192776   7.035579   5.095871   5.312902   5.929070
    44  H    4.088579   5.900535   3.480997   4.522910   4.282038
                   21         22         23         24         25
    21  H    0.000000
    22  H    1.775226   0.000000
    23  H    4.868933   4.257756   0.000000
    24  H    4.209428   3.506557   1.776430   0.000000
    25  H    4.266762   3.083712   1.775964   1.776452   0.000000
    26  H    3.074459   4.246590   4.274592   4.193486   4.867193
    27  H    3.624521   4.264551   3.425369   2.954079   4.172181
    28  H    4.263069   4.869762   3.133896   3.612662   4.299814
    29  H    6.731371   6.975092   5.580267   6.995649   6.290416
    30  H    5.722908   6.378913   5.484075   6.597217   6.239577
    31  H    5.469178   5.683345   3.951454   5.312849   4.816038
    32  H    7.617609   7.727957   7.426204   8.683033   7.596549
    33  H    7.550651   8.037620   7.632814   8.845672   8.076785
    34  H    9.182779   9.570037   9.715484  10.875541   9.885373
    35  H    8.138706   8.433053   9.237110  10.201396   9.109038
    36  H    8.092612   8.731169   9.399880  10.340898   9.514075
    37  C    3.325205   3.314755   5.336527   5.667091   4.684467
    38  C    4.340704   3.696426   5.375093   5.832218   4.463549
    39  C    4.470873   3.341544   5.383911   5.581107   4.095393
    40  H    3.944830   4.178870   6.394426   6.723866   5.779574
    41  H    2.426977   2.455471   5.315706   5.294159   4.488633
    42  H    5.326703   4.738160   5.820765   6.534857   5.079329
    43  H    5.499417   4.221293   5.819058   6.107970   4.471718
    44  H    3.831553   2.520508   5.299132   5.147709   3.844479
                   26         27         28         29         30
    26  H    0.000000
    27  H    1.769694   0.000000
    28  H    1.775071   1.773945   0.000000
    29  H    5.586658   6.508403   4.904199   0.000000
    30  H    4.215988   5.435658   3.889149   1.765890   0.000000
    31  H    4.136300   4.832606   3.257860   1.751268   1.772078
    32  H    7.368092   8.483729   7.106325   2.651356   3.690611
    33  H    6.750126   8.055427   6.579985   2.333774   2.737708
    34  H    8.910485  10.281974   8.916398   4.581865   5.144606
    35  H    8.429886   9.796684   8.650475   4.855222   5.242331
    36  H    7.902178   9.431251   8.222226   4.677449   4.617784
    37  C    4.758487   5.715550   5.279435   4.770686   4.406143
    38  C    5.891887   6.559162   6.098439   5.087913   5.219728
    39  C    6.435824   6.811599   6.624921   6.211711   6.367168
    40  H    5.371189   6.530798   6.053403   5.065943   4.648899
    41  H    4.483067   5.334266   5.245115   5.655977   5.085958
    42  H    6.543770   7.264401   6.577205   4.678613   5.131423
    43  H    7.388575   7.649031   7.417987   6.685492   7.080396
    44  H    6.155037   6.411924   6.507453   6.857932   6.786561
                   31         32         33         34         35
    31  H    0.000000
    32  H    4.057633   0.000000
    33  H    3.811842   1.774847   0.000000
    34  H    6.105199   2.461362   2.455248   0.000000
    35  H    6.045501   2.507457   3.051572   1.771216   0.000000
    36  H    5.875963   3.067539   2.476890   1.769931   1.775068
    37  C    4.236167   4.716284   5.155907   6.341710   5.121519
    38  C    4.676418   4.721939   5.634195   6.573415   5.296727
    39  C    5.604386   5.953789   6.941878   7.845866   6.525307
    40  H    4.842108   4.553260   4.938979   5.798992   4.430850
    41  H    4.878239   5.797159   6.126268   7.354316   6.096789
    42  H    4.611294   3.927614   5.094520   5.830930   4.607281
    43  H    6.190099   6.260010   7.454037   8.194985   6.893384
    44  H    6.034887   6.827808   7.651084   8.675067   7.330152
                   36         37         38         39         40
    36  H    0.000000
    37  C    5.547027   0.000000
    38  C    6.137450   1.508535   0.000000
    39  C    7.450531   2.518418   1.339259   0.000000
    40  H    4.851741   1.096148   2.114271   3.181035   0.000000
    41  H    6.430060   1.095217   2.129553   2.616050   1.733757
    42  H    5.645871   2.231258   1.087353   2.085536   2.551931
    43  H    8.003508   3.504042   2.111672   1.086021   4.084851
    44  H    8.116963   2.782484   2.124144   1.085151   3.496638
                   41         42         43         44
    41  H    0.000000
    42  H    3.094623   0.000000
    43  H    3.698203   2.407054   0.000000
    44  H    2.426296   3.069551   1.853844   0.000000
 Stoichiometry    C14H26O3Si
 Framework group  C1[X(C14H26O3Si)]
 Deg. of freedom   126
 Full point group                 C1      NOp   1
 Largest Abelian subgroup         C1      NOp   1
 Largest concise Abelian subgroup C1      NOp   1
                         Standard orientation:                         
 ---------------------------------------------------------------------
 Center     Atomic      Atomic             Coordinates (Angstroms)
 Number     Number       Type             X           Y           Z
 ---------------------------------------------------------------------
      1          6           0       -2.452634    0.293602    0.256573
      2          6           0       -1.096976    0.326862    0.974969
      3          6           0        0.046342    0.125283   -0.072945
      4          6           0       -0.203373   -1.224601   -0.757773
      5          6           0       -1.605648   -1.417550   -1.267641
      6          1           0       -2.523902    1.143518   -0.431480
      7          1           0       -0.972621    1.304497    1.457905
      8          1           0        0.471605   -1.341689   -1.613751
      9          1           0        0.007775   -2.059888   -0.080982
     10          8           0       -2.615638   -0.897351   -0.539043
     11          8           0       -1.833010   -2.121589   -2.247231
     12          6           0       -3.656986    0.394989    1.206970
     13          6           0       -4.967640    0.596966    0.454445
     14          6           0       -1.027125   -0.698827    2.127363
     15          8           0        1.266216    0.169134    0.698127
     16         14           0        2.783078   -0.417978    0.310362
     17          6           0        2.882802   -2.275188    0.606596
     18          6           0        3.327971   -0.074148   -1.449089
     19          6           0        4.052544    0.394218    1.454793
     20          1           0        4.339253   -0.458774   -1.614343
     21          1           0        2.666781   -0.556063   -2.174045
     22          1           0        3.342957    1.000027   -1.651746
     23          1           0        3.811345    0.182527    2.500457
     24          1           0        5.056132    0.013509    1.244415
     25          1           0        4.053552    1.478514    1.310581
     26          1           0        2.290939   -2.823015   -0.131505
     27          1           0        3.919078   -2.617985    0.531021
     28          1           0        2.509885   -2.523879    1.604426
     29          1           0       -1.719112   -0.424388    2.930655
     30          1           0       -1.288029   -1.709233    1.798530
     31          1           0       -0.031516   -0.734047    2.579840
     32          1           0       -3.515969    1.231237    1.901139
     33          1           0       -3.755949   -0.524155    1.795824
     34          1           0       -5.798543    0.681811    1.162027
     35          1           0       -4.938452    1.512735   -0.144501
     36          1           0       -5.178351   -0.244729   -0.212579
     37          6           0        0.076187    1.262441   -1.154801
     38          6           0        0.208988    2.667017   -0.620754
     39          6           0        1.238301    3.480813   -0.888828
     40          1           0       -0.827800    1.229846   -1.773901
     41          1           0        0.897015    1.073751   -1.854899
     42          1           0       -0.596823    3.047578    0.002288
     43          1           0        1.271403    4.486559   -0.480389
     44          1           0        2.069163    3.170619   -1.514130
 ---------------------------------------------------------------------
 Rotational constants (GHZ):      0.5601470      0.2463038      0.2254004
 Standard basis: 6-31G(d,p) (6D, 7F)
 There are   404 symmetry adapted cartesian basis functions of A   symmetry.
 There are   404 symmetry adapted basis functions of A   symmetry.
   404 basis functions,   710 primitive gaussians,   404 cartesian basis functions
    74 alpha electrons       74 beta electrons
       nuclear repulsion energy      1626.2116202555 Hartrees.
 NAtoms=   44 NActive=   44 NUniq=   44 SFac= 1.00D+00 NAtFMM=   60 NAOKFM=F Big=F
 Integral buffers will be    131072 words long.
 Raffenetti 2 integral format.
 Two-electron integral symmetry is turned on.
 ------------------------------------------------------------------------------
 Polarizable Continuum Model (PCM)
 =================================
 Model                : PCM (using non-symmetric T matrix).
 Atomic radii         : UFF (Universal Force Field).
 Polarization charges : Total charges.
 Charge compensation  : None.
 Solution method      : On-the-fly selection.
 Cavity type          : Scaled VdW (van der Waals Surface) (Alpha=1.100).
 Cavity algorithm     : GePol (No added spheres)
                        Default sphere list used, NSphG=   44.
                        Lebedev-Laikov grids with approx.  5.0 points / Ang**2.
                        Smoothing algorithm: Karplus/York (Gamma=1.0000).
                        Polarization charges: spherical gaussians, with
                                              point-specific exponents (IZeta= 3).
                        Self-potential: point-specific (ISelfS= 7).
                        Self-field    : sphere-specific E.n sum rule (ISelfD= 2).
 1st derivatives      : Analytical E(r).r(x)/FMM algorithm (CHGder, D1EAlg=3).
                        Cavity 1st derivative terms included.
 Solvent              : Chloroform, Eps=   4.711300 Eps(inf)=   2.090627
 ------------------------------------------------------------------------------
 One-electron integrals computed using PRISM.
 NBasis=   404 RedAO= T EigKep=  1.86D-03  NBF=   404
 NBsUse=   404 1.00D-06 EigRej= -1.00D+00 NBFU=   404
 ExpMin= 7.78D-02 ExpMax= 1.61D+04 ExpMxC= 2.43D+03 IAcc=2 IRadAn=         4 AccDes= 0.00D+00
 Harris functional with IExCor=  402 and IRadAn=       4 diagonalized for initial guess.
 HarFok:  IExCor=  402 AccDes= 0.00D+00 IRadAn=         4 IDoV= 1 UseB2=F ITyADJ=14
 ICtDFT=  3500011 ScaDFX=  1.000000  1.000000  1.000000  1.000000
 FoFCou: FMM=F IPFlag=           0 FMFlag=      100000 FMFlg1=           0
         NFxFlg=           0 DoJE=T BraDBF=F KetDBF=T FulRan=T
         wScrn=  0.000000 ICntrl=     500 IOpCl=  0 I1Cent=   200000004 NGrid=           0
         NMat0=    1 NMatS0=      1 NMatT0=    0 NMatD0=    1 NMtDS0=    0 NMtDT0=    0
 Petite list used in FoFCou.
 Requested convergence on RMS density matrix=1.00D-08 within 128 cycles.
 Requested convergence on MAX density matrix=1.00D-06.
 Requested convergence on             energy=1.00D-06.
 No special actions if energy rises.
 Inv3:  Mode=1 IEnd=    24917772.
 Iteration    1 A*A^-1 deviation from unit magnitude is 5.33D-15 for   2865.
 Iteration    1 A*A^-1 deviation from orthogonality  is 2.85D-15 for   2239   1968.
 Iteration    1 A^-1*A deviation from unit magnitude is 5.11D-15 for   2881.
 Iteration    1 A^-1*A deviation from orthogonality  is 3.19D-12 for   2859   2853.
 Error on total polarization charges =  0.00930
 SCF Done:  E(RB3LYP) =  -1064.41548867     A.U. after   13 cycles
            NFock= 13  Conv=0.43D-08     -V/T= 2.0081

 **********************************************************************

            Population analysis using the SCF density.

 **********************************************************************

 Orbital symmetries:
       Occupied  (A) (A) (A) (A) (A) (A) (A) (A) (A) (A) (A) (A)
                 (A) (A) (A) (A) (A) (A) (A) (A) (A) (A) (A) (A)
                 (A) (A) (A) (A) (A) (A) (A) (A) (A) (A) (A) (A)
                 (A) (A) (A) (A) (A) (A) (A) (A) (A) (A) (A) (A)
                 (A) (A) (A) (A) (A) (A) (A) (A) (A) (A) (A) (A)
                 (A) (A) (A) (A) (A) (A) (A) (A) (A) (A) (A) (A)
                 (A) (A)
       Virtual   (A) (A) (A) (A) (A) (A) (A) (A) (A) (A) (A) (A)
                 (A) (A) (A) (A) (A) (A) (A) (A) (A) (A) (A) (A)
                 (A) (A) (A) (A) (A) (A) (A) (A) (A) (A) (A) (A)
                 (A) (A) (A) (A) (A) (A) (A) (A) (A) (A) (A) (A)
                 (A) (A) (A) (A) (A) (A) (A) (A) (A) (A) (A) (A)
                 (A) (A) (A) (A) (A) (A) (A) (A) (A) (A) (A) (A)
                 (A) (A) (A) (A) (A) (A) (A) (A) (A) (A) (A) (A)
                 (A) (A) (A) (A) (A) (A) (A) (A) (A) (A) (A) (A)
                 (A) (A) (A) (A) (A) (A) (A) (A) (A) (A) (A) (A)
                 (A) (A) (A) (A) (A) (A) (A) (A) (A) (A) (A) (A)
                 (A) (A) (A) (A) (A) (A) (A) (A) (A) (A) (A) (A)
                 (A) (A) (A) (A) (A) (A) (A) (A) (A) (A) (A) (A)
                 (A) (A) (A) (A) (A) (A) (A) (A) (A) (A) (A) (A)
                 (A) (A) (A) (A) (A) (A) (A) (A) (A) (A) (A) (A)
                 (A) (A) (A) (A) (A) (A) (A) (A) (A) (A) (A) (A)
                 (A) (A) (A) (A) (A) (A) (A) (A) (A) (A) (A) (A)
                 (A) (A) (A) (A) (A) (A) (A) (A) (A) (A) (A) (A)
                 (A) (A) (A) (A) (A) (A) (A) (A) (A) (A) (A) (A)
                 (A) (A) (A) (A) (A) (A) (A) (A) (A) (A) (A) (A)
                 (A) (A) (A) (A) (A) (A) (A) (A) (A) (A) (A) (A)
                 (A) (A) (A) (A) (A) (A) (A) (A) (A) (A) (A) (A)
                 (A) (A) (A) (A) (A) (A) (A) (A) (A) (A) (A) (A)
                 (A) (A) (A) (A) (A) (A) (A) (A) (A) (A) (A) (A)
                 (A) (A) (A) (A) (A) (A) (A) (A) (A) (A) (A) (A)
                 (A) (A) (A) (A) (A) (A) (A) (A) (A) (A) (A) (A)
                 (A) (A) (A) (A) (A) (A) (A) (A) (A) (A) (A) (A)
                 (A) (A) (A) (A) (A) (A) (A) (A) (A) (A) (A) (A)
                 (A) (A) (A) (A) (A) (A)
 The electronic state is 1-A.
 Alpha  occ. eigenvalues --  -66.13856 -19.19434 -19.14267 -19.13754 -10.32558
 Alpha  occ. eigenvalues --  -10.26675 -10.25466 -10.20352 -10.19991 -10.19603
 Alpha  occ. eigenvalues --  -10.19466 -10.18983 -10.18250 -10.17634 -10.17427
 Alpha  occ. eigenvalues --  -10.15929 -10.15639 -10.15573  -5.28011  -3.64066
 Alpha  occ. eigenvalues --   -3.63836  -3.63803  -1.10130  -1.01654  -1.00590
 Alpha  occ. eigenvalues --   -0.82947  -0.80375  -0.78139  -0.74958  -0.71292
 Alpha  occ. eigenvalues --   -0.70602  -0.68827  -0.67648  -0.67264  -0.64108
 Alpha  occ. eigenvalues --   -0.61735  -0.60006  -0.56294  -0.52937  -0.51279
 Alpha  occ. eigenvalues --   -0.51155  -0.49044  -0.47563  -0.46216  -0.45443
 Alpha  occ. eigenvalues --   -0.44893  -0.43553  -0.43037  -0.42279  -0.41583
 Alpha  occ. eigenvalues --   -0.40817  -0.40760  -0.40399  -0.40113  -0.39051
 Alpha  occ. eigenvalues --   -0.38832  -0.38348  -0.38038  -0.37763  -0.37228
 Alpha  occ. eigenvalues --   -0.36778  -0.35593  -0.35260  -0.35001  -0.34571
 Alpha  occ. eigenvalues --   -0.34071  -0.32555  -0.31571  -0.30001  -0.29397
 Alpha  occ. eigenvalues --   -0.28519  -0.27633  -0.26464  -0.25677
 Alpha virt. eigenvalues --   -0.00765   0.01360   0.06424   0.07247   0.08237
 Alpha virt. eigenvalues --    0.09184   0.09823   0.10669   0.11175   0.11774
 Alpha virt. eigenvalues --    0.11813   0.12705   0.13383   0.13864   0.14410
 Alpha virt. eigenvalues --    0.14620   0.15433   0.15961   0.16466   0.17117
 Alpha virt. eigenvalues --    0.17461   0.17863   0.18012   0.18169   0.19069
 Alpha virt. eigenvalues --    0.19460   0.19842   0.20114   0.20840   0.21163
 Alpha virt. eigenvalues --    0.21708   0.22305   0.23391   0.23579   0.23954
 Alpha virt. eigenvalues --    0.24320   0.24527   0.26245   0.26815   0.28581
 Alpha virt. eigenvalues --    0.29022   0.30640   0.32391   0.35421   0.36247
 Alpha virt. eigenvalues --    0.37772   0.38244   0.39538   0.40795   0.43846
 Alpha virt. eigenvalues --    0.45646   0.46581   0.48738   0.49944   0.50877
 Alpha virt. eigenvalues --    0.51700   0.52660   0.54304   0.54518   0.55801
 Alpha virt. eigenvalues --    0.57603   0.58214   0.58633   0.59108   0.61243
 Alpha virt. eigenvalues --    0.61659   0.62075   0.63572   0.64246   0.64927
 Alpha virt. eigenvalues --    0.66152   0.66260   0.67021   0.67581   0.68511
 Alpha virt. eigenvalues --    0.69961   0.70567   0.71821   0.72386   0.73386
 Alpha virt. eigenvalues --    0.74307   0.75707   0.75998   0.76751   0.78282
 Alpha virt. eigenvalues --    0.79138   0.79949   0.82074   0.82542   0.83167
 Alpha virt. eigenvalues --    0.84019   0.84849   0.85191   0.85584   0.86143
 Alpha virt. eigenvalues --    0.87105   0.87343   0.87537   0.87905   0.88780
 Alpha virt. eigenvalues --    0.89196   0.89266   0.90317   0.90773   0.91273
 Alpha virt. eigenvalues --    0.91453   0.91772   0.92583   0.93719   0.93913
 Alpha virt. eigenvalues --    0.94741   0.95410   0.95652   0.97487   0.98860
 Alpha virt. eigenvalues --    0.99048   0.99405   1.00378   1.00964   1.01709
 Alpha virt. eigenvalues --    1.03326   1.03690   1.04845   1.05728   1.07400
 Alpha virt. eigenvalues --    1.09807   1.11672   1.12393   1.13849   1.17117
 Alpha virt. eigenvalues --    1.18250   1.19740   1.22086   1.23575   1.27266
 Alpha virt. eigenvalues --    1.28210   1.29678   1.31605   1.32288   1.33337
 Alpha virt. eigenvalues --    1.36755   1.38756   1.39291   1.40404   1.41868
 Alpha virt. eigenvalues --    1.42913   1.45007   1.46680   1.47657   1.47982
 Alpha virt. eigenvalues --    1.48991   1.51062   1.52153   1.54498   1.57766
 Alpha virt. eigenvalues --    1.58498   1.61405   1.62326   1.62916   1.64640
 Alpha virt. eigenvalues --    1.65357   1.66485   1.68859   1.70215   1.71493
 Alpha virt. eigenvalues --    1.73527   1.75250   1.76594   1.78648   1.79602
 Alpha virt. eigenvalues --    1.80524   1.81583   1.83822   1.84720   1.85055
 Alpha virt. eigenvalues --    1.86700   1.86930   1.87944   1.89189   1.90517
 Alpha virt. eigenvalues --    1.90900   1.93809   1.94197   1.96032   1.96766
 Alpha virt. eigenvalues --    1.98157   1.98268   1.99821   2.01894   2.02035
 Alpha virt. eigenvalues --    2.03126   2.04650   2.04975   2.05119   2.05337
 Alpha virt. eigenvalues --    2.06522   2.06702   2.07670   2.08048   2.08951
 Alpha virt. eigenvalues --    2.10109   2.10914   2.11561   2.11988   2.12181
 Alpha virt. eigenvalues --    2.12704   2.12894   2.13277   2.13489   2.14795
 Alpha virt. eigenvalues --    2.15362   2.16175   2.16414   2.17230   2.17361
 Alpha virt. eigenvalues --    2.21098   2.22473   2.23207   2.24351   2.26645
 Alpha virt. eigenvalues --    2.27920   2.29316   2.29772   2.31451   2.32442
 Alpha virt. eigenvalues --    2.33911   2.34007   2.35479   2.35785   2.36490
 Alpha virt. eigenvalues --    2.38408   2.39080   2.39476   2.40451   2.40880
 Alpha virt. eigenvalues --    2.42929   2.44558   2.47942   2.48245   2.50408
 Alpha virt. eigenvalues --    2.52104   2.53190   2.55493   2.57258   2.58688
 Alpha virt. eigenvalues --    2.59740   2.61157   2.63117   2.63975   2.65501
 Alpha virt. eigenvalues --    2.66105   2.67899   2.68325   2.68722   2.69494
 Alpha virt. eigenvalues --    2.70251   2.71463   2.72554   2.74198   2.76346
 Alpha virt. eigenvalues --    2.77283   2.78431   2.79691   2.80886   2.81295
 Alpha virt. eigenvalues --    2.81773   2.82610   2.84047   2.85096   2.85362
 Alpha virt. eigenvalues --    2.85582   2.86009   2.86598   2.87814   2.88886
 Alpha virt. eigenvalues --    2.91268   2.91703   2.93076   2.93273   2.94312
 Alpha virt. eigenvalues --    2.96790   2.96869   3.02045   3.09008   3.10778
 Alpha virt. eigenvalues --    3.15888   3.18595   3.20244   3.20931   3.21265
 Alpha virt. eigenvalues --    3.22108   3.22369   3.26091   3.29855   3.33605
 Alpha virt. eigenvalues --    3.34834   3.35829   3.39757   3.43548   3.43911
 Alpha virt. eigenvalues --    3.44267   3.44819   3.45074   3.45477   3.45614
 Alpha virt. eigenvalues --    3.47110   3.47876   3.48285   3.49372   3.51270
 Alpha virt. eigenvalues --    3.52778   3.56416   3.66026   4.00086   4.15301
 Alpha virt. eigenvalues --    4.20578   4.22755   4.34579   4.38785   4.46054
 Alpha virt. eigenvalues --    4.46282   4.48810   4.50766   4.53681   4.58854
 Alpha virt. eigenvalues --    4.64163   4.66128   4.71424   4.79821   4.81737
          Condensed to atoms (all electrons):
               1          2          3          4          5          6
     1  C    4.820743   0.312743  -0.029790  -0.011197  -0.008953   0.383920
     2  C    0.312743   5.107541   0.348983  -0.050849  -0.016135  -0.047864
     3  C   -0.029790   0.348983   4.840711   0.278973  -0.013784  -0.012755
     4  C   -0.011197  -0.050849   0.278973   5.351422   0.285465   0.001325
     5  C   -0.008953  -0.016135  -0.013784   0.285465   4.362491  -0.002619
     6  H    0.383920  -0.047864  -0.012755   0.001325  -0.002619   0.644808
     7  H   -0.029879   0.368790  -0.030311   0.006133   0.000527  -0.002213
     8  H    0.000038   0.005902  -0.033586   0.357725  -0.021343   0.000075
     9  H    0.000574  -0.007196  -0.021920   0.366893  -0.023226  -0.000045
    10  O    0.168536  -0.032359   0.000090  -0.095593   0.260147  -0.042616
    11  O    0.001764  -0.000106   0.002113  -0.087474   0.576108   0.000227
    12  C    0.380549  -0.033951   0.004702  -0.000609   0.001388  -0.053219
    13  C   -0.037749   0.004401  -0.000086  -0.000002   0.000029  -0.007318
    14  C   -0.042501   0.353872  -0.042008  -0.008343  -0.000195   0.005970
    15  O    0.002850  -0.048777   0.184208  -0.025916   0.001490  -0.000009
    16  Si   0.000371  -0.001853  -0.018874   0.003562  -0.000476  -0.000032
    17  C    0.000000  -0.000008  -0.001586  -0.000298   0.000070   0.000000
    18  C    0.000002  -0.000039  -0.000269  -0.002378   0.000016   0.000000
    19  C    0.000000  -0.000012   0.001035  -0.000067   0.000000   0.000000
    20  H    0.000000   0.000001   0.000006   0.000033   0.000000   0.000000
    21  H    0.000000  -0.000006   0.000454  -0.000922  -0.000022   0.000000
    22  H    0.000000  -0.000006  -0.000466   0.000159   0.000002   0.000000
    23  H    0.000000   0.000005  -0.000043  -0.000003   0.000000   0.000000
    24  H    0.000000   0.000000  -0.000011   0.000001   0.000000   0.000000
    25  H    0.000000  -0.000003  -0.000047   0.000003   0.000000   0.000000
    26  H   -0.000001   0.000020  -0.000160  -0.000166  -0.000013   0.000000
    27  H    0.000000   0.000001   0.000031   0.000050   0.000000   0.000000
    28  H    0.000000   0.000012  -0.000007  -0.000140  -0.000003   0.000000
    29  H   -0.005440  -0.027356   0.004049  -0.000037   0.000007  -0.000040
    30  H   -0.007331  -0.035037  -0.006918   0.003252   0.000002   0.000225
    31  H    0.004511  -0.027348  -0.006865  -0.000430  -0.000045  -0.000127
    32  H   -0.034060  -0.001059   0.000074   0.000035  -0.000034   0.000229
    33  H   -0.028796  -0.008567  -0.000146   0.000007   0.000082   0.006007
    34  H    0.004117  -0.000125   0.000002   0.000000   0.000000  -0.000024
    35  H   -0.006018  -0.000043  -0.000007   0.000001  -0.000015   0.006537
    36  H   -0.007863   0.000275  -0.000001   0.000032   0.000190   0.000013
    37  C    0.000598  -0.058729   0.340558  -0.066633   0.000757   0.004807
    38  C   -0.001550  -0.007031  -0.036370   0.004665   0.000004  -0.000258
    39  C    0.000038   0.000035  -0.001167  -0.000053   0.000002  -0.000061
    40  H    0.001541  -0.005017  -0.029183  -0.003830   0.004441   0.000508
    41  H   -0.000021   0.004878  -0.024314  -0.005638  -0.000316  -0.000003
    42  H   -0.000251   0.002156  -0.004281  -0.000022  -0.000008   0.001241
    43  H   -0.000001   0.000002  -0.000037   0.000002   0.000000   0.000000
    44  H   -0.000002   0.000011   0.000083  -0.000018   0.000000   0.000002
               7          8          9         10         11         12
     1  C   -0.029879   0.000038   0.000574   0.168536   0.001764   0.380549
     2  C    0.368790   0.005902  -0.007196  -0.032359  -0.000106  -0.033951
     3  C   -0.030311  -0.033586  -0.021920   0.000090   0.002113   0.004702
     4  C    0.006133   0.357725   0.366893  -0.095593  -0.087474  -0.000609
     5  C    0.000527  -0.021343  -0.023226   0.260147   0.576108   0.001388
     6  H   -0.002213   0.000075  -0.000045  -0.042616   0.000227  -0.053219
     7  H    0.617347  -0.000128  -0.000028   0.002829   0.000004  -0.003324
     8  H   -0.000128   0.568691  -0.027084   0.003308   0.003614   0.000008
     9  H   -0.000028  -0.027084   0.537131  -0.000408  -0.000539  -0.000001
    10  O    0.002829   0.003308  -0.000408   8.324040  -0.075571  -0.043263
    11  O    0.000004   0.003614  -0.000539  -0.075571   8.079165  -0.000079
    12  C   -0.003324   0.000008  -0.000001  -0.043263  -0.000079   4.929159
    13  C   -0.000065   0.000000   0.000001  -0.002290  -0.000005   0.361236
    14  C   -0.041802   0.000067   0.002354  -0.003537  -0.000005  -0.010314
    15  O    0.000302  -0.000787  -0.001873  -0.000011  -0.000012  -0.000040
    16  Si   0.000563   0.003636  -0.000111  -0.000070  -0.000234  -0.000004
    17  C    0.000003  -0.001248   0.000227   0.000000   0.000002   0.000000
    18  C   -0.000002  -0.000193   0.000082   0.000000   0.000002   0.000000
    19  C   -0.000009   0.000004  -0.000009   0.000000   0.000000   0.000000
    20  H    0.000000   0.000001   0.000000   0.000000   0.000000   0.000000
    21  H    0.000000   0.002818  -0.000064   0.000000  -0.000009   0.000000
    22  H    0.000000  -0.000088   0.000002   0.000000   0.000000   0.000000
    23  H   -0.000001   0.000000  -0.000001   0.000000   0.000000   0.000000
    24  H    0.000000   0.000000   0.000000   0.000000   0.000000   0.000000
    25  H    0.000000   0.000000   0.000000   0.000000   0.000000   0.000000
    26  H    0.000000   0.000586   0.001552   0.000000   0.000000   0.000000
    27  H    0.000000   0.000031   0.000021   0.000000   0.000000   0.000000
    28  H    0.000001   0.000034   0.000486   0.000000   0.000000   0.000000
    29  H   -0.005318   0.000000  -0.000070   0.000078   0.000000   0.003075
    30  H    0.005444   0.000044   0.001562   0.005906  -0.000052  -0.001782
    31  H   -0.002390  -0.000047   0.000785   0.000019   0.000000   0.000182
    32  H    0.002705   0.000000  -0.000001   0.002886   0.000001   0.379393
    33  H    0.000076   0.000000  -0.000011  -0.000766  -0.000008   0.379185
    34  H   -0.000005   0.000000   0.000000   0.000055   0.000000  -0.028276
    35  H   -0.000004   0.000000   0.000000  -0.000215   0.000000  -0.036658
    36  H   -0.000004   0.000000   0.000000   0.007411   0.000013  -0.033371
    37  C   -0.010121  -0.007377   0.004615  -0.002140   0.000023  -0.000067
    38  C    0.004952   0.000065  -0.000113   0.000064   0.000000   0.000030
    39  C    0.000245  -0.000001   0.000001   0.000000   0.000000   0.000001
    40  H    0.000233   0.000117   0.000061   0.000391  -0.000205   0.000118
    41  H    0.000027   0.003936  -0.000046  -0.000002   0.000002  -0.000003
    42  H    0.002512   0.000002   0.000003  -0.000003   0.000000  -0.000038
    43  H    0.000016   0.000000   0.000000   0.000000   0.000000   0.000000
    44  H    0.000001  -0.000001   0.000000   0.000000   0.000000   0.000000
              13         14         15         16         17         18
     1  C   -0.037749  -0.042501   0.002850   0.000371   0.000000   0.000002
     2  C    0.004401   0.353872  -0.048777  -0.001853  -0.000008  -0.000039
     3  C   -0.000086  -0.042008   0.184208  -0.018874  -0.001586  -0.000269
     4  C   -0.000002  -0.008343  -0.025916   0.003562  -0.000298  -0.002378
     5  C    0.000029  -0.000195   0.001490  -0.000476   0.000070   0.000016
     6  H   -0.007318   0.005970  -0.000009  -0.000032   0.000000   0.000000
     7  H   -0.000065  -0.041802   0.000302   0.000563   0.000003  -0.000002
     8  H    0.000000   0.000067  -0.000787   0.003636  -0.001248  -0.000193
     9  H    0.000001   0.002354  -0.001873  -0.000111   0.000227   0.000082
    10  O   -0.002290  -0.003537  -0.000011  -0.000070   0.000000   0.000000
    11  O   -0.000005  -0.000005  -0.000012  -0.000234   0.000002   0.000002
    12  C    0.361236  -0.010314  -0.000040  -0.000004   0.000000   0.000000
    13  C    4.937380   0.000245   0.000000   0.000000   0.000000   0.000000
    14  C    0.000245   4.978298  -0.007952   0.000378  -0.000108  -0.000001
    15  O    0.000000  -0.007952   8.298053   0.336138  -0.017732  -0.014197
    16  Si   0.000000   0.000378   0.336138  11.857608   0.369746   0.363110
    17  C    0.000000  -0.000108  -0.017732   0.369746   5.144941  -0.035626
    18  C    0.000000  -0.000001  -0.014197   0.363110  -0.035626   5.155985
    19  C    0.000000  -0.000001  -0.019387   0.376539  -0.034019  -0.030612
    20  H    0.000000   0.000000   0.000478  -0.013427  -0.000441   0.370784
    21  H    0.000000   0.000000  -0.000468  -0.027906  -0.001444   0.374249
    22  H    0.000000   0.000000  -0.000242  -0.027142   0.001366   0.377657
    23  H    0.000000  -0.000003  -0.000437  -0.024643  -0.001288   0.001402
    24  H    0.000000   0.000000   0.000486  -0.014568  -0.000480  -0.000743
    25  H    0.000000   0.000000  -0.000449  -0.024792   0.001380  -0.001321
    26  H    0.000000  -0.000018  -0.000501  -0.027137   0.375292  -0.001499
    27  H    0.000000   0.000002   0.000581  -0.014020   0.369783  -0.000078
    28  H    0.000000   0.000065  -0.000629  -0.027100   0.378906   0.001332
    29  H   -0.000008   0.379217   0.000252  -0.000087   0.000001   0.000000
    30  H   -0.000043   0.383627   0.000003  -0.000137  -0.000006   0.000000
    31  H   -0.000004   0.382066   0.007881   0.002606  -0.000088   0.000008
    32  H   -0.038081  -0.001541   0.000000   0.000000   0.000000   0.000000
    33  H   -0.040967   0.003343   0.000000  -0.000001   0.000000   0.000000
    34  H    0.381034   0.000005   0.000000   0.000000   0.000000   0.000000
    35  H    0.385126   0.000008   0.000000   0.000000   0.000000   0.000000
    36  H    0.388696  -0.000024   0.000000   0.000000   0.000000   0.000000
    37  C    0.000000   0.005382  -0.053151  -0.007946  -0.000128  -0.000848
    38  C    0.000000  -0.000056   0.002057   0.006100   0.000008  -0.000335
    39  C    0.000000  -0.000010  -0.000018   0.005123   0.000000  -0.000874
    40  H   -0.000002  -0.000084   0.003254   0.001182   0.000003  -0.000029
    41  H    0.000000  -0.000105  -0.003186  -0.002398  -0.000028   0.001717
    42  H   -0.000003   0.000001  -0.000111  -0.000116   0.000000  -0.000005
    43  H    0.000000   0.000000  -0.000005   0.000001   0.000000   0.000011
    44  H    0.000000   0.000000  -0.000068   0.000007   0.000001  -0.000260
              19         20         21         22         23         24
     1  C    0.000000   0.000000   0.000000   0.000000   0.000000   0.000000
     2  C   -0.000012   0.000001  -0.000006  -0.000006   0.000005   0.000000
     3  C    0.001035   0.000006   0.000454  -0.000466  -0.000043  -0.000011
     4  C   -0.000067   0.000033  -0.000922   0.000159  -0.000003   0.000001
     5  C    0.000000   0.000000  -0.000022   0.000002   0.000000   0.000000
     6  H    0.000000   0.000000   0.000000   0.000000   0.000000   0.000000
     7  H   -0.000009   0.000000   0.000000   0.000000  -0.000001   0.000000
     8  H    0.000004   0.000001   0.002818  -0.000088   0.000000   0.000000
     9  H   -0.000009   0.000000  -0.000064   0.000002  -0.000001   0.000000
    10  O    0.000000   0.000000   0.000000   0.000000   0.000000   0.000000
    11  O    0.000000   0.000000  -0.000009   0.000000   0.000000   0.000000
    12  C    0.000000   0.000000   0.000000   0.000000   0.000000   0.000000
    13  C    0.000000   0.000000   0.000000   0.000000   0.000000   0.000000
    14  C   -0.000001   0.000000   0.000000   0.000000  -0.000003   0.000000
    15  O   -0.019387   0.000478  -0.000468  -0.000242  -0.000437   0.000486
    16  Si   0.376539  -0.013427  -0.027906  -0.027142  -0.024643  -0.014568
    17  C   -0.034019  -0.000441  -0.001444   0.001366  -0.001288  -0.000480
    18  C   -0.030612   0.370784   0.374249   0.377657   0.001402  -0.000743
    19  C    5.119961  -0.001003   0.001493  -0.001171   0.376150   0.372862
    20  H   -0.001003   0.564331  -0.022670  -0.022565   0.000010   0.000060
    21  H    0.001493  -0.022670   0.579319  -0.023693  -0.000027  -0.000001
    22  H   -0.001171  -0.022565  -0.023693   0.571318   0.000007  -0.000075
    23  H    0.376150   0.000010  -0.000027   0.000007   0.576246  -0.023822
    24  H    0.372862   0.000060  -0.000001  -0.000075  -0.023822   0.569230
    25  H    0.375662  -0.000025   0.000003   0.000695  -0.021939  -0.023685
    26  H    0.001424  -0.000026   0.000721   0.000007   0.000009   0.000002
    27  H   -0.000929   0.000066  -0.000025   0.000001  -0.000051   0.000038
    28  H   -0.000999   0.000020   0.000001  -0.000025   0.000539  -0.000014
    29  H    0.000000   0.000000   0.000000   0.000000   0.000000   0.000000
    30  H    0.000000   0.000000   0.000000   0.000000   0.000000   0.000000
    31  H   -0.000083   0.000000   0.000000   0.000000   0.000018   0.000001
    32  H    0.000000   0.000000   0.000000   0.000000   0.000000   0.000000
    33  H    0.000000   0.000000   0.000000   0.000000   0.000000   0.000000
    34  H    0.000000   0.000000   0.000000   0.000000   0.000000   0.000000
    35  H    0.000000   0.000000   0.000000   0.000000   0.000000   0.000000
    36  H    0.000000   0.000000   0.000000   0.000000   0.000000   0.000000
    37  C   -0.000073   0.000118  -0.001366  -0.000826   0.000004   0.000001
    38  C   -0.000135  -0.000002   0.000057   0.000177  -0.000003   0.000000
    39  C   -0.000200   0.000007  -0.000012  -0.000045  -0.000001  -0.000001
    40  H   -0.000001  -0.000002  -0.000024   0.000021   0.000000   0.000000
    41  H   -0.000008   0.000064   0.001918   0.001115   0.000000   0.000001
    42  H    0.000000   0.000000   0.000000   0.000002   0.000000   0.000000
    43  H   -0.000001   0.000000   0.000000  -0.000019   0.000000   0.000000
    44  H   -0.000014  -0.000001  -0.000002   0.002943   0.000000   0.000000
              25         26         27         28         29         30
     1  C    0.000000  -0.000001   0.000000   0.000000  -0.005440  -0.007331
     2  C   -0.000003   0.000020   0.000001   0.000012  -0.027356  -0.035037
     3  C   -0.000047  -0.000160   0.000031  -0.000007   0.004049  -0.006918
     4  C    0.000003  -0.000166   0.000050  -0.000140  -0.000037   0.003252
     5  C    0.000000  -0.000013   0.000000  -0.000003   0.000007   0.000002
     6  H    0.000000   0.000000   0.000000   0.000000  -0.000040   0.000225
     7  H    0.000000   0.000000   0.000000   0.000001  -0.005318   0.005444
     8  H    0.000000   0.000586   0.000031   0.000034   0.000000   0.000044
     9  H    0.000000   0.001552   0.000021   0.000486  -0.000070   0.001562
    10  O    0.000000   0.000000   0.000000   0.000000   0.000078   0.005906
    11  O    0.000000   0.000000   0.000000   0.000000   0.000000  -0.000052
    12  C    0.000000   0.000000   0.000000   0.000000   0.003075  -0.001782
    13  C    0.000000   0.000000   0.000000   0.000000  -0.000008  -0.000043
    14  C    0.000000  -0.000018   0.000002   0.000065   0.379217   0.383627
    15  O   -0.000449  -0.000501   0.000581  -0.000629   0.000252   0.000003
    16  Si  -0.024792  -0.027137  -0.014020  -0.027100  -0.000087  -0.000137
    17  C    0.001380   0.375292   0.369783   0.378906   0.000001  -0.000006
    18  C   -0.001321  -0.001499  -0.000078   0.001332   0.000000   0.000000
    19  C    0.375662   0.001424  -0.000929  -0.000999   0.000000   0.000000
    20  H   -0.000025  -0.000026   0.000066   0.000020   0.000000   0.000000
    21  H    0.000003   0.000721  -0.000025   0.000001   0.000000   0.000000
    22  H    0.000695   0.000007   0.000001  -0.000025   0.000000   0.000000
    23  H   -0.021939   0.000009  -0.000051   0.000539   0.000000   0.000000
    24  H   -0.023685   0.000002   0.000038  -0.000014   0.000000   0.000000
    25  H    0.575337  -0.000027   0.000019   0.000002   0.000000   0.000000
    26  H   -0.000027   0.583162  -0.023328  -0.023178   0.000000  -0.000019
    27  H    0.000019  -0.023328   0.571876  -0.023214   0.000000   0.000000
    28  H    0.000002  -0.023178  -0.023214   0.576022  -0.000001   0.000029
    29  H    0.000000   0.000000   0.000000  -0.000001   0.598584  -0.030972
    30  H    0.000000  -0.000019   0.000000   0.000029  -0.030972   0.602555
    31  H   -0.000001  -0.000021   0.000001   0.000364  -0.029516  -0.029927
    32  H    0.000000   0.000000   0.000000   0.000000   0.001199   0.000200
    33  H    0.000000   0.000000   0.000000   0.000000   0.000438   0.001601
    34  H    0.000000   0.000000   0.000000   0.000000   0.000004  -0.000001
    35  H    0.000000   0.000000   0.000000   0.000000  -0.000002   0.000000
    36  H    0.000000   0.000000   0.000000   0.000000   0.000006   0.000004
    37  C   -0.000013  -0.000025   0.000001  -0.000001  -0.000095  -0.000044
    38  C    0.000045   0.000000   0.000000   0.000000   0.000001   0.000000
    39  C    0.000210   0.000000   0.000000   0.000000   0.000000   0.000000
    40  H    0.000000   0.000001   0.000000   0.000000  -0.000002  -0.000008
    41  H   -0.000008  -0.000008   0.000001   0.000000   0.000002   0.000001
    42  H    0.000000   0.000000   0.000000   0.000000   0.000003   0.000001
    43  H    0.000000   0.000000   0.000000   0.000000   0.000000   0.000000
    44  H    0.000025   0.000000   0.000000   0.000000   0.000000   0.000000
              31         32         33         34         35         36
     1  C    0.004511  -0.034060  -0.028796   0.004117  -0.006018  -0.007863
     2  C   -0.027348  -0.001059  -0.008567  -0.000125  -0.000043   0.000275
     3  C   -0.006865   0.000074  -0.000146   0.000002  -0.000007  -0.000001
     4  C   -0.000430   0.000035   0.000007   0.000000   0.000001   0.000032
     5  C   -0.000045  -0.000034   0.000082   0.000000  -0.000015   0.000190
     6  H   -0.000127   0.000229   0.006007  -0.000024   0.006537   0.000013
     7  H   -0.002390   0.002705   0.000076  -0.000005  -0.000004  -0.000004
     8  H   -0.000047   0.000000   0.000000   0.000000   0.000000   0.000000
     9  H    0.000785  -0.000001  -0.000011   0.000000   0.000000   0.000000
    10  O    0.000019   0.002886  -0.000766   0.000055  -0.000215   0.007411
    11  O    0.000000   0.000001  -0.000008   0.000000   0.000000   0.000013
    12  C    0.000182   0.379393   0.379185  -0.028276  -0.036658  -0.033371
    13  C   -0.000004  -0.038081  -0.040967   0.381034   0.385126   0.388696
    14  C    0.382066  -0.001541   0.003343   0.000005   0.000008  -0.000024
[...]
    14  C   -0.000006   0.000000   0.000000   0.000000  -0.000006   0.000000
    15  O   -0.025378   0.000507  -0.000562  -0.000361  -0.000628   0.000670
    16  Si   0.379154  -0.013945  -0.024911  -0.025107  -0.023165  -0.014990
    17  C   -0.029954  -0.000273  -0.001171   0.001224  -0.001268  -0.000174
    18  C   -0.026852   0.368075   0.376179   0.377738   0.001198  -0.000429
    19  C    5.115058  -0.000664   0.001204  -0.001121   0.377223   0.368095
    20  H   -0.000664   0.570995  -0.023679  -0.023046   0.000003   0.000024
    21  H    0.001204  -0.023679   0.574795  -0.024042  -0.000021  -0.000001
    22  H   -0.001121  -0.023046  -0.024042   0.569251   0.000001  -0.000072
    23  H    0.377223   0.000003  -0.000021   0.000001   0.571695  -0.024309
    24  H    0.368095   0.000024  -0.000001  -0.000072  -0.024309   0.577960
    25  H    0.376739  -0.000012   0.000005   0.000548  -0.022447  -0.024076
    26  H    0.001190  -0.000034   0.000537   0.000004   0.000007   0.000001
    27  H   -0.000645   0.000089  -0.000029   0.000000  -0.000029   0.000020
    28  H   -0.001012   0.000012  -0.000001  -0.000021   0.000442  -0.000027
    29  H    0.000000   0.000000   0.000000   0.000000   0.000000   0.000000
    30  H    0.000000   0.000000   0.000000   0.000000   0.000000   0.000000
    31  H   -0.000141   0.000000   0.000000   0.000000   0.000085   0.000001
    32  H    0.000000   0.000000   0.000000   0.000000   0.000000   0.000000
    33  H    0.000000   0.000000   0.000000   0.000000   0.000000   0.000000
    34  H    0.000000   0.000000   0.000000   0.000000   0.000000   0.000000
    35  H    0.000000   0.000000   0.000000   0.000000   0.000000   0.000000
    36  H    0.000000   0.000000   0.000000   0.000000   0.000000   0.000000
    37  C   -0.000059   0.000070  -0.000697  -0.000342   0.000005   0.000001
    38  C   -0.000206  -0.000002   0.000032   0.000143  -0.000005   0.000001
    39  C   -0.000241   0.000007  -0.000011   0.000111  -0.000002  -0.000002
    40  H   -0.000001  -0.000001  -0.000022   0.000012   0.000000   0.000000
    41  H   -0.000017   0.000031   0.001486   0.000781   0.000000   0.000001
    42  H    0.000000   0.000000   0.000000   0.000003   0.000000   0.000000
    43  H   -0.000001   0.000000   0.000000  -0.000018   0.000000   0.000000
    44  H   -0.000011  -0.000002   0.000008   0.002572   0.000000   0.000000
              25         26         27         28         29         30
     1  C    0.000000   0.000000   0.000000   0.000000  -0.004857  -0.007189
     2  C   -0.000004   0.000017   0.000001   0.000009  -0.026134  -0.034493
     3  C   -0.000049  -0.000069   0.000014  -0.000028   0.003982  -0.006600
     4  C    0.000003  -0.000070   0.000052  -0.000101   0.000016   0.003166
     5  C    0.000000  -0.000022   0.000000  -0.000002  -0.000020   0.000369
     6  H    0.000000   0.000000   0.000000   0.000000  -0.000064   0.000213
     7  H    0.000000   0.000000   0.000000   0.000001  -0.005739   0.005272
     8  H    0.000000   0.000438   0.000016   0.000020   0.000000   0.000049
     9  H    0.000000   0.001305   0.000016   0.000439  -0.000060   0.001003
    10  O    0.000000   0.000000   0.000000   0.000000   0.000073   0.005141
    11  O    0.000000   0.000002   0.000000   0.000000   0.000000  -0.000109
    12  C    0.000000   0.000000   0.000000   0.000000   0.002764  -0.002017
    13  C    0.000000   0.000000   0.000000   0.000000  -0.000004  -0.000045
    14  C    0.000000  -0.000015   0.000002   0.000062   0.379590   0.384265
    15  O   -0.000631  -0.000559   0.000561  -0.000715   0.000224   0.000043
    16  Si  -0.022348  -0.024681  -0.013947  -0.025713  -0.000087  -0.000123
    17  C    0.001194   0.376749   0.367878   0.378848   0.000001  -0.000008
    18  C   -0.001385  -0.001231  -0.000112   0.001206   0.000000   0.000000
    19  C    0.376739   0.001190  -0.000645  -0.001012   0.000000   0.000000
    20  H   -0.000012  -0.000034   0.000089   0.000012   0.000000   0.000000
    21  H    0.000005   0.000537  -0.000029  -0.000001   0.000000   0.000000
    22  H    0.000548   0.000004   0.000000  -0.000021   0.000000   0.000000
    23  H   -0.022447   0.000007  -0.000029   0.000442   0.000000   0.000000
    24  H   -0.024076   0.000001   0.000020  -0.000027   0.000000   0.000000
    25  H    0.568365  -0.000021   0.000012   0.000001   0.000000   0.000000
    26  H   -0.000021   0.575582  -0.023780  -0.023628   0.000000  -0.000012
    27  H    0.000012  -0.023780   0.574245  -0.023975   0.000000   0.000000
    28  H    0.000001  -0.023628  -0.023975   0.573895  -0.000002   0.000027
    29  H    0.000000   0.000000   0.000000  -0.000002   0.594723  -0.031762
    30  H    0.000000  -0.000012   0.000000   0.000027  -0.031762   0.601098
    31  H   -0.000003  -0.000020   0.000001   0.000456  -0.027312  -0.029733
    32  H    0.000000   0.000000   0.000000   0.000000   0.001197   0.000230
    33  H    0.000000   0.000000   0.000000   0.000000   0.000317   0.001752
    34  H    0.000000   0.000000   0.000000   0.000000   0.000003  -0.000001
    35  H    0.000000   0.000000   0.000000   0.000000  -0.000002   0.000000
    36  H    0.000000   0.000000   0.000000   0.000000   0.000005   0.000004
    37  C   -0.000013  -0.000019   0.000001  -0.000002  -0.000103  -0.000056
    38  C    0.000093   0.000000   0.000000   0.000000   0.000001   0.000000
    39  C    0.000323   0.000000   0.000000   0.000000   0.000000   0.000000
    40  H    0.000000   0.000001   0.000000   0.000000  -0.000002  -0.000010
    41  H   -0.000008  -0.000008   0.000001   0.000001   0.000002   0.000001
    42  H    0.000000   0.000000   0.000000   0.000000   0.000003   0.000001
    43  H    0.000002   0.000000   0.000000   0.000000   0.000000   0.000000
    44  H    0.000013   0.000000   0.000000   0.000000   0.000000   0.000000
              31         32         33         34         35         36
     1  C    0.004709  -0.037062  -0.030285   0.003852  -0.005288  -0.008220
     2  C   -0.030251  -0.001062  -0.009343  -0.000111  -0.000043   0.000252
     3  C   -0.007572   0.000046  -0.000150   0.000001  -0.000006  -0.000001
     4  C   -0.000714   0.000043   0.000011   0.000000   0.000001   0.000035
     5  C   -0.000066  -0.000045   0.000131   0.000000  -0.000014   0.000220
     6  H   -0.000139  -0.000001   0.006221  -0.000032   0.006000   0.000074
     7  H   -0.002071   0.002820   0.000054  -0.000004  -0.000005  -0.000004
     8  H   -0.000051   0.000000   0.000001   0.000000   0.000000   0.000000
     9  H    0.000939  -0.000002  -0.000015   0.000000   0.000000  -0.000001
    10  O    0.000006   0.003317  -0.000793   0.000074  -0.000193   0.008409
    11  O    0.000000   0.000001  -0.000019   0.000000   0.000000   0.000016
    12  C    0.000197   0.375447   0.378526  -0.027424  -0.035343  -0.033687
    13  C   -0.000003  -0.036107  -0.037757   0.381375   0.384924   0.388247
    14  C    0.382304  -0.001544   0.004446   0.000005   0.000009  -0.000021
    15  O    0.009204   0.000000   0.000000   0.000000   0.000000   0.000000
    16  Si   0.002897   0.000000  -0.000001   0.000000   0.000000   0.000000
    17  C   -0.000104   0.000000   0.000000   0.000000   0.000000   0.000000
    18  C    0.000011   0.000000   0.000000   0.000000   0.000000   0.000000
    19  C   -0.000141   0.000000   0.000000   0.000000   0.000000   0.000000
    20  H    0.000000   0.000000   0.000000   0.000000   0.000000   0.000000
    21  H    0.000000   0.000000   0.000000   0.000000   0.000000   0.000000
    22  H    0.000000   0.000000   0.000000   0.000000   0.000000   0.000000
    23  H    0.000085   0.000000   0.000000   0.000000   0.000000   0.000000
    24  H    0.000001   0.000000   0.000000   0.000000   0.000000   0.000000
    25  H   -0.000003   0.000000   0.000000   0.000000   0.000000   0.000000
    26  H   -0.000020   0.000000   0.000000   0.000000   0.000000   0.000000
    27  H    0.000001   0.000000   0.000000   0.000000   0.000000   0.000000
    28  H    0.000456   0.000000   0.000000   0.000000   0.000000   0.000000
    29  H   -0.027312   0.001197   0.000317   0.000003  -0.000002   0.000005
    30  H   -0.029733   0.000230   0.001752  -0.000001   0.000000   0.000004
    31  H    0.564345  -0.000042  -0.000028   0.000000   0.000000   0.000000
    32  H   -0.000042   0.618452  -0.032080  -0.003406  -0.004400   0.005086
    33  H   -0.000028  -0.032080   0.603552  -0.003134   0.005029  -0.003770
    34  H    0.000000  -0.003406  -0.003134   0.601831  -0.031103  -0.029956
    35  H    0.000000  -0.004400   0.005029  -0.031103   0.604600  -0.030762
    36  H    0.000000   0.005086  -0.003770  -0.029956  -0.030762   0.578682
    37  C    0.000275  -0.000007   0.000002   0.000000  -0.000004   0.000000
    38  C   -0.000002  -0.000015  -0.000001   0.000000  -0.000001   0.000000
    39  C   -0.000001   0.000000   0.000000   0.000000   0.000000   0.000000
    40  H   -0.000010   0.000000  -0.000003   0.000000  -0.000006   0.000000
    41  H   -0.000005   0.000000   0.000000   0.000000   0.000000   0.000000
    42  H    0.000002   0.000049   0.000001   0.000000   0.000001   0.000000
    43  H    0.000000   0.000000   0.000000   0.000000   0.000000   0.000000
    44  H    0.000000   0.000000   0.000000   0.000000   0.000000   0.000000
              37         38         39         40         41         42
     1  C    0.000792  -0.001783   0.000041   0.001473  -0.000012  -0.000299
     2  C   -0.060374  -0.007578   0.000062  -0.005351   0.005364   0.001992
     3  C    0.341839  -0.035948  -0.000953  -0.031333  -0.025141  -0.004584
     4  C   -0.064647   0.004810  -0.000060  -0.003685  -0.006840  -0.000030
     5  C    0.000470  -0.000020   0.000002   0.003215  -0.000262  -0.000007
     6  H    0.005866  -0.000491  -0.000071  -0.001012   0.000011   0.001400
     7  H   -0.011244   0.005352   0.000208   0.000303   0.000016   0.002793
     8  H   -0.007067   0.000066  -0.000001   0.000068   0.004322   0.000002
     9  H    0.004749  -0.000126   0.000001   0.000082  -0.000058   0.000003
    10  O   -0.002500   0.000078   0.000000   0.001394  -0.000005  -0.000003
    11  O    0.000021   0.000000   0.000000  -0.000264  -0.000006   0.000000
    12  C   -0.000077   0.000039   0.000001   0.000177  -0.000004  -0.000044
    13  C   -0.000001   0.000000   0.000000   0.000001   0.000000  -0.000003
    14  C    0.005619  -0.000068  -0.000011  -0.000123  -0.000116   0.000004
    15  O   -0.058211   0.002395  -0.000040   0.003758  -0.003661  -0.000112
    16  Si  -0.007176   0.006085   0.004726   0.001076  -0.001503  -0.000100
    17  C   -0.000105   0.000007   0.000000   0.000003  -0.000037   0.000000
    18  C   -0.000546  -0.000306  -0.000771  -0.000031   0.001684  -0.000003
    19  C   -0.000059  -0.000206  -0.000241  -0.000001  -0.000017   0.000000
    20  H    0.000070  -0.000002   0.000007  -0.000001   0.000031   0.000000
    21  H   -0.000697   0.000032  -0.000011  -0.000022   0.001486   0.000000
    22  H   -0.000342   0.000143   0.000111   0.000012   0.000781   0.000003
    23  H    0.000005  -0.000005  -0.000002   0.000000   0.000000   0.000000
    24  H    0.000001   0.000001  -0.000002   0.000000   0.000001   0.000000
    25  H   -0.000013   0.000093   0.000323   0.000000  -0.000008   0.000000
    26  H   -0.000019   0.000000   0.000000   0.000001  -0.000008   0.000000
    27  H    0.000001   0.000000   0.000000   0.000000   0.000001   0.000000
    28  H   -0.000002   0.000000   0.000000   0.000000   0.000001   0.000000
    29  H   -0.000103   0.000001   0.000000  -0.000002   0.000002   0.000003
    30  H   -0.000056   0.000000   0.000000  -0.000010   0.000001   0.000001
    31  H    0.000275  -0.000002  -0.000001  -0.000010  -0.000005   0.000002
    32  H   -0.000007  -0.000015   0.000000   0.000000   0.000000   0.000049
    33  H    0.000002  -0.000001   0.000000  -0.000003   0.000000   0.000001
    34  H    0.000000   0.000000   0.000000   0.000000   0.000000   0.000000
    35  H   -0.000004  -0.000001   0.000000  -0.000006   0.000000   0.000001
    36  H    0.000000   0.000000   0.000000   0.000000   0.000000   0.000000
    37  C    5.074253   0.379145  -0.034907   0.359114   0.372943  -0.053194
    38  C    0.379145   4.741807   0.670447  -0.032979  -0.038977   0.380687
    39  C   -0.034907   0.670447   4.915725   0.000231  -0.007217  -0.043434
    40  H    0.359114  -0.032979   0.000231   0.623145  -0.031769  -0.002077
    41  H    0.372943  -0.038977  -0.007217  -0.031769   0.607698   0.005054
    42  H   -0.053194   0.380687  -0.043434  -0.002077   0.005054   0.620425
    43  H    0.004734  -0.024389   0.375332  -0.000212   0.000115  -0.008699
    44  H   -0.012320  -0.035419   0.382317   0.000138   0.005889   0.005869
              43         44
     1  C   -0.000001  -0.000002
     2  C    0.000003   0.000009
     3  C   -0.000042   0.000092
     4  C    0.000002  -0.000018
     5  C    0.000000   0.000000
     6  H    0.000000   0.000002
     7  H    0.000017   0.000001
     8  H    0.000000   0.000000
     9  H    0.000000   0.000000
    10  O    0.000000   0.000000
    11  O    0.000000   0.000000
    12  C    0.000000   0.000000
    13  C    0.000000   0.000000
    14  C    0.000000   0.000000
    15  O   -0.000004  -0.000053
    16  Si   0.000007  -0.000035
    17  C    0.000000   0.000000
    18  C    0.000009  -0.000170
    19  C   -0.000001  -0.000011
    20  H    0.000000  -0.000002
    21  H    0.000000   0.000008
    22  H   -0.000018   0.002572
    23  H    0.000000   0.000000
    24  H    0.000000   0.000000
    25  H    0.000002   0.000013
    26  H    0.000000   0.000000
    27  H    0.000000   0.000000
    28  H    0.000000   0.000000
    29  H    0.000000   0.000000
    30  H    0.000000   0.000000
    31  H    0.000000   0.000000
    32  H    0.000000   0.000000
    33  H    0.000000   0.000000
    34  H    0.000000   0.000000
    35  H    0.000000   0.000000
    36  H    0.000000   0.000000
    37  C    0.004734  -0.012320
    38  C   -0.024389  -0.035419
    39  C    0.375332   0.382317
    40  H   -0.000212   0.000138
    41  H    0.000115   0.005889
    42  H   -0.008699   0.005869
    43  H    0.590324  -0.043266
    44  H   -0.043266   0.590834
 Mulliken charges:
               1
     1  C    0.168904
     2  C   -0.102940
     3  C    0.323637
     4  C   -0.310231
     5  C    0.592317
     6  H    0.112855
     7  H    0.112122
     8  H    0.142269
     9  H    0.163075
    10  O   -0.484571
    11  O   -0.497480
    12  C   -0.191562
    13  C   -0.330992
    14  C   -0.339413
    15  O   -0.647565
    16  Si   0.909935
    17  C   -0.552306
    18  C   -0.558041
    19  C   -0.533337
    20  H    0.121823
    21  H    0.119353
    22  H    0.122089
    23  H    0.121275
    24  H    0.117317
    25  H    0.123698
    26  H    0.118334
    27  H    0.119608
    28  H    0.119807
    29  H    0.113245
    30  H    0.109524
    31  H    0.132832
    32  H    0.109085
    33  H    0.117337
    34  H    0.108029
    35  H    0.106606
    36  H    0.125394
    37  C   -0.236228
    38  C   -0.012871
    39  C   -0.261812
    40  H    0.114700
    41  H    0.110245
    42  H    0.094300
    43  H    0.106087
    44  H    0.103550
 Sum of Mulliken charges =   0.00000
 Mulliken charges with hydrogens summed into heavy atoms:
               1
     1  C    0.281758
     2  C    0.009182
     3  C    0.323637
     4  C   -0.004887
     5  C    0.592317
    10  O   -0.484571
    11  O   -0.497480
    12  C    0.034860
    13  C    0.009036
    14  C    0.016189
    15  O   -0.647565
    16  Si   0.909935
    17  C   -0.194557
    18  C   -0.194776
    19  C   -0.171047
    37  C   -0.011284
    38  C    0.081429
    39  C   -0.052175
 Electronic spatial extent (au):  <R**2>=           5659.9181
 Charge=              0.0000 electrons
 Dipole moment (field-independent basis, Debye):
    X=              2.1523    Y=              2.8683    Z=              2.6534  Tot=              4.4610
 Quadrupole moment (field-independent basis, Debye-Ang):
   XX=           -116.6585   YY=           -122.6331   ZZ=           -123.2543
   XY=            -11.0855   XZ=            -11.4552   YZ=             -7.5651
 Traceless Quadrupole moment (field-independent basis, Debye-Ang):
   XX=              4.1901   YY=             -1.7844   ZZ=             -2.4057
   XY=            -11.0855   XZ=            -11.4552   YZ=             -7.5651
 Octapole moment (field-independent basis, Debye-Ang**2):
  XXX=             15.9739  YYY=             17.5470  ZZZ=             13.9162  XYY=             14.6370
  XXY=             16.1710  XXZ=             20.2510  XZZ=              7.1113  YZZ=             11.4444
  YYZ=             21.5015  XYZ=             13.3488
 Hexadecapole moment (field-independent basis, Debye-Ang**3):
 XXXX=          -4726.6888 YYYY=          -1671.7764 ZZZZ=          -1127.5791 XXXY=            -62.3197
 XXXZ=            -60.8266 YYYX=              6.9290 YYYZ=             -9.7093 ZZZX=            -19.4864
 ZZZY=            -17.0524 XXYY=          -1108.6496 XXZZ=          -1013.7222 YYZZ=           -519.0343
 XXYZ=            -38.9185 YYXZ=            -47.0223 ZZXY=            -35.6911
 N-N= 1.621615265334D+03 E-N=-5.733557621922D+03  KE= 1.055904769071D+03
 1\1\GINC-CPU-E-1146\FOpt\RB3LYP\6-31G(d,p)\C14H26O3Si1\KE291\06-Feb-20
 19\0\\# b3lyp/6-31g(d,p) Opt=(maxcycles=25) scrf=(solvent=chloroform)\
 \P_ng_4ginp007\\0,1\C,0.2342208358,1.8279858831,-0.4386984288\C,-0.081
 9764176,1.2103893058,0.9315334397\C,-1.2468515492,2.0002817165,1.59400
 93763\C,-0.7752224516,3.4552103059,1.7652529923\C,-0.1012575525,4.0776
 784255,0.5525022206\H,-0.638147847,1.7153219105,-1.0930151641\H,-0.445
 1382809,0.1947319544,0.7388764208\H,-1.5934407737,4.1196627492,2.05499
 21898\H,-0.0333735933,3.4980651032,2.5701364968\O,0.4822599722,3.26894
 79105,-0.3583560244\O,-0.0009075456,5.2790306713,0.4161010799\C,1.4413
 139845,1.2301153253,-1.1597236815\C,1.5967248922,1.7318169734,-2.59858
 88699\C,1.1534566599,1.0976856128,1.8410166714\O,-1.5113810324,1.38325
 96377,2.8466452219\Si,-2.2097738053,1.8420933086,4.3063558721\C,-1.016
 9521565,2.8972646316,5.3210865211\C,-3.8312569208,2.7843064039,4.08541
 40663\C,-2.5263986333,0.2090569942,5.1827382151\H,-4.2564380496,3.0132
 304397,5.0698915114\H,-3.698415342,3.7366550293,3.5612079114\H,-4.5718
 667345,2.1948356625,3.5355843567\H,-1.5967988485,-0.3521778322,5.32338
 68586\H,-2.9694803771,0.3759318575,6.1708955759\H,-3.2134213975,-0.419
 1373957,4.6066933906\H,-0.8567621466,3.8878257384,4.8830416383\H,-1.41
 64981368,3.047746214,6.3310039709\H,-0.0406354276,2.4109816755,5.42150
 36837\H,1.8513806365,0.3522233992,1.4520538354\H,1.6977985735,2.043745
 3212,1.9227626535\H,0.8528349125,0.7861944919,2.8422150698\H,1.3217627
 589,0.1394573841,-1.1553254748\H,2.3474496548,1.4523930014,-0.58677711
 21\H,2.4707823012,1.2772283249,-3.074320233\H,0.7180259587,1.480127945
 2,-3.2029786775\H,1.7227430038,2.8173737473,-2.6234273544\C,-2.5543568
 116,1.9853426705,0.7465235672\C,-3.1084279901,0.6259382862,0.418800483
 1\C,-4.3162250573,0.1921046041,0.7822668882\H,-2.3807841354,2.54070606
 43,-0.1854882542\H,-3.3050563572,2.557779332,1.3002207622\H,-2.4806560
 243,-0.0309908934,-0.1824412527\H,-4.6775015642,-0.7923736235,0.499848
 8654\H,-4.9926191843,0.8099917319,1.3681567209\\Version=ES64L-G09RevD.
 01\State=1-A\HF=-1064.422243\RMSD=7.929e-09\RMSF=5.748e-06\Dipole=-0.4
 717552,-1.6079451,0.5217694\Quadrupole=4.318588,-9.3546829,5.0360949,-
 5.9866961,-0.5073205,8.807356\PG=C01 [X(C14H26O3Si1)]\\@


 You don't have to suffer to be a poet.
 Adolescence is enough suffering for anyone.
                             -- John Ciardi
 Job cpu time:       0 days  2 hours  0 minutes 29.5 seconds.
 File lengths (MBytes):  RWF=    371 Int=      0 D2E=      0 Chk=     17 Scr=      1
 Normal termination of Gaussian 09 at Wed Feb  6 11:11:06 2019.
