 Entering Gaussian System, Link 0=/usr/local/Cluster-Apps/gaussian/g09/g09
 Initial command:
 /usr/local/Cluster-Apps/gaussian/g09/l1.exe "/home/ke291/rds/hpc-work/06Feb0927IP1/Gau-173043.inp" -scrdir="/home/ke291/rds/hpc-work/06Feb0927IP1/"
 Entering Link 1 = /usr/local/Cluster-Apps/gaussian/g09/l1.exe PID=    173048.
  
 Copyright (c) 1988,1990,1992,1993,1995,1998,2003,2009,2013,
            Gaussian, Inc.  All Rights Reserved.
  
 This is part of the Gaussian(R) 09 program.  It is based on
 the Gaussian(R) 03 system (copyright 2003, Gaussian, Inc.),
 the Gaussian(R) 98 system (copyright 1998, Gaussian, Inc.),
 the Gaussian(R) 94 system (copyright 1995, Gaussian, Inc.),
 the Gaussian 92(TM) system (copyright 1992, Gaussian, Inc.),
 the Gaussian 90(TM) system (copyright 1990, Gaussian, Inc.),
 the Gaussian 88(TM) system (copyright 1988, Gaussian, Inc.),
 the Gaussian 86(TM) system (copyright 1986, Carnegie Mellon
 University), and the Gaussian 82(TM) system (copyright 1983,
 Carnegie Mellon University). Gaussian is a federally registered
 trademark of Gaussian, Inc.
  
 This software contains proprietary and confidential information,
 including trade secrets, belonging to Gaussian, Inc.
  
 This software is provided under written license and may be
 used, copied, transmitted, or stored only in accord with that
 written license.
  
 The following legend is applicable only to US Government
 contracts under FAR:
  
                    RESTRICTED RIGHTS LEGEND
  
 Use, reproduction and disclosure by the US Government is
 subject to restrictions as set forth in subparagraphs (a)
 and (c) of the Commercial Computer Software - Restricted
 Rights clause in FAR 52.227-19.
  
 Gaussian, Inc.
 340 Quinnipiac St., Bldg. 40, Wallingford CT 06492
  
  
 ---------------------------------------------------------------
 Warning -- This program may not be used in any manner that
 competes with the business of Gaussian, Inc. or will provide
 assistance to any competitor of Gaussian, Inc.  The licensee
 of this program is prohibited from giving any competitor of
 Gaussian, Inc. access to this program.  By using this program,
 the user acknowledges that Gaussian, Inc. is engaged in the
 business of creating and licensing software in the field of
 computational chemistry and represents and warrants to the
 licensee that it is not a competitor of Gaussian, Inc. and that
 it will not use this program in any manner prohibited above.
 ---------------------------------------------------------------
  

 Cite this work as:
 Gaussian 09, Revision D.01,
 M. J. Frisch, G. W. Trucks, H. B. Schlegel, G. E. Scuseria, 
 M. A. Robb, J. R. Cheeseman, G. Scalmani, V. Barone, B. Mennucci, 
 G. A. Petersson, H. Nakatsuji, M. Caricato, X. Li, H. P. Hratchian, 
 A. F. Izmaylov, J. Bloino, G. Zheng, J. L. Sonnenberg, M. Hada, 
 M. Ehara, K. Toyota, R. Fukuda, J. Hasegawa, M. Ishida, T. Nakajima, 
 Y. Honda, O. Kitao, H. Nakai, T. Vreven, J. A. Montgomery, Jr., 
 J. E. Peralta, F. Ogliaro, M. Bearpark, J. J. Heyd, E. Brothers, 
 K. N. Kudin, V. N. Staroverov, T. Keith, R. Kobayashi, J. Normand, 
 K. Raghavachari, A. Rendell, J. C. Burant, S. S. Iyengar, J. Tomasi, 
 M. Cossi, N. Rega, J. M. Millam, M. Klene, J. E. Knox, J. B. Cross, 
 V. Bakken, C. Adamo, J. Jaramillo, R. Gomperts, R. E. Stratmann, 
 O. Yazyev, A. J. Austin, R. Cammi, C. Pomelli, J. W. Ochterski, 
 R. L. Martin, K. Morokuma, V. G. Zakrzewski, G. A. Voth, 
 P. Salvador, J. J. Dannenberg, S. Dapprich, A. D. Daniels, 
 O. Farkas, J. B. Foresman, J. V. Ortiz, J. Cioslowski, 
 and D. J. Fox, Gaussian, Inc., Wallingford CT, 2013.
 
 ******************************************
 Gaussian 09:  ES64L-G09RevD.01 24-Apr-2013
                 6-Feb-2019 
 ******************************************
 %nprocshared=2
 Will use up to    2 processors via shared memory.
 %mem=6000MB
 %chk=/home/ke291/rds/hpc-work/06Feb0927IP1/P_ng_2ginp011.chk
 ---------------------------------------------------------------
 # b3lyp/6-31g(d,p) Opt=(maxcycles=25) scrf=(solvent=chloroform)
 ---------------------------------------------------------------
 1/6=25,14=-1,18=20,19=15,26=3,38=1/1,3;
 2/9=110,12=2,17=6,18=5,40=1/2;
 3/5=1,6=6,7=101,11=2,16=1,25=1,30=1,70=2201,71=1,72=7,74=-5/1,2,3;
 4//1;
 5/5=2,38=5,53=7/2;
 6/7=2,8=2,9=2,10=2,28=1/1;
 7//1,2,3,16;
 1/6=25,14=-1,18=20,19=15,26=3/3(2);
 2/9=110/2;
 99//99;
 2/9=110/2;
 3/5=1,6=6,7=101,11=2,16=1,25=1,30=1,70=2205,71=1,72=7,74=-5/1,2,3;
 4/5=5,16=3,69=1/1;
 5/5=2,38=5,53=7/2;
 7//1,2,3,16;
 1/6=25,14=-1,18=20,19=15,26=3/3(-5);
 2/9=110/2;
 6/7=2,8=2,9=2,10=2,19=2,28=1/1;
 99/9=1/99;
 -------------
 P_ng_2ginp011
 -------------
 Symbolic Z-matrix:
 Charge =  0 Multiplicity = 1
 C                    -0.45596  -0.28777   1.44974 
 C                    -0.87027   0.96244   0.66808 
 C                    -1.87581   1.81447   1.50872 
 C                    -1.09615   2.21147   2.7728 
 C                    -0.44285   1.07441   3.50416 
 H                    -1.31663  -0.95855   1.55733 
 H                     0.01546   1.60295   0.54076 
 H                    -0.31334   2.9418    2.53218 
 H                    -1.76828   2.69207   3.49027 
 O                    -0.01815   0.01485   2.79218 
 O                    -0.22703   1.14388   4.71137 
 C                     0.65987  -1.12468   0.79743 
 C                     1.97631  -0.38063   0.6109 
 C                    -1.32203   0.62816  -0.76064 
 O                    -2.12343   2.98067   0.69098 
 Si                   -3.08268   4.31696   0.99298 
 C                    -2.44594   5.75393  -0.06603 
 C                    -4.8691    4.01603   0.48175 
 C                    -3.07844   4.90928   2.77055 
 H                    -4.91733   3.64805  -0.5472 
 H                    -5.34682   3.28273   1.13682 
 H                    -5.44332   4.9456    0.54012 
 H                    -2.05923   5.10138   3.11797 
 H                    -3.64403   5.842     2.86073 
 H                    -3.54409   4.17474   3.43349 
 H                    -3.06437   6.64324   0.08569 
 H                    -1.41409   5.99519   0.20498 
 H                    -2.4745    5.48494  -1.12584 
 H                    -1.80104   1.47964  -1.2526 
 H                    -0.45833   0.35686  -1.37789 
 H                    -2.00841  -0.22167  -0.78856 
 H                     0.32657  -1.52172  -0.1675 
 H                     0.86197  -1.99111   1.4404 
 H                     2.74077  -1.06578   0.23004 
 H                     1.87763   0.43513  -0.11081 
 H                     2.33933   0.03425   1.55611 
 C                    -3.18684   1.06988   1.93005 
 C                    -4.02417   0.49216   0.82246 
 C                    -4.4762   -0.76862   0.80336 
 H                    -3.83327   1.7652    2.47937 
 H                    -2.94634   0.27652   2.64888 
 H                    -4.28225   1.15091  -0.00411 
 H                    -5.08406  -1.12625  -0.02287 
 H                    -4.2615   -1.46998   1.6039 
 

 GradGradGradGradGradGradGradGradGradGradGradGradGradGradGradGradGradGrad
 Berny optimization.
 Initialization pass.
                           ----------------------------
                           !    Initial Parameters    !
                           ! (Angstroms and Degrees)  !
 --------------------------                            --------------------------
 ! Name  Definition              Value          Derivative Info.                !
 --------------------------------------------------------------------------------
 ! R1    R(1,2)                  1.5316         estimate D2E/DX2                !
 ! R2    R(1,6)                  1.0965         estimate D2E/DX2                !
 ! R3    R(1,10)                 1.4441         estimate D2E/DX2                !
 ! R4    R(1,12)                 1.5398         estimate D2E/DX2                !
 ! R5    R(2,3)                  1.5632         estimate D2E/DX2                !
 ! R6    R(2,7)                  1.1004         estimate D2E/DX2                !
 ! R7    R(2,14)                 1.5353         estimate D2E/DX2                !
 ! R8    R(3,4)                  1.5373         estimate D2E/DX2                !
 ! R9    R(3,15)                 1.4457         estimate D2E/DX2                !
 ! R10   R(3,37)                 1.5655         estimate D2E/DX2                !
 ! R11   R(4,5)                  1.5015         estimate D2E/DX2                !
 ! R12   R(4,8)                  1.0973         estimate D2E/DX2                !
 ! R13   R(4,9)                  1.0943         estimate D2E/DX2                !
 ! R14   R(5,10)                 1.3453         estimate D2E/DX2                !
 ! R15   R(5,11)                 1.2283         estimate D2E/DX2                !
 ! R16   R(12,13)                1.5236         estimate D2E/DX2                !
 ! R17   R(12,32)                1.0954         estimate D2E/DX2                !
 ! R18   R(12,33)                1.0977         estimate D2E/DX2                !
 ! R19   R(13,34)                1.0949         estimate D2E/DX2                !
 ! R20   R(13,35)                1.0936         estimate D2E/DX2                !
 ! R21   R(13,36)                1.0942         estimate D2E/DX2                !
 ! R22   R(14,29)                1.0938         estimate D2E/DX2                !
 ! R23   R(14,30)                1.0957         estimate D2E/DX2                !
 ! R24   R(14,31)                1.0928         estimate D2E/DX2                !
 ! R25   R(15,16)                1.6724         estimate D2E/DX2                !
 ! R26   R(16,17)                1.8952         estimate D2E/DX2                !
 ! R27   R(16,18)                1.8823         estimate D2E/DX2                !
 ! R28   R(16,19)                1.8737         estimate D2E/DX2                !
 ! R29   R(17,26)                1.0938         estimate D2E/DX2                !
 ! R30   R(17,27)                1.0938         estimate D2E/DX2                !
 ! R31   R(17,28)                1.0938         estimate D2E/DX2                !
 ! R32   R(18,20)                1.0938         estimate D2E/DX2                !
 ! R33   R(18,21)                1.0932         estimate D2E/DX2                !
 ! R34   R(18,22)                1.0942         estimate D2E/DX2                !
 ! R35   R(19,23)                1.0938         estimate D2E/DX2                !
 ! R36   R(19,24)                1.0945         estimate D2E/DX2                !
 ! R37   R(19,25)                1.0936         estimate D2E/DX2                !
 ! R38   R(37,38)                1.5039         estimate D2E/DX2                !
 ! R39   R(37,40)                1.0968         estimate D2E/DX2                !
 ! R40   R(37,41)                1.0973         estimate D2E/DX2                !
 ! R41   R(38,39)                1.3395         estimate D2E/DX2                !
 ! R42   R(38,42)                1.088          estimate D2E/DX2                !
 ! R43   R(39,43)                1.0863         estimate D2E/DX2                !
 ! R44   R(39,44)                1.0858         estimate D2E/DX2                !
 ! A1    A(2,1,6)              109.7017         estimate D2E/DX2                !
 ! A2    A(2,1,10)             112.6677         estimate D2E/DX2                !
 ! A3    A(2,1,12)             115.0553         estimate D2E/DX2                !
 ! A4    A(6,1,10)             105.9597         estimate D2E/DX2                !
 ! A5    A(6,1,12)             106.1335         estimate D2E/DX2                !
 ! A6    A(10,1,12)            106.7391         estimate D2E/DX2                !
 ! A7    A(1,2,3)              110.1494         estimate D2E/DX2                !
 ! A8    A(1,2,7)              108.448          estimate D2E/DX2                !
 ! A9    A(1,2,14)             112.136          estimate D2E/DX2                !
 ! A10   A(3,2,7)              105.2315         estimate D2E/DX2                !
 ! A11   A(3,2,14)             115.4564         estimate D2E/DX2                !
 ! A12   A(7,2,14)             104.8268         estimate D2E/DX2                !
 ! A13   A(2,3,4)              104.8741         estimate D2E/DX2                !
 ! A14   A(2,3,15)             104.221          estimate D2E/DX2                !
 ! A15   A(2,3,37)             115.0994         estimate D2E/DX2                !
 ! A16   A(4,3,15)             110.0994         estimate D2E/DX2                !
 ! A17   A(4,3,37)             109.0412         estimate D2E/DX2                !
 ! A18   A(15,3,37)            113.1083         estimate D2E/DX2                !
 ! A19   A(3,4,5)              115.1888         estimate D2E/DX2                !
 ! A20   A(3,4,8)              110.6938         estimate D2E/DX2                !
 ! A21   A(3,4,9)              109.9392         estimate D2E/DX2                !
 ! A22   A(5,4,8)              107.4833         estimate D2E/DX2                !
 ! A23   A(5,4,9)              106.2879         estimate D2E/DX2                !
 ! A24   A(8,4,9)              106.8364         estimate D2E/DX2                !
 ! A25   A(4,5,10)             118.4235         estimate D2E/DX2                !
 ! A26   A(4,5,11)             120.8185         estimate D2E/DX2                !
 ! A27   A(10,5,11)            120.6109         estimate D2E/DX2                !
 ! A28   A(1,10,5)             124.1459         estimate D2E/DX2                !
 ! A29   A(1,12,13)            114.3656         estimate D2E/DX2                !
 ! A30   A(1,12,32)            110.4685         estimate D2E/DX2                !
 ! A31   A(1,12,33)            108.3172         estimate D2E/DX2                !
 ! A32   A(13,12,32)           109.3949         estimate D2E/DX2                !
 ! A33   A(13,12,33)           107.3428         estimate D2E/DX2                !
 ! A34   A(32,12,33)           106.6136         estimate D2E/DX2                !
 ! A35   A(12,13,34)           109.8914         estimate D2E/DX2                !
 ! A36   A(12,13,35)           111.5359         estimate D2E/DX2                !
 ! A37   A(12,13,36)           111.4718         estimate D2E/DX2                !
 ! A38   A(34,13,35)           107.4705         estimate D2E/DX2                !
 ! A39   A(34,13,36)           107.8242         estimate D2E/DX2                !
 ! A40   A(35,13,36)           108.4917         estimate D2E/DX2                !
 ! A41   A(2,14,29)            112.2041         estimate D2E/DX2                !
 ! A42   A(2,14,30)            110.2548         estimate D2E/DX2                !
 ! A43   A(2,14,31)            112.2058         estimate D2E/DX2                !
 ! A44   A(29,14,30)           106.5333         estimate D2E/DX2                !
 ! A45   A(29,14,31)           108.5919         estimate D2E/DX2                !
 ! A46   A(30,14,31)           106.7483         estimate D2E/DX2                !
 ! A47   A(3,15,16)            129.839          estimate D2E/DX2                !
 ! A48   A(15,16,17)           108.1925         estimate D2E/DX2                !
 ! A49   A(15,16,18)           111.5652         estimate D2E/DX2                !
 ! A50   A(15,16,19)           114.9994         estimate D2E/DX2                !
 ! A51   A(17,16,18)           106.7565         estimate D2E/DX2                !
 ! A52   A(17,16,19)           106.8381         estimate D2E/DX2                !
 ! A53   A(18,16,19)           108.0804         estimate D2E/DX2                !
 ! A54   A(16,17,26)           110.4259         estimate D2E/DX2                !
 ! A55   A(16,17,27)           110.2269         estimate D2E/DX2                !
 ! A56   A(16,17,28)           110.254          estimate D2E/DX2                !
 ! A57   A(26,17,27)           108.6437         estimate D2E/DX2                !
 ! A58   A(26,17,28)           108.639          estimate D2E/DX2                !
 ! A59   A(27,17,28)           108.5998         estimate D2E/DX2                !
 ! A60   A(16,18,20)           110.5549         estimate D2E/DX2                !
 ! A61   A(16,18,21)           111.0521         estimate D2E/DX2                !
 ! A62   A(16,18,22)           110.3498         estimate D2E/DX2                !
 ! A63   A(20,18,21)           108.5875         estimate D2E/DX2                !
 ! A64   A(20,18,22)           108.2307         estimate D2E/DX2                !
 ! A65   A(21,18,22)           107.9736         estimate D2E/DX2                !
 ! A66   A(16,19,23)           111.0366         estimate D2E/DX2                !
 ! A67   A(16,19,24)           110.2664         estimate D2E/DX2                !
 ! A68   A(16,19,25)           111.2116         estimate D2E/DX2                !
 ! A69   A(23,19,24)           107.7993         estimate D2E/DX2                !
 ! A70   A(23,19,25)           108.7957         estimate D2E/DX2                !
 ! A71   A(24,19,25)           107.6031         estimate D2E/DX2                !
 ! A72   A(3,37,38)            116.7936         estimate D2E/DX2                !
 ! A73   A(3,37,40)            109.0769         estimate D2E/DX2                !
 ! A74   A(3,37,41)            109.6731         estimate D2E/DX2                !
 ! A75   A(38,37,40)           106.5134         estimate D2E/DX2                !
 ! A76   A(38,37,41)           109.0718         estimate D2E/DX2                !
 ! A77   A(40,37,41)           105.0368         estimate D2E/DX2                !
 ! A78   A(37,38,39)           124.0544         estimate D2E/DX2                !
 ! A79   A(37,38,42)           117.3221         estimate D2E/DX2                !
 ! A80   A(39,38,42)           118.6199         estimate D2E/DX2                !
 ! A81   A(38,39,43)           120.6339         estimate D2E/DX2                !
 ! A82   A(38,39,44)           122.0565         estimate D2E/DX2                !
 ! A83   A(43,39,44)           117.3084         estimate D2E/DX2                !
 ! D1    D(6,1,2,3)             67.3501         estimate D2E/DX2                !
 ! D2    D(6,1,2,7)           -177.9788         estimate D2E/DX2                !
 ! D3    D(6,1,2,14)           -62.7062         estimate D2E/DX2                !
 ! D4    D(10,1,2,3)           -50.4287         estimate D2E/DX2                !
 ! D5    D(10,1,2,7)            64.2424         estimate D2E/DX2                !
 ! D6    D(10,1,2,14)          179.515          estimate D2E/DX2                !
 ! D7    D(12,1,2,3)          -173.098          estimate D2E/DX2                !
 ! D8    D(12,1,2,7)           -58.4269         estimate D2E/DX2                !
 ! D9    D(12,1,2,14)           56.8457         estimate D2E/DX2                !
 ! D10   D(2,1,10,5)            27.9638         estimate D2E/DX2                !
 ! D11   D(6,1,10,5)           -91.9986         estimate D2E/DX2                !
 ! D12   D(12,1,10,5)          155.1828         estimate D2E/DX2                !
 ! D13   D(2,1,12,13)           60.8383         estimate D2E/DX2                !
 ! D14   D(2,1,12,32)          -63.0904         estimate D2E/DX2                !
 ! D15   D(2,1,12,33)         -179.5163         estimate D2E/DX2                !
 ! D16   D(6,1,12,13)         -177.6531         estimate D2E/DX2                !
 ! D17   D(6,1,12,32)           58.4182         estimate D2E/DX2                !
 ! D18   D(6,1,12,33)          -58.0077         estimate D2E/DX2                !
 ! D19   D(10,1,12,13)         -64.9536         estimate D2E/DX2                !
 ! D20   D(10,1,12,32)         171.1177         estimate D2E/DX2                !
 ! D21   D(10,1,12,33)          54.6918         estimate D2E/DX2                !
 ! D22   D(1,2,3,4)             61.3908         estimate D2E/DX2                !
 ! D23   D(1,2,3,15)           177.1197         estimate D2E/DX2                !
 ! D24   D(1,2,3,37)           -58.422          estimate D2E/DX2                !
 ! D25   D(7,2,3,4)            -55.305          estimate D2E/DX2                !
 ! D26   D(7,2,3,15)            60.4239         estimate D2E/DX2                !
 ! D27   D(7,2,3,37)          -175.1178         estimate D2E/DX2                !
 ! D28   D(14,2,3,4)          -170.3513         estimate D2E/DX2                !
 ! D29   D(14,2,3,15)          -54.6224         estimate D2E/DX2                !
 ! D30   D(14,2,3,37)           69.8359         estimate D2E/DX2                !
 ! D31   D(1,2,14,29)          168.7204         estimate D2E/DX2                !
 ! D32   D(1,2,14,30)          -72.7085         estimate D2E/DX2                !
 ! D33   D(1,2,14,31)           46.134          estimate D2E/DX2                !
 ! D34   D(3,2,14,29)           41.4544         estimate D2E/DX2                !
 ! D35   D(3,2,14,30)          160.0255         estimate D2E/DX2                !
 ! D36   D(3,2,14,31)          -81.132          estimate D2E/DX2                !
 ! D37   D(7,2,14,29)          -73.8232         estimate D2E/DX2                !
 ! D38   D(7,2,14,30)           44.7479         estimate D2E/DX2                !
 ! D39   D(7,2,14,31)          163.5904         estimate D2E/DX2                !
 ! D40   D(2,3,4,5)            -51.8769         estimate D2E/DX2                !
 ! D41   D(2,3,4,8)             70.3015         estimate D2E/DX2                !
 ! D42   D(2,3,4,9)           -171.8981         estimate D2E/DX2                !
 ! D43   D(15,3,4,5)          -163.4603         estimate D2E/DX2                !
 ! D44   D(15,3,4,8)           -41.2819         estimate D2E/DX2                !
 ! D45   D(15,3,4,9)            76.5186         estimate D2E/DX2                !
 ! D46   D(37,3,4,5)            71.9004         estimate D2E/DX2                !
 ! D47   D(37,3,4,8)          -165.9212         estimate D2E/DX2                !
 ! D48   D(37,3,4,9)           -48.1208         estimate D2E/DX2                !
 ! D49   D(2,3,15,16)         -178.8055         estimate D2E/DX2                !
 ! D50   D(4,3,15,16)          -66.7984         estimate D2E/DX2                !
 ! D51   D(37,3,15,16)          55.4682         estimate D2E/DX2                !
 ! D52   D(2,3,37,38)          -57.1482         estimate D2E/DX2                !
 ! D53   D(2,3,37,40)         -177.9169         estimate D2E/DX2                !
 ! D54   D(2,3,37,41)           67.5528         estimate D2E/DX2                !
 ! D55   D(4,3,37,38)         -174.6345         estimate D2E/DX2                !
 ! D56   D(4,3,37,40)           64.5968         estimate D2E/DX2                !
 ! D57   D(4,3,37,41)          -49.9335         estimate D2E/DX2                !
 ! D58   D(15,3,37,38)          62.5098         estimate D2E/DX2                !
 ! D59   D(15,3,37,40)         -58.2589         estimate D2E/DX2                !
 ! D60   D(15,3,37,41)        -172.7892         estimate D2E/DX2                !
 ! D61   D(3,4,5,10)            31.1591         estimate D2E/DX2                !
 ! D62   D(3,4,5,11)          -153.2231         estimate D2E/DX2                !
 ! D63   D(8,4,5,10)           -92.7283         estimate D2E/DX2                !
 ! D64   D(8,4,5,11)            82.8895         estimate D2E/DX2                !
 ! D65   D(9,4,5,10)           153.1673         estimate D2E/DX2                !
 ! D66   D(9,4,5,11)           -31.2148         estimate D2E/DX2                !
 ! D67   D(4,5,10,1)           -17.7557         estimate D2E/DX2                !
 ! D68   D(11,5,10,1)          166.617          estimate D2E/DX2                !
 ! D69   D(1,12,13,34)         174.7765         estimate D2E/DX2                !
 ! D70   D(1,12,13,35)         -66.1447         estimate D2E/DX2                !
 ! D71   D(1,12,13,36)          55.2967         estimate D2E/DX2                !
 ! D72   D(32,12,13,34)        -60.7223         estimate D2E/DX2                !
 ! D73   D(32,12,13,35)         58.3565         estimate D2E/DX2                !
 ! D74   D(32,12,13,36)        179.798          estimate D2E/DX2                !
 ! D75   D(33,12,13,34)         54.5864         estimate D2E/DX2                !
 ! D76   D(33,12,13,35)        173.6652         estimate D2E/DX2                !
 ! D77   D(33,12,13,36)        -64.8933         estimate D2E/DX2                !
 ! D78   D(3,15,16,17)         156.7325         estimate D2E/DX2                !
 ! D79   D(3,15,16,18)         -86.1251         estimate D2E/DX2                !
 ! D80   D(3,15,16,19)          37.4136         estimate D2E/DX2                !
 ! D81   D(15,16,17,26)        178.6464         estimate D2E/DX2                !
 ! D82   D(15,16,17,27)        -61.3027         estimate D2E/DX2                !
 ! D83   D(15,16,17,28)         58.5838         estimate D2E/DX2                !
 ! D84   D(18,16,17,26)         58.4473         estimate D2E/DX2                !
 ! D85   D(18,16,17,27)        178.4982         estimate D2E/DX2                !
 ! D86   D(18,16,17,28)        -61.6153         estimate D2E/DX2                !
 ! D87   D(19,16,17,26)        -57.0047         estimate D2E/DX2                !
 ! D88   D(19,16,17,27)         63.0463         estimate D2E/DX2                !
 ! D89   D(19,16,17,28)       -177.0672         estimate D2E/DX2                !
 ! D90   D(15,16,18,20)        -51.4709         estimate D2E/DX2                !
 ! D91   D(15,16,18,21)         69.1332         estimate D2E/DX2                !
 ! D92   D(15,16,18,22)       -171.1693         estimate D2E/DX2                !
 ! D93   D(17,16,18,20)         66.5372         estimate D2E/DX2                !
 ! D94   D(17,16,18,21)       -172.8587         estimate D2E/DX2                !
 ! D95   D(17,16,18,22)        -53.1612         estimate D2E/DX2                !
 ! D96   D(19,16,18,20)       -178.8475         estimate D2E/DX2                !
 ! D97   D(19,16,18,21)        -58.2434         estimate D2E/DX2                !
 ! D98   D(19,16,18,22)         61.4541         estimate D2E/DX2                !
 ! D99   D(15,16,19,23)         54.7281         estimate D2E/DX2                !
 ! D100  D(15,16,19,24)        174.1434         estimate D2E/DX2                !
 ! D101  D(15,16,19,25)        -66.5743         estimate D2E/DX2                !
 ! D102  D(17,16,19,23)        -65.3405         estimate D2E/DX2                !
 ! D103  D(17,16,19,24)         54.0748         estimate D2E/DX2                !
 ! D104  D(17,16,19,25)        173.3572         estimate D2E/DX2                !
 ! D105  D(18,16,19,23)       -179.902          estimate D2E/DX2                !
 ! D106  D(18,16,19,24)        -60.4867         estimate D2E/DX2                !
 ! D107  D(18,16,19,25)         58.7957         estimate D2E/DX2                !
 ! D108  D(3,37,38,39)         129.8632         estimate D2E/DX2                !
 ! D109  D(3,37,38,42)         -50.8503         estimate D2E/DX2                !
 ! D110  D(40,37,38,39)       -108.0221         estimate D2E/DX2                !
 ! D111  D(40,37,38,42)         71.2644         estimate D2E/DX2                !
 ! D112  D(41,37,38,39)          4.8586         estimate D2E/DX2                !
 ! D113  D(41,37,38,42)       -175.8549         estimate D2E/DX2                !
 ! D114  D(37,38,39,43)        179.5472         estimate D2E/DX2                !
 ! D115  D(37,38,39,44)         -0.0498         estimate D2E/DX2                !
 ! D116  D(42,38,39,43)          0.2694         estimate D2E/DX2                !
 ! D117  D(42,38,39,44)       -179.3276         estimate D2E/DX2                !
 --------------------------------------------------------------------------------
 Trust Radius=3.00D-01 FncErr=1.00D-07 GrdErr=1.00D-06
 Number of steps in this run=     25 maximum allowed number of steps=    264.
 GradGradGradGradGradGradGradGradGradGradGradGradGradGradGradGradGradGrad

                          Input orientation:                          
 ---------------------------------------------------------------------
 Center     Atomic      Atomic             Coordinates (Angstroms)
 Number     Number       Type             X           Y           Z
 ---------------------------------------------------------------------
      1          6           0       -0.455962   -0.287774    1.449740
      2          6           0       -0.870269    0.962442    0.668084
      3          6           0       -1.875814    1.814465    1.508720
      4          6           0       -1.096151    2.211466    2.772796
      5          6           0       -0.442850    1.074407    3.504156
      6          1           0       -1.316625   -0.958554    1.557328
      7          1           0        0.015460    1.602950    0.540759
      8          1           0       -0.313339    2.941795    2.532177
      9          1           0       -1.768283    2.692065    3.490272
     10          8           0       -0.018148    0.014854    2.792178
     11          8           0       -0.227031    1.143884    4.711368
     12          6           0        0.659871   -1.124683    0.797426
     13          6           0        1.976313   -0.380626    0.610896
     14          6           0       -1.322030    0.628159   -0.760638
     15          8           0       -2.123429    2.980665    0.690976
     16         14           0       -3.082682    4.316957    0.992981
     17          6           0       -2.445938    5.753933   -0.066033
     18          6           0       -4.869104    4.016034    0.481753
     19          6           0       -3.078438    4.909283    2.770554
     20          1           0       -4.917330    3.648054   -0.547195
     21          1           0       -5.346822    3.282728    1.136824
     22          1           0       -5.443324    4.945599    0.540121
     23          1           0       -2.059233    5.101378    3.117968
     24          1           0       -3.644032    5.841998    2.860727
     25          1           0       -3.544088    4.174736    3.433487
     26          1           0       -3.064368    6.643239    0.085694
     27          1           0       -1.414094    5.995192    0.204978
     28          1           0       -2.474497    5.484938   -1.125835
     29          1           0       -1.801041    1.479638   -1.252599
     30          1           0       -0.458325    0.356855   -1.377886
     31          1           0       -2.008413   -0.221673   -0.788558
     32          1           0        0.326566   -1.521723   -0.167500
     33          1           0        0.861973   -1.991107    1.440401
     34          1           0        2.740772   -1.065784    0.230040
     35          1           0        1.877626    0.435133   -0.110810
     36          1           0        2.339325    0.034251    1.556114
     37          6           0       -3.186845    1.069884    1.930053
     38          6           0       -4.024167    0.492155    0.822464
     39          6           0       -4.476200   -0.768620    0.803362
     40          1           0       -3.833269    1.765198    2.479373
     41          1           0       -2.946342    0.276518    2.648876
     42          1           0       -4.282248    1.150906   -0.004108
     43          1           0       -5.084060   -1.126250   -0.022869
     44          1           0       -4.261495   -1.469981    1.603900
 ---------------------------------------------------------------------
                    Distance matrix (angstroms):
                    1          2          3          4          5
     1  C    0.000000
     2  C    1.531560   0.000000
     3  C    2.537492   1.563244   0.000000
     4  C    2.899400   2.457823   1.537326   0.000000
     5  C    2.465022   2.870284   2.565704   1.501530   0.000000
     6  H    1.096477   2.163380   2.829256   3.402205   2.947296
     7  H    2.150191   1.100444   2.135089   2.566702   3.044853
     8  H    3.409124   2.775401   2.181666   1.097302   2.109183
     9  H    3.842577   3.429689   2.169860   1.094307   2.091359
    10  O    1.444093   2.477056   2.887350   2.446951   1.345339
    11  O    3.569352   4.098149   3.664030   2.377638   1.228318
    12  C    1.539810   2.591167   3.946420   4.256241   3.657646
    13  C    2.574537   3.148036   4.523648   4.564295   4.042329
    14  C    2.544558   1.535278   2.619921   3.878536   4.377278
    15  O    3.746847   2.375744   1.445697   2.445596   3.791061
    16  Si   5.320887   4.031513   2.825771   3.398108   4.877381
    17  C    6.539097   5.097063   4.280689   4.736027   6.217441
    18  C    6.239838   5.034861   3.855042   4.768702   6.113903
    19  C    5.969199   4.987379   3.551961   3.347788   4.710708
    20  H    6.275532   5.006807   4.103615   5.261895   6.561865
    21  H    6.063573   5.063889   3.787083   4.678911   5.876213
    22  H    7.286246   6.065867   4.844514   5.599842   6.984008
    23  H    5.864846   4.954428   3.664303   3.065658   4.356413
    24  H    7.051864   6.025903   4.601689   4.436236   5.778537
    25  H    5.778042   5.011546   3.472570   3.206764   4.385740
    26  H    7.530162   6.117573   5.172497   5.543916   7.040606
    27  H    6.476350   5.083187   4.403568   4.583815   6.003500
    28  H    6.635682   5.122955   4.557595   5.273972   6.709485
    29  H    3.497945   2.196099   2.782550   4.151656   4.963428
    30  H    2.900176   2.173115   3.530778   4.590704   4.934517
    31  H    2.724785   2.195292   3.072609   4.408586   4.749548
    32  H    2.179552   2.881265   4.334783   4.960460   4.562121
    33  H    2.153691   3.510069   4.688552   4.824018   3.919059
    34  H    3.508857   4.164757   5.589608   5.650483   5.043382
    35  H    2.898887   2.904420   4.314365   4.507094   4.342955
    36  H    2.815785   3.457113   4.575894   4.245359   3.552082
    37  C    3.087338   2.640196   1.565479   2.526742   3.163436
    38  C    3.705921   3.192503   2.614359   3.915751   4.511798
    39  C    4.100162   4.002201   3.732541   4.917755   5.192201
    40  H    4.084243   3.564345   2.185458   2.788739   3.608644
    41  H    2.821054   2.950272   2.193460   2.680035   2.763259
    42  H    4.338656   3.482666   2.918884   4.357430   5.201418
    43  H    4.928581   4.753534   4.613720   5.904194   6.230861
    44  H    3.987914   4.277014   4.060556   4.993873   4.966582
                    6          7          8          9         10
     6  H    0.000000
     7  H    3.060909   0.000000
     8  H    4.143626   2.422057   0.000000
     9  H    4.155392   3.614905   1.759879   0.000000
    10  O    2.039220   2.755370   2.953256   3.273800   0.000000
    11  O    3.944037   4.202799   2.826448   2.502678   2.236433
    12  C    2.124050   2.814449   4.526891   5.264496   2.395264
    13  C    3.474647   2.790060   4.469039   5.635090   2.981991
    14  C    2.809031   2.105405   4.148855   4.746481   3.833895
    15  O    4.113264   2.548629   2.582239   2.836455   4.200392
    16  Si   5.591821   4.143528   3.453904   3.256437   5.580015
    17  C    6.997723   4.863881   4.382556   4.741472   6.855696
    18  C    6.206730   5.448433   5.110110   4.518758   6.699200
    19  C    6.245592   5.047378   3.402000   2.674052   5.772459
    20  H    6.214091   5.449634   5.583732   5.208796   6.953671
    21  H    5.865815   5.650754   5.234424   4.323603   6.466372
    22  H    7.274846   6.400908   5.856643   5.223766   7.669194
    23  H    6.301574   4.815117   2.838150   2.455209   5.490437
    24  H    7.305011   6.061655   4.428616   3.719790   6.863479
    25  H    5.901884   5.258549   3.573548   2.314092   5.490733
    26  H    7.937731   5.924267   5.220549   5.374269   7.780745
    27  H    7.084697   4.631216   3.993839   4.672179   6.663836
    28  H    7.075212   4.903800   4.951690   5.441261   7.162841
    29  H    3.751683   2.555585   4.321538   4.895496   4.656664
    30  H    3.329033   2.336327   4.689513   5.555912   4.207155
    31  H    2.554358   3.031896   4.889590   5.182270   4.103507
    32  H    2.447911   3.219006   5.255543   5.960176   3.352550
    33  H    2.413737   3.800419   5.187182   5.749115   2.574062
    34  H    4.270323   3.827011   5.539686   6.714322   3.917138
    35  H    3.863714   2.292597   4.250772   5.599481   3.492554
    36  H    3.788355   2.981964   4.055014   5.260930   2.661937
    37  C    2.784099   3.531155   3.481902   2.660465   3.449201
    38  C    3.158380   4.199025   4.763832   4.128658   4.489519
    39  C    3.253837   5.086090   5.838270   5.150596   4.944032
    40  H    3.821320   4.312454   3.711748   2.478945   4.209121
    41  H    2.317942   3.869864   3.748336   2.816139   2.943352
    42  H    3.960154   4.355631   5.039074   4.572295   5.224211
    43  H    4.088852   5.811309   6.770305   6.157602   5.906782
    44  H    2.989312   5.372664   5.992779   5.205491   4.650025
                   11         12         13         14         15
    11  O    0.000000
    12  C    4.609982   0.000000
    13  C    4.898237   1.523625   0.000000
    14  C    5.604270   3.070497   3.711848   0.000000
    15  O    4.809744   4.961046   5.302129   2.878143   0.000000
    16  Si   5.661231   6.607298   6.914239   4.447730   1.672438
    17  C    6.999976   7.596510   7.592585   5.293317   2.892765
    18  C    6.905630   7.556202   8.136770   5.059937   2.941852
    19  C    5.106419   7.367288   7.628746   5.820851   2.992700
    20  H    7.478119   7.462720   8.068070   4.700160   3.127996
    21  H    6.600324   7.457937   8.205185   5.181317   3.268071
    22  H    7.685184   8.611824   9.133712   6.108791   3.860755
    23  H    4.643021   7.179295   7.254199   5.966300   3.223637
    24  H    6.096970   8.444847   8.681651   6.759445   3.899651
    25  H    4.671393   7.259885   7.693710   5.925068   3.311411
    26  H    7.725946   8.643907   8.661350   6.319273   3.829645
    27  H    6.726950   7.439418   7.232613   5.453983   3.134760
    28  H    7.613724   7.563748   7.565103   5.004983   3.113749
    29  H    6.177309   4.128096   4.604519   1.093844   2.476792
    30  H    6.144260   2.859598   3.229024   1.095713   3.733248
    31  H    5.940308   3.232725   4.226320   1.092756   3.529478
    32  H    5.587064   1.095361   2.151666   2.773387   5.197206
    33  H    4.659756   1.097703   2.126848   4.058940   5.847459
    34  H    5.811436   2.157671   1.094939   4.511900   6.344026
    35  H    5.308984   2.177348   1.093646   3.270678   4.809473
    36  H    4.215815   2.176994   1.094229   4.373281   5.417194
    37  C    4.062227   4.571235   5.522894   3.303403   2.513414
    38  C    5.474173   4.955301   6.067311   3.134686   3.134131
    39  C    6.081580   5.148402   6.467032   3.787595   4.427787
    40  H    4.286349   5.600774   6.468926   4.254039   2.756679
    41  H    3.521484   4.289056   5.368215   3.792997   3.438454
    42  H    6.219369   5.499573   6.472512   3.099757   2.914045
    43  H    7.152429   5.802209   7.127866   4.216055   5.112892
    44  H    5.724120   4.998947   6.409602   4.316675   5.021255
                   16         17         18         19         20
    16  Si   0.000000
    17  C    1.895219   0.000000
    18  C    1.882342   3.031847   0.000000
    19  C    1.873669   3.026502   3.040228   0.000000
    20  H    2.487068   3.282380   1.093832   3.997459   0.000000
    21  H    2.493321   3.996104   1.093193   3.234242   1.775907
    22  H    2.484533   3.163092   1.094178   3.250975   1.772724
    23  H    2.485625   3.273107   4.002871   1.093790   4.869732
    24  H    2.475750   3.163718   3.239516   1.094525   4.248366
    25  H    2.487809   3.993299   3.239381   1.093558   4.243703
    26  H    2.497017   1.093774   3.211875   3.196134   3.578428
    27  H    2.494315   1.093780   3.991336   3.245215   4.283396
    28  H    2.494684   1.093780   3.236690   3.984717   3.110691
    29  H    3.838699   4.482569   4.342153   5.438747   3.861461
    30  H    5.309488   5.899154   6.025182   6.693217   5.603995
    31  H    4.992704   6.035009   5.268340   6.335530   4.847148
    32  H    6.860020   7.786671   7.621238   7.847551   7.373548
    33  H    7.453332   8.555540   8.357631   8.056769   8.315709
    34  H    7.966718   8.573107   9.154149   8.718878   9.026123
    35  H    6.394651   6.854549   7.661093   7.272059   7.528926
    36  H    6.932305   7.631832   8.304836   7.388705   8.375113
    37  C    3.381189   5.145252   3.688817   3.931816   3.972190
    38  C    3.942662   5.564759   3.639743   4.919398   3.554350
    39  C    5.276452   6.886328   4.811519   6.169454   4.639570
    40  H    3.047001   4.930901   3.182719   3.246510   3.725647
    41  H    4.368721   6.133776   4.730477   4.636245   5.046476
    42  H    3.529451   4.956181   2.964695   4.824241   2.633253
    43  H    5.887781   7.368749   5.171454   6.946466   4.805902
    44  H    5.937295   7.633470   5.632474   6.592095   5.590314
                   21         22         23         24         25
    21  H    0.000000
    22  H    1.769324   0.000000
    23  H    4.247430   4.256951   0.000000
    24  H    3.524372   3.070211   1.768129   0.000000
    25  H    3.052898   3.545828   1.778486   1.765731   0.000000
    26  H    4.196130   2.957688   3.547156   2.945981   4.187046
    27  H    4.867458   4.177159   3.114582   3.471181   4.274834
    28  H    4.268443   3.446771   4.281288   4.169890   4.862928
    29  H    4.640371   5.337879   5.682035   6.272659   5.679892
    30  H    6.227512   7.041700   6.729495   7.628982   6.873679
    31  H    5.208925   6.345447   6.602908   7.263652   6.285887
    32  H    7.547936   8.695896   7.768642   8.897201   7.771661
    33  H    8.151971   9.417280   7.851816   9.147619   7.836031
    34  H    9.227188  10.159346   8.331510   9.767481   8.787752
    35  H    7.864988   8.623475   6.906353   8.279670   7.479415
    36  H    8.354954   9.258683   6.889302   8.439935   7.435233
    37  C    3.192396   4.695186   4.351505   4.883467   3.468147
    38  C    3.104116   4.682615   5.511374   5.737581   4.539749
    39  C    4.157235   5.801459   6.756923   6.973200   5.676545
    40  H    2.529067   4.058069   3.832115   4.098968   2.607649
    41  H    4.133510   5.699306   4.928112   5.613040   4.021072
    42  H    2.641914   4.005493   5.504124   5.533619   4.637401
    43  H    4.566511   6.108468   7.602486   7.677583   6.512938
    44  H    4.897381   6.609691   7.094020   7.444858   5.977030
                   26         27         28         29         30
    26  H    0.000000
    27  H    1.776963   0.000000
    28  H    1.776911   1.776479   0.000000
    29  H    5.481770   4.760723   4.063501   0.000000
    30  H    6.960758   5.933784   5.515951   1.754772   0.000000
    31  H    7.000455   6.323744   5.735538   1.775612   1.756353
    32  H    8.844724   7.724807   7.606422   3.835664   2.368574
    33  H    9.581405   8.395697   8.579560   5.137116   3.898571
    34  H    9.651400   8.192736   8.482298   5.413451   3.852733
    35  H    7.937411   6.469111   6.743277   3.990898   2.658623
    36  H    8.662607   7.172624   7.750853   5.207748   4.066851
    37  C    5.871878   5.511550   5.416511   3.495372   4.346918
    38  C    6.268962   6.121861   5.578999   3.197389   4.192264
    39  C    7.579180   7.448739   6.843654   4.054395   4.708275
    40  H    5.487822   5.377558   5.355395   4.259003   5.315273
    41  H    6.864326   6.404971   6.449707   4.240368   4.734078
    42  H    5.626457   5.633572   4.828050   2.796995   4.140069
    43  H    8.028443   8.014705   7.192646   4.368192   5.043124
    44  H    8.340408   8.111318   7.682169   4.786823   5.166477
                   31         32         33         34         35
    31  H    0.000000
    32  H    2.743715   0.000000
    33  H    4.042063   1.758502   0.000000
    34  H    4.929992   2.488837   2.418901   0.000000
    35  H    3.999004   2.497656   3.053596   1.764639   0.000000
    36  H    4.946293   3.072963   2.509588   1.769098   1.775530
    37  C    3.232285   4.843574   5.099250   6.525930   5.496990
    38  C    2.677351   4.895366   5.515687   6.967248   5.975401
    39  C    2.987195   4.957449   5.513292   7.245805   6.531144
    40  H    4.237585   5.925708   6.102015   7.502798   6.410339
    41  H    3.597757   4.677347   4.594105   6.324224   5.559828
    42  H    2.769415   5.330179   6.198537   7.368266   6.202239
    43  H    3.296080   5.426987   6.184209   7.829152   7.135175
    44  H    3.515467   4.918418   5.152497   7.147210   6.652706
                   36         37         38         39         40
    36  H    0.000000
    37  C    5.634796   0.000000
    38  C    6.421989   1.503872   0.000000
    39  C    6.903812   2.512363   1.339497   0.000000
    40  H    6.476843   1.096849   2.098196   3.105255   0.000000
    41  H    5.402879   1.097259   2.131663   2.615091   1.741132
    42  H    6.893942   2.224287   1.088017   2.091460   2.597425
    43  H    7.677669   3.498047   2.111207   1.086301   4.023203
    44  H    6.770216   2.777078   2.125310   1.085756   3.378789
                   41         42         43         44
    41  H    0.000000
    42  H    3.096373   0.000000
    43  H    3.698083   2.414269   0.000000
    44  H    2.423192   3.074926   1.855031   0.000000
 Stoichiometry    C14H26O3Si
 Framework group  C1[X(C14H26O3Si)]
 Deg. of freedom   126
 Full point group                 C1      NOp   1
 Largest Abelian subgroup         C1      NOp   1
 Largest concise Abelian subgroup C1      NOp   1
                         Standard orientation:                         
 ---------------------------------------------------------------------
 Center     Atomic      Atomic             Coordinates (Angstroms)
 Number     Number       Type             X           Y           Z
 ---------------------------------------------------------------------
      1          6           0        2.460018    0.306787    0.023087
      2          6           0        1.147218    0.351673    0.810626
      3          6           0       -0.050328   -0.036137   -0.116314
      4          6           0        0.250071   -1.474535   -0.568137
      5          6           0        1.616311   -1.688456   -1.153134
      6          1           0        2.465692    1.102146   -0.731654
      7          1           0        1.178581   -0.429900    1.584667
      8          1           0        0.136188   -2.175505    0.268370
      9          1           0       -0.464816   -1.780878   -1.337942
     10          8           0        2.631912   -0.930075   -0.702191
     11          8           0        1.819787   -2.588291   -1.964096
     12          6           0        3.733114    0.507415    0.865694
     13          6           0        3.942479   -0.543948    1.948392
     14          6           0        0.982546    1.666359    1.586231
     15          8           0       -1.198636   -0.020820    0.761863
     16         14           0       -2.801866   -0.367352    0.435338
     17          6           0       -3.642534   -0.864205    2.059613
     18          6           0       -3.718938    1.144485   -0.210061
     19          6           0       -3.078109   -1.773984   -0.771190
     20          1           0       -3.567576    1.998819    0.456025
     21          1           0       -3.372083    1.416787   -1.210368
     22          1           0       -4.792628    0.941997   -0.268490
     23          1           0       -2.565072   -2.681552   -0.440298
     24          1           0       -4.145660   -2.002597   -0.849001
     25          1           0       -2.722045   -1.512824   -1.771631
     26          1           0       -4.702307   -1.076340    1.891619
     27          1           0       -3.168045   -1.758933    2.472744
     28          1           0       -3.559612   -0.055743    2.791643
     29          1           0       -0.028504    1.786606    1.985997
     30          1           0        1.662148    1.687556    2.445463
     31          1           0        1.221353    2.539603    0.974242
     32          1           0        3.738383    1.503904    1.320446
     33          1           0        4.601074    0.463865    0.195096
     34          1           0        4.908871   -0.386642    2.438527
     35          1           0        3.169598   -0.485126    2.719921
     36          1           0        3.939512   -1.555262    1.530573
     37          6           0       -0.231649    0.869005   -1.380658
     38          6           0       -0.410108    2.342643   -1.139463
     39          6           0        0.294941    3.295594   -1.763196
     40          1           0       -1.115904    0.534811   -1.936971
     41          1           0        0.610704    0.717510   -2.067294
     42          1           0       -1.169240    2.642603   -0.420073
     43          1           0        0.114820    4.345672   -1.551197
     44          1           0        1.057983    3.059664   -2.498704
 ---------------------------------------------------------------------
 Rotational constants (GHZ):      0.5117971      0.2571944      0.2356009
 Standard basis: 6-31G(d,p) (6D, 7F)
 There are   404 symmetry adapted cartesian basis functions of A   symmetry.
 There are   404 symmetry adapted basis functions of A   symmetry.
   404 basis functions,   710 primitive gaussians,   404 cartesian basis functions
    74 alpha electrons       74 beta electrons
       nuclear repulsion energy      1629.2291913661 Hartrees.
 NAtoms=   44 NActive=   44 NUniq=   44 SFac= 1.00D+00 NAtFMM=   60 NAOKFM=F Big=F
 Integral buffers will be    131072 words long.
 Raffenetti 2 integral format.
 Two-electron integral symmetry is turned on.
 ------------------------------------------------------------------------------
 Polarizable Continuum Model (PCM)
 =================================
 Model                : PCM (using non-symmetric T matrix).
 Atomic radii         : UFF (Universal Force Field).
 Polarization charges : Total charges.
 Charge compensation  : None.
 Solution method      : On-the-fly selection.
 Cavity type          : Scaled VdW (van der Waals Surface) (Alpha=1.100).
 Cavity algorithm     : GePol (No added spheres)
                        Default sphere list used, NSphG=   44.
                        Lebedev-Laikov grids with approx.  5.0 points / Ang**2.
                        Smoothing algorithm: Karplus/York (Gamma=1.0000).
                        Polarization charges: spherical gaussians, with
                                              point-specific exponents (IZeta= 3).
                        Self-potential: point-specific (ISelfS= 7).
                        Self-field    : sphere-specific E.n sum rule (ISelfD= 2).
 1st derivatives      : Analytical E(r).r(x)/FMM algorithm (CHGder, D1EAlg=3).
                        Cavity 1st derivative terms included.
 Solvent              : Chloroform, Eps=   4.711300 Eps(inf)=   2.090627
 ------------------------------------------------------------------------------
 One-electron integrals computed using PRISM.
 NBasis=   404 RedAO= T EigKep=  1.73D-03  NBF=   404
 NBsUse=   404 1.00D-06 EigRej= -1.00D+00 NBFU=   404
 ExpMin= 7.78D-02 ExpMax= 1.61D+04 ExpMxC= 2.43D+03 IAcc=2 IRadAn=         4 AccDes= 0.00D+00
 Harris functional with IExCor=  402 and IRadAn=       4 diagonalized for initial guess.
 HarFok:  IExCor=  402 AccDes= 0.00D+00 IRadAn=         4 IDoV= 1 UseB2=F ITyADJ=14
 ICtDFT=  3500011 ScaDFX=  1.000000  1.000000  1.000000  1.000000
 FoFCou: FMM=F IPFlag=           0 FMFlag=      100000 FMFlg1=           0
         NFxFlg=           0 DoJE=T BraDBF=F KetDBF=T FulRan=T
         wScrn=  0.000000 ICntrl=     500 IOpCl=  0 I1Cent=   200000004 NGrid=           0
         NMat0=    1 NMatS0=      1 NMatT0=    0 NMatD0=    1 NMtDS0=    0 NMtDT0=    0
 Petite list used in FoFCou.
 Requested convergence on RMS density matrix=1.00D-08 within 128 cycles.
 Requested convergence on MAX density matrix=1.00D-06.
 Requested convergence on             energy=1.00D-06.
 No special actions if energy rises.
 Inv3:  Mode=1 IEnd=    23907987.
 Iteration    1 A*A^-1 deviation from unit magnitude is 5.44D-15 for   2822.
 Iteration    1 A*A^-1 deviation from orthogonality  is 3.93D-15 for   2770    261.
 Iteration    1 A^-1*A deviation from unit magnitude is 5.55D-15 for   2808.
 Iteration    1 A^-1*A deviation from orthogonality  is 3.63D-13 for   2815   2787.
 Error on total polarization charges =  0.00914
 SCF Done:  E(RB3LYP) =  -1064.41517286     A.U. after   13 cycles
            NFock= 13  Conv=0.59D-08     -V/T= 2.0080

 **********************************************************************

            Population analysis using the SCF density.

 **********************************************************************

 Orbital symmetries:
       Occupied  (A) (A) (A) (A) (A) (A) (A) (A) (A) (A) (A) (A)
                 (A) (A) (A) (A) (A) (A) (A) (A) (A) (A) (A) (A)
                 (A) (A) (A) (A) (A) (A) (A) (A) (A) (A) (A) (A)
                 (A) (A) (A) (A) (A) (A) (A) (A) (A) (A) (A) (A)
                 (A) (A) (A) (A) (A) (A) (A) (A) (A) (A) (A) (A)
                 (A) (A) (A) (A) (A) (A) (A) (A) (A) (A) (A) (A)
                 (A) (A)
       Virtual   (A) (A) (A) (A) (A) (A) (A) (A) (A) (A) (A) (A)
                 (A) (A) (A) (A) (A) (A) (A) (A) (A) (A) (A) (A)
                 (A) (A) (A) (A) (A) (A) (A) (A) (A) (A) (A) (A)
                 (A) (A) (A) (A) (A) (A) (A) (A) (A) (A) (A) (A)
                 (A) (A) (A) (A) (A) (A) (A) (A) (A) (A) (A) (A)
                 (A) (A) (A) (A) (A) (A) (A) (A) (A) (A) (A) (A)
                 (A) (A) (A) (A) (A) (A) (A) (A) (A) (A) (A) (A)
                 (A) (A) (A) (A) (A) (A) (A) (A) (A) (A) (A) (A)
                 (A) (A) (A) (A) (A) (A) (A) (A) (A) (A) (A) (A)
                 (A) (A) (A) (A) (A) (A) (A) (A) (A) (A) (A) (A)
                 (A) (A) (A) (A) (A) (A) (A) (A) (A) (A) (A) (A)
                 (A) (A) (A) (A) (A) (A) (A) (A) (A) (A) (A) (A)
                 (A) (A) (A) (A) (A) (A) (A) (A) (A) (A) (A) (A)
                 (A) (A) (A) (A) (A) (A) (A) (A) (A) (A) (A) (A)
                 (A) (A) (A) (A) (A) (A) (A) (A) (A) (A) (A) (A)
                 (A) (A) (A) (A) (A) (A) (A) (A) (A) (A) (A) (A)
                 (A) (A) (A) (A) (A) (A) (A) (A) (A) (A) (A) (A)
                 (A) (A) (A) (A) (A) (A) (A) (A) (A) (A) (A) (A)
                 (A) (A) (A) (A) (A) (A) (A) (A) (A) (A) (A) (A)
                 (A) (A) (A) (A) (A) (A) (A) (A) (A) (A) (A) (A)
                 (A) (A) (A) (A) (A) (A) (A) (A) (A) (A) (A) (A)
                 (A) (A) (A) (A) (A) (A) (A) (A) (A) (A) (A) (A)
                 (A) (A) (A) (A) (A) (A) (A) (A) (A) (A) (A) (A)
                 (A) (A) (A) (A) (A) (A) (A) (A) (A) (A) (A) (A)
                 (A) (A) (A) (A) (A) (A) (A) (A) (A) (A) (A) (A)
                 (A) (A) (A) (A) (A) (A) (A) (A) (A) (A) (A) (A)
                 (A) (A) (A) (A) (A) (A) (A) (A) (A) (A) (A) (A)
                 (A) (A) (A) (A) (A) (A)
 The electronic state is 1-A.
 Alpha  occ. eigenvalues --  -66.14014 -19.19339 -19.14589 -19.13250 -10.32204
 Alpha  occ. eigenvalues --  -10.26714 -10.25393 -10.20083 -10.19955 -10.19919
 Alpha  occ. eigenvalues --  -10.19516 -10.18898 -10.18252 -10.17506 -10.17476
 Alpha  occ. eigenvalues --  -10.16005 -10.15709 -10.15695  -5.28164  -3.64218
 Alpha  occ. eigenvalues --   -3.63988  -3.63955  -1.09948  -1.01282  -1.00785
 Alpha  occ. eigenvalues --   -0.83042  -0.80410  -0.78089  -0.74881  -0.71269
 Alpha  occ. eigenvalues --   -0.70530  -0.69504  -0.67738  -0.67327  -0.64517
 Alpha  occ. eigenvalues --   -0.60651  -0.60174  -0.56700  -0.53781  -0.50973
 Alpha  occ. eigenvalues --   -0.50209  -0.48916  -0.47048  -0.46513  -0.45185
 Alpha  occ. eigenvalues --   -0.44626  -0.43520  -0.42955  -0.42253  -0.41950
 Alpha  occ. eigenvalues --   -0.41019  -0.40556  -0.40502  -0.39792  -0.39191
 Alpha  occ. eigenvalues --   -0.38903  -0.38853  -0.38366  -0.37909  -0.37308
 Alpha  occ. eigenvalues --   -0.36202  -0.35820  -0.35509  -0.34785  -0.34739
 Alpha  occ. eigenvalues --   -0.33682  -0.32749  -0.31694  -0.30007  -0.29308
 Alpha  occ. eigenvalues --   -0.28543  -0.27778  -0.26300  -0.25380
 Alpha virt. eigenvalues --   -0.00072   0.01005   0.06277   0.07015   0.08746
 Alpha virt. eigenvalues --    0.08850   0.09481   0.10214   0.11462   0.11945
 Alpha virt. eigenvalues --    0.12672   0.13153   0.13464   0.13949   0.14260
 Alpha virt. eigenvalues --    0.14734   0.15432   0.16346   0.16615   0.16919
 Alpha virt. eigenvalues --    0.17194   0.17437   0.17753   0.18499   0.18637
 Alpha virt. eigenvalues --    0.19434   0.19820   0.20186   0.20715   0.21032
 Alpha virt. eigenvalues --    0.21540   0.21693   0.22547   0.22865   0.23617
 Alpha virt. eigenvalues --    0.24080   0.25534   0.26250   0.27018   0.28456
 Alpha virt. eigenvalues --    0.29064   0.31055   0.31739   0.34961   0.35863
 Alpha virt. eigenvalues --    0.36931   0.38159   0.39700   0.40648   0.42379
 Alpha virt. eigenvalues --    0.45947   0.47569   0.48534   0.49467   0.50837
 Alpha virt. eigenvalues --    0.51946   0.53788   0.54020   0.54154   0.55174
 Alpha virt. eigenvalues --    0.57583   0.58536   0.59166   0.59619   0.60978
 Alpha virt. eigenvalues --    0.61693   0.62781   0.62990   0.64059   0.64601
 Alpha virt. eigenvalues --    0.65779   0.66479   0.67297   0.68312   0.68905
 Alpha virt. eigenvalues --    0.69740   0.70100   0.71443   0.72189   0.73293
 Alpha virt. eigenvalues --    0.73998   0.75403   0.76046   0.77656   0.78545
 Alpha virt. eigenvalues --    0.80250   0.80746   0.81220   0.82021   0.83162
 Alpha virt. eigenvalues --    0.83390   0.84644   0.85024   0.85764   0.86357
 Alpha virt. eigenvalues --    0.87102   0.87522   0.87835   0.88258   0.89409
 Alpha virt. eigenvalues --    0.89899   0.90191   0.90813   0.91273   0.91524
 Alpha virt. eigenvalues --    0.91715   0.92496   0.92931   0.93285   0.93840
 Alpha virt. eigenvalues --    0.94235   0.95511   0.96168   0.96984   0.97801
 Alpha virt. eigenvalues --    0.98252   0.98549   1.00068   1.00892   1.02033
 Alpha virt. eigenvalues --    1.02434   1.04214   1.04238   1.06039   1.07415
 Alpha virt. eigenvalues --    1.09870   1.11238   1.13321   1.14433   1.16508
 Alpha virt. eigenvalues --    1.17764   1.20742   1.21894   1.23523   1.26213
 Alpha virt. eigenvalues --    1.27485   1.28955   1.30449   1.31333   1.32344
 Alpha virt. eigenvalues --    1.34072   1.38357   1.40067   1.41888   1.42462
 Alpha virt. eigenvalues --    1.43308   1.44169   1.46515   1.47037   1.48796
 Alpha virt. eigenvalues --    1.49339   1.49609   1.53615   1.56928   1.57510
 Alpha virt. eigenvalues --    1.58179   1.59650   1.61762   1.63386   1.64007
 Alpha virt. eigenvalues --    1.64869   1.65748   1.70544   1.70679   1.71185
 Alpha virt. eigenvalues --    1.72847   1.75339   1.76354   1.78582   1.79179
 Alpha virt. eigenvalues --    1.81099   1.81646   1.83497   1.85185   1.85442
 Alpha virt. eigenvalues --    1.87041   1.87776   1.88942   1.89890   1.90188
 Alpha virt. eigenvalues --    1.92189   1.93138   1.95018   1.95626   1.96013
 Alpha virt. eigenvalues --    1.96862   1.98467   1.99360   2.01495   2.02463
 Alpha virt. eigenvalues --    2.03386   2.04875   2.04964   2.05576   2.05749
 Alpha virt. eigenvalues --    2.06643   2.07640   2.08004   2.08631   2.08813
 Alpha virt. eigenvalues --    2.09192   2.10512   2.11231   2.11854   2.12638
 Alpha virt. eigenvalues --    2.12789   2.12830   2.13887   2.14097   2.14969
 Alpha virt. eigenvalues --    2.15487   2.16469   2.16991   2.17049   2.19166
 Alpha virt. eigenvalues --    2.20072   2.21979   2.23518   2.24960   2.26251
 Alpha virt. eigenvalues --    2.28410   2.29769   2.30903   2.31190   2.32398
 Alpha virt. eigenvalues --    2.33601   2.34179   2.35487   2.35749   2.36839
 Alpha virt. eigenvalues --    2.37528   2.39032   2.39332   2.39605   2.40269
 Alpha virt. eigenvalues --    2.43297   2.43780   2.48550   2.49057   2.51490
 Alpha virt. eigenvalues --    2.52152   2.53579   2.55733   2.56645   2.58403
 Alpha virt. eigenvalues --    2.60487   2.61122   2.62409   2.63293   2.63825
 Alpha virt. eigenvalues --    2.65623   2.66223   2.67827   2.68564   2.68965
 Alpha virt. eigenvalues --    2.69781   2.71358   2.72788   2.73688   2.75130
 Alpha virt. eigenvalues --    2.76238   2.77720   2.79528   2.80021   2.81153
 Alpha virt. eigenvalues --    2.81608   2.82796   2.84734   2.85090   2.85279
 Alpha virt. eigenvalues --    2.85918   2.86629   2.87270   2.87448   2.89060
 Alpha virt. eigenvalues --    2.90640   2.91641   2.92923   2.93394   2.95321
 Alpha virt. eigenvalues --    2.96698   2.97981   3.01977   3.09344   3.10664
 Alpha virt. eigenvalues --    3.17663   3.18184   3.20517   3.20837   3.21633
 Alpha virt. eigenvalues --    3.21886   3.23327   3.26043   3.30866   3.32372
 Alpha virt. eigenvalues --    3.35022   3.36844   3.40476   3.43244   3.43691
 Alpha virt. eigenvalues --    3.44390   3.44846   3.45353   3.45964   3.46060
 Alpha virt. eigenvalues --    3.46485   3.47014   3.48446   3.49717   3.50260
 Alpha virt. eigenvalues --    3.54512   3.55776   3.66588   4.00539   4.12780
 Alpha virt. eigenvalues --    4.20982   4.24868   4.31951   4.38777   4.44149
 Alpha virt. eigenvalues --    4.45598   4.48575   4.51396   4.54893   4.58507
 Alpha virt. eigenvalues --    4.63138   4.65343   4.75796   4.78639   4.79974
          Condensed to atoms (all electrons):
               1          2          3          4          5          6
     1  C    4.827888   0.313650  -0.029298  -0.009355  -0.008221   0.380670
     2  C    0.313650   5.086143   0.346389  -0.047401  -0.016140  -0.044261
     3  C   -0.029298   0.346389   4.851785   0.282229  -0.016646  -0.014554
     4  C   -0.009355  -0.047401   0.282229   5.333834   0.293516   0.001617
     5  C   -0.008221  -0.016140  -0.016646   0.293516   4.357509  -0.001952
     6  H    0.380670  -0.044261  -0.014554   0.001617  -0.001952   0.635637
     7  H   -0.038154   0.375983  -0.043443  -0.007198  -0.000167   0.006193
     8  H    0.000662  -0.007196  -0.020905   0.365315  -0.024406  -0.000022
     9  H    0.000050   0.005955  -0.033643   0.357428  -0.021767   0.000089
    10  O    0.162888  -0.029046   0.003023  -0.096574   0.263767  -0.039645
    11  O    0.002073  -0.000166   0.002650  -0.085514   0.570419   0.000033
    12  C    0.373245  -0.036107   0.005416  -0.000605   0.001280  -0.049083
    13  C   -0.040565  -0.008483  -0.000084  -0.000094   0.000311   0.005528
    14  C   -0.032627   0.347955  -0.028792   0.004958   0.000534  -0.003884
    15  O    0.002813  -0.047792   0.180827  -0.030313   0.001486  -0.000023
    16  Si   0.000208  -0.001569  -0.012523  -0.004448   0.000519  -0.000012
    17  C    0.000000  -0.000013   0.001101  -0.000168  -0.000002   0.000000
    18  C    0.000001  -0.000012  -0.001641  -0.000151   0.000000   0.000000
    19  C    0.000002  -0.000041  -0.001287  -0.000699   0.000075   0.000000
    20  H    0.000000   0.000010  -0.000033   0.000004   0.000000   0.000000
    21  H    0.000000  -0.000001  -0.000087  -0.000032   0.000000   0.000000
    22  H    0.000000   0.000001   0.000022   0.000002   0.000000   0.000000
    23  H    0.000000  -0.000007  -0.000244  -0.000490  -0.000004   0.000000
    24  H    0.000000   0.000001   0.000003   0.000152  -0.000002   0.000000
    25  H    0.000000  -0.000004   0.000471  -0.002201  -0.000048   0.000000
    26  H    0.000000   0.000000  -0.000013   0.000002   0.000000   0.000000
    27  H    0.000000  -0.000003  -0.000023  -0.000035   0.000000   0.000000
    28  H    0.000000   0.000005  -0.000040   0.000007   0.000000   0.000000
    29  H    0.003915  -0.026186  -0.008396   0.000251  -0.000018  -0.000096
    30  H   -0.004921  -0.026572   0.003850  -0.000133  -0.000015  -0.000002
    31  H   -0.005688  -0.035953  -0.003787   0.000050  -0.000015   0.005441
    32  H   -0.027187  -0.006229  -0.000036   0.000030  -0.000048  -0.000217
    33  H   -0.029670   0.005164  -0.000081   0.000013   0.000029  -0.005708
    34  H    0.004522   0.000160  -0.000003   0.000001  -0.000008  -0.000143
    35  H   -0.005653   0.002578   0.000000  -0.000011   0.000019  -0.000052
    36  H   -0.007541  -0.000735  -0.000087   0.000163   0.000350   0.000270
    37  C    0.001385  -0.061031   0.335185  -0.062674  -0.000253   0.004700
    38  C   -0.002337  -0.004362  -0.033055   0.004795  -0.000009   0.001213
    39  C   -0.000982   0.001459  -0.000196  -0.000080  -0.000018   0.002595
    40  H   -0.000112   0.005121  -0.032301  -0.006096  -0.000295   0.000121
    41  H    0.001705  -0.004330  -0.023974  -0.005182   0.004420  -0.000901
    42  H    0.000031  -0.000774  -0.003202   0.000058  -0.000001   0.000008
    43  H    0.000015  -0.000039  -0.000082   0.000002   0.000000  -0.000021
    44  H   -0.000127  -0.000049   0.000162  -0.000004  -0.000006   0.000789
               7          8          9         10         11         12
     1  C   -0.038154   0.000662   0.000050   0.162888   0.002073   0.373245
     2  C    0.375983  -0.007196   0.005955  -0.029046  -0.000166  -0.036107
     3  C   -0.043443  -0.020905  -0.033643   0.003023   0.002650   0.005416
     4  C   -0.007198   0.365315   0.357428  -0.096574  -0.085514  -0.000605
     5  C   -0.000167  -0.024406  -0.021767   0.263767   0.570419   0.001280
     6  H    0.006193  -0.000022   0.000089  -0.039645   0.000033  -0.049083
     7  H    0.637829   0.004174   0.000173  -0.001111  -0.000048  -0.011174
     8  H    0.004174   0.541156  -0.024287   0.000236  -0.000914  -0.000025
     9  H    0.000173  -0.024287   0.573530   0.003215   0.002597   0.000005
    10  O   -0.001111   0.000236   0.003215   8.325028  -0.075180  -0.046882
    11  O   -0.000048  -0.000914   0.002597  -0.075180   8.092532  -0.000073
    12  C   -0.011174  -0.000025   0.000005  -0.046882  -0.000073   4.947479
    13  C    0.005412   0.000023   0.000001  -0.003381  -0.000007   0.361825
    14  C   -0.043266  -0.000060  -0.000143   0.002515   0.000002  -0.003967
    15  O    0.001059  -0.001368  -0.000401  -0.000010  -0.000014  -0.000042
    16  Si   0.000572   0.002448  -0.001159   0.000011  -0.000092  -0.000003
    17  C   -0.000017  -0.000108   0.000015   0.000000   0.000000   0.000000
    18  C    0.000004   0.000013  -0.000031   0.000000   0.000000   0.000000
    19  C   -0.000008  -0.000474   0.000049  -0.000001  -0.000005   0.000000
    20  H    0.000000   0.000000   0.000000   0.000000   0.000000   0.000000
    21  H    0.000000   0.000000  -0.000013   0.000000   0.000000   0.000000
    22  H    0.000000   0.000000   0.000002   0.000000   0.000000   0.000000
    23  H   -0.000002   0.000684   0.000650   0.000000   0.000004   0.000000
    24  H    0.000000  -0.000003   0.000115   0.000000   0.000000   0.000000
    25  H   -0.000001  -0.000054   0.002923   0.000000  -0.000004   0.000000
    26  H    0.000000   0.000001   0.000000   0.000000   0.000000   0.000000
    27  H    0.000001   0.000005  -0.000003   0.000000   0.000000   0.000000
    28  H   -0.000002  -0.000002   0.000000   0.000000   0.000000   0.000000
    29  H   -0.000970   0.000008  -0.000009  -0.000046   0.000000   0.000082
    30  H   -0.009283  -0.000006   0.000003  -0.000011   0.000000   0.001789
    31  H    0.005554  -0.000001   0.000005   0.000026   0.000000  -0.001819
    32  H    0.000251  -0.000001   0.000000   0.002907   0.000001   0.376649
    33  H    0.000015   0.000001  -0.000001   0.000716  -0.000006   0.379634
    34  H   -0.000138   0.000000   0.000000   0.000087   0.000000  -0.028366
    35  H    0.001583  -0.000009   0.000000  -0.000095   0.000000  -0.036452
    36  H    0.000682   0.000004  -0.000001   0.008071  -0.000034  -0.036913
    37  C    0.006123   0.004681  -0.007127  -0.002627   0.000039  -0.000155
    38  C   -0.000111  -0.000118   0.000047   0.000102   0.000001   0.000034
    39  C   -0.000010   0.000001   0.000002   0.000002   0.000000   0.000006
    40  H   -0.000130  -0.000042   0.003935   0.000008  -0.000002   0.000000
    41  H   -0.000114   0.000101   0.000144   0.001387  -0.000258   0.000093
    42  H   -0.000020   0.000003   0.000001  -0.000001   0.000000   0.000002
    43  H    0.000000   0.000000   0.000000   0.000000   0.000000   0.000000
    44  H    0.000000   0.000000   0.000001  -0.000003   0.000000   0.000002
              13         14         15         16         17         18
     1  C   -0.040565  -0.032627   0.002813   0.000208   0.000000   0.000001
     2  C   -0.008483   0.347955  -0.047792  -0.001569  -0.000013  -0.000012
     3  C   -0.000084  -0.028792   0.180827  -0.012523   0.001101  -0.001641
     4  C   -0.000094   0.004958  -0.030313  -0.004448  -0.000168  -0.000151
     5  C    0.000311   0.000534   0.001486   0.000519  -0.000002   0.000000
     6  H    0.005528  -0.003884  -0.000023  -0.000012   0.000000   0.000000
     7  H    0.005412  -0.043266   0.001059   0.000572  -0.000017   0.000004
     8  H    0.000023  -0.000060  -0.001368   0.002448  -0.000108   0.000013
     9  H    0.000001  -0.000143  -0.000401  -0.001159   0.000015  -0.000031
    10  O   -0.003381   0.002515  -0.000010   0.000011   0.000000   0.000000
    11  O   -0.000007   0.000002  -0.000014  -0.000092   0.000000   0.000000
    12  C    0.361825  -0.003967  -0.000042  -0.000003   0.000000   0.000000
    13  C    4.931223  -0.001671  -0.000001  -0.000002   0.000000   0.000000
    14  C   -0.001671   4.985813  -0.008787   0.000398  -0.000001  -0.000024
    15  O   -0.000001  -0.008787   8.288495   0.338929  -0.020453  -0.018021
    16  Si  -0.000002   0.000398   0.338929  11.859802   0.377828   0.368050
    17  C    0.000000  -0.000001  -0.020453   0.377828   5.119918  -0.034901
    18  C    0.000000  -0.000024  -0.018021   0.368050  -0.034901   5.144471
    19  C    0.000000   0.000000  -0.014235   0.366277  -0.031508  -0.035296
    20  H    0.000000  -0.000007  -0.000739  -0.026946  -0.001136   0.379032
    21  H    0.000000   0.000001  -0.000558  -0.028879   0.001415   0.376107
    22  H    0.000000   0.000000   0.000540  -0.013020  -0.000789   0.369899
    23  H    0.000000   0.000000  -0.000376  -0.026064  -0.001092   0.001367
    24  H    0.000000   0.000000   0.000452  -0.013459  -0.001135  -0.000452
    25  H    0.000000   0.000000  -0.000351  -0.027932   0.001480  -0.001556
    26  H    0.000000   0.000000   0.000501  -0.014280   0.372891  -0.000381
    27  H    0.000000   0.000000  -0.000468  -0.024863   0.375360   0.001392
    28  H    0.000000  -0.000001  -0.000471  -0.024626   0.376145  -0.001400
    29  H   -0.000013   0.380427   0.009663   0.001987  -0.000051  -0.000057
    30  H    0.000303   0.373346   0.000088  -0.000062   0.000000   0.000000
    31  H    0.000176   0.380382   0.000042  -0.000048   0.000000   0.000001
    32  H   -0.036369   0.003420   0.000000   0.000000   0.000000   0.000000
    33  H   -0.042522  -0.000001   0.000000   0.000000   0.000000   0.000000
    34  H    0.382828   0.000007   0.000000   0.000000   0.000000   0.000000
    35  H    0.386837  -0.000011   0.000001  -0.000002   0.000000   0.000000
    36  H    0.389626   0.000122   0.000000   0.000000   0.000000   0.000000
    37  C    0.000005  -0.006660  -0.046741  -0.000006  -0.000068   0.000130
    38  C   -0.000002  -0.005234   0.001087   0.000096  -0.000006  -0.001448
    39  C    0.000000  -0.003600   0.000189  -0.000073   0.000000   0.000007
    40  H    0.000000  -0.000128  -0.003578   0.006005   0.000003  -0.000659
    41  H   -0.000001   0.000227   0.002900  -0.000430   0.000001   0.000024
    42  H    0.000000   0.000406   0.002741   0.000352  -0.000007   0.000864
    43  H    0.000000   0.000017   0.000002   0.000012   0.000000   0.000002
    44  H    0.000000   0.000033  -0.000001   0.000014   0.000000  -0.000001
              19         20         21         22         23         24
     1  C    0.000002   0.000000   0.000000   0.000000   0.000000   0.000000
     2  C   -0.000041   0.000010  -0.000001   0.000001  -0.000007   0.000001
     3  C   -0.001287  -0.000033  -0.000087   0.000022  -0.000244   0.000003
     4  C   -0.000699   0.000004  -0.000032   0.000002  -0.000490   0.000152
     5  C    0.000075   0.000000   0.000000   0.000000  -0.000004  -0.000002
     6  H    0.000000   0.000000   0.000000   0.000000   0.000000   0.000000
     7  H   -0.000008   0.000000   0.000000   0.000000  -0.000002   0.000000
     8  H   -0.000474   0.000000   0.000000   0.000000   0.000684  -0.000003
     9  H    0.000049   0.000000  -0.000013   0.000002   0.000650   0.000115
    10  O   -0.000001   0.000000   0.000000   0.000000   0.000000   0.000000
    11  O   -0.000005   0.000000   0.000000   0.000000   0.000004   0.000000
    12  C    0.000000   0.000000   0.000000   0.000000   0.000000   0.000000
    13  C    0.000000   0.000000   0.000000   0.000000   0.000000   0.000000
    14  C    0.000000  -0.000007   0.000001   0.000000   0.000000   0.000000
    15  O   -0.014235  -0.000739  -0.000558   0.000540  -0.000376   0.000452
    16  Si   0.366277  -0.026946  -0.028879  -0.013020  -0.026064  -0.013459
    17  C   -0.031508  -0.001136   0.001415  -0.000789  -0.001092  -0.001135
    18  C   -0.035296   0.379032   0.376107   0.369899   0.001367  -0.000452
    19  C    5.149920   0.001358  -0.001454  -0.000270   0.377677   0.371905
    20  H    0.001358   0.574830  -0.023072  -0.023553  -0.000025   0.000012
    21  H   -0.001454  -0.023072   0.583211  -0.023441   0.000007  -0.000024
    22  H   -0.000270  -0.023553  -0.023441   0.569982   0.000005   0.000051
    23  H    0.377677  -0.000025   0.000007   0.000005   0.570957  -0.022563
    24  H    0.371905   0.000012  -0.000024   0.000051  -0.022563   0.562020
    25  H    0.375557   0.000010   0.000668  -0.000022  -0.023799  -0.022773
    26  H   -0.000806  -0.000030   0.000002  -0.000013  -0.000048   0.000092
    27  H   -0.001214   0.000002  -0.000028   0.000020   0.000609  -0.000039
    28  H    0.001425   0.000593   0.000004  -0.000040   0.000004   0.000018
    29  H    0.000006   0.000038  -0.000005   0.000000   0.000000   0.000000
    30  H    0.000000   0.000000   0.000000   0.000000   0.000000   0.000000
    31  H    0.000000   0.000000   0.000000   0.000000   0.000000   0.000000
    32  H    0.000000   0.000000   0.000000   0.000000   0.000000   0.000000
    33  H    0.000000   0.000000   0.000000   0.000000   0.000000   0.000000
    34  H    0.000000   0.000000   0.000000   0.000000   0.000000   0.000000
    35  H    0.000000   0.000000   0.000000   0.000000   0.000000   0.000000
    36  H    0.000000   0.000000   0.000000   0.000000   0.000000   0.000000
    37  C   -0.001309   0.000008  -0.000297   0.000006   0.000077   0.000018
    38  C    0.000036  -0.000595   0.001124   0.000061   0.000001   0.000000
    39  C    0.000000   0.000001   0.000066   0.000000   0.000000   0.000000
    40  H   -0.000568   0.000052   0.000946   0.000004  -0.000048   0.000005
    41  H    0.000006  -0.000002   0.000004   0.000000   0.000001   0.000000
    42  H    0.000003   0.001640   0.000087   0.000016   0.000000   0.000000
    43  H    0.000000  -0.000003   0.000002   0.000000   0.000000   0.000000
    44  H    0.000000   0.000000  -0.000001   0.000000   0.000000   0.000000
              25         26         27         28         29         30
     1  C    0.000000   0.000000   0.000000   0.000000   0.003915  -0.004921
     2  C   -0.000004   0.000000  -0.000003   0.000005  -0.026186  -0.026572
     3  C    0.000471  -0.000013  -0.000023  -0.000040  -0.008396   0.003850
     4  C   -0.002201   0.000002  -0.000035   0.000007   0.000251  -0.000133
     5  C   -0.000048   0.000000   0.000000   0.000000  -0.000018  -0.000015
     6  H    0.000000   0.000000   0.000000   0.000000  -0.000096  -0.000002
     7  H   -0.000001   0.000000   0.000001  -0.000002  -0.000970  -0.009283
     8  H   -0.000054   0.000001   0.000005  -0.000002   0.000008  -0.000006
     9  H    0.002923   0.000000  -0.000003   0.000000  -0.000009   0.000003
    10  O    0.000000   0.000000   0.000000   0.000000  -0.000046  -0.000011
    11  O   -0.000004   0.000000   0.000000   0.000000   0.000000   0.000000
    12  C    0.000000   0.000000   0.000000   0.000000   0.000082   0.001789
    13  C    0.000000   0.000000   0.000000   0.000000  -0.000013   0.000303
    14  C    0.000000   0.000000   0.000000  -0.000001   0.380427   0.373346
    15  O   -0.000351   0.000501  -0.000468  -0.000471   0.009663   0.000088
    16  Si  -0.027932  -0.014280  -0.024863  -0.024626   0.001987  -0.000062
    17  C    0.001480   0.372891   0.375360   0.376145  -0.000051   0.000000
    18  C   -0.001556  -0.000381   0.001392  -0.001400  -0.000057   0.000000
    19  C    0.375557  -0.000806  -0.001214   0.001425   0.000006   0.000000
    20  H    0.000010  -0.000030   0.000002   0.000593   0.000038   0.000000
    21  H    0.000668   0.000002  -0.000028   0.000004  -0.000005   0.000000
    22  H   -0.000022  -0.000013   0.000020  -0.000040   0.000000   0.000000
    23  H   -0.023799  -0.000048   0.000609   0.000004   0.000000   0.000000
    24  H   -0.022773   0.000092  -0.000039   0.000018   0.000000   0.000000
    25  H    0.578178  -0.000001   0.000000  -0.000027   0.000000   0.000000
    26  H   -0.000001   0.568519  -0.023650  -0.023830   0.000000   0.000000
    27  H    0.000000  -0.023650   0.578663  -0.022029  -0.000003   0.000000
    28  H   -0.000027  -0.023830  -0.022029   0.576434   0.000018   0.000000
    29  H    0.000000   0.000000  -0.000003   0.000018   0.570445  -0.030203
    30  H    0.000000   0.000000   0.000000   0.000000  -0.030203   0.612354
    31  H    0.000000   0.000000   0.000000   0.000000  -0.028471  -0.030669
    32  H    0.000000   0.000000   0.000000   0.000000   0.000008   0.000158
    33  H    0.000000   0.000000   0.000000   0.000000   0.000000   0.000023
    34  H    0.000000   0.000000   0.000000   0.000000   0.000000  -0.000063
    35  H    0.000000   0.000000   0.000000   0.000000  -0.000035   0.001955
    36  H    0.000000   0.000000   0.000000   0.000000   0.000002  -0.000043
    37  C   -0.000513   0.000001   0.000001  -0.000003  -0.000043  -0.000001
    38  C   -0.000017   0.000000   0.000000   0.000000   0.000123   0.000238
    39  C   -0.000001   0.000000   0.000000   0.000000  -0.000007   0.000126
    40  H    0.001830   0.000001   0.000000   0.000001  -0.000032   0.000004
    41  H   -0.000001   0.000000   0.000000   0.000000  -0.000009   0.000001
    42  H   -0.000001   0.000000   0.000000  -0.000004   0.000449   0.000021
    43  H    0.000000   0.000000   0.000000   0.000000  -0.000001  -0.000001
    44  H    0.000000   0.000000   0.000000   0.000000  -0.000001   0.000001
              31         32         33         34         35         36
     1  C   -0.005688  -0.027187  -0.029670   0.004522  -0.005653  -0.007541
     2  C   -0.035953  -0.006229   0.005164   0.000160   0.002578  -0.000735
     3  C   -0.003787  -0.000036  -0.000081  -0.000003   0.000000  -0.000087
     4  C    0.000050   0.000030   0.000013   0.000001  -0.000011   0.000163
     5  C   -0.000015  -0.000048   0.000029  -0.000008   0.000019   0.000350
     6  H    0.005441  -0.000217  -0.005708  -0.000143  -0.000052   0.000270
     7  H    0.005554   0.000251   0.000015  -0.000138   0.001583   0.000682
     8  H   -0.000001  -0.000001   0.000001   0.000000  -0.000009   0.000004
     9  H    0.000005   0.000000  -0.000001   0.000000   0.000000  -0.000001
    10  O    0.000026   0.002907   0.000716   0.000087  -0.000095   0.008071
    11  O    0.000000   0.000001  -0.000006   0.000000   0.000000  -0.000034
    12  C   -0.001819   0.376649   0.379634  -0.028366  -0.036452  -0.036913
    13  C    0.000176  -0.036369  -0.042522   0.382828   0.386837   0.389626
    14  C    0.380382   0.003420  -0.000001   0.000007  -0.000011   0.000122
[...]
    13  C    0.000000   0.000000   0.000000   0.000000   0.000000   0.000000
    14  C    0.000000  -0.000005   0.000000   0.000000   0.000000   0.000000
    15  O   -0.016053  -0.000825  -0.000689   0.000526  -0.000468   0.000483
    16  Si   0.364904  -0.025500  -0.026118  -0.013238  -0.023868  -0.014331
    17  C   -0.027468  -0.001148   0.001171  -0.000453  -0.001096  -0.000738
    18  C   -0.033072   0.378821   0.377718   0.367513   0.001219  -0.000389
    19  C    5.146166   0.001225  -0.001155  -0.000378   0.378045   0.368992
    20  H    0.001225   0.572855  -0.023512  -0.024247  -0.000021   0.000005
    21  H   -0.001155  -0.023512   0.574370  -0.023616   0.000003  -0.000022
    22  H   -0.000378  -0.024247  -0.023616   0.573242   0.000006   0.000108
    23  H    0.378045  -0.000021   0.000003   0.000006   0.569060  -0.023281
    24  H    0.368992   0.000005  -0.000022   0.000108  -0.023281   0.569260
    25  H    0.377003   0.000005   0.000483  -0.000042  -0.024148  -0.023483
    26  H   -0.000452  -0.000052   0.000006  -0.000041  -0.000050   0.000036
    27  H   -0.001306   0.000003  -0.000021   0.000008   0.000487  -0.000035
    28  H    0.001211   0.000495   0.000002  -0.000012   0.000000   0.000009
    29  H    0.000007   0.000013  -0.000002   0.000000   0.000000   0.000000
    30  H    0.000000   0.000000   0.000000   0.000000   0.000000   0.000000
    31  H    0.000000   0.000000   0.000000   0.000000   0.000000   0.000000
    32  H    0.000000   0.000000   0.000000   0.000000   0.000000   0.000000
    33  H    0.000000   0.000000   0.000000   0.000000   0.000000   0.000000
    34  H    0.000000   0.000000   0.000000   0.000000   0.000000   0.000000
    35  H    0.000000   0.000000   0.000000   0.000000   0.000000   0.000000
    36  H    0.000000   0.000000   0.000000   0.000000   0.000000   0.000000
    37  C   -0.000698   0.000019  -0.000081   0.000002   0.000041   0.000009
    38  C    0.000022  -0.000534   0.001133   0.000062   0.000001   0.000000
    39  C    0.000000  -0.000001   0.000068   0.000000   0.000000   0.000000
    40  H   -0.000362   0.000034   0.000795   0.000001  -0.000021   0.000007
    41  H   -0.000001  -0.000002  -0.000001   0.000000   0.000000   0.000000
    42  H    0.000003   0.001571  -0.000166   0.000016   0.000000   0.000000
    43  H    0.000000  -0.000004   0.000001   0.000000   0.000000   0.000000
    44  H    0.000000   0.000000  -0.000001   0.000000   0.000000   0.000000
              25         26         27         28         29         30
     1  C    0.000000   0.000000   0.000000   0.000000   0.004284  -0.004997
     2  C   -0.000001   0.000000  -0.000002   0.000009  -0.028671  -0.026878
     3  C    0.000321  -0.000016  -0.000015  -0.000056  -0.008658   0.003828
     4  C   -0.001373   0.000002  -0.000035   0.000008   0.000255  -0.000128
     5  C   -0.000033   0.000000   0.000000   0.000000  -0.000019  -0.000013
     6  H    0.000000   0.000000   0.000000   0.000000  -0.000089  -0.000021
     7  H   -0.000001   0.000000   0.000005  -0.000004  -0.001456  -0.007776
     8  H   -0.000078   0.000002   0.000004  -0.000003   0.000008  -0.000005
     9  H    0.002413   0.000000  -0.000001   0.000000  -0.000008   0.000003
    10  O    0.000000   0.000000   0.000000   0.000000  -0.000048  -0.000009
    11  O   -0.000002   0.000000   0.000000   0.000000   0.000000   0.000000
    12  C    0.000000   0.000000   0.000000   0.000000   0.000049   0.001768
    13  C    0.000000   0.000000   0.000000   0.000000  -0.000013   0.000342
    14  C    0.000000   0.000000   0.000001  -0.000008   0.379739   0.374730
    15  O   -0.000449   0.000681  -0.000632  -0.000726   0.010645   0.000098
    16  Si  -0.024537  -0.014671  -0.022506  -0.023159   0.002055  -0.000062
    17  C    0.001189   0.368075   0.376634   0.377231  -0.000068   0.000000
    18  C   -0.001162  -0.000082   0.001199  -0.001365  -0.000053   0.000000
    19  C    0.377003  -0.000452  -0.001306   0.001211   0.000007   0.000000
    20  H    0.000005  -0.000052   0.000003   0.000495   0.000013   0.000000
    21  H    0.000483   0.000006  -0.000021   0.000002  -0.000002   0.000000
    22  H   -0.000042  -0.000041   0.000008  -0.000012   0.000000   0.000000
    23  H   -0.024148  -0.000050   0.000487   0.000000   0.000000   0.000000
    24  H   -0.023483   0.000036  -0.000035   0.000009   0.000000   0.000000
    25  H    0.572882  -0.000003   0.000005  -0.000020   0.000000   0.000000
    26  H   -0.000003   0.576684  -0.024214  -0.024190   0.000001   0.000000
    27  H    0.000005  -0.024214   0.572067  -0.022530  -0.000009   0.000000
    28  H   -0.000020  -0.024190  -0.022530   0.570983   0.000137   0.000000
    29  H    0.000000   0.000001  -0.000009   0.000137   0.571033  -0.028512
    30  H    0.000000   0.000000   0.000000   0.000000  -0.028512   0.605195
    31  H    0.000000   0.000000   0.000000   0.000000  -0.028936  -0.029404
    32  H    0.000000   0.000000   0.000000   0.000000   0.000003   0.000367
    33  H    0.000000   0.000000   0.000000   0.000000   0.000000   0.000006
    34  H    0.000000   0.000000   0.000000   0.000000   0.000000  -0.000060
    35  H    0.000000   0.000000   0.000000   0.000000  -0.000028   0.001597
    36  H    0.000000   0.000000   0.000000   0.000000   0.000002  -0.000040
    37  C   -0.000263   0.000001   0.000001  -0.000006  -0.000087   0.000004
    38  C   -0.000006   0.000000   0.000000   0.000000   0.000131   0.000187
    39  C    0.000000   0.000000   0.000000   0.000000   0.000009   0.000090
    40  H    0.000857   0.000000   0.000000   0.000001  -0.000031   0.000005
    41  H   -0.000003   0.000000   0.000000   0.000000  -0.000016   0.000001
    42  H   -0.000002   0.000000   0.000001  -0.000009   0.000389   0.000022
    43  H    0.000000   0.000000   0.000000   0.000000  -0.000002   0.000000
    44  H    0.000000   0.000000   0.000000   0.000000  -0.000001   0.000001
              31         32         33         34         35         36
     1  C   -0.005899  -0.029886  -0.031199   0.004247  -0.005352  -0.006995
     2  C   -0.034338  -0.005953   0.005243   0.000185   0.002205  -0.000756
     3  C   -0.004703  -0.000066  -0.000084  -0.000003  -0.000002  -0.000107
     4  C    0.000058   0.000035   0.000014   0.000001  -0.000015   0.000191
     5  C   -0.000015  -0.000062   0.000054  -0.000010   0.000029   0.000561
     6  H    0.005991  -0.000450  -0.005373  -0.000132  -0.000045   0.000236
     7  H    0.005291   0.000265   0.000035  -0.000136   0.001638   0.000751
     8  H   -0.000001  -0.000001   0.000001   0.000000  -0.000011  -0.000001
     9  H    0.000005   0.000000  -0.000001   0.000000   0.000000  -0.000001
    10  O    0.000024   0.003305   0.000458   0.000072  -0.000058   0.007739
    11  O    0.000000   0.000001  -0.000009   0.000000   0.000000  -0.000058
    12  C   -0.001473   0.373085   0.379725  -0.027535  -0.034461  -0.037368
    13  C    0.000138  -0.035275  -0.039167   0.382999   0.387003   0.388594
    14  C    0.379603   0.003123  -0.000013  -0.000001   0.000125   0.000115
    15  O   -0.000025   0.000000   0.000000   0.000000   0.000001   0.000000
    16  Si  -0.000053   0.000000   0.000000   0.000000  -0.000002  -0.000001
    17  C    0.000000   0.000000   0.000000   0.000000   0.000000   0.000000
    18  C    0.000001   0.000000   0.000000   0.000000   0.000000   0.000000
    19  C    0.000000   0.000000   0.000000   0.000000   0.000000   0.000000
    20  H    0.000000   0.000000   0.000000   0.000000   0.000000   0.000000
    21  H    0.000000   0.000000   0.000000   0.000000   0.000000   0.000000
    22  H    0.000000   0.000000   0.000000   0.000000   0.000000   0.000000
    23  H    0.000000   0.000000   0.000000   0.000000   0.000000   0.000000
    24  H    0.000000   0.000000   0.000000   0.000000   0.000000   0.000000
    25  H    0.000000   0.000000   0.000000   0.000000   0.000000   0.000000
    26  H    0.000000   0.000000   0.000000   0.000000   0.000000   0.000000
    27  H    0.000000   0.000000   0.000000   0.000000   0.000000   0.000000
    28  H    0.000000   0.000000   0.000000   0.000000   0.000000   0.000000
    29  H   -0.028936   0.000003   0.000000   0.000000  -0.000028   0.000002
    30  H   -0.029404   0.000367   0.000006  -0.000060   0.001597  -0.000040
    31  H    0.585287   0.000745  -0.000037   0.000002  -0.000030  -0.000002
    32  H    0.000745   0.613828  -0.032329  -0.002406  -0.005193   0.005278
    33  H   -0.000037  -0.032329   0.610764  -0.004321   0.005041  -0.003386
    34  H    0.000002  -0.002406  -0.004321   0.596905  -0.030485  -0.030040
    35  H   -0.000030  -0.005193   0.005041  -0.030485   0.598595  -0.032262
    36  H   -0.000002   0.005278  -0.003386  -0.030040  -0.032262   0.587955
    37  C    0.001007  -0.000002  -0.000001   0.000000  -0.000001   0.000000
    38  C    0.007850  -0.000005   0.000000   0.000000   0.000000   0.000000
    39  C    0.004245   0.000000   0.000000   0.000000   0.000000   0.000000
    40  H    0.000074   0.000000   0.000000   0.000000   0.000000   0.000000
    41  H   -0.000229  -0.000001   0.000001   0.000000   0.000000   0.000000
    42  H   -0.000549   0.000000   0.000000   0.000000   0.000000   0.000000
    43  H    0.000036   0.000000   0.000000   0.000000   0.000000   0.000000
    44  H   -0.000048   0.000000   0.000000   0.000000   0.000000   0.000000
              37         38         39         40         41         42
     1  C    0.001089  -0.001935  -0.000640  -0.000133   0.001565   0.000036
     2  C   -0.063447  -0.004541   0.001207   0.005942  -0.004614  -0.000884
     3  C    0.340181  -0.030939   0.000538  -0.034372  -0.025230  -0.003993
     4  C   -0.063443   0.004944  -0.000095  -0.007774  -0.004727   0.000100
     5  C   -0.000172  -0.000040  -0.000013  -0.000380   0.003492  -0.000002
     6  H    0.005287   0.000934   0.001915   0.000094  -0.001487  -0.000003
     7  H    0.006595  -0.000123  -0.000006  -0.000168  -0.000137  -0.000024
     8  H    0.005108  -0.000129   0.000001  -0.000021   0.000069   0.000003
     9  H   -0.007279   0.000030   0.000001   0.004713   0.000113   0.000001
    10  O   -0.003038   0.000110  -0.000002   0.000014   0.002458  -0.000001
    11  O    0.000068   0.000000   0.000000  -0.000009  -0.000329   0.000000
    12  C   -0.000137   0.000029   0.000002   0.000000   0.000131   0.000002
    13  C    0.000004  -0.000001   0.000000   0.000000  -0.000001   0.000000
    14  C   -0.006881  -0.005242  -0.003007  -0.000151   0.000279   0.000452
    15  O   -0.054661   0.000929   0.000278  -0.003637   0.003415   0.003744
    16  Si  -0.001274   0.000010  -0.000105   0.005069  -0.000177   0.000951
    17  C   -0.000076  -0.000008   0.000000   0.000004   0.000001  -0.000027
    18  C    0.000374  -0.001404  -0.000009  -0.000442   0.000011   0.000828
    19  C   -0.000698   0.000022   0.000000  -0.000362  -0.000001   0.000003
    20  H    0.000019  -0.000534  -0.000001   0.000034  -0.000002   0.001571
    21  H   -0.000081   0.001133   0.000068   0.000795  -0.000001  -0.000166
    22  H    0.000002   0.000062   0.000000   0.000001   0.000000   0.000016
    23  H    0.000041   0.000001   0.000000  -0.000021   0.000000   0.000000
    24  H    0.000009   0.000000   0.000000   0.000007   0.000000   0.000000
    25  H   -0.000263  -0.000006   0.000000   0.000857  -0.000003  -0.000002
    26  H    0.000001   0.000000   0.000000   0.000000   0.000000   0.000000
    27  H    0.000001   0.000000   0.000000   0.000000   0.000000   0.000001
    28  H   -0.000006   0.000000   0.000000   0.000001   0.000000  -0.000009
    29  H   -0.000087   0.000131   0.000009  -0.000031  -0.000016   0.000389
    30  H    0.000004   0.000187   0.000090   0.000005   0.000001   0.000022
    31  H    0.001007   0.007850   0.004245   0.000074  -0.000229  -0.000549
    32  H   -0.000002  -0.000005   0.000000   0.000000  -0.000001   0.000000
    33  H   -0.000001   0.000000   0.000000   0.000000   0.000001   0.000000
    34  H    0.000000   0.000000   0.000000   0.000000   0.000000   0.000000
    35  H   -0.000001   0.000000   0.000000   0.000000   0.000000   0.000000
    36  H    0.000000   0.000000   0.000000   0.000000   0.000000   0.000000
    37  C    5.065020   0.382743  -0.039313   0.369969   0.361851  -0.053480
    38  C    0.382743   4.761530   0.652935  -0.038905  -0.037620   0.385040
    39  C   -0.039313   0.652935   4.942192  -0.001592  -0.006207  -0.043613
    40  H    0.369969  -0.038905  -0.001592   0.608387  -0.030378  -0.000884
    41  H    0.361851  -0.037620  -0.006207  -0.030378   0.617155   0.005211
    42  H   -0.053480   0.385040  -0.043613  -0.000884   0.005211   0.602596
    43  H    0.004596  -0.024592   0.376263  -0.000211   0.000085  -0.007936
    44  H   -0.012165  -0.035192   0.382344   0.000233   0.006019   0.005629
              43         44
     1  C    0.000008  -0.000074
     2  C   -0.000028  -0.000034
     3  C   -0.000092   0.000160
     4  C    0.000002  -0.000004
     5  C    0.000000  -0.000005
     6  H   -0.000010   0.000474
     7  H    0.000000   0.000000
     8  H    0.000000   0.000000
     9  H    0.000000   0.000001
    10  O    0.000000  -0.000003
    11  O    0.000000   0.000000
    12  C    0.000000   0.000001
    13  C    0.000000   0.000000
    14  C    0.000014   0.000023
    15  O    0.000002  -0.000001
    16  Si   0.000019   0.000009
    17  C    0.000000   0.000000
    18  C    0.000002  -0.000001
    19  C    0.000000   0.000000
    20  H   -0.000004   0.000000
    21  H    0.000001  -0.000001
    22  H    0.000000   0.000000
    23  H    0.000000   0.000000
    24  H    0.000000   0.000000
    25  H    0.000000   0.000000
    26  H    0.000000   0.000000
    27  H    0.000000   0.000000
    28  H    0.000000   0.000000
    29  H   -0.000002  -0.000001
    30  H    0.000000   0.000001
    31  H    0.000036  -0.000048
    32  H    0.000000   0.000000
    33  H    0.000000   0.000000
    34  H    0.000000   0.000000
    35  H    0.000000   0.000000
    36  H    0.000000   0.000000
    37  C    0.004596  -0.012165
    38  C   -0.024592  -0.035192
    39  C    0.376263   0.382344
    40  H   -0.000211   0.000233
    41  H    0.000085   0.006019
    42  H   -0.007936   0.005629
    43  H    0.588919  -0.043307
    44  H   -0.043307   0.593551
 Mulliken charges:
               1
     1  C    0.167225
     2  C   -0.090638
     3  C    0.305916
     4  C   -0.293347
     5  C    0.593550
     6  H    0.115268
     7  H    0.106456
     8  H    0.156368
     9  H    0.137446
    10  O   -0.487214
    11  O   -0.501539
    12  C   -0.190696
    13  C   -0.332518
    14  C   -0.341273
    15  O   -0.643166
    16  Si   0.900682
    17  C   -0.531553
    18  C   -0.549579
    19  C   -0.555697
    20  H    0.120839
    21  H    0.119760
    22  H    0.120527
    23  H    0.123322
    24  H    0.123213
    25  H    0.120449
    26  H    0.118283
    27  H    0.120892
    28  H    0.122005
    29  H    0.127947
    30  H    0.109661
    31  H    0.115384
    32  H    0.111593
    33  H    0.114578
    34  H    0.110718
    35  H    0.111715
    36  H    0.119592
    37  C   -0.237463
    38  C   -0.017405
    39  C   -0.267484
    40  H    0.123274
    41  H    0.109305
    42  H    0.104978
    43  H    0.106234
    44  H    0.102391
 Sum of Mulliken charges =   0.00000
 Mulliken charges with hydrogens summed into heavy atoms:
               1
     1  C    0.282492
     2  C    0.015818
     3  C    0.305916
     4  C    0.000468
     5  C    0.593550
    10  O   -0.487214
    11  O   -0.501539
    12  C    0.035475
    13  C    0.009507
    14  C    0.011720
    15  O   -0.643166
    16  Si   0.900682
    17  C   -0.170374
    18  C   -0.188454
    19  C   -0.188714
    37  C   -0.004884
    38  C    0.087573
    39  C   -0.058859
 Electronic spatial extent (au):  <R**2>=           5540.1863
 Charge=              0.0000 electrons
 Dipole moment (field-independent basis, Debye):
    X=             -2.7022    Y=              3.0724    Z=              2.6297  Tot=              4.8638
 Quadrupole moment (field-independent basis, Debye-Ang):
   XX=           -116.6254   YY=           -123.4954   ZZ=           -123.6261
   XY=             11.0991   XZ=              9.4722   YZ=             -8.4755
 Traceless Quadrupole moment (field-independent basis, Debye-Ang):
   XX=              4.6236   YY=             -2.2464   ZZ=             -2.3771
   XY=             11.0991   XZ=              9.4722   YZ=             -8.4755
 Octapole moment (field-independent basis, Debye-Ang**2):
  XXX=            -16.2441  YYY=             17.0073  ZZZ=              8.0918  XYY=            -15.5519
  XXY=             15.4622  XXZ=             25.6713  XZZ=             -5.7984  YZZ=             16.6370
  YYZ=             22.3612  XYZ=            -23.6858
 Hexadecapole moment (field-independent basis, Debye-Ang**3):
 XXXX=          -4264.3255 YYYY=          -1745.7336 ZZZZ=          -1323.4040 XXXY=             72.2467
 XXXZ=             44.0725 YYYX=             25.4846 YYYZ=            -54.1288 ZZZX=             15.9545
 ZZZY=            -14.7074 XXYY=          -1070.1930 XXZZ=           -979.7515 YYZZ=           -560.5644
 XXYZ=            -30.2714 YYXZ=             23.5336 ZZXY=             43.9830
 N-N= 1.624365527324D+03 E-N=-5.739004069322D+03  KE= 1.055903971651D+03
 1\1\GINC-CPU-E-609\FOpt\RB3LYP\6-31G(d,p)\C14H26O3Si1\KE291\06-Feb-201
 9\0\\# b3lyp/6-31g(d,p) Opt=(maxcycles=25) scrf=(solvent=chloroform)\\
 P_ng_2ginp011\\0,1\C,-0.4428538463,-0.3111941664,1.4023006851\C,-0.869
 6302063,0.9701045823,0.6771874916\C,-1.9026871769,1.7578754738,1.53292
 2333\C,-1.1586897209,2.133028406,2.8279096302\C,-0.4510399988,0.986020
 2845,3.5267714911\H,-1.2962518884,-0.9995798932,1.4321485182\H,-0.0006
 194273,1.6375831754,0.6182522261\H,-0.38833182,2.8733783636,2.58099751
 04\H,-1.8178147811,2.5932359939,3.5663406443\O,-0.0752649665,-0.087559
 7727,2.8027157454\O,-0.1685689157,1.0215145421,4.7067009967\C,0.745394
 9862,-1.059628942,0.7869283328\C,2.0345492874,-0.2436871228,0.65249314
 14\C,-1.30848403,0.6701017781,-0.7635844603\O,-2.2144444312,2.93506782
 44,0.794446988\Si,-3.1276790205,4.3320459483,1.0211970413\C,-2.3863812
 531,5.5517085965,-0.203904434\C,-4.9427891623,4.0313929214,0.602295895
 \C,-3.0115179335,5.025672129,2.7731289471\H,-5.0609048934,3.6454784779
 ,-0.41579451\H,-5.4190795259,3.3230487897,1.2875960868\H,-5.4990437168
 ,4.9741820097,0.6647106289\H,-1.976939599,5.2162027711,3.0754362207\H,
 -3.5483313572,5.9810284422,2.8138477031\H,-3.468238587,4.3670286895,3.
 5193030811\H,-2.9391532333,6.4977481747,-0.1955968555\H,-1.3415333049,
 5.7710208874,0.0393050564\H,-2.4169934183,5.1557980603,-1.2243653961\H
 ,-1.7555716095,1.5630797013,-1.2041017911\H,-0.4479209846,0.3892144875
 ,-1.3774914655\H,-2.0400926185,-0.1396595613,-0.8121493413\H,0.4348521
 129,-1.4466368206,-0.18944758\H,0.9307302325,-1.93531386,1.4188512468\
 H,2.8506272127,-0.8806448074,0.2987381036\H,1.929293797,0.579864336,-0
 .0607231238\H,2.3338628967,0.1778052958,1.6167188054\C,-3.1938950498,0
 .9817212001,1.9112454193\C,-4.0624296244,0.488935759,0.7855792744\C,-4
 .6113300797,-0.7262294376,0.7337215604\H,-3.7836547437,1.6705684264,2.
 5337380739\H,-2.939281326,0.1416648474,2.5681843288\H,-4.2736297379,1.
 202735979,-0.0075086034\H,-5.2643245869,-1.0214418333,-0.0822964207\H,
 -4.4322939496,-1.469296137,1.5077657742\\Version=ES64L-G09RevD.01\Stat
 e=1-A\HF=-1064.4217661\RMSD=7.305e-09\RMSF=3.464e-06\Dipole=-0.8619432
 ,0.4331402,-1.6526479\Quadrupole=2.4436974,7.4412373,-9.8849347,-0.237
 8905,-7.5402746,5.4607608\PG=C01 [X(C14H26O3Si1)]\\@


 THOSE WHO ARE UNABLE TO LEARN FROM PAST MEETINGS
 ARE CONDEMNED TO REPEAT THEM.
 Job cpu time:       0 days  2 hours 36 minutes 36.2 seconds.
 File lengths (MBytes):  RWF=    361 Int=      0 D2E=      0 Chk=     17 Scr=      1
 Normal termination of Gaussian 09 at Wed Feb  6 11:29:19 2019.
