 Entering Gaussian System, Link 0=/usr/local/Cluster-Apps/gaussian/g09/g09
 Initial command:
 /usr/local/Cluster-Apps/gaussian/g09/l1.exe "/home/ke291/rds/hpc-work/06Feb0927IP1/Gau-371454.inp" -scrdir="/home/ke291/rds/hpc-work/06Feb0927IP1/"
 Entering Link 1 = /usr/local/Cluster-Apps/gaussian/g09/l1.exe PID=    371462.
  
 Copyright (c) 1988,1990,1992,1993,1995,1998,2003,2009,2013,
            Gaussian, Inc.  All Rights Reserved.
  
 This is part of the Gaussian(R) 09 program.  It is based on
 the Gaussian(R) 03 system (copyright 2003, Gaussian, Inc.),
 the Gaussian(R) 98 system (copyright 1998, Gaussian, Inc.),
 the Gaussian(R) 94 system (copyright 1995, Gaussian, Inc.),
 the Gaussian 92(TM) system (copyright 1992, Gaussian, Inc.),
 the Gaussian 90(TM) system (copyright 1990, Gaussian, Inc.),
 the Gaussian 88(TM) system (copyright 1988, Gaussian, Inc.),
 the Gaussian 86(TM) system (copyright 1986, Carnegie Mellon
 University), and the Gaussian 82(TM) system (copyright 1983,
 Carnegie Mellon University). Gaussian is a federally registered
 trademark of Gaussian, Inc.
  
 This software contains proprietary and confidential information,
 including trade secrets, belonging to Gaussian, Inc.
  
 This software is provided under written license and may be
 used, copied, transmitted, or stored only in accord with that
 written license.
  
 The following legend is applicable only to US Government
 contracts under FAR:
  
                    RESTRICTED RIGHTS LEGEND
  
 Use, reproduction and disclosure by the US Government is
 subject to restrictions as set forth in subparagraphs (a)
 and (c) of the Commercial Computer Software - Restricted
 Rights clause in FAR 52.227-19.
  
 Gaussian, Inc.
 340 Quinnipiac St., Bldg. 40, Wallingford CT 06492
  
  
 ---------------------------------------------------------------
 Warning -- This program may not be used in any manner that
 competes with the business of Gaussian, Inc. or will provide
 assistance to any competitor of Gaussian, Inc.  The licensee
 of this program is prohibited from giving any competitor of
 Gaussian, Inc. access to this program.  By using this program,
 the user acknowledges that Gaussian, Inc. is engaged in the
 business of creating and licensing software in the field of
 computational chemistry and represents and warrants to the
 licensee that it is not a competitor of Gaussian, Inc. and that
 it will not use this program in any manner prohibited above.
 ---------------------------------------------------------------
  

 Cite this work as:
 Gaussian 09, Revision D.01,
 M. J. Frisch, G. W. Trucks, H. B. Schlegel, G. E. Scuseria, 
 M. A. Robb, J. R. Cheeseman, G. Scalmani, V. Barone, B. Mennucci, 
 G. A. Petersson, H. Nakatsuji, M. Caricato, X. Li, H. P. Hratchian, 
 A. F. Izmaylov, J. Bloino, G. Zheng, J. L. Sonnenberg, M. Hada, 
 M. Ehara, K. Toyota, R. Fukuda, J. Hasegawa, M. Ishida, T. Nakajima, 
 Y. Honda, O. Kitao, H. Nakai, T. Vreven, J. A. Montgomery, Jr., 
 J. E. Peralta, F. Ogliaro, M. Bearpark, J. J. Heyd, E. Brothers, 
 K. N. Kudin, V. N. Staroverov, T. Keith, R. Kobayashi, J. Normand, 
 K. Raghavachari, A. Rendell, J. C. Burant, S. S. Iyengar, J. Tomasi, 
 M. Cossi, N. Rega, J. M. Millam, M. Klene, J. E. Knox, J. B. Cross, 
 V. Bakken, C. Adamo, J. Jaramillo, R. Gomperts, R. E. Stratmann, 
 O. Yazyev, A. J. Austin, R. Cammi, C. Pomelli, J. W. Ochterski, 
 R. L. Martin, K. Morokuma, V. G. Zakrzewski, G. A. Voth, 
 P. Salvador, J. J. Dannenberg, S. Dapprich, A. D. Daniels, 
 O. Farkas, J. B. Foresman, J. V. Ortiz, J. Cioslowski, 
 and D. J. Fox, Gaussian, Inc., Wallingford CT, 2013.
 
 ******************************************
 Gaussian 09:  ES64L-G09RevD.01 24-Apr-2013
                 6-Feb-2019 
 ******************************************
 %nprocshared=2
 Will use up to    2 processors via shared memory.
 %mem=6000MB
 %chk=/home/ke291/rds/hpc-work/06Feb0927IP1/P_ng_correct1ginp013.chk
 ---------------------------------------------------------------
 # b3lyp/6-31g(d,p) Opt=(maxcycles=25) scrf=(solvent=chloroform)
 ---------------------------------------------------------------
 1/6=25,14=-1,18=20,19=15,26=3,38=1/1,3;
 2/9=110,12=2,17=6,18=5,40=1/2;
 3/5=1,6=6,7=101,11=2,16=1,25=1,30=1,70=2201,71=1,72=7,74=-5/1,2,3;
 4//1;
 5/5=2,38=5,53=7/2;
 6/7=2,8=2,9=2,10=2,28=1/1;
 7//1,2,3,16;
 1/6=25,14=-1,18=20,19=15,26=3/3(2);
 2/9=110/2;
 99//99;
 2/9=110/2;
 3/5=1,6=6,7=101,11=2,16=1,25=1,30=1,70=2205,71=1,72=7,74=-5/1,2,3;
 4/5=5,16=3,69=1/1;
 5/5=2,38=5,53=7/2;
 7//1,2,3,16;
 1/6=25,14=-1,18=20,19=15,26=3/3(-5);
 2/9=110/2;
 6/7=2,8=2,9=2,10=2,19=2,28=1/1;
 99/9=1/99;
 --------------------
 P_ng_correct1ginp013
 --------------------
 Symbolic Z-matrix:
 Charge =  0 Multiplicity = 1
 C                     0.98947  -0.32367   0.42803 
 C                    -0.52672  -0.51212   0.66588 
 C                    -1.12638   0.58035   1.59039 
 C                    -0.61907   1.93181   1.06698 
 C                     0.87026   2.02576   1.1727 
 H                     1.53468  -1.14795   0.90374 
 H                    -1.02737  -0.42038  -0.30441 
 H                    -0.87878   2.09065   0.01503 
 H                    -1.06047   2.75934   1.6328 
 O                     1.55376   0.87189   1.0216 
 O                     1.44775   3.0891    1.36906 
 C                     1.37955  -0.29554  -1.06095 
 C                     1.10087  -1.59127  -1.80469 
 C                    -0.8395   -1.94615   1.12268 
 O                    -2.56563   0.43969   1.61438 
 Si                   -3.71036   1.06621   0.5707 
 C                    -5.38471   0.28239   0.97573 
 C                    -3.90707   2.92325   0.77922 
 C                    -3.35057   0.6924   -1.23278 
 H                    -4.02706   3.18014   1.83579 
 H                    -3.03903   3.46113   0.38916 
 H                    -4.79061   3.27619   0.23874 
 H                    -4.1642    1.05731  -1.86705 
 H                    -2.42619   1.17391  -1.5628 
 H                    -3.25507  -0.38571  -1.39222 
 H                    -6.1615    0.67643   0.31413 
 H                    -5.33594  -0.80293   0.84866 
 H                    -5.66494   0.49932   2.01054 
 H                    -0.52116  -2.67258   0.36819 
 H                    -0.32143  -2.19758   2.05354 
 H                    -1.91334  -2.08874   1.27905 
 H                     2.45049  -0.06807  -1.14082 
 H                     0.86742   0.53489  -1.563 
 H                     1.49245  -1.52885  -2.82518 
 H                     1.58368  -2.43949  -1.30949 
 H                     0.02865  -1.79411  -1.87622 
 C                    -0.70212   0.34972   3.08356 
 C                    -1.11173   1.46031   4.01823 
 C                    -0.25153   2.22778   4.69908 
 H                     0.37619   0.17349   3.16734 
 H                    -1.1906   -0.55706   3.46415 
 H                    -2.18117   1.62401   4.14018 
 H                    -0.60959   3.01091   5.36075 
 H                     0.82408   2.10451   4.61083 
 

 GradGradGradGradGradGradGradGradGradGradGradGradGradGradGradGradGradGrad
 Berny optimization.
 Initialization pass.
                           ----------------------------
                           !    Initial Parameters    !
                           ! (Angstroms and Degrees)  !
 --------------------------                            --------------------------
 ! Name  Definition              Value          Derivative Info.                !
 --------------------------------------------------------------------------------
 ! R1    R(1,2)                  1.5463         estimate D2E/DX2                !
 ! R2    R(1,6)                  1.0968         estimate D2E/DX2                !
 ! R3    R(1,10)                 1.4492         estimate D2E/DX2                !
 ! R4    R(1,12)                 1.5395         estimate D2E/DX2                !
 ! R5    R(2,3)                  1.5517         estimate D2E/DX2                !
 ! R6    R(2,7)                  1.0957         estimate D2E/DX2                !
 ! R7    R(2,14)                 1.5372         estimate D2E/DX2                !
 ! R8    R(3,4)                  1.5355         estimate D2E/DX2                !
 ! R9    R(3,15)                 1.4463         estimate D2E/DX2                !
 ! R10   R(3,37)                 1.5693         estimate D2E/DX2                !
 ! R11   R(4,5)                  1.496          estimate D2E/DX2                !
 ! R12   R(4,8)                  1.0951         estimate D2E/DX2                !
 ! R13   R(4,9)                  1.0954         estimate D2E/DX2                !
 ! R14   R(5,10)                 1.3496         estimate D2E/DX2                !
 ! R15   R(5,11)                 1.2259         estimate D2E/DX2                !
 ! R16   R(12,13)                1.5198         estimate D2E/DX2                !
 ! R17   R(12,32)                1.0977         estimate D2E/DX2                !
 ! R18   R(12,33)                1.0972         estimate D2E/DX2                !
 ! R19   R(13,34)                1.0948         estimate D2E/DX2                !
 ! R20   R(13,35)                1.0944         estimate D2E/DX2                !
 ! R21   R(13,36)                1.0936         estimate D2E/DX2                !
 ! R22   R(14,29)                1.0947         estimate D2E/DX2                !
 ! R23   R(14,30)                1.0946         estimate D2E/DX2                !
 ! R24   R(14,31)                1.0945         estimate D2E/DX2                !
 ! R25   R(15,16)                1.671          estimate D2E/DX2                !
 ! R26   R(16,17)                1.8926         estimate D2E/DX2                !
 ! R27   R(16,18)                1.879          estimate D2E/DX2                !
 ! R28   R(16,19)                1.8766         estimate D2E/DX2                !
 ! R29   R(17,26)                1.0938         estimate D2E/DX2                !
 ! R30   R(17,27)                1.0938         estimate D2E/DX2                !
 ! R31   R(17,28)                1.0938         estimate D2E/DX2                !
 ! R32   R(18,20)                1.0939         estimate D2E/DX2                !
 ! R33   R(18,21)                1.0931         estimate D2E/DX2                !
 ! R34   R(18,22)                1.0942         estimate D2E/DX2                !
 ! R35   R(19,23)                1.0943         estimate D2E/DX2                !
 ! R36   R(19,24)                1.0933         estimate D2E/DX2                !
 ! R37   R(19,25)                1.094          estimate D2E/DX2                !
 ! R38   R(37,38)                1.5082         estimate D2E/DX2                !
 ! R39   R(37,40)                1.0958         estimate D2E/DX2                !
 ! R40   R(37,41)                1.098          estimate D2E/DX2                !
 ! R41   R(38,39)                1.3388         estimate D2E/DX2                !
 ! R42   R(38,42)                1.0887         estimate D2E/DX2                !
 ! R43   R(39,43)                1.086          estimate D2E/DX2                !
 ! R44   R(39,44)                1.0862         estimate D2E/DX2                !
 ! A1    A(2,1,6)              109.2148         estimate D2E/DX2                !
 ! A2    A(2,1,10)             114.7938         estimate D2E/DX2                !
 ! A3    A(2,1,12)             113.5445         estimate D2E/DX2                !
 ! A4    A(6,1,10)             104.4058         estimate D2E/DX2                !
 ! A5    A(6,1,12)             107.8949         estimate D2E/DX2                !
 ! A6    A(10,1,12)            106.4049         estimate D2E/DX2                !
 ! A7    A(1,2,3)              112.6302         estimate D2E/DX2                !
 ! A8    A(1,2,7)              107.5546         estimate D2E/DX2                !
 ! A9    A(1,2,14)             111.034          estimate D2E/DX2                !
 ! A10   A(3,2,7)              106.9829         estimate D2E/DX2                !
 ! A11   A(3,2,14)             113.6478         estimate D2E/DX2                !
 ! A12   A(7,2,14)             104.3766         estimate D2E/DX2                !
 ! A13   A(2,3,4)              106.7913         estimate D2E/DX2                !
 ! A14   A(2,3,15)             109.025          estimate D2E/DX2                !
 ! A15   A(2,3,37)             111.0356         estimate D2E/DX2                !
 ! A16   A(4,3,15)             114.8366         estimate D2E/DX2                !
 ! A17   A(4,3,37)             111.3679         estimate D2E/DX2                !
 ! A18   A(15,3,37)            103.8249         estimate D2E/DX2                !
 ! A19   A(3,4,5)              111.106          estimate D2E/DX2                !
 ! A20   A(3,4,8)              112.1322         estimate D2E/DX2                !
 ! A21   A(3,4,9)              110.8376         estimate D2E/DX2                !
 ! A22   A(5,4,8)              107.1493         estimate D2E/DX2                !
 ! A23   A(5,4,9)              108.4949         estimate D2E/DX2                !
 ! A24   A(8,4,9)              106.9211         estimate D2E/DX2                !
 ! A25   A(4,5,10)             116.268          estimate D2E/DX2                !
 ! A26   A(4,5,11)             122.3286         estimate D2E/DX2                !
 ! A27   A(10,5,11)            121.3976         estimate D2E/DX2                !
 ! A28   A(1,10,5)             123.6418         estimate D2E/DX2                !
 ! A29   A(1,12,13)            114.2851         estimate D2E/DX2                !
 ! A30   A(1,12,32)            108.7449         estimate D2E/DX2                !
 ! A31   A(1,12,33)            109.7616         estimate D2E/DX2                !
 ! A32   A(13,12,32)           108.6598         estimate D2E/DX2                !
 ! A33   A(13,12,33)           109.6188         estimate D2E/DX2                !
 ! A34   A(32,12,33)           105.3808         estimate D2E/DX2                !
 ! A35   A(12,13,34)           109.9962         estimate D2E/DX2                !
 ! A36   A(12,13,35)           111.0056         estimate D2E/DX2                !
 ! A37   A(12,13,36)           111.7117         estimate D2E/DX2                !
 ! A38   A(34,13,35)           107.9478         estimate D2E/DX2                !
 ! A39   A(34,13,36)           107.4749         estimate D2E/DX2                !
 ! A40   A(35,13,36)           108.5638         estimate D2E/DX2                !
 ! A41   A(2,14,29)            110.7989         estimate D2E/DX2                !
 ! A42   A(2,14,30)            111.7593         estimate D2E/DX2                !
 ! A43   A(2,14,31)            111.3234         estimate D2E/DX2                !
 ! A44   A(29,14,30)           107.222          estimate D2E/DX2                !
 ! A45   A(29,14,31)           107.2974         estimate D2E/DX2                !
 ! A46   A(30,14,31)           108.2362         estimate D2E/DX2                !
 ! A47   A(3,15,16)            129.412          estimate D2E/DX2                !
 ! A48   A(15,16,17)           108.4886         estimate D2E/DX2                !
 ! A49   A(15,16,18)           111.8982         estimate D2E/DX2                !
 ! A50   A(15,16,19)           113.217          estimate D2E/DX2                !
 ! A51   A(17,16,18)           107.0342         estimate D2E/DX2                !
 ! A52   A(17,16,19)           107.0249         estimate D2E/DX2                !
 ! A53   A(18,16,19)           108.8794         estimate D2E/DX2                !
 ! A54   A(16,17,26)           110.4655         estimate D2E/DX2                !
 ! A55   A(16,17,27)           110.2812         estimate D2E/DX2                !
 ! A56   A(16,17,28)           110.3032         estimate D2E/DX2                !
 ! A57   A(26,17,27)           108.5924         estimate D2E/DX2                !
 ! A58   A(26,17,28)           108.5935         estimate D2E/DX2                !
 ! A59   A(27,17,28)           108.5491         estimate D2E/DX2                !
 ! A60   A(16,18,20)           110.5323         estimate D2E/DX2                !
 ! A61   A(16,18,21)           111.3191         estimate D2E/DX2                !
 ! A62   A(16,18,22)           110.395          estimate D2E/DX2                !
 ! A63   A(20,18,21)           108.4326         estimate D2E/DX2                !
 ! A64   A(20,18,22)           108.2253         estimate D2E/DX2                !
 ! A65   A(21,18,22)           107.8319         estimate D2E/DX2                !
 ! A66   A(16,19,23)           110.368          estimate D2E/DX2                !
 ! A67   A(16,19,24)           111.375          estimate D2E/DX2                !
 ! A68   A(16,19,25)           110.6762         estimate D2E/DX2                !
 ! A69   A(23,19,24)           107.8686         estimate D2E/DX2                !
 ! A70   A(23,19,25)           108.0028         estimate D2E/DX2                !
 ! A71   A(24,19,25)           108.4349         estimate D2E/DX2                !
 ! A72   A(3,37,38)            114.0794         estimate D2E/DX2                !
 ! A73   A(3,37,40)            111.2482         estimate D2E/DX2                !
 ! A74   A(3,37,41)            109.3224         estimate D2E/DX2                !
 ! A75   A(38,37,40)           109.7722         estimate D2E/DX2                !
 ! A76   A(38,37,41)           105.8113         estimate D2E/DX2                !
 ! A77   A(40,37,41)           106.1675         estimate D2E/DX2                !
 ! A78   A(37,38,39)           124.246          estimate D2E/DX2                !
 ! A79   A(37,38,42)           116.5444         estimate D2E/DX2                !
 ! A80   A(39,38,42)           119.2062         estimate D2E/DX2                !
 ! A81   A(38,39,43)           120.7561         estimate D2E/DX2                !
 ! A82   A(38,39,44)           121.9947         estimate D2E/DX2                !
 ! A83   A(43,39,44)           117.2471         estimate D2E/DX2                !
 ! D1    D(6,1,2,3)            112.6862         estimate D2E/DX2                !
 ! D2    D(6,1,2,7)           -129.6822         estimate D2E/DX2                !
 ! D3    D(6,1,2,14)           -16.0625         estimate D2E/DX2                !
 ! D4    D(10,1,2,3)            -4.1353         estimate D2E/DX2                !
 ! D5    D(10,1,2,7)           113.4963         estimate D2E/DX2                !
 ! D6    D(10,1,2,14)         -132.884          estimate D2E/DX2                !
 ! D7    D(12,1,2,3)          -126.8619         estimate D2E/DX2                !
 ! D8    D(12,1,2,7)            -9.2302         estimate D2E/DX2                !
 ! D9    D(12,1,2,14)          104.3895         estimate D2E/DX2                !
 ! D10   D(2,1,10,5)           -31.8564         estimate D2E/DX2                !
 ! D11   D(6,1,10,5)          -151.391          estimate D2E/DX2                !
 ! D12   D(12,1,10,5)           94.6342         estimate D2E/DX2                !
 ! D13   D(2,1,12,13)          -63.5103         estimate D2E/DX2                !
 ! D14   D(2,1,12,32)          174.903          estimate D2E/DX2                !
 ! D15   D(2,1,12,33)           60.0978         estimate D2E/DX2                !
 ! D16   D(6,1,12,13)           57.6842         estimate D2E/DX2                !
 ! D17   D(6,1,12,32)          -63.9026         estimate D2E/DX2                !
 ! D18   D(6,1,12,33)         -178.7078         estimate D2E/DX2                !
 ! D19   D(10,1,12,13)         169.2514         estimate D2E/DX2                !
 ! D20   D(10,1,12,32)          47.6647         estimate D2E/DX2                !
 ! D21   D(10,1,12,33)         -67.1405         estimate D2E/DX2                !
 ! D22   D(1,2,3,4)             47.6899         estimate D2E/DX2                !
 ! D23   D(1,2,3,15)           172.3103         estimate D2E/DX2                !
 ! D24   D(1,2,3,37)           -73.8977         estimate D2E/DX2                !
 ! D25   D(7,2,3,4)            -70.2788         estimate D2E/DX2                !
 ! D26   D(7,2,3,15)            54.3415         estimate D2E/DX2                !
 ! D27   D(7,2,3,37)           168.1335         estimate D2E/DX2                !
 ! D28   D(14,2,3,4)           175.0667         estimate D2E/DX2                !
 ! D29   D(14,2,3,15)          -60.313          estimate D2E/DX2                !
 ! D30   D(14,2,3,37)           53.479          estimate D2E/DX2                !
 ! D31   D(1,2,14,29)          -59.8883         estimate D2E/DX2                !
 ! D32   D(1,2,14,30)           59.625          estimate D2E/DX2                !
 ! D33   D(1,2,14,31)         -179.2095         estimate D2E/DX2                !
 ! D34   D(3,2,14,29)          171.9103         estimate D2E/DX2                !
 ! D35   D(3,2,14,30)          -68.5764         estimate D2E/DX2                !
 ! D36   D(3,2,14,31)           52.5891         estimate D2E/DX2                !
 ! D37   D(7,2,14,29)           55.7165         estimate D2E/DX2                !
 ! D38   D(7,2,14,30)          175.2298         estimate D2E/DX2                !
 ! D39   D(7,2,14,31)          -63.6047         estimate D2E/DX2                !
 ! D40   D(2,3,4,5)            -63.2191         estimate D2E/DX2                !
 ! D41   D(2,3,4,8)             56.6614         estimate D2E/DX2                !
 ! D42   D(2,3,4,9)            176.0676         estimate D2E/DX2                !
 ! D43   D(15,3,4,5)           175.7926         estimate D2E/DX2                !
 ! D44   D(15,3,4,8)           -64.3269         estimate D2E/DX2                !
 ! D45   D(15,3,4,9)            55.0793         estimate D2E/DX2                !
 ! D46   D(37,3,4,5)            58.158          estimate D2E/DX2                !
 ! D47   D(37,3,4,8)           178.0386         estimate D2E/DX2                !
 ! D48   D(37,3,4,9)           -62.5552         estimate D2E/DX2                !
 ! D49   D(2,3,15,16)          -86.0455         estimate D2E/DX2                !
 ! D50   D(4,3,15,16)           33.7111         estimate D2E/DX2                !
 ! D51   D(37,3,15,16)         155.5386         estimate D2E/DX2                !
 ! D52   D(2,3,37,38)          173.2            estimate D2E/DX2                !
 ! D53   D(2,3,37,40)           48.3577         estimate D2E/DX2                !
 ! D54   D(2,3,37,41)          -68.5742         estimate D2E/DX2                !
 ! D55   D(4,3,37,38)           54.3299         estimate D2E/DX2                !
 ! D56   D(4,3,37,40)          -70.5124         estimate D2E/DX2                !
 ! D57   D(4,3,37,41)          172.5558         estimate D2E/DX2                !
 ! D58   D(15,3,37,38)         -69.7792         estimate D2E/DX2                !
 ! D59   D(15,3,37,40)         165.3784         estimate D2E/DX2                !
 ! D60   D(15,3,37,41)          48.4466         estimate D2E/DX2                !
 ! D61   D(3,4,5,10)            32.3956         estimate D2E/DX2                !
 ! D62   D(3,4,5,11)          -148.4698         estimate D2E/DX2                !
 ! D63   D(8,4,5,10)           -90.4062         estimate D2E/DX2                !
 ! D64   D(8,4,5,11)            88.7284         estimate D2E/DX2                !
 ! D65   D(9,4,5,10)           154.4807         estimate D2E/DX2                !
 ! D66   D(9,4,5,11)           -26.3847         estimate D2E/DX2                !
 ! D67   D(4,5,10,1)            17.09           estimate D2E/DX2                !
 ! D68   D(11,5,10,1)         -162.0533         estimate D2E/DX2                !
 ! D69   D(1,12,13,34)        -174.4585         estimate D2E/DX2                !
 ! D70   D(1,12,13,35)         -55.0529         estimate D2E/DX2                !
 ! D71   D(1,12,13,36)          66.2764         estimate D2E/DX2                !
 ! D72   D(32,12,13,34)        -52.825          estimate D2E/DX2                !
 ! D73   D(32,12,13,35)         66.5806         estimate D2E/DX2                !
 ! D74   D(32,12,13,36)       -172.0901         estimate D2E/DX2                !
 ! D75   D(33,12,13,34)         61.8567         estimate D2E/DX2                !
 ! D76   D(33,12,13,35)       -178.7378         estimate D2E/DX2                !
 ! D77   D(33,12,13,36)        -57.4084         estimate D2E/DX2                !
 ! D78   D(3,15,16,17)         170.592          estimate D2E/DX2                !
 ! D79   D(3,15,16,18)         -71.5482         estimate D2E/DX2                !
 ! D80   D(3,15,16,19)          51.9487         estimate D2E/DX2                !
 ! D81   D(15,16,17,26)        179.5913         estimate D2E/DX2                !
 ! D82   D(15,16,17,27)        -60.3612         estimate D2E/DX2                !
 ! D83   D(15,16,17,28)         59.5283         estimate D2E/DX2                !
 ! D84   D(18,16,17,26)         58.6776         estimate D2E/DX2                !
 ! D85   D(18,16,17,27)        178.7251         estimate D2E/DX2                !
 ! D86   D(18,16,17,28)        -61.3854         estimate D2E/DX2                !
 ! D87   D(19,16,17,26)        -57.9218         estimate D2E/DX2                !
 ! D88   D(19,16,17,27)         62.1256         estimate D2E/DX2                !
 ! D89   D(19,16,17,28)       -177.9848         estimate D2E/DX2                !
 ! D90   D(15,16,18,20)        -48.9286         estimate D2E/DX2                !
 ! D91   D(15,16,18,21)         71.6423         estimate D2E/DX2                !
 ! D92   D(15,16,18,22)       -168.6348         estimate D2E/DX2                !
 ! D93   D(17,16,18,20)         69.7967         estimate D2E/DX2                !
 ! D94   D(17,16,18,21)       -169.6324         estimate D2E/DX2                !
 ! D95   D(17,16,18,22)        -49.9095         estimate D2E/DX2                !
 ! D96   D(19,16,18,20)       -174.8368         estimate D2E/DX2                !
 ! D97   D(19,16,18,21)        -54.2659         estimate D2E/DX2                !
 ! D98   D(19,16,18,22)         65.457          estimate D2E/DX2                !
 ! D99   D(15,16,19,23)        175.7722         estimate D2E/DX2                !
 ! D100  D(15,16,19,24)        -64.4403         estimate D2E/DX2                !
 ! D101  D(15,16,19,25)         56.2683         estimate D2E/DX2                !
 ! D102  D(17,16,19,23)         56.2856         estimate D2E/DX2                !
 ! D103  D(17,16,19,24)        176.073          estimate D2E/DX2                !
 ! D104  D(17,16,19,25)        -63.2183         estimate D2E/DX2                !
 ! D105  D(18,16,19,23)        -59.0869         estimate D2E/DX2                !
 ! D106  D(18,16,19,24)         60.7005         estimate D2E/DX2                !
 ! D107  D(18,16,19,25)       -178.5908         estimate D2E/DX2                !
 ! D108  D(3,37,38,39)        -117.0928         estimate D2E/DX2                !
 ! D109  D(3,37,38,42)          63.5797         estimate D2E/DX2                !
 ! D110  D(40,37,38,39)          8.5314         estimate D2E/DX2                !
 ! D111  D(40,37,38,42)       -170.7961         estimate D2E/DX2                !
 ! D112  D(41,37,38,39)        122.6937         estimate D2E/DX2                !
 ! D113  D(41,37,38,42)        -56.6338         estimate D2E/DX2                !
 ! D114  D(37,38,39,43)       -179.7802         estimate D2E/DX2                !
 ! D115  D(37,38,39,44)          0.7564         estimate D2E/DX2                !
 ! D116  D(42,38,39,43)         -0.4695         estimate D2E/DX2                !
 ! D117  D(42,38,39,44)       -179.9328         estimate D2E/DX2                !
 --------------------------------------------------------------------------------
 Trust Radius=3.00D-01 FncErr=1.00D-07 GrdErr=1.00D-06
 Number of steps in this run=     25 maximum allowed number of steps=    264.
 GradGradGradGradGradGradGradGradGradGradGradGradGradGradGradGradGradGrad

                          Input orientation:                          
 ---------------------------------------------------------------------
 Center     Atomic      Atomic             Coordinates (Angstroms)
 Number     Number       Type             X           Y           Z
 ---------------------------------------------------------------------
      1          6           0        0.989470   -0.323666    0.428025
      2          6           0       -0.526724   -0.512117    0.665879
      3          6           0       -1.126385    0.580347    1.590385
      4          6           0       -0.619072    1.931805    1.066980
      5          6           0        0.870261    2.025758    1.172702
      6          1           0        1.534683   -1.147950    0.903739
      7          1           0       -1.027370   -0.420377   -0.304409
      8          1           0       -0.878779    2.090650    0.015033
      9          1           0       -1.060472    2.759335    1.632801
     10          8           0        1.553758    0.871885    1.021604
     11          8           0        1.447753    3.089096    1.369059
     12          6           0        1.379549   -0.295536   -1.060954
     13          6           0        1.100872   -1.591265   -1.804690
     14          6           0       -0.839497   -1.946147    1.122676
     15          8           0       -2.565633    0.439686    1.614378
     16         14           0       -3.710360    1.066210    0.570703
     17          6           0       -5.384706    0.282392    0.975734
     18          6           0       -3.907069    2.923252    0.779222
     19          6           0       -3.350568    0.692399   -1.232784
     20          1           0       -4.027056    3.180136    1.835792
     21          1           0       -3.039027    3.461130    0.389158
     22          1           0       -4.790609    3.276193    0.238744
     23          1           0       -4.164204    1.057313   -1.867050
     24          1           0       -2.426188    1.173907   -1.562801
     25          1           0       -3.255067   -0.385706   -1.392216
     26          1           0       -6.161500    0.676427    0.314125
     27          1           0       -5.335939   -0.802929    0.848655
     28          1           0       -5.664940    0.499320    2.010540
     29          1           0       -0.521164   -2.672577    0.368188
     30          1           0       -0.321432   -2.197583    2.053541
     31          1           0       -1.913344   -2.088745    1.279051
     32          1           0        2.450493   -0.068071   -1.140825
     33          1           0        0.867418    0.534894   -1.563001
     34          1           0        1.492454   -1.528850   -2.825181
     35          1           0        1.583675   -2.439493   -1.309490
     36          1           0        0.028646   -1.794111   -1.876220
     37          6           0       -0.702118    0.349719    3.083558
     38          6           0       -1.111733    1.460311    4.018232
     39          6           0       -0.251530    2.227779    4.699080
     40          1           0        0.376188    0.173491    3.167338
     41          1           0       -1.190596   -0.557059    3.464149
     42          1           0       -2.181173    1.624007    4.140182
     43          1           0       -0.609590    3.010907    5.360750
     44          1           0        0.824078    2.104507    4.610835
 ---------------------------------------------------------------------
                    Distance matrix (angstroms):
                    1          2          3          4          5
     1  C    0.000000
     2  C    1.546264   0.000000
     3  C    2.577821   1.551703   0.000000
     4  C    2.843030   2.478339   1.535499   0.000000
     5  C    2.467498   2.940960   2.500053   1.496034   0.000000
     6  H    1.096816   2.170313   3.246502   3.761675   3.253647
     7  H    2.147896   1.095683   2.145110   2.753212   3.430224
     8  H    3.080558   2.705908   2.196374   1.095113   2.098464
     9  H    3.893410   3.452857   2.180397   1.095351   2.116024
    10  O    1.449172   2.523967   2.755299   2.417991   1.349601
    11  O    3.569666   4.166744   3.601249   2.387957   1.225863
    12  C    1.539484   2.581228   3.751863   3.672007   3.261441
    13  C    2.569870   3.149181   4.604683   4.859704   4.690512
    14  C    2.541674   1.537183   2.585387   3.884611   4.324558
    15  O    3.824774   2.441870   1.446304   2.512999   3.809996
    16  Si   4.903113   3.554675   2.820060   3.248324   4.718604
    17  C    6.426306   4.932266   4.312757   5.043824   6.496363
    18  C    5.885738   4.820927   3.725506   3.446258   4.876803
    19  C    4.756743   3.609692   3.595807   3.779697   5.037818
    20  H    6.278851   5.220513   3.902950   3.709954   5.075036
    21  H    5.527656   4.709027   3.660609   2.941846   4.237543
    22  H    6.812057   5.719655   4.745636   4.460390   5.872079
    23  H    5.808169   4.702138   4.627061   4.684147   5.960186
    24  H    4.227627   3.379002   3.461847   3.279608   4.367517
    25  H    4.618790   3.419882   3.789519   4.285671   5.423310
    26  H    7.221463   5.769495   5.195234   5.732475   7.211346
    27  H    6.357470   4.821465   4.492656   5.456672   6.828133
    28  H    6.889327   5.406698   4.558682   5.329456   6.763197
    29  H    2.793381   2.180880   3.527261   4.658136   4.965648
    30  H    2.805767   2.192840   2.929054   4.256024   4.475781
    31  H    3.502296   2.187339   2.800051   4.229059   4.968793
    32  H    2.158983   3.510723   4.546868   4.277398   3.497665
    33  H    2.171683   2.829800   3.731107   3.328335   3.115566
    34  H    3.505540   4.159126   5.550158   5.619928   5.385669
    35  H    2.801564   3.474283   4.987297   5.441319   5.158362
    36  H    2.897402   2.900726   4.357694   4.792120   4.959399
    37  C    3.219747   2.572683   1.569317   2.564465   2.988788
    38  C    4.526280   3.933316   2.582439   3.029011   3.513555
    39  C    5.127559   4.883592   3.625381   3.662627   3.706018
    40  H    2.850810   2.746380   2.215861   2.914398   2.766509
    41  H    3.745025   2.876293   2.192899   3.502500   4.021045
    42  H    5.256093   4.401251   2.950130   3.461137   4.275347
    43  H    6.165075   5.870296   4.515568   4.427303   4.549750
    44  H    4.839347   4.922811   3.905187   3.830328   3.439345
                    6          7          8          9         10
     6  H    0.000000
     7  H    2.924568   0.000000
     8  H    4.135593   2.535622   0.000000
     9  H    4.746919   3.723499   1.759922   0.000000
    10  O    2.023361   3.176551   2.901001   3.281803   0.000000
    11  O    4.263407   4.609027   2.871068   2.543520   2.246772
    12  C    2.147253   2.526105   3.457120   4.747869   2.393798
    13  C    2.778544   2.855037   4.559266   5.951090   3.776262
    14  C    2.514316   2.097580   4.186185   4.738208   3.698539
    15  O    4.454008   2.605322   2.851151   2.765252   4.184204
    16  Si   5.702972   3.189702   3.062041   3.319131   5.286966
    17  C    7.066046   4.595544   4.949356   5.026528   6.963612
    18  C    6.797268   4.543873   3.232298   2.976337   5.838449
    19  C    5.640682   2.738138   3.101918   4.210504   5.400638
    20  H    7.108726   5.151919   3.796550   3.003148   6.093965
    21  H    6.513619   4.426499   2.585509   2.440050   5.310165
    22  H    7.747553   5.302981   4.093650   4.015527   6.829682
    23  H    6.709528   3.803307   3.924798   4.977850   6.408884
    24  H    5.211846   2.466168   2.392583   3.819769   4.755033
    25  H    5.366016   2.479347   3.709371   4.884492   5.525655
    26  H    7.931408   5.286289   5.476917   5.665501   7.750093
    27  H    6.879500   4.476569   5.379033   5.619985   7.092449
    28  H    7.468138   5.264208   5.424179   5.143100   7.295643
    29  H    2.614921   2.404379   4.789670   5.603193   4.158782
    30  H    2.422589   3.035908   4.780700   5.029338   3.742040
    31  H    3.593723   2.464903   4.487250   4.935221   4.566443
    32  H    2.486984   3.594335   4.132812   5.292835   2.522647
    33  H    3.059741   2.467148   2.821307   4.344888   2.695331
    34  H    3.748561   3.732629   5.175939   6.691754   4.534870
    35  H    2.562980   3.450300   5.323555   6.532718   4.049706
    36  H    3.227049   2.339424   4.414932   5.850921   4.222663
    37  C    3.463799   3.489578   3.532406   2.835377   3.100530
    38  C    4.848362   4.714799   4.059211   2.716684   4.053501
    39  C    5.384303   5.713979   4.727847   3.215432   4.315245
    40  H    2.865693   3.791528   3.897110   3.332474   2.545309
    41  H    3.785762   3.774567   4.359357   3.790678   3.942003
    42  H    5.653839   5.026446   4.350959   2.971851   4.923507
    43  H    6.462116   6.636436   5.431024   3.763534   5.299404
    44  H    4.982569   5.827737   4.901154   3.584552   3.864501
                   11         12         13         14         15
    11  O    0.000000
    12  C    4.167175   0.000000
    13  C    5.665579   1.519776   0.000000
    14  C    5.535873   3.523765   3.529936   0.000000
    15  O    4.815270   4.823112   5.409071   2.985551   0.000000
    16  Si   5.597818   5.515780   5.987706   4.197716   1.670985
    17  C    7.396944   7.087824   7.300964   5.064277   2.894785
    18  C    5.389762   6.457180   7.220591   5.765328   2.943643
    19  C    5.961344   4.835240   5.035625   4.337695   2.964172
    20  H    5.495422   7.050022   7.893986   6.078474   3.113655
    21  H    4.607582   5.978225   6.890459   5.883420   3.294600
    22  H    6.342695   7.246883   7.910583   6.607984   3.858583
    23  H    6.789301   5.763088   5.894055   5.386363   3.880365
    24  H    5.222181   4.110322   4.488300   4.411815   3.263892
    25  H    6.466483   4.647314   4.538470   3.820293   3.193149
    26  H    8.051993   7.726770   7.897712   5.987935   3.831053
    27  H    7.838186   7.000131   7.006729   4.647583   3.131297
    28  H    7.596633   7.725975   8.043801   5.482108   3.125093
    29  H    6.170515   3.362362   2.919184   1.094664   3.926707
    30  H    5.616717   4.026313   4.156503   1.094587   3.490629
    31  H    6.173744   4.419770   4.340788   1.094502   2.632658
    32  H    4.156045   1.097743   2.140634   4.413008   5.745475
    33  H    3.931630   1.097244   2.152549   4.035094   4.678744
    34  H    6.238515   2.155530   1.094821   4.604097   6.328735
    35  H    6.144786   2.167946   1.094446   3.468513   5.835703
    36  H    6.032529   2.176080   1.093587   3.125726   4.889213
    37  C    3.881448   4.682592   5.559960   3.022405   2.374715
    38  C    4.027658   5.923480   6.936437   4.479097   2.988982
    39  C    3.836466   6.496578   7.662448   5.527932   4.250616
    40  H    3.589263   4.370946   5.325466   3.186126   3.337193
    41  H    4.964346   5.210623   5.837900   2.745056   2.511151
    42  H    4.795280   6.589021   7.513408   4.863274   2.816045
    43  H    4.491366   7.491830   8.686150   6.525834   4.946977
    44  H    3.444923   6.183684   7.409069   5.598440   4.820843
                   16         17         18         19         20
    16  Si   0.000000
    17  C    1.892579   0.000000
    18  C    1.879037   3.032519   0.000000
    19  C    1.876633   3.030408   3.055252   0.000000
    20  H    2.483834   3.313583   1.093950   4.007821   0.000000
    21  H    2.493850   3.993827   1.093142   3.223915   1.774235
    22  H    2.482168   3.139896   1.094224   3.303801   1.772795
    23  H    2.479656   3.189287   3.248169   1.094285   4.270389
    24  H    2.492496   3.998973   3.276933   1.093270   4.258893
    25  H    2.483627   3.254060   4.011166   1.094006   4.871471
    26  H    2.495165   1.093800   3.216675   3.208508   3.624897
    27  H    2.492678   1.093823   3.991355   3.241927   4.307252
    28  H    2.492966   1.093806   3.237545   3.989079   3.146423
    29  H    4.918385   5.723198   6.553366   4.678857   6.978495
    30  H    4.933152   5.740095   6.379940   5.322367   6.534441
    31  H    3.699292   4.214813   5.417092   4.013688   5.704283
    32  H    6.494000   8.123607   7.283762   5.851417   7.833884
    33  H    5.078488   6.752628   5.829750   4.233823   6.519584
    34  H    6.733174   8.063677   7.871962   5.560983   8.623469
    35  H    6.622076   7.822355   7.954245   5.844774   8.541272
    36  H    5.305566   6.461415   6.692887   4.244506   7.414235
    37  C    3.984635   5.135571   4.712191   5.075680   4.541299
    38  C    4.335163   5.376112   4.521646   5.759795   4.027400
    39  C    5.509650   6.633048   5.404807   6.866472   4.833218
    40  H    4.923346   6.164648   5.622328   5.789564   5.495588
    41  H    4.166082   4.948479   5.167265   5.318628   4.966254
    42  H    3.923102   4.698541   3.995348   5.577109   3.337519
    43  H    6.028364   7.033839   5.645480   7.507538   4.912539
    44  H    6.161319   7.421796   6.142911   7.319126   5.691339
                   21         22         23         24         25
    21  H    0.000000
    22  H    1.767729   0.000000
    23  H    3.483509   3.122528   0.000000
    24  H    3.068730   3.640832   1.768293   0.000000
    25  H    4.244775   4.292718   1.770396   1.774410   0.000000
    26  H    4.184500   2.940035   2.981910   4.209857   3.533706
    27  H    4.865094   4.160362   3.494069   4.264933   3.086358
    28  H    4.277455   3.408040   4.195148   4.869635   4.262571
    29  H    6.630417   7.323441   5.672751   4.706726   3.975302
    30  H    6.494346   7.295838   6.382184   5.373534   4.874664
    31  H    5.732380   6.176039   4.986181   4.357067   3.440382
    32  H    6.703054   8.094496   6.748934   5.050009   5.719922
    33  H    5.256814   6.540204   5.067799   3.355023   4.227476
    34  H    7.467677   8.482509   6.293174   4.924861   5.089118
    35  H    7.685840   8.700436   6.751047   5.403686   5.257215
    36  H    6.493082   7.307960   5.070571   3.864398   3.605639
    37  C    4.733055   5.776935   6.082372   5.023978   5.204897
    38  C    4.570330   5.578179   6.642028   5.740884   6.105293
    39  C    5.278894   6.449574   7.732598   6.711999   7.277048
    40  H    5.494593   6.700688   6.836766   5.588234   5.855617
    41  H    5.386846   6.169048   6.314287   5.458311   5.279743
    42  H    4.263932   4.975951   6.351409   5.725962   5.983279
    43  H    5.551720   6.617117   8.288118   7.389868   8.008625
    44  H    5.881034   7.211986   8.242728   7.038752   7.673148
                   26         27         28         29         30
    26  H    0.000000
    27  H    1.776448   0.000000
    28  H    1.776447   1.775970   0.000000
    29  H    6.559889   5.187339   6.262322   0.000000
    30  H    6.737351   5.342480   5.985667   1.762364   0.000000
    31  H    5.159853   3.681402   4.616019   1.763150   1.773658
    32  H    8.765705   8.070103   8.724293   4.229813   4.735226
    33  H    7.276628   6.788777   7.446017   3.993184   4.686061
    34  H    8.561630   7.787874   8.872765   3.944664   5.247791
    35  H    8.504870   7.430814   8.497155   2.701718   3.872716
    36  H    7.015631   6.098045   7.265236   2.472117   3.965900
    37  C    6.130363   5.272161   5.079700   4.066971   2.773915
    38  C    6.311500   5.745641   5.068138   5.545481   4.226674
    39  C    7.520789   7.061316   6.286559   6.545442   5.156316
    40  H    7.150883   6.241641   6.159511   4.091526   2.710943
    41  H    6.012822   4.907660   4.821687   3.809006   2.331647
    42  H    5.601752   5.164951   4.235201   5.953503   4.734687
    43  H    7.857603   7.565892   6.564186   7.565414   6.176490
    44  H    8.324628   7.781580   7.172553   6.529185   5.134192
                   31         32         33         34         35
    31  H    0.000000
    32  H    5.383493   0.000000
    33  H    4.763757   1.745831   0.000000
    34  H    5.362617   2.426679   2.498561   0.000000
    35  H    4.364941   2.530507   3.069897   1.770568   0.000000
    36  H    3.716701   3.063554   2.495177   1.764546   1.776462
    37  C    3.266408   5.287619   4.907978   6.577109   5.683610
    38  C    4.554283   6.453005   5.993630   7.908804   7.131502
    39  C    5.752443   6.832009   6.582671   8.588844   7.826514
    40  H    3.731661   4.787626   4.769489   6.328847   5.322377
    41  H    2.764612   5.890876   5.540760   6.906432   5.833332
    42  H    4.694926   7.225268   6.557924   8.482472   7.770781
    43  H    6.660818   7.817589   7.500035   9.593615   8.888722
    44  H    6.014784   6.359789   6.370386   8.303153   7.501678
                   36         37         38         39         40
    36  H    0.000000
    37  C    5.452469   0.000000
    38  C    6.829077   1.508249   0.000000
    39  C    7.712890   2.517946   1.338847   0.000000
    40  H    5.424917   1.095819   2.143323   2.638250   0.000000
    41  H    5.615727   1.098047   2.093564   3.187824   1.754027
    42  H    7.263878   2.219880   1.088747   2.097720   3.096856
    43  H    8.710297   3.503725   2.111599   1.085957   3.719374
    44  H    7.610113   2.782289   2.124507   1.086239   2.452165
                   41         42         43         44
    41  H    0.000000
    42  H    2.489038   0.000000
    43  H    4.082284   2.425521   0.000000
    44  H    3.529551   3.079599   1.854545   0.000000
 Stoichiometry    C14H26O3Si
 Framework group  C1[X(C14H26O3Si)]
 Deg. of freedom   126
 Full point group                 C1      NOp   1
 Largest Abelian subgroup         C1      NOp   1
 Largest concise Abelian subgroup C1      NOp   1
                         Standard orientation:                         
 ---------------------------------------------------------------------
 Center     Atomic      Atomic             Coordinates (Angstroms)
 Number     Number       Type             X           Y           Z
 ---------------------------------------------------------------------
      1          6           0        2.339658   -0.648465    0.294147
      2          6           0        0.871635   -0.848895    0.736490
      3          6           0       -0.017088    0.386598    0.433983
      4          6           0        0.271913    0.796239   -1.017372
      5          6           0        1.697006    1.219876   -1.183977
      6          1           0        2.981790   -0.606599    1.182358
      7          1           0        0.463708   -1.685734    0.158721
      8          1           0        0.094589   -0.024186   -1.720743
      9          1           0       -0.375118    1.624971   -1.324534
     10          8           0        2.600924    0.597269   -0.398665
     11          8           0        2.036808    2.072125   -1.996964
     12          6           0        2.866031   -1.771710   -0.617590
     13          6           0        2.918016   -3.139719    0.042384
     14          6           0        0.795134   -1.320589    2.197512
     15          8           0       -1.397483    0.052772    0.707603
     16         14           0       -2.529305   -0.675274   -0.282911
     17          6           0       -4.054434   -1.095289    0.756043
     18          6           0       -3.098771    0.472035   -1.657745
     19          6           0       -1.923487   -2.280391   -1.043394
     20          1           0       -3.372325    1.450544   -1.252264
     21          1           0       -2.315062    0.614909   -2.406308
     22          1           0       -3.974166    0.054731   -2.164567
     23          1           0       -2.723431   -2.754161   -1.620535
     24          1           0       -1.080056   -2.108569   -1.717442
     25          1           0       -1.607245   -2.981331   -0.265240
     26          1           0       -4.821228   -1.568347    0.135849
     27          1           0       -3.785708   -1.782782    1.563253
     28          1           0       -4.474543   -0.187145    1.197852
     29          1           0        1.321764   -2.271465    2.327061
     30          1           0        1.254702   -0.599831    2.881198
     31          1           0       -0.241619   -1.477383    2.511348
     32          1           0        3.875910   -1.506728   -0.956662
     33          1           0        2.257684   -1.825323   -1.529172
     34          1           0        3.391772   -3.862103   -0.630187
     35          1           0        3.501844   -3.107050    0.967527
     36          1           0        1.917515   -3.514886    0.275148
     37          6           0        0.289905    1.559008    1.430962
     38          6           0       -0.417811    2.849207    1.100296
     39          6           0        0.205603    3.988903    0.776323
     40          1           0        1.367830    1.738106    1.513550
     41          1           0       -0.051547    1.279671    2.436491
     42          1           0       -1.505538    2.832637    1.144392
     43          1           0       -0.361274    4.887492    0.551620
     44          1           0        1.288178    4.056226    0.717883
 ---------------------------------------------------------------------
 Rotational constants (GHZ):      0.4284284      0.3210363      0.2437353
 Standard basis: 6-31G(d,p) (6D, 7F)
 There are   404 symmetry adapted cartesian basis functions of A   symmetry.
 There are   404 symmetry adapted basis functions of A   symmetry.
   404 basis functions,   710 primitive gaussians,   404 cartesian basis functions
    74 alpha electrons       74 beta electrons
       nuclear repulsion energy      1642.9712514105 Hartrees.
 NAtoms=   44 NActive=   44 NUniq=   44 SFac= 1.00D+00 NAtFMM=   60 NAOKFM=F Big=F
 Integral buffers will be    131072 words long.
 Raffenetti 2 integral format.
 Two-electron integral symmetry is turned on.
 ------------------------------------------------------------------------------
 Polarizable Continuum Model (PCM)
 =================================
 Model                : PCM (using non-symmetric T matrix).
 Atomic radii         : UFF (Universal Force Field).
 Polarization charges : Total charges.
 Charge compensation  : None.
 Solution method      : On-the-fly selection.
 Cavity type          : Scaled VdW (van der Waals Surface) (Alpha=1.100).
 Cavity algorithm     : GePol (No added spheres)
                        Default sphere list used, NSphG=   44.
                        Lebedev-Laikov grids with approx.  5.0 points / Ang**2.
                        Smoothing algorithm: Karplus/York (Gamma=1.0000).
                        Polarization charges: spherical gaussians, with
                                              point-specific exponents (IZeta= 3).
                        Self-potential: point-specific (ISelfS= 7).
                        Self-field    : sphere-specific E.n sum rule (ISelfD= 2).
 1st derivatives      : Analytical E(r).r(x)/FMM algorithm (CHGder, D1EAlg=3).
                        Cavity 1st derivative terms included.
 Solvent              : Chloroform, Eps=   4.711300 Eps(inf)=   2.090627
 ------------------------------------------------------------------------------
 One-electron integrals computed using PRISM.
 NBasis=   404 RedAO= T EigKep=  1.64D-03  NBF=   404
 NBsUse=   404 1.00D-06 EigRej= -1.00D+00 NBFU=   404
 ExpMin= 7.78D-02 ExpMax= 1.61D+04 ExpMxC= 2.43D+03 IAcc=2 IRadAn=         4 AccDes= 0.00D+00
 Harris functional with IExCor=  402 and IRadAn=       4 diagonalized for initial guess.
 HarFok:  IExCor=  402 AccDes= 0.00D+00 IRadAn=         4 IDoV= 1 UseB2=F ITyADJ=14
 ICtDFT=  3500011 ScaDFX=  1.000000  1.000000  1.000000  1.000000
 FoFCou: FMM=F IPFlag=           0 FMFlag=      100000 FMFlg1=           0
         NFxFlg=           0 DoJE=T BraDBF=F KetDBF=T FulRan=T
         wScrn=  0.000000 ICntrl=     500 IOpCl=  0 I1Cent=   200000004 NGrid=           0
         NMat0=    1 NMatS0=      1 NMatT0=    0 NMatD0=    1 NMtDS0=    0 NMtDT0=    0
 Petite list used in FoFCou.
 Requested convergence on RMS density matrix=1.00D-08 within 128 cycles.
 Requested convergence on MAX density matrix=1.00D-06.
 Requested convergence on             energy=1.00D-06.
 No special actions if energy rises.
 Inv3:  Mode=1 IEnd=    24727923.
 Iteration    1 A*A^-1 deviation from unit magnitude is 4.11D-15 for   2835.
 Iteration    1 A*A^-1 deviation from orthogonality  is 4.54D-15 for   2859   1661.
 Iteration    1 A^-1*A deviation from unit magnitude is 3.77D-15 for   2861.
 Iteration    1 A^-1*A deviation from orthogonality  is 4.13D-12 for   2438   2436.
 Error on total polarization charges =  0.00911
 SCF Done:  E(RB3LYP) =  -1064.41425593     A.U. after   13 cycles
            NFock= 13  Conv=0.58D-08     -V/T= 2.0080

 **********************************************************************

            Population analysis using the SCF density.

 **********************************************************************

 Orbital symmetries:
       Occupied  (A) (A) (A) (A) (A) (A) (A) (A) (A) (A) (A) (A)
                 (A) (A) (A) (A) (A) (A) (A) (A) (A) (A) (A) (A)
                 (A) (A) (A) (A) (A) (A) (A) (A) (A) (A) (A) (A)
                 (A) (A) (A) (A) (A) (A) (A) (A) (A) (A) (A) (A)
                 (A) (A) (A) (A) (A) (A) (A) (A) (A) (A) (A) (A)
                 (A) (A) (A) (A) (A) (A) (A) (A) (A) (A) (A) (A)
                 (A) (A)
       Virtual   (A) (A) (A) (A) (A) (A) (A) (A) (A) (A) (A) (A)
                 (A) (A) (A) (A) (A) (A) (A) (A) (A) (A) (A) (A)
                 (A) (A) (A) (A) (A) (A) (A) (A) (A) (A) (A) (A)
                 (A) (A) (A) (A) (A) (A) (A) (A) (A) (A) (A) (A)
                 (A) (A) (A) (A) (A) (A) (A) (A) (A) (A) (A) (A)
                 (A) (A) (A) (A) (A) (A) (A) (A) (A) (A) (A) (A)
                 (A) (A) (A) (A) (A) (A) (A) (A) (A) (A) (A) (A)
                 (A) (A) (A) (A) (A) (A) (A) (A) (A) (A) (A) (A)
                 (A) (A) (A) (A) (A) (A) (A) (A) (A) (A) (A) (A)
                 (A) (A) (A) (A) (A) (A) (A) (A) (A) (A) (A) (A)
                 (A) (A) (A) (A) (A) (A) (A) (A) (A) (A) (A) (A)
                 (A) (A) (A) (A) (A) (A) (A) (A) (A) (A) (A) (A)
                 (A) (A) (A) (A) (A) (A) (A) (A) (A) (A) (A) (A)
                 (A) (A) (A) (A) (A) (A) (A) (A) (A) (A) (A) (A)
                 (A) (A) (A) (A) (A) (A) (A) (A) (A) (A) (A) (A)
                 (A) (A) (A) (A) (A) (A) (A) (A) (A) (A) (A) (A)
                 (A) (A) (A) (A) (A) (A) (A) (A) (A) (A) (A) (A)
                 (A) (A) (A) (A) (A) (A) (A) (A) (A) (A) (A) (A)
                 (A) (A) (A) (A) (A) (A) (A) (A) (A) (A) (A) (A)
                 (A) (A) (A) (A) (A) (A) (A) (A) (A) (A) (A) (A)
                 (A) (A) (A) (A) (A) (A) (A) (A) (A) (A) (A) (A)
                 (A) (A) (A) (A) (A) (A) (A) (A) (A) (A) (A) (A)
                 (A) (A) (A) (A) (A) (A) (A) (A) (A) (A) (A) (A)
                 (A) (A) (A) (A) (A) (A) (A) (A) (A) (A) (A) (A)
                 (A) (A) (A) (A) (A) (A) (A) (A) (A) (A) (A) (A)
                 (A) (A) (A) (A) (A) (A) (A) (A) (A) (A) (A) (A)
                 (A) (A) (A) (A) (A) (A) (A) (A) (A) (A) (A) (A)
                 (A) (A) (A) (A) (A) (A)
 The electronic state is 1-A.
 Alpha  occ. eigenvalues --  -66.13987 -19.19336 -19.14486 -19.13484 -10.32272
 Alpha  occ. eigenvalues --  -10.26705 -10.25741 -10.20197 -10.20148 -10.19152
 Alpha  occ. eigenvalues --  -10.18931 -10.18867 -10.18210 -10.17969 -10.17779
 Alpha  occ. eigenvalues --  -10.16079 -10.15810 -10.15679  -5.28151  -3.64207
 Alpha  occ. eigenvalues --   -3.63975  -3.63939  -1.09921  -1.01470  -1.00725
 Alpha  occ. eigenvalues --   -0.83026  -0.80613  -0.77466  -0.75570  -0.71499
 Alpha  occ. eigenvalues --   -0.70250  -0.69505  -0.67839  -0.67409  -0.64191
 Alpha  occ. eigenvalues --   -0.61346  -0.59958  -0.55836  -0.53653  -0.51495
 Alpha  occ. eigenvalues --   -0.50910  -0.48387  -0.47741  -0.46473  -0.45509
 Alpha  occ. eigenvalues --   -0.44158  -0.43279  -0.42621  -0.42458  -0.41158
 Alpha  occ. eigenvalues --   -0.41038  -0.40799  -0.40512  -0.39907  -0.39431
 Alpha  occ. eigenvalues --   -0.39041  -0.38682  -0.38496  -0.37936  -0.37447
 Alpha  occ. eigenvalues --   -0.36744  -0.36155  -0.35851  -0.34768  -0.34313
 Alpha  occ. eigenvalues --   -0.34066  -0.32480  -0.31726  -0.30907  -0.29086
 Alpha  occ. eigenvalues --   -0.28510  -0.27240  -0.26540  -0.25280
 Alpha virt. eigenvalues --    0.00036   0.01705   0.05902   0.06864   0.08630
 Alpha virt. eigenvalues --    0.08777   0.09799   0.10119   0.10284   0.11651
 Alpha virt. eigenvalues --    0.12652   0.12913   0.13209   0.14224   0.14310
 Alpha virt. eigenvalues --    0.15008   0.15391   0.15752   0.16042   0.16605
 Alpha virt. eigenvalues --    0.17155   0.17497   0.17811   0.18475   0.18702
 Alpha virt. eigenvalues --    0.19104   0.19379   0.19848   0.20420   0.20919
 Alpha virt. eigenvalues --    0.21218   0.21834   0.22290   0.23314   0.23662
 Alpha virt. eigenvalues --    0.23958   0.24856   0.26676   0.27186   0.29583
 Alpha virt. eigenvalues --    0.29788   0.30617   0.31155   0.35937   0.36792
 Alpha virt. eigenvalues --    0.37755   0.38098   0.39987   0.41110   0.44446
 Alpha virt. eigenvalues --    0.46660   0.47254   0.47407   0.49716   0.50669
 Alpha virt. eigenvalues --    0.51479   0.52521   0.53780   0.54867   0.56352
 Alpha virt. eigenvalues --    0.57233   0.57932   0.59780   0.60631   0.60813
 Alpha virt. eigenvalues --    0.61663   0.62690   0.63505   0.64139   0.65312
 Alpha virt. eigenvalues --    0.66154   0.66521   0.67327   0.67401   0.67543
 Alpha virt. eigenvalues --    0.70514   0.71248   0.71722   0.72085   0.73748
 Alpha virt. eigenvalues --    0.73932   0.75315   0.75811   0.76416   0.77196
 Alpha virt. eigenvalues --    0.78094   0.79152   0.81686   0.81870   0.82572
 Alpha virt. eigenvalues --    0.83588   0.84197   0.84661   0.84783   0.85336
 Alpha virt. eigenvalues --    0.86092   0.86627   0.87638   0.88131   0.88546
 Alpha virt. eigenvalues --    0.88718   0.89865   0.90566   0.91050   0.91255
 Alpha virt. eigenvalues --    0.91692   0.92347   0.92717   0.93399   0.93960
 Alpha virt. eigenvalues --    0.94443   0.95029   0.95581   0.96434   0.97622
 Alpha virt. eigenvalues --    0.98367   0.98759   0.99747   1.00743   1.01555
 Alpha virt. eigenvalues --    1.02112   1.03211   1.04326   1.04629   1.07690
 Alpha virt. eigenvalues --    1.09743   1.11945   1.12476   1.14252   1.16226
 Alpha virt. eigenvalues --    1.18121   1.19280   1.21021   1.22223   1.26039
 Alpha virt. eigenvalues --    1.28618   1.29467   1.30971   1.31676   1.34991
 Alpha virt. eigenvalues --    1.36774   1.37155   1.40548   1.41971   1.43086
 Alpha virt. eigenvalues --    1.44918   1.45914   1.46257   1.47419   1.48213
 Alpha virt. eigenvalues --    1.49077   1.51129   1.54136   1.54746   1.55423
 Alpha virt. eigenvalues --    1.57448   1.59821   1.62270   1.63473   1.64265
 Alpha virt. eigenvalues --    1.65680   1.66962   1.68850   1.69671   1.70783
 Alpha virt. eigenvalues --    1.73189   1.74999   1.76069   1.77924   1.80327
 Alpha virt. eigenvalues --    1.81195   1.82249   1.83741   1.84458   1.85177
 Alpha virt. eigenvalues --    1.86829   1.88151   1.88621   1.90274   1.90660
 Alpha virt. eigenvalues --    1.91715   1.94585   1.94664   1.95272   1.97100
 Alpha virt. eigenvalues --    1.98801   1.99208   2.01216   2.02201   2.03350
 Alpha virt. eigenvalues --    2.04504   2.04811   2.04873   2.05761   2.06430
 Alpha virt. eigenvalues --    2.06901   2.07365   2.07968   2.08652   2.08840
 Alpha virt. eigenvalues --    2.10175   2.10406   2.10868   2.11416   2.11830
 Alpha virt. eigenvalues --    2.12748   2.13262   2.14025   2.14486   2.14853
 Alpha virt. eigenvalues --    2.16169   2.16519   2.17114   2.17923   2.18210
 Alpha virt. eigenvalues --    2.18983   2.22083   2.24388   2.25122   2.26369
 Alpha virt. eigenvalues --    2.27341   2.28296   2.30045   2.31291   2.33288
 Alpha virt. eigenvalues --    2.33541   2.34786   2.35250   2.36293   2.37179
 Alpha virt. eigenvalues --    2.38337   2.39154   2.39453   2.42008   2.42728
 Alpha virt. eigenvalues --    2.43678   2.45079   2.45699   2.49662   2.51496
 Alpha virt. eigenvalues --    2.53384   2.53797   2.54813   2.55423   2.57274
 Alpha virt. eigenvalues --    2.58870   2.60540   2.62086   2.63848   2.64104
 Alpha virt. eigenvalues --    2.64418   2.65698   2.68200   2.68417   2.68917
 Alpha virt. eigenvalues --    2.70594   2.72477   2.73815   2.74106   2.76168
 Alpha virt. eigenvalues --    2.76520   2.78394   2.79046   2.79805   2.80957
 Alpha virt. eigenvalues --    2.81508   2.82071   2.84523   2.84967   2.85243
 Alpha virt. eigenvalues --    2.85320   2.86082   2.86838   2.87946   2.88397
 Alpha virt. eigenvalues --    2.90846   2.91795   2.91948   2.92817   2.93591
 Alpha virt. eigenvalues --    2.95252   2.99442   3.02766   3.07568   3.12313
 Alpha virt. eigenvalues --    3.16941   3.19210   3.20235   3.20854   3.21108
 Alpha virt. eigenvalues --    3.21436   3.22632   3.26089   3.29107   3.32746
 Alpha virt. eigenvalues --    3.34399   3.36553   3.39875   3.43101   3.43452
 Alpha virt. eigenvalues --    3.43772   3.44400   3.44891   3.45084   3.45732
 Alpha virt. eigenvalues --    3.46164   3.47119   3.47658   3.48373   3.51960
 Alpha virt. eigenvalues --    3.54308   3.56669   3.67148   4.01314   4.14743
 Alpha virt. eigenvalues --    4.20746   4.27413   4.34441   4.41162   4.45469
 Alpha virt. eigenvalues --    4.46219   4.47673   4.48331   4.53161   4.57852
 Alpha virt. eigenvalues --    4.64013   4.66602   4.74826   4.79838   4.87081
          Condensed to atoms (all electrons):
               1          2          3          4          5          6
     1  C    4.823173   0.306250  -0.034782  -0.004225  -0.008983   0.393647
     2  C    0.306250   5.106159   0.341936  -0.052931  -0.018140  -0.051074
     3  C   -0.034782   0.341936   4.809109   0.292153  -0.018979  -0.001083
     4  C   -0.004225  -0.052931   0.292153   5.367046   0.287114  -0.000347
     5  C   -0.008983  -0.018140  -0.018979   0.287114   4.357434   0.001744
     6  H    0.393647  -0.051074  -0.001083  -0.000347   0.001744   0.612051
     7  H   -0.048294   0.384488  -0.034229  -0.007869   0.001076   0.005939
     8  H    0.000203  -0.007279  -0.028295   0.361327  -0.023876   0.000036
     9  H    0.000298   0.005409  -0.027763   0.356986  -0.020187   0.000025
    10  O    0.174667  -0.030263   0.006443  -0.105148   0.253171  -0.034086
    11  O    0.001937  -0.000010   0.001651  -0.083010   0.577492  -0.000106
    12  C    0.373600  -0.037054   0.002367  -0.001423  -0.000835  -0.050187
    13  C   -0.039588  -0.001633   0.000146   0.000113  -0.000052  -0.002221
    14  C   -0.030869   0.349618  -0.029815   0.005222   0.000487  -0.007574
    15  O    0.002794  -0.040570   0.188781  -0.025748   0.001360  -0.000055
    16  Si   0.000639  -0.005304  -0.013429   0.002121  -0.000570  -0.000051
    17  C    0.000000  -0.000076   0.001044  -0.000061   0.000000   0.000000
    18  C    0.000001  -0.000091  -0.002200  -0.000019   0.000105   0.000000
    19  C    0.000033  -0.001554  -0.000637  -0.002381  -0.000016  -0.000001
    20  H    0.000000   0.000000   0.000036  -0.000318  -0.000002   0.000000
    21  H    0.000001  -0.000020  -0.000119   0.000237   0.000000   0.000000
    22  H    0.000000   0.000001   0.000041   0.000039  -0.000001   0.000000
    23  H   -0.000001   0.000105  -0.000001   0.000038   0.000000   0.000000
    24  H   -0.000058  -0.000879   0.000421  -0.001106  -0.000036   0.000001
    25  H    0.000011  -0.000694  -0.000395   0.000161   0.000003   0.000000
    26  H    0.000000   0.000001  -0.000012   0.000001   0.000000   0.000000
    27  H    0.000000  -0.000005  -0.000043   0.000003   0.000000   0.000000
    28  H    0.000000   0.000002  -0.000038  -0.000004   0.000000   0.000000
    29  H   -0.003080  -0.029490   0.004349  -0.000136  -0.000014   0.000732
    30  H   -0.006723  -0.032753  -0.007876   0.000064  -0.000007   0.004900
    31  H    0.004019  -0.028240  -0.006948   0.000230  -0.000023   0.000233
    32  H   -0.033144   0.005199  -0.000055   0.000119   0.000162  -0.005031
    33  H   -0.033324  -0.009158  -0.000316  -0.000333   0.002077   0.005782
    34  H    0.003987  -0.000035   0.000000  -0.000001  -0.000002  -0.000113
    35  H   -0.005098  -0.001347  -0.000020  -0.000001   0.000005   0.005630
    36  H   -0.005995   0.003619   0.000045  -0.000011   0.000009  -0.000347
    37  C   -0.001032  -0.053125   0.351153  -0.070870   0.001533   0.001076
    38  C   -0.000073   0.004926  -0.038659  -0.007581  -0.000808  -0.000009
    39  C   -0.000013  -0.000023  -0.003132  -0.000306   0.001535   0.000002
    40  H    0.000564  -0.002667  -0.026372  -0.003441   0.001596  -0.000528
    41  H   -0.000014  -0.008717  -0.025527   0.005617  -0.000133  -0.000088
    42  H   -0.000001   0.000055  -0.002791  -0.000659   0.000069   0.000000
    43  H    0.000000   0.000003  -0.000049  -0.000052   0.000001   0.000000
    44  H   -0.000005  -0.000011   0.000087  -0.000036   0.000913   0.000000
               7          8          9         10         11         12
     1  C   -0.048294   0.000203   0.000298   0.174667   0.001937   0.373600
     2  C    0.384488  -0.007279   0.005409  -0.030263  -0.000010  -0.037054
     3  C   -0.034229  -0.028295  -0.027763   0.006443   0.001651   0.002367
     4  C   -0.007869   0.361327   0.356986  -0.105148  -0.083010  -0.001423
     5  C    0.001076  -0.023876  -0.020187   0.253171   0.577492  -0.000835
     6  H    0.005939   0.000036   0.000025  -0.034086  -0.000106  -0.050187
     7  H    0.632045   0.003312   0.000008   0.001827   0.000000  -0.007730
     8  H    0.003312   0.559019  -0.026392   0.000633   0.000161   0.000317
     9  H    0.000008  -0.026392   0.545573   0.002842   0.000807  -0.000014
    10  O    0.001827   0.000633   0.002842   8.321648  -0.073665  -0.045058
    11  O    0.000000   0.000161   0.000807  -0.073665   8.082829  -0.000030
    12  C   -0.007730   0.000317  -0.000014  -0.045058  -0.000030   4.953434
    13  C   -0.001539  -0.000059   0.000000   0.003221  -0.000001   0.343583
    14  C   -0.049126   0.000084  -0.000148   0.001594   0.000002   0.000834
    15  O   -0.004240  -0.002560   0.000297   0.000010  -0.000012  -0.000029
    16  Si  -0.000978   0.003776   0.001004   0.000032  -0.000062  -0.000150
    17  C   -0.000041   0.000001  -0.000005   0.000000   0.000000   0.000000
    18  C   -0.000051  -0.001450  -0.000896   0.000000   0.000000   0.000000
    19  C    0.002360   0.000014   0.000099   0.000000   0.000000  -0.000047
    20  H    0.000001   0.000050   0.000657   0.000000   0.000000   0.000000
    21  H   -0.000011   0.000621   0.000999   0.000000  -0.000002   0.000000
    22  H    0.000002   0.000033   0.000048   0.000000   0.000000   0.000000
    23  H    0.000058  -0.000005   0.000000   0.000000   0.000000   0.000000
    24  H    0.001378   0.003018  -0.000012   0.000000   0.000000   0.000035
    25  H    0.001347  -0.000099   0.000000   0.000000   0.000000  -0.000011
    26  H    0.000001   0.000000   0.000000   0.000000   0.000000   0.000000
    27  H   -0.000013   0.000000   0.000000   0.000000   0.000000   0.000000
    28  H    0.000001   0.000001  -0.000001   0.000000   0.000000   0.000000
    29  H   -0.005550  -0.000006   0.000002   0.000015   0.000000  -0.000446
    30  H    0.005749   0.000002   0.000002   0.000131   0.000000   0.000159
    31  H   -0.002853  -0.000002   0.000000  -0.000058   0.000000  -0.000186
    32  H    0.000371  -0.000009  -0.000002   0.001119  -0.000029   0.379843
    33  H    0.003861   0.001365   0.000022  -0.000471  -0.000158   0.378075
    34  H   -0.000170   0.000001   0.000000  -0.000062   0.000000  -0.024362
    35  H    0.000180   0.000001   0.000000   0.000017   0.000000  -0.037958
    36  H    0.003187  -0.000001   0.000000  -0.000013   0.000000  -0.034258
    37  C    0.005329   0.005351  -0.007640  -0.005615   0.000434   0.000038
    38  C   -0.000123   0.000233   0.009812   0.000164  -0.000548   0.000001
    39  C    0.000000   0.000034   0.003270  -0.000048  -0.000103   0.000000
    40  H    0.000004  -0.000051   0.000115   0.005938  -0.000523   0.000188
    41  H   -0.000083  -0.000118   0.000112   0.000166  -0.000001  -0.000004
    42  H    0.000003  -0.000012   0.000445  -0.000005   0.000002   0.000000
    43  H    0.000000   0.000000   0.000059   0.000000   0.000008   0.000000
    44  H    0.000000   0.000002  -0.000029  -0.000105   0.000502   0.000000
              13         14         15         16         17         18
     1  C   -0.039588  -0.030869   0.002794   0.000639   0.000000   0.000001
     2  C   -0.001633   0.349618  -0.040570  -0.005304  -0.000076  -0.000091
     3  C    0.000146  -0.029815   0.188781  -0.013429   0.001044  -0.002200
     4  C    0.000113   0.005222  -0.025748   0.002121  -0.000061  -0.000019
     5  C   -0.000052   0.000487   0.001360  -0.000570   0.000000   0.000105
     6  H   -0.002221  -0.007574  -0.000055  -0.000051   0.000000   0.000000
     7  H   -0.001539  -0.049126  -0.004240  -0.000978  -0.000041  -0.000051
     8  H   -0.000059   0.000084  -0.002560   0.003776   0.000001  -0.001450
     9  H    0.000000  -0.000148   0.000297   0.001004  -0.000005  -0.000896
    10  O    0.003221   0.001594   0.000010   0.000032   0.000000   0.000000
    11  O   -0.000001   0.000002  -0.000012  -0.000062   0.000000   0.000000
    12  C    0.343583   0.000834  -0.000029  -0.000150   0.000000   0.000000
    13  C    4.944865  -0.001267   0.000000  -0.000012   0.000000   0.000000
    14  C   -0.001267   4.977348  -0.004359   0.001079  -0.000010   0.000002
    15  O    0.000000  -0.004359   8.290630   0.335175  -0.019236  -0.016831
    16  Si  -0.000012   0.001079   0.335175  11.851877   0.378433   0.369840
    17  C    0.000000  -0.000010  -0.019236   0.378433   5.117779  -0.032917
    18  C    0.000000   0.000002  -0.016831   0.369840  -0.032917   5.143564
    19  C   -0.000023  -0.000036  -0.015653   0.367033  -0.031699  -0.035293
    20  H    0.000000   0.000000  -0.000586  -0.025947  -0.000927   0.378991
    21  H    0.000000   0.000000  -0.000398  -0.026838   0.001443   0.375491
    22  H    0.000000   0.000000   0.000551  -0.013481  -0.001056   0.369685
    23  H    0.000000  -0.000004   0.000516  -0.013813  -0.000944  -0.000233
    24  H   -0.000008   0.000004  -0.000549  -0.029009   0.001490  -0.001470
    25  H   -0.000005   0.000241  -0.000403  -0.027568  -0.001154   0.001357
    26  H    0.000000   0.000000   0.000473  -0.014757   0.373644  -0.000618
    27  H    0.000000  -0.000008  -0.000374  -0.025027   0.375306   0.001393
    28  H    0.000000   0.000000  -0.000423  -0.024488   0.376323  -0.001225
    29  H    0.001862   0.378057   0.000091  -0.000147   0.000000   0.000000
    30  H   -0.000037   0.382248   0.000039  -0.000194   0.000000   0.000000
    31  H    0.000006   0.379407   0.007111   0.002804  -0.000104   0.000007
    32  H   -0.035620  -0.000249   0.000001   0.000010   0.000000   0.000000
    33  H   -0.034793   0.000127  -0.000012  -0.000258   0.000000   0.000000
    34  H    0.380870   0.000109   0.000000   0.000000   0.000000   0.000000
    35  H    0.388946  -0.000105   0.000000  -0.000002   0.000000   0.000000
    36  H    0.386299  -0.001923   0.000002  -0.000002   0.000000   0.000000
    37  C   -0.000006  -0.010717  -0.064519  -0.001954  -0.000007   0.000015
    38  C    0.000000   0.000235   0.001853   0.001089  -0.000011  -0.000176
    39  C    0.000000   0.000000   0.000360   0.000104   0.000000  -0.000009
    40  H   -0.000003  -0.000417   0.003478   0.000156   0.000000   0.000000
    41  H    0.000000   0.002815  -0.000700   0.000627  -0.000014   0.000001
    42  H    0.000000  -0.000011   0.003784   0.001685  -0.000031  -0.000040
    43  H    0.000000   0.000000   0.000003   0.000007   0.000000   0.000000
    44  H    0.000000  -0.000001  -0.000001   0.000010   0.000000   0.000000
              19         20         21         22         23         24
     1  C    0.000033   0.000000   0.000001   0.000000  -0.000001  -0.000058
     2  C   -0.001554   0.000000  -0.000020   0.000001   0.000105  -0.000879
     3  C   -0.000637   0.000036  -0.000119   0.000041  -0.000001   0.000421
     4  C   -0.002381  -0.000318   0.000237   0.000039   0.000038  -0.001106
     5  C   -0.000016  -0.000002   0.000000  -0.000001   0.000000  -0.000036
     6  H   -0.000001   0.000000   0.000000   0.000000   0.000000   0.000001
     7  H    0.002360   0.000001  -0.000011   0.000002   0.000058   0.001378
     8  H    0.000014   0.000050   0.000621   0.000033  -0.000005   0.003018
     9  H    0.000099   0.000657   0.000999   0.000048   0.000000  -0.000012
    10  O    0.000000   0.000000   0.000000   0.000000   0.000000   0.000000
    11  O    0.000000   0.000000  -0.000002   0.000000   0.000000   0.000000
    12  C   -0.000047   0.000000   0.000000   0.000000   0.000000   0.000035
    13  C   -0.000023   0.000000   0.000000   0.000000   0.000000  -0.000008
    14  C   -0.000036   0.000000   0.000000   0.000000  -0.000004   0.000004
    15  O   -0.015653  -0.000586  -0.000398   0.000551   0.000516  -0.000549
    16  Si   0.367033  -0.025947  -0.026838  -0.013481  -0.013813  -0.029009
    17  C   -0.031699  -0.000927   0.001443  -0.001056  -0.000944   0.001490
    18  C   -0.035293   0.378991   0.375491   0.369685  -0.000233  -0.001470
    19  C    5.149439   0.001292  -0.001630  -0.000059   0.370677   0.373826
    20  H    0.001292   0.571295  -0.022963  -0.023092   0.000016   0.000002
    21  H   -0.001630  -0.022963   0.581437  -0.023420  -0.000032   0.000679
    22  H   -0.000059  -0.023092  -0.023420   0.570333   0.000017  -0.000022
    23  H    0.370677   0.000016  -0.000032   0.000017   0.564785  -0.022541
    24  H    0.373826   0.000002   0.000679  -0.000022  -0.022541   0.584441
    25  H    0.377814  -0.000024   0.000008   0.000001  -0.022753  -0.023870
    26  H   -0.000664  -0.000018  -0.000001   0.000061   0.000093   0.000002
    27  H   -0.001307   0.000000  -0.000028   0.000021  -0.000029   0.000003
    28  H    0.001386   0.000506   0.000008  -0.000055   0.000010  -0.000028
    29  H    0.000002   0.000000   0.000000   0.000000   0.000000   0.000001
    30  H    0.000002   0.000000   0.000000   0.000000   0.000000   0.000000
    31  H   -0.000163   0.000000   0.000000   0.000000   0.000001  -0.000002
    32  H    0.000000   0.000000   0.000000   0.000000   0.000000  -0.000002
    33  H   -0.000005   0.000000   0.000000   0.000000   0.000001   0.000495
    34  H    0.000000   0.000000   0.000000   0.000000   0.000000  -0.000001
    35  H    0.000000   0.000000   0.000000   0.000000   0.000000   0.000000
    36  H    0.000017   0.000000   0.000000   0.000000   0.000000   0.000021
    37  C   -0.000051   0.000007   0.000013   0.000001   0.000001  -0.000006
    38  C    0.000004   0.000079  -0.000036   0.000002   0.000000   0.000000
    39  C    0.000000   0.000006  -0.000006   0.000000   0.000000   0.000000
    40  H    0.000002   0.000000   0.000000   0.000000   0.000000   0.000000
    41  H   -0.000001   0.000000  -0.000001   0.000000   0.000000   0.000000
    42  H    0.000003   0.000363  -0.000016   0.000000   0.000000   0.000000
    43  H    0.000000  -0.000001   0.000000   0.000000   0.000000   0.000000
    44  H    0.000000   0.000000   0.000000   0.000000   0.000000   0.000000
              25         26         27         28         29         30
     1  C    0.000011   0.000000   0.000000   0.000000  -0.003080  -0.006723
     2  C   -0.000694   0.000001  -0.000005   0.000002  -0.029490  -0.032753
     3  C   -0.000395  -0.000012  -0.000043  -0.000038   0.004349  -0.007876
     4  C    0.000161   0.000001   0.000003  -0.000004  -0.000136   0.000064
     5  C    0.000003   0.000000   0.000000   0.000000  -0.000014  -0.000007
     6  H    0.000000   0.000000   0.000000   0.000000   0.000732   0.004900
     7  H    0.001347   0.000001  -0.000013   0.000001  -0.005550   0.005749
     8  H   -0.000099   0.000000   0.000000   0.000001  -0.000006   0.000002
     9  H    0.000000   0.000000   0.000000  -0.000001   0.000002   0.000002
    10  O    0.000000   0.000000   0.000000   0.000000   0.000015   0.000131
    11  O    0.000000   0.000000   0.000000   0.000000   0.000000   0.000000
    12  C   -0.000011   0.000000   0.000000   0.000000  -0.000446   0.000159
    13  C   -0.000005   0.000000   0.000000   0.000000   0.001862  -0.000037
    14  C    0.000241   0.000000  -0.000008   0.000000   0.378057   0.382248
    15  O   -0.000403   0.000473  -0.000374  -0.000423   0.000091   0.000039
    16  Si  -0.027568  -0.014757  -0.025027  -0.024488  -0.000147  -0.000194
    17  C   -0.001154   0.373644   0.375306   0.376323   0.000000   0.000000
    18  C    0.001357  -0.000618   0.001393  -0.001225   0.000000   0.000000
    19  C    0.377814  -0.000664  -0.001307   0.001386   0.000002   0.000002
    20  H   -0.000024  -0.000018   0.000000   0.000506   0.000000   0.000000
    21  H    0.000008  -0.000001  -0.000028   0.000008   0.000000   0.000000
    22  H    0.000001   0.000061   0.000021  -0.000055   0.000000   0.000000
    23  H   -0.022753   0.000093  -0.000029   0.000010   0.000000   0.000000
    24  H   -0.023870   0.000002   0.000003  -0.000028   0.000001   0.000000
    25  H    0.575371  -0.000056   0.000659   0.000003   0.000017  -0.000003
    26  H   -0.000056   0.566583  -0.023561  -0.023571   0.000000   0.000000
    27  H    0.000659  -0.023561   0.577737  -0.022028   0.000000   0.000000
    28  H    0.000003  -0.023571  -0.022028   0.574085   0.000000   0.000000
    29  H    0.000017   0.000000   0.000000   0.000000   0.601313  -0.031520
    30  H   -0.000003   0.000000   0.000000   0.000000  -0.031520   0.593449
    31  H    0.000119   0.000001   0.000120  -0.000003  -0.029299  -0.027701
    32  H    0.000000   0.000000   0.000000   0.000000  -0.000034   0.000014
    33  H    0.000002   0.000000   0.000000   0.000000   0.000044  -0.000002
    34  H   -0.000001   0.000000   0.000000   0.000000  -0.000018  -0.000002
    35  H    0.000000   0.000000   0.000000   0.000000   0.001236   0.000024
    36  H    0.000243   0.000000   0.000000   0.000000   0.001372   0.000035
    37  C   -0.000006   0.000000  -0.000002   0.000007   0.000132   0.003680
    38  C    0.000000   0.000000   0.000000  -0.000003  -0.000003  -0.000045
    39  C    0.000000   0.000000   0.000000   0.000000   0.000000  -0.000001
    40  H    0.000000   0.000000   0.000000   0.000000  -0.000013   0.000862
    41  H    0.000000   0.000000   0.000000  -0.000001  -0.000010   0.001193
    42  H    0.000000   0.000000   0.000000   0.000005   0.000000   0.000006
    43  H    0.000000   0.000000   0.000000   0.000000   0.000000   0.000000
    44  H    0.000000   0.000000   0.000000   0.000000   0.000000   0.000000
              31         32         33         34         35         36
     1  C    0.004019  -0.033144  -0.033324   0.003987  -0.005098  -0.005995
     2  C   -0.028240   0.005199  -0.009158  -0.000035  -0.001347   0.003619
     3  C   -0.006948  -0.000055  -0.000316   0.000000  -0.000020   0.000045
     4  C    0.000230   0.000119  -0.000333  -0.000001  -0.000001  -0.000011
     5  C   -0.000023   0.000162   0.002077  -0.000002   0.000005   0.000009
     6  H    0.000233  -0.005031   0.005782  -0.000113   0.005630  -0.000347
     7  H   -0.002853   0.000371   0.003861  -0.000170   0.000180   0.003187
     8  H   -0.000002  -0.000009   0.001365   0.000001   0.000001  -0.000001
     9  H    0.000000  -0.000002   0.000022   0.000000   0.000000   0.000000
    10  O   -0.000058   0.001119  -0.000471  -0.000062   0.000017  -0.000013
    11  O    0.000000  -0.000029  -0.000158   0.000000   0.000000   0.000000
    12  C   -0.000186   0.379843   0.378075  -0.024362  -0.037958  -0.034258
    13  C    0.000006  -0.035620  -0.034793   0.380870   0.388946   0.386299
    14  C    0.379407  -0.000249   0.000127   0.000109  -0.000105  -0.001923
[...]
    13  C   -0.000003   0.000000   0.000000   0.000000   0.000000  -0.000001
    14  C   -0.000026   0.000000   0.000000   0.000000  -0.000002  -0.000002
    15  O   -0.016194  -0.000676  -0.000490   0.000560   0.000520  -0.000590
    16  Si   0.363682  -0.025149  -0.023640  -0.013861  -0.013817  -0.026317
    17  C   -0.028205  -0.001020   0.001194  -0.000661  -0.000667   0.001217
    18  C   -0.032893   0.379150   0.376806   0.367780  -0.000231  -0.001130
    19  C    5.148606   0.001180  -0.001306  -0.000098   0.368499   0.376020
    20  H    0.001180   0.570407  -0.023361  -0.023814   0.000010  -0.000001
    21  H   -0.001306  -0.023361   0.573401  -0.023883  -0.000035   0.000477
    22  H   -0.000098  -0.023814  -0.023883   0.573893   0.000052  -0.000031
    23  H    0.368499   0.000010  -0.000035   0.000052   0.569806  -0.023598
    24  H    0.376020  -0.000001   0.000477  -0.000031  -0.023598   0.577579
    25  H    0.377746  -0.000021   0.000004   0.000001  -0.023627  -0.023831
    26  H   -0.000387  -0.000034   0.000001   0.000014   0.000062  -0.000001
    27  H   -0.001339   0.000000  -0.000021   0.000009  -0.000019   0.000006
    28  H    0.001194   0.000425   0.000006  -0.000033   0.000006  -0.000021
    29  H    0.000001   0.000000   0.000000   0.000000   0.000000   0.000001
    30  H    0.000002   0.000000   0.000000   0.000000   0.000000   0.000000
    31  H   -0.000170   0.000000   0.000000   0.000000   0.000001  -0.000001
    32  H    0.000000   0.000000   0.000000   0.000000   0.000000   0.000000
    33  H    0.000001   0.000000   0.000000   0.000000   0.000000   0.000117
    34  H    0.000000   0.000000   0.000000   0.000000   0.000000   0.000000
    35  H    0.000000   0.000000   0.000000   0.000000   0.000000   0.000000
    36  H   -0.000003   0.000000   0.000000   0.000000   0.000000  -0.000001
    37  C   -0.000056   0.000008   0.000012   0.000001   0.000001  -0.000004
    38  C    0.000004   0.000087  -0.000033   0.000003   0.000000   0.000000
    39  C    0.000000   0.000006  -0.000006   0.000000   0.000000   0.000000
    40  H    0.000001   0.000000   0.000000   0.000000   0.000000   0.000000
    41  H    0.000000   0.000001  -0.000001   0.000000   0.000000   0.000000
    42  H    0.000004   0.000548  -0.000017   0.000000   0.000000   0.000000
    43  H    0.000000  -0.000002   0.000000   0.000000   0.000000   0.000000
    44  H    0.000000   0.000000   0.000000   0.000000   0.000000   0.000000
              25         26         27         28         29         30
     1  C    0.000000   0.000000   0.000000   0.000000  -0.002285  -0.007319
     2  C   -0.000255   0.000001  -0.000004   0.000002  -0.029405  -0.032254
     3  C   -0.000320  -0.000015  -0.000051  -0.000047   0.004213  -0.007843
     4  C    0.000131   0.000002   0.000002  -0.000006  -0.000135   0.000052
     5  C    0.000002   0.000000   0.000000   0.000000  -0.000012  -0.000008
     6  H    0.000000   0.000000   0.000000   0.000000   0.000128   0.005961
     7  H    0.001158   0.000001  -0.000013   0.000001  -0.005438   0.005395
     8  H   -0.000095   0.000001   0.000000   0.000001  -0.000006   0.000003
     9  H    0.000001   0.000000   0.000000  -0.000001   0.000003   0.000003
    10  O    0.000000   0.000000   0.000000   0.000000  -0.000002   0.000077
    11  O    0.000000   0.000000   0.000000   0.000000   0.000000   0.000000
    12  C   -0.000003   0.000000   0.000000   0.000000  -0.000490   0.000100
    13  C    0.000000   0.000000   0.000000   0.000000   0.001870   0.000005
    14  C    0.000152   0.000000  -0.000021   0.000000   0.378267   0.382528
    15  O   -0.000509   0.000673  -0.000584  -0.000569   0.000082   0.000070
    16  Si  -0.025330  -0.015031  -0.023683  -0.022762  -0.000127  -0.000186
    17  C   -0.001134   0.368353   0.376952   0.377403   0.000000   0.000001
    18  C    0.001212  -0.000249   0.001189  -0.001228   0.000000   0.000000
    19  C    0.377746  -0.000387  -0.001339   0.001194   0.000001   0.000002
    20  H   -0.000021  -0.000034   0.000000   0.000425   0.000000   0.000000
    21  H    0.000004   0.000001  -0.000021   0.000006   0.000000   0.000000
    22  H    0.000001   0.000014   0.000009  -0.000033   0.000000   0.000000
    23  H   -0.023627   0.000062  -0.000019   0.000006   0.000000   0.000000
    24  H   -0.023831  -0.000001   0.000006  -0.000021   0.000001   0.000000
    25  H    0.573405  -0.000053   0.000545   0.000000   0.000011  -0.000001
    26  H   -0.000053   0.576258  -0.024096  -0.024097   0.000000   0.000000
    27  H    0.000545  -0.024096   0.572567  -0.022456  -0.000001   0.000000
    28  H    0.000000  -0.024097  -0.022456   0.569487   0.000000   0.000000
    29  H    0.000011   0.000000  -0.000001   0.000000   0.596751  -0.031189
    30  H   -0.000001   0.000000   0.000000   0.000000  -0.031189   0.592874
    31  H    0.000066   0.000001   0.000334  -0.000007  -0.027859  -0.028023
    32  H    0.000000   0.000000   0.000000   0.000000  -0.000033   0.000013
    33  H    0.000002   0.000000   0.000000   0.000000   0.000066   0.000003
    34  H    0.000000   0.000000   0.000000   0.000000  -0.000004  -0.000005
    35  H    0.000000   0.000000   0.000000   0.000000   0.001256   0.000047
    36  H    0.000060   0.000000   0.000000   0.000000   0.002148   0.000046
    37  C   -0.000005   0.000000  -0.000002   0.000011   0.000178   0.002812
    38  C    0.000000   0.000000   0.000000  -0.000009  -0.000002  -0.000041
    39  C    0.000000   0.000000   0.000000   0.000000   0.000000   0.000000
    40  H    0.000000   0.000000   0.000000   0.000000  -0.000010   0.000521
    41  H    0.000000   0.000000  -0.000001  -0.000002  -0.000065   0.001798
    42  H    0.000000   0.000000  -0.000001   0.000054   0.000000   0.000006
    43  H    0.000000   0.000000   0.000000   0.000000   0.000000   0.000000
    44  H    0.000000   0.000000   0.000000   0.000000   0.000000   0.000001
              31         32         33         34         35         36
     1  C    0.004034  -0.035252  -0.034645   0.003947  -0.004648  -0.005642
     2  C   -0.030454   0.005232  -0.010034  -0.000055  -0.001412   0.003816
     3  C   -0.007663  -0.000085  -0.000315   0.000001  -0.000020   0.000002
     4  C    0.000294   0.000077   0.000010   0.000000   0.000000  -0.000009
     5  C   -0.000024   0.000140   0.001379  -0.000002   0.000003   0.000008
     6  H    0.000185  -0.005473   0.006100  -0.000111   0.004922  -0.000287
     7  H   -0.002390   0.000262   0.005399  -0.000110   0.000172   0.001904
     8  H    0.000000  -0.000004   0.000616   0.000000   0.000000   0.000000
     9  H   -0.000002  -0.000002   0.000010   0.000000   0.000000   0.000000
    10  O   -0.000051   0.001421   0.000351  -0.000058   0.000007  -0.000015
    11  O    0.000000  -0.000021  -0.000122   0.000000   0.000000   0.000000
    12  C   -0.000153   0.380860   0.376553  -0.024083  -0.035984  -0.031977
    13  C    0.000019  -0.034565  -0.033934   0.379831   0.388401   0.386585
    14  C    0.379147  -0.000245   0.000108   0.000162  -0.000063  -0.002915
    15  O    0.008552   0.000001  -0.000009   0.000000   0.000000   0.000001
    16  Si   0.002809   0.000006  -0.000130   0.000000  -0.000001   0.000014
    17  C   -0.000108   0.000000   0.000000   0.000000   0.000000   0.000000
    18  C    0.000008   0.000000   0.000000   0.000000   0.000000   0.000000
    19  C   -0.000170   0.000000   0.000001   0.000000   0.000000  -0.000003
    20  H    0.000000   0.000000   0.000000   0.000000   0.000000   0.000000
    21  H    0.000000   0.000000   0.000000   0.000000   0.000000   0.000000
    22  H    0.000000   0.000000   0.000000   0.000000   0.000000   0.000000
    23  H    0.000001   0.000000   0.000000   0.000000   0.000000   0.000000
    24  H   -0.000001   0.000000   0.000117   0.000000   0.000000  -0.000001
    25  H    0.000066   0.000000   0.000002   0.000000   0.000000   0.000060
    26  H    0.000001   0.000000   0.000000   0.000000   0.000000   0.000000
    27  H    0.000334   0.000000   0.000000   0.000000   0.000000   0.000000
    28  H   -0.000007   0.000000   0.000000   0.000000   0.000000   0.000000
    29  H   -0.027859  -0.000033   0.000066  -0.000004   0.001256   0.002148
    30  H   -0.028023   0.000013   0.000003  -0.000005   0.000047   0.000046
    31  H    0.571887   0.000005   0.000009  -0.000004   0.000013   0.000148
    32  H    0.000005   0.609624  -0.035542  -0.005198  -0.003848   0.004997
    33  H    0.000009  -0.035542   0.621146  -0.003040   0.005267  -0.005489
    34  H   -0.000004  -0.005198  -0.003040   0.593379  -0.030263  -0.029764
    35  H    0.000013  -0.003848   0.005267  -0.030263   0.596451  -0.034400
    36  H    0.000148   0.004997  -0.005489  -0.029764  -0.034400   0.594091
    37  C   -0.001099   0.000003   0.000012   0.000000   0.000001   0.000000
    38  C   -0.000077   0.000000   0.000000   0.000000   0.000000   0.000000
    39  C    0.000000   0.000000   0.000000   0.000000   0.000000   0.000000
    40  H    0.000059   0.000004  -0.000002   0.000000   0.000000   0.000000
    41  H    0.001314   0.000000   0.000000   0.000000   0.000000   0.000000
    42  H    0.000001   0.000000   0.000000   0.000000   0.000000   0.000000
    43  H    0.000000   0.000000   0.000000   0.000000   0.000000   0.000000
    44  H    0.000000   0.000000   0.000000   0.000000   0.000000   0.000000
              37         38         39         40         41         42
     1  C   -0.000494  -0.000110  -0.000013   0.001316  -0.000078   0.000000
     2  C   -0.054951   0.005029  -0.000043  -0.002946  -0.010266   0.000079
     3  C    0.349629  -0.036538  -0.002228  -0.025832  -0.030284  -0.004035
     4  C   -0.073507  -0.008925  -0.000211  -0.004973   0.006586  -0.000678
     5  C    0.002204  -0.000459   0.000804   0.002352  -0.000140   0.000059
     6  H    0.001837  -0.000016   0.000002  -0.000534  -0.000131   0.000000
     7  H    0.005770  -0.000134   0.000000  -0.000019  -0.000061   0.000002
     8  H    0.005782   0.000183   0.000019  -0.000002  -0.000156  -0.000009
     9  H   -0.008763   0.010558   0.003289   0.000151   0.000148   0.000460
    10  O   -0.005290   0.000148  -0.000028   0.005650   0.000107  -0.000003
    11  O    0.000466  -0.000319  -0.000027  -0.000598   0.000000   0.000001
    12  C   -0.000030   0.000001   0.000000   0.000177  -0.000007   0.000000
    13  C   -0.000003   0.000000   0.000000  -0.000004   0.000000   0.000000
    14  C   -0.010598   0.000185   0.000001  -0.000242   0.003384  -0.000011
    15  O   -0.066957   0.001527   0.000458   0.003566  -0.000216   0.004646
    16  Si  -0.001797   0.001042   0.000091   0.000114   0.000581   0.002047
    17  C   -0.000010  -0.000027   0.000000   0.000000  -0.000018  -0.000069
    18  C    0.000017  -0.000208  -0.000009   0.000000   0.000002  -0.000034
    19  C   -0.000056   0.000004   0.000000   0.000001   0.000000   0.000004
    20  H    0.000008   0.000087   0.000006   0.000000   0.000001   0.000548
    21  H    0.000012  -0.000033  -0.000006   0.000000  -0.000001  -0.000017
    22  H    0.000001   0.000003   0.000000   0.000000   0.000000   0.000000
    23  H    0.000001   0.000000   0.000000   0.000000   0.000000   0.000000
    24  H   -0.000004   0.000000   0.000000   0.000000   0.000000   0.000000
    25  H   -0.000005   0.000000   0.000000   0.000000   0.000000   0.000000
    26  H    0.000000   0.000000   0.000000   0.000000   0.000000   0.000000
    27  H   -0.000002   0.000000   0.000000   0.000000  -0.000001  -0.000001
    28  H    0.000011  -0.000009   0.000000   0.000000  -0.000002   0.000054
    29  H    0.000178  -0.000002   0.000000  -0.000010  -0.000065   0.000000
    30  H    0.002812  -0.000041   0.000000   0.000521   0.001798   0.000006
    31  H   -0.001099  -0.000077   0.000000   0.000059   0.001314   0.000001
    32  H    0.000003   0.000000   0.000000   0.000004   0.000000   0.000000
    33  H    0.000012   0.000000   0.000000  -0.000002   0.000000   0.000000
    34  H    0.000000   0.000000   0.000000   0.000000   0.000000   0.000000
    35  H    0.000001   0.000000   0.000000   0.000000   0.000000   0.000000
    36  H    0.000000   0.000000   0.000000   0.000000   0.000000   0.000000
    37  C    5.067093   0.384605  -0.039957   0.360802   0.366379  -0.051014
    38  C    0.384605   4.771026   0.654812  -0.037816  -0.032989   0.384964
    39  C   -0.039957   0.654812   4.933938  -0.006161   0.000918  -0.045876
    40  H    0.360802  -0.037816  -0.006161   0.615302  -0.029988   0.005146
    41  H    0.366379  -0.032989   0.000918  -0.029988   0.603044  -0.002325
    42  H   -0.051014   0.384964  -0.045876   0.005146  -0.002325   0.604544
    43  H    0.004669  -0.025970   0.376193   0.000088  -0.000211  -0.008002
    44  H   -0.011825  -0.034170   0.381993   0.005816   0.000168   0.005632
              43         44
     1  C    0.000000  -0.000005
     2  C    0.000003  -0.000008
     3  C   -0.000054   0.000094
     4  C   -0.000047  -0.000046
     5  C   -0.000002   0.000411
     6  H    0.000000   0.000001
     7  H    0.000000   0.000000
     8  H    0.000000   0.000001
     9  H    0.000059   0.000000
    10  O    0.000000  -0.000050
    11  O    0.000003   0.000176
    12  C    0.000000   0.000000
    13  C    0.000000   0.000000
    14  C    0.000000   0.000000
    15  O    0.000003  -0.000002
    16  Si   0.000009   0.000010
    17  C    0.000000   0.000000
    18  C    0.000000   0.000000
    19  C    0.000000   0.000000
    20  H   -0.000002   0.000000
    21  H    0.000000   0.000000
    22  H    0.000000   0.000000
    23  H    0.000000   0.000000
    24  H    0.000000   0.000000
    25  H    0.000000   0.000000
    26  H    0.000000   0.000000
    27  H    0.000000   0.000000
    28  H    0.000000   0.000000
    29  H    0.000000   0.000000
    30  H    0.000000   0.000001
    31  H    0.000000   0.000000
    32  H    0.000000   0.000000
    33  H    0.000000   0.000000
    34  H    0.000000   0.000000
    35  H    0.000000   0.000000
    36  H    0.000000   0.000000
    37  C    0.004669  -0.011825
    38  C   -0.025970  -0.034170
    39  C    0.376193   0.381993
    40  H    0.000088   0.005816
    41  H   -0.000211   0.000168
    42  H   -0.008002   0.005632
    43  H    0.592427  -0.043337
    44  H   -0.043337   0.590294
 Mulliken charges:
               1
     1  C    0.171719
     2  C   -0.093962
     3  C    0.306768
     4  C   -0.305579
     5  C    0.591544
     6  H    0.116133
     7  H    0.105067
     8  H    0.145158
     9  H    0.149056
    10  O   -0.484020
    11  O   -0.499486
    12  C   -0.185707
    13  C   -0.334409
    14  C   -0.342172
    15  O   -0.647238
    16  Si   0.913459
    17  C   -0.533880
    18  C   -0.550126
    19  C   -0.555911
    20  H    0.122005
    21  H    0.119459
    22  H    0.119965
    23  H    0.122944
    24  H    0.117617
    25  H    0.120686
    26  H    0.118595
    27  H    0.120687
    28  H    0.122647
    29  H    0.112091
    30  H    0.114554
    31  H    0.129198
    32  H    0.117622
    33  H    0.106115
    34  H    0.115375
    35  H    0.114100
    36  H    0.116683
    37  C   -0.225928
    38  C   -0.036330
    39  C   -0.257966
    40  H    0.108061
    41  H    0.122509
    42  H    0.103879
    43  H    0.104172
    44  H    0.104847
 Sum of Mulliken charges =   0.00000
 Mulliken charges with hydrogens summed into heavy atoms:
               1
     1  C    0.287853
     2  C    0.011105
     3  C    0.306768
     4  C   -0.011365
     5  C    0.591544
    10  O   -0.484020
    11  O   -0.499486
    12  C    0.038030
    13  C    0.011749
    14  C    0.013671
    15  O   -0.647238
    16  Si   0.913459
    17  C   -0.171952
    18  C   -0.188697
    19  C   -0.194664
    37  C    0.004642
    38  C    0.067549
    39  C   -0.048947
 Electronic spatial extent (au):  <R**2>=           5358.4844
 Charge=              0.0000 electrons
 Dipole moment (field-independent basis, Debye):
    X=             -1.8131    Y=             -4.8009    Z=              1.9476  Tot=              5.4890
 Quadrupole moment (field-independent basis, Debye-Ang):
   XX=           -116.9532   YY=           -122.6296   ZZ=           -122.8437
   XY=             -9.7344   XZ=              9.7029   YZ=              7.9660
 Traceless Quadrupole moment (field-independent basis, Debye-Ang):
   XX=              3.8556   YY=             -1.8208   ZZ=             -2.0349
   XY=             -9.7344   XZ=              9.7029   YZ=              7.9660
 Octapole moment (field-independent basis, Debye-Ang**2):
  XXX=             -7.5208  YYY=            -10.4081  ZZZ=              3.4131  XYY=            -13.6293
  XXY=            -28.3107  XXZ=             10.1669  XZZ=             -4.6536  YZZ=            -21.1804
  YYZ=             15.9498  XYZ=             14.9789
 Hexadecapole moment (field-independent basis, Debye-Ang**3):
 XXXX=          -3579.2621 YYYY=          -2439.2802 ZZZZ=          -1126.8472 XXXY=            -44.0041
 XXXZ=             39.4096 YYYX=            -37.1872 YYYZ=             19.8139 ZZZX=             12.7068
 ZZZY=              5.3010 XXYY=          -1010.5200 XXZZ=           -809.6744 YYZZ=           -657.9805
 XXYZ=             52.7213 YYXZ=             33.5878 ZZXY=            -22.3521
 N-N= 1.631134367715D+03 E-N=-5.752585114857D+03  KE= 1.055904687071D+03
 1\1\GINC-CPU-E-532\FOpt\RB3LYP\6-31G(d,p)\C14H26O3Si1\KE291\06-Feb-201
 9\0\\# b3lyp/6-31g(d,p) Opt=(maxcycles=25) scrf=(solvent=chloroform)\\
 P_ng_correct1ginp013\\0,1\C,1.0339463087,-0.3169136676,0.3890919533\C,
 -0.5000325903,-0.4613230123,0.5818563299\C,-1.0963602013,0.6151222839,
 1.5330228732\C,-0.5953354209,1.9792533005,1.0345974467\C,0.914314127,2
 .0821429281,1.0537226319\H,1.5409348499,-1.0553573712,1.0196208903\H,-
 0.9728085329,-0.2613682991,-0.388459923\H,-0.9280176872,2.1396966259,0
 .001666054\H,-0.9809431443,2.799469645,1.6410366981\O,1.6153950276,0.9
 480976854,0.848446268\O,1.5149670964,3.114391928,1.2649585822\C,1.5125
 157493,-0.4768919446,-1.0612113214\C,1.2538459489,-1.8471868966,-1.694
 631054\C,-0.8679399863,-1.8946717237,0.9959606144\O,-2.5179593718,0.52
 90247334,1.4946018197\Si,-3.7629970445,1.1649205022,0.5580981766\C,-5.
 2745998881,0.2008824099,1.126144773\C,-4.005338798,3.0042801327,0.9017
 796697\C,-3.4927472799,0.8906917247,-1.291456237\H,-4.1062335337,3.193
 7587792,1.9757074461\H,-3.1779719816,3.6162076509,0.5291722034\H,-4.92
 15700389,3.3585167239,0.4149235408\H,-4.3713301127,1.2436691404,-1.844
 6284983\H,-2.6262304782,1.4326264986,-1.684632621\H,-3.3618114316,-0.1
 710625619,-1.5259663863\H,-6.1736847249,0.5422081916,0.6010052797\H,-5
 .1568247841,-0.8696360624,0.9285965311\H,-5.4463825314,0.3270571601,2.
 200089422\H,-0.5959082668,-2.6140751068,0.2204972652\H,-0.3540672182,-
 2.1939757149,1.914649454\H,-1.9444263377,-1.9712520027,1.1664955844\H,
 2.588250039,-0.2706895403,-1.0668020742\H,1.0407219596,0.308244641,-1.
 6661444207\H,1.7166048913,-1.8934210358,-2.6848343433\H,1.6810029667,-
 2.6557856974,-1.0916644302\H,0.1864867374,-2.0487191387,-1.823953789\C
 ,-0.6958264242,0.3827597611,3.0150476591\C,-1.2013769424,1.4386778048,
 3.9597391137\C,-0.4302912527,2.1852085907,4.7520030189\H,0.3936962687,
 0.3021561513,3.0952528634\H,-1.1159448157,-0.5858819548,3.3087041057\H
 ,-2.2816368909,1.5722979825,3.9839819686\H,-0.8531659345,2.9243154175,
 5.4263435489\H,0.6525346752,2.0832073372,4.7587883125\\Version=ES64L-G
 09RevD.01\State=1-A\HF=-1064.4211413\RMSD=9.813e-09\RMSF=9.340e-06\Dip
 ole=-1.3077349,-1.4645412,-0.8991814\Quadrupole=-3.3208864,-1.4123406,
 4.733227,-11.2574555,-0.9555872,0.5543453\PG=C01 [X(C14H26O3Si1)]\\@


 Change starts when someone sees the next step.
                            -- William Drayton
 Job cpu time:       0 days  1 hours 58 minutes 53.2 seconds.
 File lengths (MBytes):  RWF=    374 Int=      0 D2E=      0 Chk=     17 Scr=      1
 Normal termination of Gaussian 09 at Wed Feb  6 11:10:20 2019.
