 Entering Gaussian System, Link 0=/usr/local/Cluster-Apps/gaussian/g09/g09
 Initial command:
 /usr/local/Cluster-Apps/gaussian/g09/l1.exe "/home/ke291/rds/hpc-work/06Feb0927IP1/Gau-314256.inp" -scrdir="/home/ke291/rds/hpc-work/06Feb0927IP1/"
 Entering Link 1 = /usr/local/Cluster-Apps/gaussian/g09/l1.exe PID=    314262.
  
 Copyright (c) 1988,1990,1992,1993,1995,1998,2003,2009,2013,
            Gaussian, Inc.  All Rights Reserved.
  
 This is part of the Gaussian(R) 09 program.  It is based on
 the Gaussian(R) 03 system (copyright 2003, Gaussian, Inc.),
 the Gaussian(R) 98 system (copyright 1998, Gaussian, Inc.),
 the Gaussian(R) 94 system (copyright 1995, Gaussian, Inc.),
 the Gaussian 92(TM) system (copyright 1992, Gaussian, Inc.),
 the Gaussian 90(TM) system (copyright 1990, Gaussian, Inc.),
 the Gaussian 88(TM) system (copyright 1988, Gaussian, Inc.),
 the Gaussian 86(TM) system (copyright 1986, Carnegie Mellon
 University), and the Gaussian 82(TM) system (copyright 1983,
 Carnegie Mellon University). Gaussian is a federally registered
 trademark of Gaussian, Inc.
  
 This software contains proprietary and confidential information,
 including trade secrets, belonging to Gaussian, Inc.
  
 This software is provided under written license and may be
 used, copied, transmitted, or stored only in accord with that
 written license.
  
 The following legend is applicable only to US Government
 contracts under FAR:
  
                    RESTRICTED RIGHTS LEGEND
  
 Use, reproduction and disclosure by the US Government is
 subject to restrictions as set forth in subparagraphs (a)
 and (c) of the Commercial Computer Software - Restricted
 Rights clause in FAR 52.227-19.
  
 Gaussian, Inc.
 340 Quinnipiac St., Bldg. 40, Wallingford CT 06492
  
  
 ---------------------------------------------------------------
 Warning -- This program may not be used in any manner that
 competes with the business of Gaussian, Inc. or will provide
 assistance to any competitor of Gaussian, Inc.  The licensee
 of this program is prohibited from giving any competitor of
 Gaussian, Inc. access to this program.  By using this program,
 the user acknowledges that Gaussian, Inc. is engaged in the
 business of creating and licensing software in the field of
 computational chemistry and represents and warrants to the
 licensee that it is not a competitor of Gaussian, Inc. and that
 it will not use this program in any manner prohibited above.
 ---------------------------------------------------------------
  

 Cite this work as:
 Gaussian 09, Revision D.01,
 M. J. Frisch, G. W. Trucks, H. B. Schlegel, G. E. Scuseria, 
 M. A. Robb, J. R. Cheeseman, G. Scalmani, V. Barone, B. Mennucci, 
 G. A. Petersson, H. Nakatsuji, M. Caricato, X. Li, H. P. Hratchian, 
 A. F. Izmaylov, J. Bloino, G. Zheng, J. L. Sonnenberg, M. Hada, 
 M. Ehara, K. Toyota, R. Fukuda, J. Hasegawa, M. Ishida, T. Nakajima, 
 Y. Honda, O. Kitao, H. Nakai, T. Vreven, J. A. Montgomery, Jr., 
 J. E. Peralta, F. Ogliaro, M. Bearpark, J. J. Heyd, E. Brothers, 
 K. N. Kudin, V. N. Staroverov, T. Keith, R. Kobayashi, J. Normand, 
 K. Raghavachari, A. Rendell, J. C. Burant, S. S. Iyengar, J. Tomasi, 
 M. Cossi, N. Rega, J. M. Millam, M. Klene, J. E. Knox, J. B. Cross, 
 V. Bakken, C. Adamo, J. Jaramillo, R. Gomperts, R. E. Stratmann, 
 O. Yazyev, A. J. Austin, R. Cammi, C. Pomelli, J. W. Ochterski, 
 R. L. Martin, K. Morokuma, V. G. Zakrzewski, G. A. Voth, 
 P. Salvador, J. J. Dannenberg, S. Dapprich, A. D. Daniels, 
 O. Farkas, J. B. Foresman, J. V. Ortiz, J. Cioslowski, 
 and D. J. Fox, Gaussian, Inc., Wallingford CT, 2013.
 
 ******************************************
 Gaussian 09:  ES64L-G09RevD.01 24-Apr-2013
                 6-Feb-2019 
 ******************************************
 %nprocshared=2
 Will use up to    2 processors via shared memory.
 %mem=6000MB
 %chk=/home/ke291/rds/hpc-work/06Feb0927IP1/P_ng_4ginp006.chk
 ---------------------------------------------------------------
 # b3lyp/6-31g(d,p) Opt=(maxcycles=25) scrf=(solvent=chloroform)
 ---------------------------------------------------------------
 1/6=25,14=-1,18=20,19=15,26=3,38=1/1,3;
 2/9=110,12=2,17=6,18=5,40=1/2;
 3/5=1,6=6,7=101,11=2,16=1,25=1,30=1,70=2201,71=1,72=7,74=-5/1,2,3;
 4//1;
 5/5=2,38=5,53=7/2;
 6/7=2,8=2,9=2,10=2,28=1/1;
 7//1,2,3,16;
 1/6=25,14=-1,18=20,19=15,26=3/3(2);
 2/9=110/2;
 99//99;
 2/9=110/2;
 3/5=1,6=6,7=101,11=2,16=1,25=1,30=1,70=2205,71=1,72=7,74=-5/1,2,3;
 4/5=5,16=3,69=1/1;
 5/5=2,38=5,53=7/2;
 7//1,2,3,16;
 1/6=25,14=-1,18=20,19=15,26=3/3(-5);
 2/9=110/2;
 6/7=2,8=2,9=2,10=2,19=2,28=1/1;
 99/9=1/99;
 -------------
 P_ng_4ginp006
 -------------
 Symbolic Z-matrix:
 Charge =  0 Multiplicity = 1
 C                     0.69138   1.82155  -0.0252 
 C                    -0.42366   0.90629   0.5064 
 C                    -1.38936   1.67977   1.46768 
 C                    -1.48795   3.16154   1.04799 
 C                    -1.07848   3.44767  -0.36842 
 H                     1.25854   1.24187  -0.76548 
 H                    -0.99171   0.6199   -0.38768 
 H                    -2.51338   3.52778   1.17817 
 H                    -0.86628   3.80711   1.67891 
 O                     0.08396   2.8914   -0.78166 
 O                    -1.70735   4.21844  -1.08598 
 C                     1.6998    2.37184   0.99339 
 C                     2.80812   3.17358   0.31975 
 C                     0.13436  -0.39754   1.09087 
 O                    -0.74981   1.60194   2.76615 
 Si                   -1.38225   2.00657   4.2638 
 C                     0.05034   2.32985   5.45393 
 C                    -2.44588   3.55072   4.23944 
 C                    -2.38926   0.58597   4.97435 
 H                    -2.79847   3.78488   5.24866 
 H                    -1.87652   4.41057   3.87498 
 H                    -3.32335   3.42156   3.60039 
 H                    -1.79899  -0.33507   4.98054 
 H                    -2.6898    0.80765   6.00275 
 H                    -3.29461   0.40999   4.38748 
 H                     0.66306   3.16118   5.09334 
 H                    -0.32743   2.58163   6.44906 
 H                     0.68401   1.44208   5.53634 
 H                     0.74968  -0.91545   0.34698 
 H                     0.75826  -0.2302    1.97358 
 H                    -0.67432  -1.07785   1.3748 
 H                     2.15737   1.55021   1.55392 
 H                     1.21691   3.03248   1.71779 
 H                     3.34723   2.56121  -0.41 
 H                     2.40744   4.05244  -0.19489 
 H                     3.5282    3.52163   1.06723 
 C                    -2.79726   0.99096   1.47062 
 C                    -3.51939   0.93596   0.14933 
 C                    -4.58394   1.68841  -0.15707 
 H                    -3.45015   1.495     2.19278 
 H                    -2.70467  -0.03398   1.85146 
 H                    -3.17029   0.21335  -0.58574 
 H                    -5.06967   1.59519  -1.1245 
 H                    -4.9936    2.41837   0.53445 
 

 GradGradGradGradGradGradGradGradGradGradGradGradGradGradGradGradGradGrad
 Berny optimization.
 Initialization pass.
                           ----------------------------
                           !    Initial Parameters    !
                           ! (Angstroms and Degrees)  !
 --------------------------                            --------------------------
 ! Name  Definition              Value          Derivative Info.                !
 --------------------------------------------------------------------------------
 ! R1    R(1,2)                  1.5374         estimate D2E/DX2                !
 ! R2    R(1,6)                  1.0981         estimate D2E/DX2                !
 ! R3    R(1,10)                 1.4442         estimate D2E/DX2                !
 ! R4    R(1,12)                 1.5353         estimate D2E/DX2                !
 ! R5    R(2,3)                  1.5668         estimate D2E/DX2                !
 ! R6    R(2,7)                  1.0973         estimate D2E/DX2                !
 ! R7    R(2,14)                 1.5339         estimate D2E/DX2                !
 ! R8    R(3,4)                  1.5432         estimate D2E/DX2                !
 ! R9    R(3,15)                 1.4495         estimate D2E/DX2                !
 ! R10   R(3,37)                 1.5674         estimate D2E/DX2                !
 ! R11   R(4,5)                  1.5019         estimate D2E/DX2                !
 ! R12   R(4,8)                  1.0966         estimate D2E/DX2                !
 ! R13   R(4,9)                  1.096          estimate D2E/DX2                !
 ! R14   R(5,10)                 1.3533         estimate D2E/DX2                !
 ! R15   R(5,11)                 1.2266         estimate D2E/DX2                !
 ! R16   R(12,13)                1.5248         estimate D2E/DX2                !
 ! R17   R(12,32)                1.0948         estimate D2E/DX2                !
 ! R18   R(12,33)                1.0929         estimate D2E/DX2                !
 ! R19   R(13,34)                1.0946         estimate D2E/DX2                !
 ! R20   R(13,35)                1.0944         estimate D2E/DX2                !
 ! R21   R(13,36)                1.0947         estimate D2E/DX2                !
 ! R22   R(14,29)                1.0956         estimate D2E/DX2                !
 ! R23   R(14,30)                1.0938         estimate D2E/DX2                !
 ! R24   R(14,31)                1.0943         estimate D2E/DX2                !
 ! R25   R(15,16)                1.6753         estimate D2E/DX2                !
 ! R26   R(16,17)                1.8903         estimate D2E/DX2                !
 ! R27   R(16,18)                1.8752         estimate D2E/DX2                !
 ! R28   R(16,19)                1.8807         estimate D2E/DX2                !
 ! R29   R(17,26)                1.0939         estimate D2E/DX2                !
 ! R30   R(17,27)                1.0938         estimate D2E/DX2                !
 ! R31   R(17,28)                1.0938         estimate D2E/DX2                !
 ! R32   R(18,20)                1.0944         estimate D2E/DX2                !
 ! R33   R(18,21)                1.0938         estimate D2E/DX2                !
 ! R34   R(18,22)                1.0932         estimate D2E/DX2                !
 ! R35   R(19,23)                1.094          estimate D2E/DX2                !
 ! R36   R(19,24)                1.0941         estimate D2E/DX2                !
 ! R37   R(19,25)                1.0932         estimate D2E/DX2                !
 ! R38   R(37,38)                1.5068         estimate D2E/DX2                !
 ! R39   R(37,40)                1.0963         estimate D2E/DX2                !
 ! R40   R(37,41)                1.0973         estimate D2E/DX2                !
 ! R41   R(38,39)                1.3392         estimate D2E/DX2                !
 ! R42   R(38,42)                1.0883         estimate D2E/DX2                !
 ! R43   R(39,43)                1.0865         estimate D2E/DX2                !
 ! R44   R(39,44)                1.0858         estimate D2E/DX2                !
 ! A1    A(2,1,6)              107.0644         estimate D2E/DX2                !
 ! A2    A(2,1,10)             108.4868         estimate D2E/DX2                !
 ! A3    A(2,1,12)             117.409          estimate D2E/DX2                !
 ! A4    A(6,1,10)             104.7846         estimate D2E/DX2                !
 ! A5    A(6,1,12)             107.2911         estimate D2E/DX2                !
 ! A6    A(10,1,12)            110.9918         estimate D2E/DX2                !
 ! A7    A(1,2,3)              111.424          estimate D2E/DX2                !
 ! A8    A(1,2,7)              104.4242         estimate D2E/DX2                !
 ! A9    A(1,2,14)             111.9585         estimate D2E/DX2                !
 ! A10   A(3,2,7)              108.0397         estimate D2E/DX2                !
 ! A11   A(3,2,14)             114.2081         estimate D2E/DX2                !
 ! A12   A(7,2,14)             106.0776         estimate D2E/DX2                !
 ! A13   A(2,3,4)              110.2752         estimate D2E/DX2                !
 ! A14   A(2,3,15)             104.5453         estimate D2E/DX2                !
 ! A15   A(2,3,37)             109.745          estimate D2E/DX2                !
 ! A16   A(4,3,15)             108.8665         estimate D2E/DX2                !
 ! A17   A(4,3,37)             111.4134         estimate D2E/DX2                !
 ! A18   A(15,3,37)            111.7804         estimate D2E/DX2                !
 ! A19   A(3,4,5)              114.9602         estimate D2E/DX2                !
 ! A20   A(3,4,8)              110.373          estimate D2E/DX2                !
 ! A21   A(3,4,9)              111.8865         estimate D2E/DX2                !
 ! A22   A(5,4,8)              107.6534         estimate D2E/DX2                !
 ! A23   A(5,4,9)              106.0226         estimate D2E/DX2                !
 ! A24   A(8,4,9)              105.3862         estimate D2E/DX2                !
 ! A25   A(4,5,10)             116.3494         estimate D2E/DX2                !
 ! A26   A(4,5,11)             122.1169         estimate D2E/DX2                !
 ! A27   A(10,5,11)            121.3357         estimate D2E/DX2                !
 ! A28   A(1,10,5)             120.3852         estimate D2E/DX2                !
 ! A29   A(1,12,13)            111.8864         estimate D2E/DX2                !
 ! A30   A(1,12,32)            110.1934         estimate D2E/DX2                !
 ! A31   A(1,12,33)            111.4813         estimate D2E/DX2                !
 ! A32   A(13,12,32)           108.482          estimate D2E/DX2                !
 ! A33   A(13,12,33)           107.2269         estimate D2E/DX2                !
 ! A34   A(32,12,33)           107.3954         estimate D2E/DX2                !
 ! A35   A(12,13,34)           111.0001         estimate D2E/DX2                !
 ! A36   A(12,13,35)           111.3376         estimate D2E/DX2                !
 ! A37   A(12,13,36)           110.0982         estimate D2E/DX2                !
 ! A38   A(34,13,35)           108.4256         estimate D2E/DX2                !
 ! A39   A(34,13,36)           108.0061         estimate D2E/DX2                !
 ! A40   A(35,13,36)           107.8538         estimate D2E/DX2                !
 ! A41   A(2,14,29)            110.3299         estimate D2E/DX2                !
 ! A42   A(2,14,30)            112.6409         estimate D2E/DX2                !
 ! A43   A(2,14,31)            111.0061         estimate D2E/DX2                !
 ! A44   A(29,14,30)           107.4531         estimate D2E/DX2                !
 ! A45   A(29,14,31)           107.2986         estimate D2E/DX2                !
 ! A46   A(30,14,31)           107.8932         estimate D2E/DX2                !
 ! A47   A(3,15,16)            128.4091         estimate D2E/DX2                !
 ! A48   A(15,16,17)           108.5446         estimate D2E/DX2                !
 ! A49   A(15,16,18)           113.6658         estimate D2E/DX2                !
 ! A50   A(15,16,19)           110.9428         estimate D2E/DX2                !
 ! A51   A(17,16,18)           107.2906         estimate D2E/DX2                !
 ! A52   A(17,16,19)           107.2843         estimate D2E/DX2                !
 ! A53   A(18,16,19)           108.8569         estimate D2E/DX2                !
 ! A54   A(16,17,26)           110.3006         estimate D2E/DX2                !
 ! A55   A(16,17,27)           110.5132         estimate D2E/DX2                !
 ! A56   A(16,17,28)           110.3445         estimate D2E/DX2                !
 ! A57   A(26,17,27)           108.568          estimate D2E/DX2                !
 ! A58   A(26,17,28)           108.4916         estimate D2E/DX2                !
 ! A59   A(27,17,28)           108.5633         estimate D2E/DX2                !
 ! A60   A(16,18,20)           110.3016         estimate D2E/DX2                !
 ! A61   A(16,18,21)           110.8803         estimate D2E/DX2                !
 ! A62   A(16,18,22)           111.4438         estimate D2E/DX2                !
 ! A63   A(20,18,21)           107.8661         estimate D2E/DX2                !
 ! A64   A(20,18,22)           107.8041         estimate D2E/DX2                !
 ! A65   A(21,18,22)           108.4168         estimate D2E/DX2                !
 ! A66   A(16,19,23)           110.4372         estimate D2E/DX2                !
 ! A67   A(16,19,24)           110.4353         estimate D2E/DX2                !
 ! A68   A(16,19,25)           111.2367         estimate D2E/DX2                !
 ! A69   A(23,19,24)           108.2687         estimate D2E/DX2                !
 ! A70   A(23,19,25)           108.3225         estimate D2E/DX2                !
 ! A71   A(24,19,25)           108.0431         estimate D2E/DX2                !
 ! A72   A(3,37,38)            116.4167         estimate D2E/DX2                !
 ! A73   A(3,37,40)            109.5201         estimate D2E/DX2                !
 ! A74   A(3,37,41)            109.5931         estimate D2E/DX2                !
 ! A75   A(38,37,40)           107.9993         estimate D2E/DX2                !
 ! A76   A(38,37,41)           108.1011         estimate D2E/DX2                !
 ! A77   A(40,37,41)           104.541          estimate D2E/DX2                !
 ! A78   A(37,38,39)           124.133          estimate D2E/DX2                !
 ! A79   A(37,38,42)           117.5679         estimate D2E/DX2                !
 ! A80   A(39,38,42)           118.2647         estimate D2E/DX2                !
 ! A81   A(38,39,43)           120.7235         estimate D2E/DX2                !
 ! A82   A(38,39,44)           122.1387         estimate D2E/DX2                !
 ! A83   A(43,39,44)           117.1353         estimate D2E/DX2                !
 ! D1    D(6,1,2,3)           -174.2262         estimate D2E/DX2                !
 ! D2    D(6,1,2,7)            -57.8405         estimate D2E/DX2                !
 ! D3    D(6,1,2,14)            56.4913         estimate D2E/DX2                !
 ! D4    D(10,1,2,3)           -61.6388         estimate D2E/DX2                !
 ! D5    D(10,1,2,7)            54.7468         estimate D2E/DX2                !
 ! D6    D(10,1,2,14)          169.0787         estimate D2E/DX2                !
 ! D7    D(12,1,2,3)            65.1496         estimate D2E/DX2                !
 ! D8    D(12,1,2,7)          -178.4647         estimate D2E/DX2                !
 ! D9    D(12,1,2,14)          -64.1328         estimate D2E/DX2                !
 ! D10   D(2,1,10,5)            38.0517         estimate D2E/DX2                !
 ! D11   D(6,1,10,5)           152.1466         estimate D2E/DX2                !
 ! D12   D(12,1,10,5)          -92.3525         estimate D2E/DX2                !
 ! D13   D(2,1,12,13)          175.6376         estimate D2E/DX2                !
 ! D14   D(2,1,12,32)           54.8567         estimate D2E/DX2                !
 ! D15   D(2,1,12,33)          -64.2911         estimate D2E/DX2                !
 ! D16   D(6,1,12,13)           55.1321         estimate D2E/DX2                !
 ! D17   D(6,1,12,32)          -65.6488         estimate D2E/DX2                !
 ! D18   D(6,1,12,33)          175.2034         estimate D2E/DX2                !
 ! D19   D(10,1,12,13)         -58.8034         estimate D2E/DX2                !
 ! D20   D(10,1,12,32)        -179.5843         estimate D2E/DX2                !
 ! D21   D(10,1,12,33)          61.2678         estimate D2E/DX2                !
 ! D22   D(1,2,3,4)             31.3285         estimate D2E/DX2                !
 ! D23   D(1,2,3,15)           -85.5428         estimate D2E/DX2                !
 ! D24   D(1,2,3,37)           154.4299         estimate D2E/DX2                !
 ! D25   D(7,2,3,4)            -82.8271         estimate D2E/DX2                !
 ! D26   D(7,2,3,15)           160.3017         estimate D2E/DX2                !
 ! D27   D(7,2,3,37)            40.2743         estimate D2E/DX2                !
 ! D28   D(14,2,3,4)           159.4134         estimate D2E/DX2                !
 ! D29   D(14,2,3,15)           42.5421         estimate D2E/DX2                !
 ! D30   D(14,2,3,37)          -77.4852         estimate D2E/DX2                !
 ! D31   D(1,2,14,29)          -55.6583         estimate D2E/DX2                !
 ! D32   D(1,2,14,30)           64.4141         estimate D2E/DX2                !
 ! D33   D(1,2,14,31)         -174.4709         estimate D2E/DX2                !
 ! D34   D(3,2,14,29)          176.5294         estimate D2E/DX2                !
 ! D35   D(3,2,14,30)          -63.3982         estimate D2E/DX2                !
 ! D36   D(3,2,14,31)           57.7168         estimate D2E/DX2                !
 ! D37   D(7,2,14,29)           57.6525         estimate D2E/DX2                !
 ! D38   D(7,2,14,30)          177.7249         estimate D2E/DX2                !
 ! D39   D(7,2,14,31)          -61.1602         estimate D2E/DX2                !
 ! D40   D(2,3,4,5)             20.0641         estimate D2E/DX2                !
 ! D41   D(2,3,4,8)            142.0476         estimate D2E/DX2                !
 ! D42   D(2,3,4,9)           -100.9391         estimate D2E/DX2                !
 ! D43   D(15,3,4,5)           134.2171         estimate D2E/DX2                !
 ! D44   D(15,3,4,8)          -103.7994         estimate D2E/DX2                !
 ! D45   D(15,3,4,9)            13.2139         estimate D2E/DX2                !
 ! D46   D(37,3,4,5)          -102.0582         estimate D2E/DX2                !
 ! D47   D(37,3,4,8)            19.9253         estimate D2E/DX2                !
 ! D48   D(37,3,4,9)           136.9386         estimate D2E/DX2                !
 ! D49   D(2,3,15,16)         -168.9193         estimate D2E/DX2                !
 ! D50   D(4,3,15,16)           73.2414         estimate D2E/DX2                !
 ! D51   D(37,3,15,16)         -50.2648         estimate D2E/DX2                !
 ! D52   D(2,3,37,38)          -60.8226         estimate D2E/DX2                !
 ! D53   D(2,3,37,40)          176.3449         estimate D2E/DX2                !
 ! D54   D(2,3,37,41)           62.2064         estimate D2E/DX2                !
 ! D55   D(4,3,37,38)           61.6054         estimate D2E/DX2                !
 ! D56   D(4,3,37,40)          -61.2271         estimate D2E/DX2                !
 ! D57   D(4,3,37,41)         -175.3656         estimate D2E/DX2                !
 ! D58   D(15,3,37,38)        -176.339          estimate D2E/DX2                !
 ! D59   D(15,3,37,40)          60.8285         estimate D2E/DX2                !
 ! D60   D(15,3,37,41)         -53.31           estimate D2E/DX2                !
 ! D61   D(3,4,5,10)           -47.0249         estimate D2E/DX2                !
 ! D62   D(3,4,5,11)           138.028          estimate D2E/DX2                !
 ! D63   D(8,4,5,10)          -170.4676         estimate D2E/DX2                !
 ! D64   D(8,4,5,11)            14.5853         estimate D2E/DX2                !
 ! D65   D(9,4,5,10)            77.1317         estimate D2E/DX2                !
 ! D66   D(9,4,5,11)           -97.8153         estimate D2E/DX2                !
 ! D67   D(4,5,10,1)            15.4927         estimate D2E/DX2                !
 ! D68   D(11,5,10,1)         -169.5177         estimate D2E/DX2                !
 ! D69   D(1,12,13,34)         -58.4791         estimate D2E/DX2                !
 ! D70   D(1,12,13,35)          62.4134         estimate D2E/DX2                !
 ! D71   D(1,12,13,36)        -178.0199         estimate D2E/DX2                !
 ! D72   D(32,12,13,34)         63.2906         estimate D2E/DX2                !
 ! D73   D(32,12,13,35)       -175.8168         estimate D2E/DX2                !
 ! D74   D(32,12,13,36)        -56.2501         estimate D2E/DX2                !
 ! D75   D(33,12,13,34)        178.9911         estimate D2E/DX2                !
 ! D76   D(33,12,13,35)        -60.1163         estimate D2E/DX2                !
 ! D77   D(33,12,13,36)         59.4503         estimate D2E/DX2                !
 ! D78   D(3,15,16,17)        -158.5805         estimate D2E/DX2                !
 ! D79   D(3,15,16,18)         -39.2859         estimate D2E/DX2                !
 ! D80   D(3,15,16,19)          83.7779         estimate D2E/DX2                !
 ! D81   D(15,16,17,26)         60.8644         estimate D2E/DX2                !
 ! D82   D(15,16,17,27)       -179.0752         estimate D2E/DX2                !
 ! D83   D(15,16,17,28)        -58.9924         estimate D2E/DX2                !
 ! D84   D(18,16,17,26)        -62.355          estimate D2E/DX2                !
 ! D85   D(18,16,17,27)         57.7053         estimate D2E/DX2                !
 ! D86   D(18,16,17,28)        177.7881         estimate D2E/DX2                !
 ! D87   D(19,16,17,26)       -179.1868         estimate D2E/DX2                !
 ! D88   D(19,16,17,27)        -59.1265         estimate D2E/DX2                !
 ! D89   D(19,16,17,28)         60.9563         estimate D2E/DX2                !
 ! D90   D(15,16,18,20)       -177.8857         estimate D2E/DX2                !
 ! D91   D(15,16,18,21)        -58.4644         estimate D2E/DX2                !
 ! D92   D(15,16,18,22)         62.4071         estimate D2E/DX2                !
 ! D93   D(17,16,18,20)        -57.8789         estimate D2E/DX2                !
 ! D94   D(17,16,18,21)         61.5425         estimate D2E/DX2                !
 ! D95   D(17,16,18,22)       -177.586          estimate D2E/DX2                !
 ! D96   D(19,16,18,20)         57.9153         estimate D2E/DX2                !
 ! D97   D(19,16,18,21)        177.3366         estimate D2E/DX2                !
 ! D98   D(19,16,18,22)        -61.7919         estimate D2E/DX2                !
 ! D99   D(15,16,19,23)         52.9915         estimate D2E/DX2                !
 ! D100  D(15,16,19,24)        172.7167         estimate D2E/DX2                !
 ! D101  D(15,16,19,25)        -67.3222         estimate D2E/DX2                !
 ! D102  D(17,16,19,23)        -65.4156         estimate D2E/DX2                !
 ! D103  D(17,16,19,24)         54.3096         estimate D2E/DX2                !
 ! D104  D(17,16,19,25)        174.2707         estimate D2E/DX2                !
 ! D105  D(18,16,19,23)        178.7861         estimate D2E/DX2                !
 ! D106  D(18,16,19,24)        -61.4886         estimate D2E/DX2                !
 ! D107  D(18,16,19,25)         58.4725         estimate D2E/DX2                !
 ! D108  D(3,37,38,39)        -107.0265         estimate D2E/DX2                !
 ! D109  D(3,37,38,42)          75.1478         estimate D2E/DX2                !
 ! D110  D(40,37,38,39)         16.5946         estimate D2E/DX2                !
 ! D111  D(40,37,38,42)       -161.2311         estimate D2E/DX2                !
 ! D112  D(41,37,38,39)        129.1725         estimate D2E/DX2                !
 ! D113  D(41,37,38,42)        -48.6532         estimate D2E/DX2                !
 ! D114  D(37,38,39,43)       -179.2912         estimate D2E/DX2                !
 ! D115  D(37,38,39,44)          1.2986         estimate D2E/DX2                !
 ! D116  D(42,38,39,43)         -1.4796         estimate D2E/DX2                !
 ! D117  D(42,38,39,44)        179.1102         estimate D2E/DX2                !
 --------------------------------------------------------------------------------
 Trust Radius=3.00D-01 FncErr=1.00D-07 GrdErr=1.00D-06
 Number of steps in this run=     25 maximum allowed number of steps=    264.
 GradGradGradGradGradGradGradGradGradGradGradGradGradGradGradGradGradGrad

                          Input orientation:                          
 ---------------------------------------------------------------------
 Center     Atomic      Atomic             Coordinates (Angstroms)
 Number     Number       Type             X           Y           Z
 ---------------------------------------------------------------------
      1          6           0        0.691376    1.821551   -0.025201
      2          6           0       -0.423657    0.906287    0.506397
      3          6           0       -1.389359    1.679769    1.467684
      4          6           0       -1.487948    3.161537    1.047992
      5          6           0       -1.078476    3.447673   -0.368416
      6          1           0        1.258542    1.241872   -0.765480
      7          1           0       -0.991705    0.619895   -0.387678
      8          1           0       -2.513375    3.527780    1.178173
      9          1           0       -0.866284    3.807107    1.678910
     10          8           0        0.083960    2.891402   -0.781664
     11          8           0       -1.707354    4.218441   -1.085983
     12          6           0        1.699798    2.371836    0.993393
     13          6           0        2.808124    3.173581    0.319745
     14          6           0        0.134362   -0.397537    1.090870
     15          8           0       -0.749812    1.601939    2.766148
     16         14           0       -1.382246    2.006571    4.263803
     17          6           0        0.050342    2.329854    5.453926
     18          6           0       -2.445877    3.550724    4.239444
     19          6           0       -2.389264    0.585969    4.974345
     20          1           0       -2.798470    3.784883    5.248658
     21          1           0       -1.876516    4.410569    3.874983
     22          1           0       -3.323348    3.421559    3.600389
     23          1           0       -1.798993   -0.335072    4.980538
     24          1           0       -2.689799    0.807652    6.002753
     25          1           0       -3.294606    0.409990    4.387484
     26          1           0        0.663064    3.161181    5.093342
     27          1           0       -0.327431    2.581627    6.449063
     28          1           0        0.684005    1.442075    5.536338
     29          1           0        0.749682   -0.915454    0.346979
     30          1           0        0.758257   -0.230202    1.973575
     31          1           0       -0.674322   -1.077848    1.374803
     32          1           0        2.157366    1.550205    1.553919
     33          1           0        1.216911    3.032480    1.717793
     34          1           0        3.347233    2.561211   -0.409998
     35          1           0        2.407436    4.052436   -0.194890
     36          1           0        3.528197    3.521631    1.067226
     37          6           0       -2.797259    0.990959    1.470620
     38          6           0       -3.519387    0.935964    0.149329
     39          6           0       -4.583937    1.688413   -0.157071
     40          1           0       -3.450154    1.495000    2.192777
     41          1           0       -2.704670   -0.033976    1.851461
     42          1           0       -3.170290    0.213347   -0.585741
     43          1           0       -5.069674    1.595193   -1.124500
     44          1           0       -4.993603    2.418366    0.534453
 ---------------------------------------------------------------------
                    Distance matrix (angstroms):
                    1          2          3          4          5
     1  C    0.000000
     2  C    1.537401   0.000000
     3  C    2.564813   1.566821   0.000000
     4  C    2.774303   2.551900   1.543210   0.000000
     5  C    2.427848   2.766357   2.567761   1.501916   0.000000
     6  H    1.098052   2.135435   3.491440   3.810118   3.238035
     7  H    2.099554   1.097301   2.173437   2.960971   2.829175
     8  H    3.824886   3.419127   2.182286   1.096623   2.111229
     9  H    3.045116   3.159978   2.200861   1.096031   2.089441
    10  O    1.444220   2.420219   2.949286   2.427243   1.353318
    11  O    3.553061   3.892803   3.614857   2.391450   1.226570
    12  C    1.535338   2.625654   3.201062   3.284560   3.275783
    13  C    2.535270   3.952198   4.600881   4.357376   3.956558
    14  C    2.545630   1.533933   2.603635   3.911616   4.287905
    15  O    3.149108   2.386794   1.449513   2.435005   3.652430
    16  Si   4.767567   4.030833   2.815161   3.418561   4.860710
    17  C    5.539867   5.170035   4.287829   4.740283   6.035182
    18  C    5.569524   5.001806   3.507044   3.354767   4.807575
    19  C    6.001039   4.891705   3.806952   4.781440   6.201017
    20  H    6.621728   6.034492   4.551139   4.444280   5.884183
    21  H    5.339337   5.073279   3.672830   3.114955   4.423853
    22  H    5.641182   4.930273   3.364904   3.154526   4.559775
    23  H    5.992527   4.842567   4.070323   5.271427   6.590873
    24  H    6.985454   5.946012   4.797769   5.615592   7.082222
    25  H    6.111657   4.852988   3.710463   4.689054   6.062783
    26  H    5.291020   5.225474   4.421812   4.581671   5.739847
    27  H    6.597862   6.175055   5.172541   5.554697   6.913185
    28  H    5.574475   5.178252   4.572667   5.274389   6.480346
    29  H    2.762809   2.172758   3.544948   4.703218   4.784436
    30  H    2.865182   2.200259   2.918248   4.172054   4.731308
    31  H    3.497379   2.180310   2.850326   4.329108   4.866466
    32  H    2.171722   2.858953   3.550138   4.017545   4.215024
    33  H    2.186450   2.946123   2.947037   2.789543   3.129450
    34  H    2.783656   4.218787   5.170874   5.085774   4.513806
    35  H    2.819664   4.290122   4.775914   4.184791   3.542235
    36  H    3.482990   4.771971   5.266420   5.029090   4.825761
    37  C    3.885606   2.563373   1.567370   2.569887   3.517344
    38  C    4.306420   3.116396   2.613106   3.144442   3.540450
    39  C    5.278640   4.284838   3.584025   3.634201   3.927839
    40  H    4.709388   3.514277   2.192436   2.817469   3.999687
    41  H    4.300927   2.810038   2.194140   3.512446   4.437819
    42  H    4.220544   3.035939   3.088473   3.767119   3.857950
    43  H    5.869361   4.971910   4.502365   4.472350   4.464640
    44  H    5.743552   4.813686   3.795658   3.620172   4.147634
                    6          7          8          9         10
     6  H    0.000000
     7  H    2.364995   0.000000
     8  H    4.819805   3.636367   0.000000
     9  H    4.131629   3.800636   1.744038   0.000000
    10  O    2.025057   2.544017   3.315432   2.792115   0.000000
    11  O    4.214169   3.734878   2.500617   2.919114   2.249989
    12  C    2.136623   3.495832   4.372777   3.019058   2.455954
    13  C    2.703778   4.632544   5.401917   3.968622   2.951914
    14  C    2.719830   2.118797   4.735636   4.361893   3.784976
    15  O    4.078668   3.312030   3.056253   2.461385   3.865858
    16  Si   5.731685   4.869463   3.621414   3.192150   5.328173
    17  C    6.428411   6.175286   5.127352   4.156107   6.260914
    18  C    6.640993   5.666977   3.062101   3.019467   5.660946
    19  C    6.832444   5.541265   4.804225   4.853359   6.675590
    20  H    7.687399   6.711917   4.088549   4.059179   6.743255
    21  H    6.434526   5.772554   2.908211   2.491480   5.275954
    22  H    6.693696   5.402829   2.556261   3.142911   5.576128
    23  H    6.697163   5.511934   5.467170   5.378507   6.867213
    24  H    7.847734   6.614861   5.541371   5.569341   7.619978
    25  H    6.926487   5.305618   4.542094   4.977301   6.655239
    26  H    6.193879   6.264022   5.054969   3.796640   5.909639
    27  H    7.507322   7.143576   5.784102   4.954445   7.249042
    28  H    6.331120   6.211115   5.793704   4.782941   6.509820
    29  H    2.480032   2.435045   5.575011   5.166040   4.026062
    30  H    3.149557   3.059501   5.045658   4.361860   4.217870
    31  H    3.701064   2.467671   4.963123   4.898175   4.580424
    32  H    2.506505   3.814698   5.086041   3.775141   3.398937
    33  H    3.061806   3.889930   3.801519   2.222895   2.747866
    34  H    2.495927   4.753482   6.148436   4.865133   3.300926
    35  H    3.089466   4.834632   5.135654   3.780021   2.662864
    36  H    3.702357   5.564740   6.042594   4.446023   3.959590
    37  C    4.638170   2.617439   2.569353   3.420927   4.121394
    38  C    4.874327   2.603354   2.964471   4.197861   4.204116
    39  C    5.891020   3.754869   3.074634   4.656247   4.860716
    40  H    5.566613   3.669949   2.457472   3.505179   4.825681
    41  H    4.917644   2.894052   3.629878   4.261849   4.823654
    42  H    4.550244   2.225026   3.811613   4.832411   4.219065
    43  H    6.348232   4.257223   3.946120   5.515447   5.325189
    44  H    6.493326   4.483304   2.792258   4.502571   5.266647
                   11         12         13         14         15
    11  O    0.000000
    12  C    4.398004   0.000000
    13  C    4.843278   1.524790   0.000000
    14  C    5.425667   3.182690   4.527308   0.000000
    15  O    4.754144   3.120255   4.594981   2.754310   0.000000
    16  Si   5.798127   4.508658   5.871687   4.259969   1.675312
    17  C    7.030410   4.755925   5.888722   5.146064   2.897284
    18  C    5.417696   5.395669   6.565882   5.670971   2.974055
    19  C    7.098410   5.979777   7.441363   4.734696   2.931916
    20  H    6.442529   6.351252   7.490111   6.586451   3.889100
    21  H    4.967566   5.024939   6.009635   5.908705   3.222946
    22  H    5.020811   5.755896   6.958381   5.730527   3.260378
    23  H    7.585879   5.955352   7.433651   4.344109   3.123510
    24  H    7.927727   6.841705   8.253566   5.792664   3.856171
    25  H    6.854379   6.349233   7.837554   4.824685   3.244295
    26  H    6.702293   4.302030   5.233418   5.381801   3.137401
    27  H    7.833279   5.823917   6.910185   6.148081   3.834326
    28  H    7.568483   4.747066   5.892609   4.842362   3.123354
    29  H    5.869181   3.482362   4.578005   1.095550   3.799754
    30  H    5.935533   2.935619   4.303818   1.093807   2.501836
    31  H    5.930708   4.205025   5.596001   1.094263   3.020397
    32  H    5.387451   1.094822   2.140566   2.846166   3.150216
    33  H    4.221254   1.092880   2.122830   3.651022   2.648300
    34  H    5.362109   2.172421   1.094605   4.618369   5.271991
    35  H    4.213443   2.176507   1.094434   5.159681   4.974022
    36  H    5.703757   2.161139   1.094702   5.184453   4.987275
    37  C    4.259196   4.728434   6.124432   3.265966   2.498745
    38  C    3.947672   5.478509   6.713670   4.001825   3.868050
    39  C    3.941909   6.424637   7.554842   5.307626   4.822157
    40  H    4.604862   5.359978   6.744770   4.200554   2.762614
    41  H    5.263674   5.091517   6.559381   2.961550   2.708199
    42  H    4.293158   5.556122   6.732334   3.755653   4.361429
    43  H    4.264752   7.135432   8.163140   5.996735   5.813639
    44  H    4.082342   6.709278   7.841135   5.876643   4.863823
                   16         17         18         19         20
    16  Si   0.000000
    17  C    1.890294   0.000000
    18  C    1.875183   3.032590   0.000000
    19  C    1.880709   3.036908   3.055005   0.000000
    20  H    2.477503   3.205460   1.094379   3.236626   0.000000
    21  H    2.484892   3.245800   1.093772   4.012365   1.768747
    22  H    2.492025   4.001150   1.093174   3.286463   1.767567
    23  H    2.484085   3.278104   4.008377   1.093972   4.247926
    24  H    2.484160   3.182245   3.270046   1.094115   3.073170
    25  H    2.494291   4.001481   3.256757   1.093169   3.518192
    26  H    2.490894   1.093871   3.247522   3.995320   3.520702
    27  H    2.493729   1.093801   3.210822   3.226236   2.999138
    28  H    2.491464   1.093834   3.990551   3.239404   4.207035
    29  H    5.331497   6.091142   6.731243   5.789626   7.662180
    30  H    3.850981   4.378113   5.449407   4.424663   6.284694
    31  H    4.284988   5.364403   5.724356   4.320418   6.570001
    32  H    4.481138   4.500829   5.692448   5.770694   6.573066
    33  H    3.780248   3.976589   4.476976   5.440133   5.399667
    34  H    6.672332   6.731168   7.493769   8.111728   8.443188
    35  H    6.198967   6.358640   6.593154   7.857844   7.536926
    36  H    6.051939   5.723543   6.764124   7.674636   7.588174
    37  C    3.291747   5.076239   3.787117   3.550573   4.698892
    38  C    4.758410   6.544054   4.971764   4.967943   5.885509
    39  C    5.467740   7.305565   5.231524   5.688884   6.066711
    40  H    2.971043   4.856495   3.069759   3.112707   3.873844
    41  H    3.425205   5.114248   4.315033   3.199409   5.112087
    42  H    5.470908   7.164471   5.911452   5.627025   6.850864
    43  H    6.542184   8.368392   6.283336   6.737881   7.111276
    44  H    5.207641   7.046306   4.636820   5.463781   5.376775
                   21         22         23         24         25
    21  H    0.000000
    22  H    1.773941   0.000000
    23  H    4.873333   4.282610   0.000000
    24  H    4.262610   3.606279   1.773211   0.000000
    25  H    4.275309   3.112859   1.773045   1.770034   0.000000
    26  H    3.081369   4.264761   4.277644   4.196167   4.871390
    27  H    3.517184   4.218524   3.581786   2.987802   4.215477
    28  H    4.257737   4.870845   3.103618   3.464475   4.267834
    29  H    6.907261   6.781145   5.320005   6.840095   5.868454
    30  H    5.665169   5.713264   3.948715   5.403749   4.760515
    31  H    6.149707   5.675847   3.849406   5.388430   4.260962
    32  H    5.462712   6.142331   5.563161   6.621066   6.249254
    33  H    4.015207   4.930467   5.575086   6.210727   5.861612
    34  H    7.004908   7.830712   7.995622   8.980206   8.470986
    35  H    5.919829   6.902466   7.983065   8.655704   8.171833
    36  H    6.155049   7.305518   7.652916   8.389790   8.201040
    37  C    4.280474   3.274218   3.882579   4.537111   3.015456
    38  C    5.352794   4.257514   5.283547   5.913311   4.276580
    39  C    5.567560   4.325666   6.184289   6.504378   4.893845
    40  H    3.715736   2.389368   3.721170   3.945441   2.453198
    41  H    4.953227   3.922019   3.271396   4.235774   2.641315
    42  H    6.260078   5.276337   5.758878   6.632671   4.978663
    43  H    6.566386   5.358157   7.189907   7.555247   5.910799
    44  H    4.984400   3.632645   6.128183   6.148513   4.665406
                   26         27         28         29         30
    26  H    0.000000
    27  H    1.776216   0.000000
    28  H    1.775390   1.776133   0.000000
    29  H    6.257349   7.115137   5.700149   0.000000
    30  H    4.609066   5.395840   3.936407   1.765066   0.000000
    31  H    5.795300   6.265796   5.051083   1.763684   1.768987
    32  H    4.166017   5.585739   4.247605   3.085086   2.302926
    33  H    3.423104   4.997317   4.170691   4.205189   3.304676
    34  H    6.152356   7.781407   6.610912   4.405393   4.491793
    35  H    5.639376   7.333818   6.529255   5.265140   5.075729
    36  H    4.954646   6.686826   5.690953   5.284565   4.750820
    37  C    5.459653   5.780586   5.371477   4.180642   3.792874
    38  C    6.847463   7.251444   6.851607   4.657442   4.794377
    39  C    7.567490   7.909278   7.760593   5.956650   6.062984
    40  H    5.301698   5.389631   5.317280   5.182266   4.553580
    41  H    5.662195   5.799189   5.219211   3.869498   3.470631
    42  H    7.458975   7.948526   7.337930   4.184536   4.709598
    43  H    8.601056   8.990038   8.803126   6.506420   6.847986
    44  H    7.302953   7.535412   7.629366   6.643405   6.493834
                   31         32         33         34         35
    31  H    0.000000
    32  H    3.867454   0.000000
    33  H    4.537532   1.763080   0.000000
    34  H    5.709743   2.508961   3.047599   0.000000
    35  H    6.187163   3.063010   2.473058   1.775737   0.000000
    36  H    6.237866   2.450014   2.450418   1.771255   1.769406
    37  C    2.965806   4.986783   4.510262   6.614922   6.263818
    38  C    3.694810   5.880110   5.411837   7.078471   6.705081
    39  C    5.028313   6.956418   6.242713   7.983057   7.380334
    40  H    3.872192   5.644065   4.936694   7.356338   6.822961
    41  H    2.332206   5.122261   4.979941   6.962379   6.857109
    42  H    3.426481   5.894850   5.700992   6.929752   6.782507
    43  H    5.719334   7.707533   7.047381   8.502237   7.925238
    44  H    5.620132   7.275258   6.352001   8.395352   7.614296
                   36         37         38         39         40
    36  H    0.000000
    37  C    6.824839   0.000000
    38  C    7.562847   1.506753   0.000000
    39  C    8.406326   2.515559   1.339152   0.000000
    40  H    7.353331   1.096285   2.119668   2.616230   0.000000
    41  H    7.218448   1.097317   2.121745   3.245377   1.734938
    42  H    7.651586   2.229900   1.088289   2.087576   3.072641
    43  H    9.079549   3.501945   2.112016   1.086531   3.692859
    44  H    8.609420   2.781695   2.125829   1.085755   2.446401
                   41         42         43         44
    41  H    0.000000
    42  H    2.493577   0.000000
    43  H    4.135672   2.409859   0.000000
    44  H    3.603846   3.072688   1.853517   0.000000
 Stoichiometry    C14H26O3Si
 Framework group  C1[X(C14H26O3Si)]
 Deg. of freedom   126
 Full point group                 C1      NOp   1
 Largest Abelian subgroup         C1      NOp   1
 Largest concise Abelian subgroup C1      NOp   1
                         Standard orientation:                         
 ---------------------------------------------------------------------
 Center     Atomic      Atomic             Coordinates (Angstroms)
 Number     Number       Type             X           Y           Z
 ---------------------------------------------------------------------
      1          6           0       -2.143087   -0.948502    0.661601
      2          6           0       -1.126779   -0.013779    1.337629
      3          6           0       -0.027939    0.463207    0.327696
      4          6           0       -0.615810    0.559965   -1.095871
      5          6           0       -2.113195    0.658700   -1.157864
      6          1           0       -2.931650   -1.153477    1.397721
      7          1           0       -1.717064    0.861757    1.636072
      8          1           0       -0.203150    1.429745   -1.621016
      9          1           0       -0.344074   -0.306318   -1.709871
     10          8           0       -2.805130   -0.218391   -0.394055
     11          8           0       -2.684955    1.424088   -1.927113
     12          6           0       -1.628836   -2.303367    0.154504
     13          6           0       -2.756729   -3.169908   -0.394993
     14          6           0       -0.570632   -0.613561    2.635286
     15          8           0        0.969968   -0.587823    0.352280
     16         14           0        2.510293   -0.576196   -0.306455
     17          6           0        3.074611   -2.364124   -0.547435
     18          6           0        2.607955    0.269099   -1.977459
     19          6           0        3.734935    0.243628    0.861965
     20          1           0        3.626889    0.212375   -2.372706
     21          1           0        1.941218   -0.213310   -2.697931
     22          1           0        2.334846    1.325301   -1.907615
     23          1           0        3.684001   -0.216580    1.853120
     24          1           0        4.755878    0.132914    0.484467
     25          1           0        3.527048    1.311612    0.967860
     26          1           0        2.401165   -2.885395   -1.233949
     27          1           0        4.086313   -2.394152   -0.962110
     28          1           0        3.074325   -2.895163    0.408844
     29          1           0       -1.388640   -0.868004    3.318186
     30          1           0        0.008757   -1.525237    2.463326
     31          1           0        0.074850    0.102337    3.153216
     32          1           0       -1.136292   -2.848488    0.966217
     33          1           0       -0.896413   -2.178894   -0.647025
     34          1           0       -3.520836   -3.349402    0.367950
     35          1           0       -3.235092   -2.699632   -1.259745
     36          1           0       -2.363809   -4.140180   -0.715241
     37          6           0        0.562595    1.836950    0.797536
     38          6           0       -0.407497    2.985834    0.893923
     39          6           0       -0.446781    4.010413    0.032516
     40          1           0        1.375437    2.135423    0.125195
     41          1           0        1.044839    1.714962    1.775628
     42          1           0       -1.094499    2.995483    1.737906
     43          1           0       -1.163412    4.816867    0.161444
     44          1           0        0.219344    4.071878   -0.822681
 ---------------------------------------------------------------------
 Rotational constants (GHZ):      0.4336809      0.3215484      0.2502325
 Standard basis: 6-31G(d,p) (6D, 7F)
 There are   404 symmetry adapted cartesian basis functions of A   symmetry.
 There are   404 symmetry adapted basis functions of A   symmetry.
   404 basis functions,   710 primitive gaussians,   404 cartesian basis functions
    74 alpha electrons       74 beta electrons
       nuclear repulsion energy      1647.2641290763 Hartrees.
 NAtoms=   44 NActive=   44 NUniq=   44 SFac= 1.00D+00 NAtFMM=   60 NAOKFM=F Big=F
 Integral buffers will be    131072 words long.
 Raffenetti 2 integral format.
 Two-electron integral symmetry is turned on.
 ------------------------------------------------------------------------------
 Polarizable Continuum Model (PCM)
 =================================
 Model                : PCM (using non-symmetric T matrix).
 Atomic radii         : UFF (Universal Force Field).
 Polarization charges : Total charges.
 Charge compensation  : None.
 Solution method      : On-the-fly selection.
 Cavity type          : Scaled VdW (van der Waals Surface) (Alpha=1.100).
 Cavity algorithm     : GePol (No added spheres)
                        Default sphere list used, NSphG=   44.
                        Lebedev-Laikov grids with approx.  5.0 points / Ang**2.
                        Smoothing algorithm: Karplus/York (Gamma=1.0000).
                        Polarization charges: spherical gaussians, with
                                              point-specific exponents (IZeta= 3).
                        Self-potential: point-specific (ISelfS= 7).
                        Self-field    : sphere-specific E.n sum rule (ISelfD= 2).
 1st derivatives      : Analytical E(r).r(x)/FMM algorithm (CHGder, D1EAlg=3).
                        Cavity 1st derivative terms included.
 Solvent              : Chloroform, Eps=   4.711300 Eps(inf)=   2.090627
 ------------------------------------------------------------------------------
 One-electron integrals computed using PRISM.
 NBasis=   404 RedAO= T EigKep=  1.42D-03  NBF=   404
 NBsUse=   404 1.00D-06 EigRej= -1.00D+00 NBFU=   404
 ExpMin= 7.78D-02 ExpMax= 1.61D+04 ExpMxC= 2.43D+03 IAcc=2 IRadAn=         4 AccDes= 0.00D+00
 Harris functional with IExCor=  402 and IRadAn=       4 diagonalized for initial guess.
 HarFok:  IExCor=  402 AccDes= 0.00D+00 IRadAn=         4 IDoV= 1 UseB2=F ITyADJ=14
 ICtDFT=  3500011 ScaDFX=  1.000000  1.000000  1.000000  1.000000
 FoFCou: FMM=F IPFlag=           0 FMFlag=      100000 FMFlg1=           0
         NFxFlg=           0 DoJE=T BraDBF=F KetDBF=T FulRan=T
         wScrn=  0.000000 ICntrl=     500 IOpCl=  0 I1Cent=   200000004 NGrid=           0
         NMat0=    1 NMatS0=      1 NMatT0=    0 NMatD0=    1 NMtDS0=    0 NMtDT0=    0
 Petite list used in FoFCou.
 Requested convergence on RMS density matrix=1.00D-08 within 128 cycles.
 Requested convergence on MAX density matrix=1.00D-06.
 Requested convergence on             energy=1.00D-06.
 No special actions if energy rises.
 Inv3:  Mode=1 IEnd=    25038963.
 Iteration    1 A*A^-1 deviation from unit magnitude is 4.11D-15 for   2877.
 Iteration    1 A*A^-1 deviation from orthogonality  is 4.61D-15 for   2852   1396.
 Iteration    1 A^-1*A deviation from unit magnitude is 4.44D-15 for   2877.
 Iteration    1 A^-1*A deviation from orthogonality  is 8.80D-11 for   2655   2619.
 Error on total polarization charges =  0.00912
 SCF Done:  E(RB3LYP) =  -1064.41387381     A.U. after   13 cycles
            NFock= 13  Conv=0.52D-08     -V/T= 2.0080

 **********************************************************************

            Population analysis using the SCF density.

 **********************************************************************

 Orbital symmetries:
       Occupied  (A) (A) (A) (A) (A) (A) (A) (A) (A) (A) (A) (A)
                 (A) (A) (A) (A) (A) (A) (A) (A) (A) (A) (A) (A)
                 (A) (A) (A) (A) (A) (A) (A) (A) (A) (A) (A) (A)
                 (A) (A) (A) (A) (A) (A) (A) (A) (A) (A) (A) (A)
                 (A) (A) (A) (A) (A) (A) (A) (A) (A) (A) (A) (A)
                 (A) (A) (A) (A) (A) (A) (A) (A) (A) (A) (A) (A)
                 (A) (A)
       Virtual   (A) (A) (A) (A) (A) (A) (A) (A) (A) (A) (A) (A)
                 (A) (A) (A) (A) (A) (A) (A) (A) (A) (A) (A) (A)
                 (A) (A) (A) (A) (A) (A) (A) (A) (A) (A) (A) (A)
                 (A) (A) (A) (A) (A) (A) (A) (A) (A) (A) (A) (A)
                 (A) (A) (A) (A) (A) (A) (A) (A) (A) (A) (A) (A)
                 (A) (A) (A) (A) (A) (A) (A) (A) (A) (A) (A) (A)
                 (A) (A) (A) (A) (A) (A) (A) (A) (A) (A) (A) (A)
                 (A) (A) (A) (A) (A) (A) (A) (A) (A) (A) (A) (A)
                 (A) (A) (A) (A) (A) (A) (A) (A) (A) (A) (A) (A)
                 (A) (A) (A) (A) (A) (A) (A) (A) (A) (A) (A) (A)
                 (A) (A) (A) (A) (A) (A) (A) (A) (A) (A) (A) (A)
                 (A) (A) (A) (A) (A) (A) (A) (A) (A) (A) (A) (A)
                 (A) (A) (A) (A) (A) (A) (A) (A) (A) (A) (A) (A)
                 (A) (A) (A) (A) (A) (A) (A) (A) (A) (A) (A) (A)
                 (A) (A) (A) (A) (A) (A) (A) (A) (A) (A) (A) (A)
                 (A) (A) (A) (A) (A) (A) (A) (A) (A) (A) (A) (A)
                 (A) (A) (A) (A) (A) (A) (A) (A) (A) (A) (A) (A)
                 (A) (A) (A) (A) (A) (A) (A) (A) (A) (A) (A) (A)
                 (A) (A) (A) (A) (A) (A) (A) (A) (A) (A) (A) (A)
                 (A) (A) (A) (A) (A) (A) (A) (A) (A) (A) (A) (A)
                 (A) (A) (A) (A) (A) (A) (A) (A) (A) (A) (A) (A)
                 (A) (A) (A) (A) (A) (A) (A) (A) (A) (A) (A) (A)
                 (A) (A) (A) (A) (A) (A) (A) (A) (A) (A) (A) (A)
                 (A) (A) (A) (A) (A) (A) (A) (A) (A) (A) (A) (A)
                 (A) (A) (A) (A) (A) (A) (A) (A) (A) (A) (A) (A)
                 (A) (A) (A) (A) (A) (A) (A) (A) (A) (A) (A) (A)
                 (A) (A) (A) (A) (A) (A) (A) (A) (A) (A) (A) (A)
                 (A) (A) (A) (A) (A) (A)
 The electronic state is 1-A.
 Alpha  occ. eigenvalues --  -66.13906 -19.18932 -19.14169 -19.13111 -10.31829
 Alpha  occ. eigenvalues --  -10.26795 -10.24996 -10.19957 -10.19851 -10.19679
 Alpha  occ. eigenvalues --  -10.19615 -10.18542 -10.18459 -10.17908 -10.17268
 Alpha  occ. eigenvalues --  -10.16006 -10.15812 -10.15609  -5.28067  -3.64123
 Alpha  occ. eigenvalues --   -3.63892  -3.63856  -1.09537  -1.01137  -1.00452
 Alpha  occ. eigenvalues --   -0.82647  -0.80126  -0.77373  -0.75570  -0.71220
 Alpha  occ. eigenvalues --   -0.70325  -0.69310  -0.67742  -0.67379  -0.63834
 Alpha  occ. eigenvalues --   -0.61552  -0.60016  -0.55848  -0.52303  -0.51894
 Alpha  occ. eigenvalues --   -0.49767  -0.49186  -0.47398  -0.46394  -0.44893
 Alpha  occ. eigenvalues --   -0.43998  -0.43519  -0.43089  -0.41764  -0.41440
 Alpha  occ. eigenvalues --   -0.40849  -0.40657  -0.40261  -0.40175  -0.39206
 Alpha  occ. eigenvalues --   -0.38934  -0.38537  -0.38058  -0.37807  -0.37334
 Alpha  occ. eigenvalues --   -0.36314  -0.36181  -0.35996  -0.34634  -0.34018
 Alpha  occ. eigenvalues --   -0.33383  -0.32894  -0.31778  -0.29969  -0.28898
 Alpha  occ. eigenvalues --   -0.28325  -0.27772  -0.26497  -0.25210
 Alpha virt. eigenvalues --   -0.00446   0.01518   0.06403   0.06751   0.08949
 Alpha virt. eigenvalues --    0.09168   0.09641   0.10198   0.10509   0.11661
 Alpha virt. eigenvalues --    0.12370   0.12911   0.13484   0.14117   0.14324
 Alpha virt. eigenvalues --    0.14997   0.15177   0.15903   0.16377   0.16691
 Alpha virt. eigenvalues --    0.17176   0.17525   0.18009   0.18210   0.18915
 Alpha virt. eigenvalues --    0.19223   0.19703   0.20288   0.21053   0.21628
 Alpha virt. eigenvalues --    0.22325   0.22966   0.23043   0.23835   0.24261
 Alpha virt. eigenvalues --    0.24591   0.25483   0.26702   0.27264   0.27412
 Alpha virt. eigenvalues --    0.30623   0.31039   0.33683   0.35347   0.36250
 Alpha virt. eigenvalues --    0.37502   0.37709   0.39129   0.40826   0.42675
 Alpha virt. eigenvalues --    0.46655   0.47414   0.48978   0.49745   0.50239
 Alpha virt. eigenvalues --    0.52278   0.52701   0.54396   0.55146   0.55385
 Alpha virt. eigenvalues --    0.56000   0.57028   0.58747   0.60198   0.61189
 Alpha virt. eigenvalues --    0.62641   0.63151   0.63747   0.64490   0.64696
 Alpha virt. eigenvalues --    0.65726   0.65862   0.66793   0.67407   0.68759
 Alpha virt. eigenvalues --    0.69714   0.70484   0.71637   0.72339   0.72856
 Alpha virt. eigenvalues --    0.74774   0.75181   0.75732   0.76447   0.77234
 Alpha virt. eigenvalues --    0.78676   0.80706   0.81493   0.82014   0.83199
 Alpha virt. eigenvalues --    0.83909   0.84160   0.84793   0.85360   0.85720
 Alpha virt. eigenvalues --    0.86769   0.87170   0.87515   0.88015   0.88876
 Alpha virt. eigenvalues --    0.89848   0.90008   0.90396   0.90995   0.91532
 Alpha virt. eigenvalues --    0.91840   0.92284   0.92536   0.92797   0.94036
 Alpha virt. eigenvalues --    0.94278   0.94666   0.95797   0.96953   0.97638
 Alpha virt. eigenvalues --    0.98249   0.99599   0.99976   1.00748   1.01326
 Alpha virt. eigenvalues --    1.01985   1.03198   1.05411   1.06136   1.07727
 Alpha virt. eigenvalues --    1.08500   1.10000   1.11275   1.13133   1.15715
 Alpha virt. eigenvalues --    1.17753   1.19784   1.21900   1.24017   1.26233
 Alpha virt. eigenvalues --    1.27010   1.29733   1.31717   1.34084   1.34925
 Alpha virt. eigenvalues --    1.37543   1.38706   1.39259   1.40373   1.41169
 Alpha virt. eigenvalues --    1.43247   1.44267   1.45868   1.47286   1.48498
 Alpha virt. eigenvalues --    1.49041   1.49851   1.54049   1.55290   1.55673
 Alpha virt. eigenvalues --    1.60582   1.61891   1.62322   1.63364   1.63455
 Alpha virt. eigenvalues --    1.65301   1.65681   1.69940   1.70669   1.73524
 Alpha virt. eigenvalues --    1.74682   1.75327   1.76365   1.77327   1.79150
 Alpha virt. eigenvalues --    1.80092   1.82324   1.82960   1.84370   1.85887
 Alpha virt. eigenvalues --    1.86537   1.87879   1.89932   1.90437   1.91260
 Alpha virt. eigenvalues --    1.92383   1.93920   1.95231   1.95258   1.97966
 Alpha virt. eigenvalues --    1.98550   1.99223   2.01883   2.02784   2.03105
 Alpha virt. eigenvalues --    2.03614   2.04695   2.04805   2.05244   2.05506
 Alpha virt. eigenvalues --    2.05735   2.06166   2.06599   2.07994   2.08791
 Alpha virt. eigenvalues --    2.09431   2.10377   2.10920   2.11643   2.11893
 Alpha virt. eigenvalues --    2.12764   2.13283   2.13640   2.14649   2.15017
 Alpha virt. eigenvalues --    2.16198   2.16661   2.16782   2.17906   2.19772
 Alpha virt. eigenvalues --    2.21096   2.22200   2.23427   2.27289   2.28069
 Alpha virt. eigenvalues --    2.28449   2.29910   2.30924   2.31741   2.32845
 Alpha virt. eigenvalues --    2.33829   2.34544   2.35271   2.36090   2.37466
 Alpha virt. eigenvalues --    2.38721   2.39176   2.40566   2.42030   2.42532
 Alpha virt. eigenvalues --    2.43797   2.45627   2.47542   2.49489   2.50124
 Alpha virt. eigenvalues --    2.51804   2.53277   2.54159   2.56595   2.58220
 Alpha virt. eigenvalues --    2.60091   2.61606   2.61849   2.63001   2.64225
 Alpha virt. eigenvalues --    2.65357   2.65686   2.68195   2.69167   2.69565
 Alpha virt. eigenvalues --    2.70630   2.73350   2.74289   2.74565   2.76290
 Alpha virt. eigenvalues --    2.76470   2.78422   2.80435   2.80648   2.81451
 Alpha virt. eigenvalues --    2.81736   2.82651   2.84243   2.84482   2.84998
 Alpha virt. eigenvalues --    2.85209   2.85569   2.85950   2.87625   2.88605
 Alpha virt. eigenvalues --    2.89986   2.90398   2.91016   2.93256   2.97376
 Alpha virt. eigenvalues --    2.99671   3.00152   3.04410   3.09527   3.11038
 Alpha virt. eigenvalues --    3.15709   3.16924   3.19857   3.20692   3.20878
 Alpha virt. eigenvalues --    3.21912   3.22707   3.25825   3.31565   3.33470
 Alpha virt. eigenvalues --    3.35214   3.35987   3.39477   3.43313   3.43616
 Alpha virt. eigenvalues --    3.44234   3.44462   3.45110   3.45327   3.46012
 Alpha virt. eigenvalues --    3.46374   3.46649   3.48967   3.49496   3.51642
 Alpha virt. eigenvalues --    3.54230   3.57984   3.65959   3.99532   4.09063
 Alpha virt. eigenvalues --    4.20709   4.27465   4.31426   4.39414   4.45252
 Alpha virt. eigenvalues --    4.46798   4.47709   4.51534   4.53845   4.61119
 Alpha virt. eigenvalues --    4.63070   4.65913   4.71696   4.80911   4.91004
          Condensed to atoms (all electrons):
               1          2          3          4          5          6
     1  C    4.794681   0.361253  -0.022010  -0.004969  -0.013073   0.392807
     2  C    0.361253   5.056567   0.358031  -0.067376  -0.009649  -0.040415
     3  C   -0.022010   0.358031   4.804374   0.290759  -0.013485   0.005218
     4  C   -0.004969  -0.067376   0.290759   5.326278   0.303244  -0.000601
     5  C   -0.013073  -0.009649  -0.013485   0.303244   4.355705   0.002351
     6  H    0.392807  -0.040415   0.005218  -0.000601   0.002351   0.628276
     7  H   -0.044724   0.369596  -0.043432   0.001351   0.001513  -0.008478
     8  H   -0.000035   0.004544  -0.034357   0.353788  -0.020450   0.000024
     9  H    0.000319  -0.000711  -0.020731   0.364599  -0.024833   0.000005
    10  O    0.172150  -0.032703  -0.001934  -0.097607   0.252719  -0.037441
    11  O    0.002595  -0.000675   0.002800  -0.087165   0.576434  -0.000057
    12  C    0.359414  -0.043977  -0.012334  -0.000148  -0.006167  -0.057903
    13  C   -0.040358   0.004892   0.000021  -0.000098   0.000341  -0.008233
    14  C   -0.041173   0.352517  -0.036694   0.004748   0.000296  -0.003756
    15  O   -0.005007  -0.052073   0.170104  -0.036894   0.000401  -0.000118
    16  Si  -0.000350  -0.001047  -0.013534  -0.005302   0.000202   0.000004
    17  C    0.000003   0.000003   0.001011  -0.000117  -0.000002   0.000000
    18  C   -0.000002  -0.000088  -0.001385   0.000274   0.000138   0.000000
    19  C    0.000000   0.000003  -0.001421  -0.000169  -0.000001   0.000000
    20  H    0.000000   0.000001   0.000016   0.000075  -0.000002   0.000000
    21  H    0.000001  -0.000007  -0.000363  -0.000291   0.000007   0.000000
    22  H    0.000000  -0.000003   0.000529  -0.000514  -0.000017   0.000000
    23  H    0.000000   0.000008  -0.000009   0.000004   0.000000   0.000000
    24  H    0.000000   0.000001   0.000024   0.000003   0.000000   0.000000
    25  H    0.000000   0.000008  -0.000188  -0.000024   0.000000   0.000000
    26  H    0.000001  -0.000002  -0.000044  -0.000018   0.000000   0.000000
    27  H    0.000000   0.000000  -0.000013   0.000002   0.000000   0.000000
    28  H    0.000000   0.000003  -0.000023   0.000003   0.000000   0.000000
    29  H   -0.004366  -0.030724   0.004621  -0.000131   0.000007   0.005010
    30  H   -0.006338  -0.029040  -0.008359   0.000203   0.000001  -0.000347
    31  H    0.004032  -0.026112  -0.003902   0.000002  -0.000017  -0.000141
    32  H   -0.027644  -0.003322  -0.000117   0.000070   0.000132  -0.000738
    33  H   -0.029224  -0.005181   0.001776  -0.002311   0.001201   0.005718
    34  H   -0.004864   0.000029   0.000004   0.000000  -0.000014   0.006282
    35  H   -0.007817   0.000127  -0.000014   0.000056   0.000545  -0.000141
    36  H    0.003997  -0.000138  -0.000001   0.000014  -0.000027   0.000009
    37  C    0.003656  -0.054361   0.357545  -0.050633  -0.001579  -0.000201
    38  C    0.000073  -0.003807  -0.036962  -0.002901   0.002425   0.000007
    39  C   -0.000022   0.000107  -0.003084   0.000660   0.001347   0.000001
    40  H   -0.000130   0.004820  -0.024947  -0.009668   0.000169   0.000002
    41  H    0.000062  -0.008710  -0.030639   0.005659  -0.000076   0.000000
    42  H   -0.000017  -0.000076  -0.001809  -0.000405   0.000044   0.000007
    43  H    0.000000   0.000004   0.000005  -0.000033   0.000008   0.000000
    44  H    0.000000   0.000014   0.000072  -0.000302  -0.000016   0.000000
               7          8          9         10         11         12
     1  C   -0.044724  -0.000035   0.000319   0.172150   0.002595   0.359414
     2  C    0.369596   0.004544  -0.000711  -0.032703  -0.000675  -0.043977
     3  C   -0.043432  -0.034357  -0.020731  -0.001934   0.002800  -0.012334
     4  C    0.001351   0.353788   0.364599  -0.097607  -0.087165  -0.000148
     5  C    0.001513  -0.020450  -0.024833   0.252719   0.576434  -0.006167
     6  H   -0.008478   0.000024   0.000005  -0.037441  -0.000057  -0.057903
     7  H    0.641820  -0.000157   0.000000   0.000700  -0.000401   0.006542
     8  H   -0.000157   0.573741  -0.024598   0.003495   0.002583   0.000037
     9  H    0.000000  -0.024598   0.543520   0.000070   0.000324  -0.000804
    10  O    0.000700   0.003495   0.000070   8.327575  -0.074557  -0.042599
    11  O   -0.000401   0.002583   0.000324  -0.074557   8.087252  -0.000149
    12  C    0.006542   0.000037  -0.000804  -0.042599  -0.000149   4.961772
    13  C   -0.000158  -0.000005   0.000105  -0.003200   0.000003   0.352746
    14  C   -0.035346  -0.000094  -0.000132   0.002886  -0.000002  -0.002490
    15  O    0.003677   0.002273  -0.007418   0.000002  -0.000017   0.004920
    16  Si   0.000172  -0.000130   0.001144  -0.000044  -0.000043   0.000665
    17  C    0.000000   0.000005  -0.000211   0.000000   0.000000  -0.000065
    18  C    0.000001  -0.000648   0.000138   0.000000   0.000000   0.000008
    19  C    0.000000   0.000012   0.000000   0.000000   0.000000   0.000001
    20  H    0.000000   0.000055   0.000019   0.000000   0.000000   0.000000
    21  H    0.000000   0.000246   0.001829   0.000000   0.000001  -0.000003
    22  H    0.000000   0.001516  -0.000315   0.000000  -0.000001   0.000000
    23  H    0.000000   0.000000   0.000000   0.000000   0.000000   0.000000
    24  H    0.000000   0.000000   0.000000   0.000000   0.000000   0.000000
    25  H    0.000000   0.000003  -0.000003   0.000000   0.000000   0.000000
    26  H    0.000000   0.000000  -0.000023   0.000000   0.000000  -0.000006
    27  H    0.000000   0.000000   0.000005   0.000000   0.000000   0.000001
    28  H    0.000000   0.000000   0.000001   0.000000   0.000000  -0.000001
    29  H   -0.004351   0.000002   0.000003   0.000027   0.000000  -0.000548
    30  H    0.005272  -0.000003  -0.000004   0.000001   0.000000   0.001962
    31  H   -0.004427  -0.000002   0.000001  -0.000064   0.000000   0.000090
    32  H   -0.000024  -0.000002   0.000013   0.002954   0.000001   0.375642
    33  H   -0.000088   0.000166   0.002596  -0.002716  -0.000031   0.383478
    34  H   -0.000006   0.000000  -0.000001  -0.000271   0.000000  -0.036495
    35  H   -0.000002  -0.000001   0.000039   0.007589  -0.000041  -0.033035
    36  H    0.000003   0.000000  -0.000010   0.000099   0.000000  -0.028887
    37  C   -0.007959  -0.008098   0.003252   0.000197  -0.000051   0.000207
    38  C    0.005090   0.001062   0.000236  -0.000131  -0.000463  -0.000007
    39  C    0.000261   0.003495   0.000036  -0.000007  -0.000136   0.000000
    40  H    0.000250   0.003197   0.000071  -0.000002   0.000002  -0.000002
    41  H    0.000222   0.000335  -0.000131   0.000001  -0.000001  -0.000005
    42  H    0.002530   0.000070  -0.000003  -0.000012   0.000001  -0.000001
    43  H    0.000011   0.000008   0.000000   0.000000  -0.000011   0.000000
    44  H    0.000010   0.001152  -0.000002   0.000000  -0.000022   0.000000
              13         14         15         16         17         18
     1  C   -0.040358  -0.041173  -0.005007  -0.000350   0.000003  -0.000002
     2  C    0.004892   0.352517  -0.052073  -0.001047   0.000003  -0.000088
     3  C    0.000021  -0.036694   0.170104  -0.013534   0.001011  -0.001385
     4  C   -0.000098   0.004748  -0.036894  -0.005302  -0.000117   0.000274
     5  C    0.000341   0.000296   0.000401   0.000202  -0.000002   0.000138
     6  H   -0.008233  -0.003756  -0.000118   0.000004   0.000000   0.000000
     7  H   -0.000158  -0.035346   0.003677   0.000172   0.000000   0.000001
     8  H   -0.000005  -0.000094   0.002273  -0.000130   0.000005  -0.000648
     9  H    0.000105  -0.000132  -0.007418   0.001144  -0.000211   0.000138
    10  O   -0.003200   0.002886   0.000002  -0.000044   0.000000   0.000000
    11  O    0.000003  -0.000002  -0.000017  -0.000043   0.000000   0.000000
    12  C    0.352746  -0.002490   0.004920   0.000665  -0.000065   0.000008
    13  C    4.950755   0.000008   0.000187   0.000000   0.000000   0.000000
    14  C    0.000008   4.946898  -0.004664   0.001194  -0.000025   0.000005
    15  O    0.000187  -0.004664   8.315040   0.327014  -0.019219  -0.014347
    16  Si   0.000000   0.001194   0.327014  11.847893   0.378123   0.367826
    17  C    0.000000  -0.000025  -0.019219   0.378123   5.118176  -0.031227
    18  C    0.000000   0.000005  -0.014347   0.367826  -0.031227   5.150564
    19  C    0.000000  -0.000071  -0.017681   0.371481  -0.033897  -0.034277
    20  H    0.000000   0.000000   0.000496  -0.014324  -0.000823   0.372103
    21  H    0.000000   0.000000  -0.000388  -0.027085  -0.001121   0.376968
    22  H    0.000000   0.000000  -0.000469  -0.028388   0.001471   0.374870
    23  H    0.000000   0.000012  -0.000596  -0.025308  -0.001155   0.001311
    24  H    0.000000   0.000001   0.000596  -0.013567  -0.000659  -0.000271
    25  H    0.000000  -0.000011  -0.000588  -0.026541   0.001418  -0.001611
    26  H   -0.000002   0.000001  -0.000448  -0.024985   0.375149  -0.001316
    27  H    0.000000   0.000000   0.000493  -0.014626   0.372995  -0.000734
    28  H    0.000000  -0.000006  -0.000422  -0.024332   0.376412   0.001389
    29  H   -0.000045   0.374648   0.000448  -0.000052   0.000000   0.000000
    30  H   -0.000080   0.387723   0.006121   0.001707  -0.000029   0.000003
    31  H    0.000001   0.377576  -0.000558   0.000131  -0.000001   0.000000
    32  H   -0.038755   0.000897  -0.000299   0.000225   0.000006   0.000000
    33  H   -0.043257  -0.000052   0.001926   0.001756  -0.000024  -0.000088
    34  H    0.383688  -0.000010  -0.000002   0.000003   0.000000   0.000000
    35  H    0.387454  -0.000008   0.000000   0.000002   0.000000   0.000000
    36  H    0.381431  -0.000001   0.000000  -0.000002   0.000000   0.000000
    37  C    0.000003  -0.004831  -0.031337   0.003286  -0.000055  -0.002558
    38  C    0.000000  -0.000061   0.002589  -0.000477   0.000000   0.000015
    39  C    0.000000  -0.000002  -0.000013  -0.000077   0.000000  -0.000008
    40  H    0.000000   0.000011  -0.002608   0.009128   0.000002  -0.000710
    41  H    0.000000   0.001466  -0.000840   0.000803  -0.000005   0.000098
    42  H    0.000000   0.000215  -0.000034   0.000073   0.000000  -0.000001
    43  H    0.000000   0.000000   0.000000   0.000003   0.000000   0.000000
    44  H    0.000000   0.000000  -0.000005  -0.000106   0.000000  -0.000013
              19         20         21         22         23         24
     1  C    0.000000   0.000000   0.000001   0.000000   0.000000   0.000000
     2  C    0.000003   0.000001  -0.000007  -0.000003   0.000008   0.000001
     3  C   -0.001421   0.000016  -0.000363   0.000529  -0.000009   0.000024
     4  C   -0.000169   0.000075  -0.000291  -0.000514   0.000004   0.000003
     5  C   -0.000001  -0.000002   0.000007  -0.000017   0.000000   0.000000
     6  H    0.000000   0.000000   0.000000   0.000000   0.000000   0.000000
     7  H    0.000000   0.000000   0.000000   0.000000   0.000000   0.000000
     8  H    0.000012   0.000055   0.000246   0.001516   0.000000   0.000000
     9  H    0.000000   0.000019   0.001829  -0.000315   0.000000   0.000000
    10  O    0.000000   0.000000   0.000000   0.000000   0.000000   0.000000
    11  O    0.000000   0.000000   0.000001  -0.000001   0.000000   0.000000
    12  C    0.000001   0.000000  -0.000003   0.000000   0.000000   0.000000
    13  C    0.000000   0.000000   0.000000   0.000000   0.000000   0.000000
    14  C   -0.000071   0.000000   0.000000   0.000000   0.000012   0.000001
    15  O   -0.017681   0.000496  -0.000388  -0.000469  -0.000596   0.000596
    16  Si   0.371481  -0.014324  -0.027085  -0.028388  -0.025308  -0.013567
    17  C   -0.033897  -0.000823  -0.001121   0.001471  -0.001155  -0.000659
    18  C   -0.034277   0.372103   0.376968   0.374870   0.001311  -0.000271
    19  C    5.139847  -0.000614   0.001324  -0.001527   0.378763   0.368572
    20  H   -0.000614   0.562486  -0.022600  -0.022322   0.000016   0.000107
    21  H    0.001324  -0.022600   0.574609  -0.022994  -0.000024   0.000006
    22  H   -0.001527  -0.022322  -0.022994   0.578932   0.000006  -0.000001
    23  H    0.378763   0.000016  -0.000024   0.000006   0.574776  -0.023801
    24  H    0.368572   0.000107   0.000006  -0.000001  -0.023801   0.574570
    25  H    0.375182  -0.000010   0.000005   0.000486  -0.022720  -0.023685
    26  H    0.001365  -0.000033   0.000693   0.000000   0.000005   0.000016
    27  H   -0.000440   0.000095  -0.000064   0.000003  -0.000030  -0.000004
    28  H   -0.001364   0.000010   0.000006  -0.000027   0.000584  -0.000045
    29  H    0.000000   0.000000   0.000000   0.000000   0.000000   0.000000
    30  H   -0.000041   0.000000   0.000000   0.000000   0.000007   0.000000
    31  H    0.000009   0.000000   0.000000   0.000000   0.000056   0.000000
    32  H    0.000000   0.000000   0.000000   0.000000   0.000000   0.000000
    33  H    0.000003   0.000001  -0.000030   0.000001   0.000000   0.000000
    34  H    0.000000   0.000000   0.000000   0.000000   0.000000   0.000000
    35  H    0.000000   0.000000   0.000000   0.000000   0.000000   0.000000
    36  H    0.000000   0.000000   0.000000   0.000000   0.000000   0.000000
    37  C   -0.001040   0.000039   0.000148  -0.001113  -0.000067   0.000041
    38  C    0.000091   0.000000   0.000003  -0.000007  -0.000003  -0.000001
    39  C    0.000002   0.000000   0.000000  -0.000011   0.000000   0.000000
    40  H   -0.002190  -0.000010  -0.000052   0.002888   0.000032   0.000048
    41  H   -0.000255  -0.000001  -0.000002  -0.000014   0.000241   0.000029
    42  H   -0.000002   0.000000   0.000000   0.000001   0.000000   0.000000
    43  H    0.000000   0.000000   0.000000  -0.000001   0.000000   0.000000
    44  H    0.000000   0.000000   0.000001   0.000179   0.000000   0.000000
              25         26         27         28         29         30
     1  C    0.000000   0.000001   0.000000   0.000000  -0.004366  -0.006338
     2  C    0.000008  -0.000002   0.000000   0.000003  -0.030724  -0.029040
     3  C   -0.000188  -0.000044  -0.000013  -0.000023   0.004621  -0.008359
     4  C   -0.000024  -0.000018   0.000002   0.000003  -0.000131   0.000203
     5  C    0.000000   0.000000   0.000000   0.000000   0.000007   0.000001
     6  H    0.000000   0.000000   0.000000   0.000000   0.005010  -0.000347
     7  H    0.000000   0.000000   0.000000   0.000000  -0.004351   0.005272
     8  H    0.000003   0.000000   0.000000   0.000000   0.000002  -0.000003
     9  H   -0.000003  -0.000023   0.000005   0.000001   0.000003  -0.000004
    10  O    0.000000   0.000000   0.000000   0.000000   0.000027   0.000001
    11  O    0.000000   0.000000   0.000000   0.000000   0.000000   0.000000
    12  C    0.000000  -0.000006   0.000001  -0.000001  -0.000548   0.001962
    13  C    0.000000  -0.000002   0.000000   0.000000  -0.000045  -0.000080
    14  C   -0.000011   0.000001   0.000000  -0.000006   0.374648   0.387723
    15  O   -0.000588  -0.000448   0.000493  -0.000422   0.000448   0.006121
    16  Si  -0.026541  -0.024985  -0.014626  -0.024332  -0.000052   0.001707
    17  C    0.001418   0.375149   0.372995   0.376412   0.000000  -0.000029
    18  C   -0.001611  -0.001316  -0.000734   0.001389   0.000000   0.000003
    19  C    0.375182   0.001365  -0.000440  -0.001364   0.000000  -0.000041
    20  H   -0.000010  -0.000033   0.000095   0.000010   0.000000   0.000000
    21  H    0.000005   0.000693  -0.000064   0.000006   0.000000   0.000000
    22  H    0.000486   0.000000   0.000003  -0.000027   0.000000   0.000000
    23  H   -0.022720   0.000005  -0.000030   0.000584   0.000000   0.000007
    24  H   -0.023685   0.000016  -0.000004  -0.000045   0.000000   0.000000
    25  H    0.583393  -0.000027   0.000003   0.000007   0.000000  -0.000001
    26  H   -0.000027   0.578517  -0.023429  -0.022111   0.000000  -0.000004
    27  H    0.000003  -0.023429   0.567447  -0.023719   0.000000   0.000000
    28  H    0.000007  -0.022111  -0.023719   0.574772   0.000000   0.000038
    29  H    0.000000   0.000000   0.000000   0.000000   0.613355  -0.032694
    30  H   -0.000001  -0.000004   0.000000   0.000038  -0.032694   0.567189
    31  H   -0.000014   0.000000   0.000000  -0.000001  -0.030369  -0.027940
    32  H    0.000000  -0.000001   0.000000   0.000008   0.000313   0.002857
    33  H    0.000000   0.000315   0.000001  -0.000012   0.000033   0.000056
    34  H    0.000000   0.000000   0.000000   0.000000   0.000003   0.000002
    35  H    0.000000   0.000000   0.000000   0.000000   0.000000   0.000001
    36  H    0.000000   0.000001   0.000000   0.000000   0.000000   0.000007
    37  C    0.000013   0.000002   0.000002  -0.000003  -0.000028  -0.000032
    38  C   -0.000027   0.000000   0.000000   0.000000   0.000004  -0.000007
    39  C   -0.000004   0.000000   0.000000   0.000000   0.000000   0.000000
    40  H    0.001195   0.000000   0.000001   0.000001   0.000002  -0.000008
    41  H    0.001031   0.000000   0.000000  -0.000001  -0.000087   0.000128
    42  H    0.000001   0.000000   0.000000   0.000000   0.000006  -0.000006
    43  H    0.000000   0.000000   0.000000   0.000000   0.000000   0.000000
    44  H   -0.000001   0.000000   0.000000   0.000000   0.000000   0.000000
              31         32         33         34         35         36
     1  C    0.004032  -0.027644  -0.029224  -0.004864  -0.007817   0.003997
     2  C   -0.026112  -0.003322  -0.005181   0.000029   0.000127  -0.000138
     3  C   -0.003902  -0.000117   0.001776   0.000004  -0.000014  -0.000001
     4  C    0.000002   0.000070  -0.002311   0.000000   0.000056   0.000014
     5  C   -0.000017   0.000132   0.001201  -0.000014   0.000545  -0.000027
     6  H   -0.000141  -0.000738   0.005718   0.006282  -0.000141   0.000009
     7  H   -0.004427  -0.000024  -0.000088  -0.000006  -0.000002   0.000003
     8  H   -0.000002  -0.000002   0.000166   0.000000  -0.000001   0.000000
     9  H    0.000001   0.000013   0.002596  -0.000001   0.000039  -0.000010
    10  O   -0.000064   0.002954  -0.002716  -0.000271   0.007589   0.000099
    11  O    0.000000   0.000001  -0.000031   0.000000  -0.000041   0.000000
    12  C    0.000090   0.375642   0.383478  -0.036495  -0.033035  -0.028887
    13  C    0.000001  -0.038755  -0.043257   0.383688   0.387454   0.381431
    14  C    0.377576   0.000897  -0.000052  -0.000010  -0.000008  -0.000001
[...]
    16  Si   0.367163  -0.014553  -0.025018  -0.025506  -0.024129  -0.013806
    17  C   -0.030116  -0.000603  -0.001101   0.001200  -0.001122  -0.000522
    18  C   -0.032219   0.369335   0.377685   0.376360   0.001185  -0.000266
    19  C    5.140700  -0.000441   0.001183  -0.001222   0.378677   0.367478
    20  H   -0.000441   0.568988  -0.023400  -0.023341   0.000010   0.000104
    21  H    0.001183  -0.023400   0.571568  -0.023369  -0.000020   0.000003
    22  H   -0.001222  -0.023341  -0.023369   0.573848   0.000003  -0.000017
    23  H    0.378677   0.000010  -0.000020   0.000003   0.572587  -0.024291
    24  H    0.367478   0.000104   0.000003  -0.000017  -0.024291   0.575462
    25  H    0.376737  -0.000029   0.000004   0.000390  -0.023288  -0.024004
    26  H    0.001196  -0.000029   0.000534   0.000004   0.000002   0.000011
    27  H   -0.000194   0.000067  -0.000056  -0.000001  -0.000040   0.000013
    28  H   -0.001270   0.000007   0.000000  -0.000021   0.000457  -0.000023
    29  H    0.000000   0.000000   0.000000   0.000000   0.000000   0.000000
    30  H   -0.000056   0.000000   0.000000   0.000000   0.000006   0.000000
    31  H    0.000004   0.000000   0.000000   0.000000   0.000078   0.000000
    32  H    0.000000   0.000000   0.000000   0.000000   0.000000   0.000000
    33  H    0.000003   0.000001  -0.000020   0.000000   0.000000   0.000000
    34  H    0.000000   0.000000   0.000000   0.000000   0.000000   0.000000
    35  H    0.000000   0.000000   0.000000   0.000000   0.000000   0.000000
    36  H    0.000000   0.000000   0.000000   0.000000   0.000000   0.000000
    37  C   -0.000799   0.000036   0.000118  -0.000787  -0.000091   0.000043
    38  C    0.000063   0.000000   0.000002  -0.000003  -0.000003  -0.000001
    39  C    0.000002   0.000000   0.000000  -0.000006   0.000000   0.000000
    40  H   -0.002107  -0.000017  -0.000045   0.002157   0.000041   0.000047
    41  H   -0.000084  -0.000001  -0.000001  -0.000005   0.000269   0.000027
    42  H   -0.000002   0.000000   0.000000   0.000001   0.000000   0.000000
    43  H    0.000000   0.000000   0.000000   0.000000   0.000000   0.000000
    44  H    0.000000   0.000000   0.000001   0.000125   0.000000   0.000000
              25         26         27         28         29         30
     1  C    0.000000   0.000001   0.000000   0.000000  -0.004255  -0.006358
     2  C    0.000008  -0.000001   0.000000   0.000005  -0.031449  -0.029654
     3  C   -0.000083  -0.000049  -0.000015  -0.000026   0.004672  -0.009021
     4  C   -0.000018  -0.000014   0.000001   0.000003  -0.000133   0.000214
     5  C    0.000000   0.000000   0.000000   0.000000   0.000004   0.000001
     6  H    0.000000   0.000000   0.000000   0.000000   0.004937  -0.000315
     7  H    0.000000   0.000000   0.000000   0.000000  -0.003826   0.005265
     8  H    0.000002   0.000000   0.000000   0.000000   0.000002  -0.000003
     9  H   -0.000002  -0.000021   0.000005   0.000001   0.000003  -0.000002
    10  O    0.000000   0.000000   0.000000   0.000000   0.000028  -0.000004
    11  O    0.000000   0.000000   0.000000   0.000000   0.000000   0.000000
    12  C    0.000000  -0.000006   0.000001   0.000001  -0.000670   0.001917
    13  C    0.000000  -0.000002   0.000000   0.000000  -0.000046  -0.000053
    14  C   -0.000010   0.000001   0.000000  -0.000016   0.375266   0.387669
    15  O   -0.000563  -0.000551   0.000674  -0.000594   0.000401   0.006755
    16  Si  -0.024243  -0.023040  -0.015075  -0.023512  -0.000064   0.001905
    17  C    0.001214   0.376487   0.368082   0.377522   0.000000  -0.000021
    18  C   -0.001349  -0.001348  -0.000427   0.001183   0.000000   0.000004
    19  C    0.376737   0.001196  -0.000194  -0.001270   0.000000  -0.000056
    20  H   -0.000029  -0.000029   0.000067   0.000007   0.000000   0.000000
    21  H    0.000004   0.000534  -0.000056   0.000000   0.000000   0.000000
    22  H    0.000390   0.000004  -0.000001  -0.000021   0.000000   0.000000
    23  H   -0.023288   0.000002  -0.000040   0.000457   0.000000   0.000006
    24  H   -0.024004   0.000011   0.000013  -0.000023   0.000000   0.000000
    25  H    0.575923  -0.000021   0.000002   0.000005   0.000000   0.000000
    26  H   -0.000021   0.572933  -0.024051  -0.022514   0.000000  -0.000008
    27  H    0.000002  -0.024051   0.576647  -0.024134   0.000000   0.000000
    28  H    0.000005  -0.022514  -0.024134   0.571254   0.000000   0.000179
    29  H    0.000000   0.000000   0.000000   0.000000   0.610799  -0.031134
    30  H    0.000000  -0.000008   0.000000   0.000179  -0.031134   0.565471
    31  H   -0.000011   0.000000   0.000000  -0.000003  -0.030320  -0.028691
    32  H    0.000000   0.000005   0.000000   0.000018   0.000398   0.002512
    33  H    0.000000   0.000410   0.000002  -0.000014   0.000048   0.000127
    34  H    0.000000   0.000000   0.000000   0.000000   0.000004   0.000002
    35  H    0.000000   0.000000   0.000000   0.000000   0.000000   0.000001
    36  H    0.000000   0.000001   0.000000   0.000000   0.000000   0.000006
    37  C    0.000084   0.000003   0.000002  -0.000006  -0.000017  -0.000027
    38  C   -0.000023   0.000000   0.000000   0.000000   0.000004  -0.000009
    39  C   -0.000001   0.000000   0.000000   0.000000   0.000000   0.000000
    40  H    0.000847   0.000000   0.000001   0.000001   0.000003  -0.000010
    41  H    0.000705   0.000000   0.000000  -0.000001  -0.000116   0.000140
    42  H    0.000000   0.000000   0.000000   0.000000   0.000009  -0.000005
    43  H    0.000000   0.000000   0.000000   0.000000   0.000000   0.000000
    44  H    0.000000   0.000000   0.000000   0.000000   0.000000   0.000000
              31         32         33         34         35         36
     1  C    0.004077  -0.029758  -0.031114  -0.004321  -0.007769   0.003782
     2  C   -0.025700  -0.003264  -0.005813   0.000021   0.000125  -0.000127
     3  C   -0.003595  -0.000173   0.002312   0.000004  -0.000014   0.000000
     4  C   -0.000010   0.000108  -0.002784  -0.000002   0.000085   0.000011
     5  C   -0.000018   0.000102   0.001517  -0.000010   0.000717  -0.000026
     6  H   -0.000124  -0.001809   0.005860   0.005762  -0.000171  -0.000005
     7  H   -0.004934  -0.000052  -0.000071  -0.000004  -0.000003   0.000003
     8  H   -0.000001  -0.000002   0.000131   0.000000  -0.000001   0.000000
     9  H    0.000001  -0.000007   0.002922  -0.000001   0.000010  -0.000009
    10  O   -0.000060   0.003143  -0.002570  -0.000273   0.007631   0.000118
    11  O    0.000000   0.000001  -0.000042   0.000000  -0.000060   0.000000
    12  C    0.000083   0.373083   0.381813  -0.035083  -0.033127  -0.028031
    13  C    0.000001  -0.036249  -0.038342   0.384570   0.387833   0.381358
    14  C    0.377732   0.001404  -0.000191  -0.000012  -0.000007  -0.000001
    15  O   -0.000645  -0.000243   0.003257  -0.000001   0.000000   0.000000
    16  Si   0.000168   0.000118   0.001358   0.000001   0.000001  -0.000002
    17  C   -0.000003   0.000011   0.000005   0.000000   0.000000   0.000000
    18  C    0.000000   0.000000  -0.000066   0.000000   0.000000   0.000000
    19  C    0.000004   0.000000   0.000003   0.000000   0.000000   0.000000
    20  H    0.000000   0.000000   0.000001   0.000000   0.000000   0.000000
    21  H    0.000000   0.000000  -0.000020   0.000000   0.000000   0.000000
    22  H    0.000000   0.000000   0.000000   0.000000   0.000000   0.000000
    23  H    0.000078   0.000000   0.000000   0.000000   0.000000   0.000000
    24  H    0.000000   0.000000   0.000000   0.000000   0.000000   0.000000
    25  H   -0.000011   0.000000   0.000000   0.000000   0.000000   0.000000
    26  H    0.000000   0.000005   0.000410   0.000000   0.000000   0.000001
    27  H    0.000000   0.000000   0.000002   0.000000   0.000000   0.000000
    28  H   -0.000003   0.000018  -0.000014   0.000000   0.000000   0.000000
    29  H   -0.030320   0.000398   0.000048   0.000004   0.000000   0.000000
    30  H   -0.028691   0.002512   0.000127   0.000002   0.000001   0.000006
    31  H    0.597386  -0.000025  -0.000019   0.000000   0.000000   0.000000
    32  H   -0.000025   0.614258  -0.032828  -0.004443   0.005051  -0.003276
    33  H   -0.000019  -0.032828   0.602176   0.004940  -0.003979  -0.002952
    34  H    0.000000  -0.004443   0.004940   0.604345  -0.031236  -0.031207
    35  H    0.000000   0.005051  -0.003979  -0.031236   0.585232  -0.030566
    36  H    0.000000  -0.003276  -0.002952  -0.031207  -0.030566   0.604560
    37  C    0.001429  -0.000006   0.000019   0.000000   0.000000   0.000000
    38  C   -0.000002   0.000000  -0.000004   0.000000   0.000000   0.000000
    39  C   -0.000002   0.000000   0.000000   0.000000   0.000000   0.000000
    40  H   -0.000078   0.000000   0.000005   0.000000   0.000000   0.000000
    41  H    0.003457  -0.000001  -0.000002   0.000000   0.000000   0.000000
    42  H    0.000126   0.000000   0.000000   0.000000   0.000000   0.000000
    43  H    0.000000   0.000000   0.000000   0.000000   0.000000   0.000000
    44  H    0.000000   0.000000   0.000000   0.000000   0.000000   0.000000
              37         38         39         40         41         42
     1  C    0.003949   0.000025  -0.000020  -0.000139   0.000048  -0.000042
     2  C   -0.054715  -0.003074   0.000211   0.004986  -0.009459  -0.000247
     3  C    0.363812  -0.039631  -0.003018  -0.025864  -0.033883  -0.002038
     4  C   -0.051669  -0.004206   0.000328  -0.010182   0.006241  -0.000561
     5  C   -0.001087   0.002151   0.000963   0.000160  -0.000087   0.000119
     6  H   -0.000194   0.000009   0.000001   0.000003   0.000000   0.000011
     7  H   -0.008422   0.004245   0.000194   0.000280   0.000288   0.003297
     8  H   -0.008308   0.001888   0.004250   0.003168   0.000363   0.000115
     9  H    0.003760   0.000326   0.000047   0.000083  -0.000161  -0.000007
    10  O    0.000123  -0.000113  -0.000008  -0.000002   0.000002  -0.000022
    11  O   -0.000040  -0.000340  -0.000151   0.000001   0.000000   0.000001
    12  C    0.000157  -0.000007   0.000000  -0.000002  -0.000003  -0.000002
    13  C    0.000002   0.000000   0.000000   0.000000   0.000000   0.000000
    14  C   -0.005481  -0.000035  -0.000007   0.000009   0.001856   0.000198
    15  O   -0.036402   0.003130  -0.000017  -0.003528  -0.000765  -0.000035
    16  Si   0.002201  -0.000371  -0.000095   0.009962   0.000996   0.000077
    17  C   -0.000059   0.000000   0.000000   0.000006  -0.000010   0.000000
    18  C   -0.002143   0.000006  -0.000007  -0.000301   0.000068  -0.000001
    19  C   -0.000799   0.000063   0.000002  -0.002107  -0.000084  -0.000002
    20  H    0.000036   0.000000   0.000000  -0.000017  -0.000001   0.000000
    21  H    0.000118   0.000002   0.000000  -0.000045  -0.000001   0.000000
    22  H   -0.000787  -0.000003  -0.000006   0.002157  -0.000005   0.000001
    23  H   -0.000091  -0.000003   0.000000   0.000041   0.000269   0.000000
    24  H    0.000043  -0.000001   0.000000   0.000047   0.000027   0.000000
    25  H    0.000084  -0.000023  -0.000001   0.000847   0.000705   0.000000
    26  H    0.000003   0.000000   0.000000   0.000000   0.000000   0.000000
    27  H    0.000002   0.000000   0.000000   0.000001   0.000000   0.000000
    28  H   -0.000006   0.000000   0.000000   0.000001  -0.000001   0.000000
    29  H   -0.000017   0.000004   0.000000   0.000003  -0.000116   0.000009
    30  H   -0.000027  -0.000009   0.000000  -0.000010   0.000140  -0.000005
    31  H    0.001429  -0.000002  -0.000002  -0.000078   0.003457   0.000126
    32  H   -0.000006   0.000000   0.000000   0.000000  -0.000001   0.000000
    33  H    0.000019  -0.000004   0.000000   0.000005  -0.000002   0.000000
    34  H    0.000000   0.000000   0.000000   0.000000   0.000000   0.000000
    35  H    0.000000   0.000000   0.000000   0.000000   0.000000   0.000000
    36  H    0.000000   0.000000   0.000000   0.000000   0.000000   0.000000
    37  C    5.035175   0.357164  -0.037628   0.372117   0.372531  -0.050403
    38  C    0.357164   4.810938   0.663659  -0.038302  -0.031877   0.382434
    39  C   -0.037628   0.663659   4.908436  -0.007531   0.002088  -0.042698
    40  H    0.372117  -0.038302  -0.007531   0.605597  -0.036417   0.004858
    41  H    0.372531  -0.031877   0.002088  -0.036417   0.604493  -0.003382
    42  H   -0.050403   0.382434  -0.042698   0.004858  -0.003382   0.607780
    43  H    0.004397  -0.024061   0.376824   0.000112  -0.000199  -0.008462
    44  H   -0.012204  -0.036286   0.382576   0.006460   0.000112   0.005788
              43         44
     1  C    0.000000   0.000000
     2  C    0.000005   0.000006
     3  C   -0.000010   0.000123
     4  C   -0.000027  -0.000341
     5  C    0.000003   0.000004
     6  H    0.000000   0.000000
     7  H    0.000012   0.000010
     8  H    0.000001   0.001046
     9  H    0.000000  -0.000003
    10  O    0.000000   0.000000
    11  O   -0.000006  -0.000008
    12  C    0.000000   0.000000
    13  C    0.000000   0.000000
    14  C    0.000000   0.000000
    15  O    0.000000  -0.000006
    16  Si   0.000003  -0.000100
    17  C    0.000000   0.000000
    18  C    0.000000  -0.000008
    19  C    0.000000   0.000000
    20  H    0.000000   0.000000
    21  H    0.000000   0.000001
    22  H    0.000000   0.000125
    23  H    0.000000   0.000000
    24  H    0.000000   0.000000
    25  H    0.000000   0.000000
    26  H    0.000000   0.000000
    27  H    0.000000   0.000000
    28  H    0.000000   0.000000
    29  H    0.000000   0.000000
    30  H    0.000000   0.000000
    31  H    0.000000   0.000000
    32  H    0.000000   0.000000
    33  H    0.000000   0.000000
    34  H    0.000000   0.000000
    35  H    0.000000   0.000000
    36  H    0.000000   0.000000
    37  C    0.004397  -0.012204
    38  C   -0.024061  -0.036286
    39  C    0.376824   0.382576
    40  H    0.000112   0.006460
    41  H   -0.000199   0.000112
    42  H   -0.008462   0.005788
    43  H    0.582318  -0.042424
    44  H   -0.042424   0.590823
 Mulliken charges:
               1
     1  C    0.151710
     2  C   -0.101013
     3  C    0.329448
     4  C   -0.295366
     5  C    0.586859
     6  H    0.112202
     7  H    0.109559
     8  H    0.135887
     9  H    0.159540
    10  O   -0.478405
    11  O   -0.503724
    12  C   -0.185976
    13  C   -0.326849
    14  C   -0.323543
    15  O   -0.646128
    16  Si   0.912211
    17  C   -0.533335
    18  C   -0.558456
    19  C   -0.546444
    20  H    0.123267
    21  H    0.121171
    22  H    0.119821
    23  H    0.120289
    24  H    0.119169
    25  H    0.117724
    26  H    0.120069
    27  H    0.118497
    28  H    0.121496
    29  H    0.105453
    30  H    0.133197
    31  H    0.109698
    32  H    0.111924
    33  H    0.113904
    34  H    0.106943
    35  H    0.120246
    36  H    0.106365
    37  C   -0.246632
    38  C   -0.047697
    39  C   -0.248388
    40  H    0.113623
    41  H    0.122768
    42  H    0.103094
    43  H    0.111516
    44  H    0.104307
 Sum of Mulliken charges =   0.00000
 Mulliken charges with hydrogens summed into heavy atoms:
               1
     1  C    0.263913
     2  C    0.008546
     3  C    0.329448
     4  C    0.000061
     5  C    0.586859
    10  O   -0.478405
    11  O   -0.503724
    12  C    0.039852
    13  C    0.006706
    14  C    0.024804
    15  O   -0.646128
    16  Si   0.912211
    17  C   -0.173274
    18  C   -0.194197
    19  C   -0.189262
    37  C   -0.010241
    38  C    0.055397
    39  C   -0.032566
 Electronic spatial extent (au):  <R**2>=           5239.7620
 Charge=              0.0000 electrons
 Dipole moment (field-independent basis, Debye):
    X=              4.3971    Y=             -1.7371    Z=              2.8677  Tot=              5.5295
 Quadrupole moment (field-independent basis, Debye-Ang):
   XX=           -128.0436   YY=           -116.4953   ZZ=           -119.0956
   XY=              7.2201   XZ=            -13.0602   YZ=              4.2541
 Traceless Quadrupole moment (field-independent basis, Debye-Ang):
   XX=             -6.8321   YY=              4.7162   ZZ=              2.1159
   XY=              7.2201   XZ=            -13.0602   YZ=              4.2541
 Octapole moment (field-independent basis, Debye-Ang**2):
  XXX=             53.5027  YYY=              3.6459  ZZZ=             10.9076  XYY=             -4.9014
  XXY=            -26.5348  XXZ=             27.1141  XZZ=              7.7748  YZZ=            -12.8126
  YYZ=              2.1696  XYZ=            -15.6778
 Hexadecapole moment (field-independent basis, Debye-Ang**3):
 XXXX=          -3579.6978 YYYY=          -2356.3155 ZZZZ=          -1157.4270 XXXY=             30.1393
 XXXZ=           -112.4340 YYYX=            -20.7654 YYYZ=            -26.2503 ZZZX=            -18.7161
 ZZZY=             15.5226 XXYY=          -1000.1237 XXZZ=           -807.5862 YYZZ=           -604.1036
 XXYZ=             34.2155 YYXZ=            -32.9465 ZZXY=             23.6500
 N-N= 1.638932572427D+03 E-N=-5.768318319581D+03  KE= 1.055901891694D+03
 1\1\GINC-CPU-E-611\FOpt\RB3LYP\6-31G(d,p)\C14H26O3Si1\KE291\06-Feb-201
 9\0\\# b3lyp/6-31g(d,p) Opt=(maxcycles=25) scrf=(solvent=chloroform)\\
 P_ng_4ginp006\\0,1\C,0.7160254446,1.7973192876,-0.0162573125\C,-0.3979
 671106,0.8987556056,0.5498401946\C,-1.3902225237,1.6774011151,1.460433
 3796\C,-1.5069160238,3.152553824,0.969895013\C,-1.0160144498,3.4572962
 157,-0.4321559534\H,1.2766229065,1.2060968667,-0.748916513\H,-0.966812
 0418,0.6019418564,-0.3394144035\H,-2.5302993229,3.5246958912,1.0335164
 519\H,-0.8960023452,3.7688528259,1.636952542\O,0.1088007821,2.83486846
 28,-0.8482055077\O,-1.5449370884,4.2688285663,-1.1629770297\C,1.723735
 5382,2.4023477113,0.9657578424\C,2.8219007087,3.2123978476,0.268970541
 3\C,0.1590228769,-0.3780818821,1.1888954355\O,-0.8556092522,1.66927234
 99,2.7846987358\Si,-1.46181685,2.0126535108,4.319144543\C,0.0845609176
 ,2.2435194338,5.365343778\C,-2.5035363361,3.588012493,4.3475256262\C,-
 2.4695896643,0.5673919204,4.9960160261\H,-2.8094708485,3.8019770018,5.
 3784589313\H,-1.9408350302,4.454825981,3.985643814\H,-3.4163964943,3.5
 060484618,3.7485555549\H,-1.8960946896,-0.3648368052,4.9546515395\H,-2
 .7271839481,0.7508332254,6.0458243275\H,-3.4046166108,0.4111953691,4.4
 494757079\H,0.6842040743,3.0876598901,5.0093007611\H,-0.1781519381,2.4
 359814158,6.4115517042\H,0.7159956987,1.3493117097,5.3387966847\H,0.81
 25904628,-0.9003306729,0.4823400047\H,0.7266911224,-0.1606829638,2.094
 7858429\H,-0.6474549398,-1.0655937086,1.4591085752\H,2.1765601588,1.57
 31533708,1.5209186411\H,1.2112621414,3.0174438419,1.7105824547\H,3.381
 6697046,2.5922931652,-0.4403251467\H,2.4022110917,4.0558230947,-0.2862
 795873\H,3.5333901264,3.6080522861,0.9999710155\C,-2.7936155584,1.0014
 298387,1.4627258586\C,-3.507491704,0.9578880047,0.1383218628\C,-4.6015
 100262,1.6635095006,-0.1551870155\H,-3.418784932,1.545570669,2.1790143
 786\H,-2.6701151398,-0.016124882,1.8525903518\H,-3.1012591798,0.289287
 7711,-0.6196548298\H,-5.0809483517,1.5930323774,-1.1268332064\H,-5.060
 7523555,2.3345681557,0.567289385\\Version=ES64L-G09RevD.01\State=1-A\H
 F=-1064.4208826\RMSD=3.811e-09\RMSF=3.201e-06\Dipole=0.1311677,-1.3395
 279,1.7091394\Quadrupole=6.1852125,-1.1119729,-5.0732395,0.1404832,-2.
 2129874,10.7635631\PG=C01 [X(C14H26O3Si1)]\\@


 CHILDREN YOU ARE VERY LITTLE,
 AND YOUR BONES ARE VERY BRITTLE;
 IF YOU WOULD GROW GREAT AND STATELY
 YOU MUST TRY TO WALK SEDATELY.
 YOU MUST STILL BE BRIGHT AND QUIET,
 AND CONTENT WITH SIMPLE DIET;
 AND REMAIN, THROUGH ALL BEWILD'RING
 INNOCENT AND HONEST CHILDREN.
     -- A CHILD'S GARDEN OF VERSE,
        ROBERT LOUIS STEVENSON
 Job cpu time:       0 days  2 hours 22 minutes 56.0 seconds.
 File lengths (MBytes):  RWF=    373 Int=      0 D2E=      0 Chk=     17 Scr=      1
 Normal termination of Gaussian 09 at Wed Feb  6 11:22:28 2019.
