 Entering Gaussian System, Link 0=/usr/local/Cluster-Apps/gaussian/g09/g09
 Initial command:
 /usr/local/Cluster-Apps/gaussian/g09/l1.exe "/home/ke291/rds/hpc-work/06Feb0927IP1/Gau-371754.inp" -scrdir="/home/ke291/rds/hpc-work/06Feb0927IP1/"
 Entering Link 1 = /usr/local/Cluster-Apps/gaussian/g09/l1.exe PID=    371760.
  
 Copyright (c) 1988,1990,1992,1993,1995,1998,2003,2009,2013,
            Gaussian, Inc.  All Rights Reserved.
  
 This is part of the Gaussian(R) 09 program.  It is based on
 the Gaussian(R) 03 system (copyright 2003, Gaussian, Inc.),
 the Gaussian(R) 98 system (copyright 1998, Gaussian, Inc.),
 the Gaussian(R) 94 system (copyright 1995, Gaussian, Inc.),
 the Gaussian 92(TM) system (copyright 1992, Gaussian, Inc.),
 the Gaussian 90(TM) system (copyright 1990, Gaussian, Inc.),
 the Gaussian 88(TM) system (copyright 1988, Gaussian, Inc.),
 the Gaussian 86(TM) system (copyright 1986, Carnegie Mellon
 University), and the Gaussian 82(TM) system (copyright 1983,
 Carnegie Mellon University). Gaussian is a federally registered
 trademark of Gaussian, Inc.
  
 This software contains proprietary and confidential information,
 including trade secrets, belonging to Gaussian, Inc.
  
 This software is provided under written license and may be
 used, copied, transmitted, or stored only in accord with that
 written license.
  
 The following legend is applicable only to US Government
 contracts under FAR:
  
                    RESTRICTED RIGHTS LEGEND
  
 Use, reproduction and disclosure by the US Government is
 subject to restrictions as set forth in subparagraphs (a)
 and (c) of the Commercial Computer Software - Restricted
 Rights clause in FAR 52.227-19.
  
 Gaussian, Inc.
 340 Quinnipiac St., Bldg. 40, Wallingford CT 06492
  
  
 ---------------------------------------------------------------
 Warning -- This program may not be used in any manner that
 competes with the business of Gaussian, Inc. or will provide
 assistance to any competitor of Gaussian, Inc.  The licensee
 of this program is prohibited from giving any competitor of
 Gaussian, Inc. access to this program.  By using this program,
 the user acknowledges that Gaussian, Inc. is engaged in the
 business of creating and licensing software in the field of
 computational chemistry and represents and warrants to the
 licensee that it is not a competitor of Gaussian, Inc. and that
 it will not use this program in any manner prohibited above.
 ---------------------------------------------------------------
  

 Cite this work as:
 Gaussian 09, Revision D.01,
 M. J. Frisch, G. W. Trucks, H. B. Schlegel, G. E. Scuseria, 
 M. A. Robb, J. R. Cheeseman, G. Scalmani, V. Barone, B. Mennucci, 
 G. A. Petersson, H. Nakatsuji, M. Caricato, X. Li, H. P. Hratchian, 
 A. F. Izmaylov, J. Bloino, G. Zheng, J. L. Sonnenberg, M. Hada, 
 M. Ehara, K. Toyota, R. Fukuda, J. Hasegawa, M. Ishida, T. Nakajima, 
 Y. Honda, O. Kitao, H. Nakai, T. Vreven, J. A. Montgomery, Jr., 
 J. E. Peralta, F. Ogliaro, M. Bearpark, J. J. Heyd, E. Brothers, 
 K. N. Kudin, V. N. Staroverov, T. Keith, R. Kobayashi, J. Normand, 
 K. Raghavachari, A. Rendell, J. C. Burant, S. S. Iyengar, J. Tomasi, 
 M. Cossi, N. Rega, J. M. Millam, M. Klene, J. E. Knox, J. B. Cross, 
 V. Bakken, C. Adamo, J. Jaramillo, R. Gomperts, R. E. Stratmann, 
 O. Yazyev, A. J. Austin, R. Cammi, C. Pomelli, J. W. Ochterski, 
 R. L. Martin, K. Morokuma, V. G. Zakrzewski, G. A. Voth, 
 P. Salvador, J. J. Dannenberg, S. Dapprich, A. D. Daniels, 
 O. Farkas, J. B. Foresman, J. V. Ortiz, J. Cioslowski, 
 and D. J. Fox, Gaussian, Inc., Wallingford CT, 2013.
 
 ******************************************
 Gaussian 09:  ES64L-G09RevD.01 24-Apr-2013
                 6-Feb-2019 
 ******************************************
 %nprocshared=2
 Will use up to    2 processors via shared memory.
 %mem=6000MB
 %chk=/home/ke291/rds/hpc-work/06Feb0927IP1/P_ng_correct1ginp014.chk
 ---------------------------------------------------------------
 # b3lyp/6-31g(d,p) Opt=(maxcycles=25) scrf=(solvent=chloroform)
 ---------------------------------------------------------------
 1/6=25,14=-1,18=20,19=15,26=3,38=1/1,3;
 2/9=110,12=2,17=6,18=5,40=1/2;
 3/5=1,6=6,7=101,11=2,16=1,25=1,30=1,70=2201,71=1,72=7,74=-5/1,2,3;
 4//1;
 5/5=2,38=5,53=7/2;
 6/7=2,8=2,9=2,10=2,28=1/1;
 7//1,2,3,16;
 1/6=25,14=-1,18=20,19=15,26=3/3(2);
 2/9=110/2;
 99//99;
 2/9=110/2;
 3/5=1,6=6,7=101,11=2,16=1,25=1,30=1,70=2205,71=1,72=7,74=-5/1,2,3;
 4/5=5,16=3,69=1/1;
 5/5=2,38=5,53=7/2;
 7//1,2,3,16;
 1/6=25,14=-1,18=20,19=15,26=3/3(-5);
 2/9=110/2;
 6/7=2,8=2,9=2,10=2,19=2,28=1/1;
 99/9=1/99;
 --------------------
 P_ng_correct1ginp014
 --------------------
 Symbolic Z-matrix:
 Charge =  0 Multiplicity = 1
 C                     0.92692  -0.29924   0.62733 
 C                    -0.5845   -0.43244   0.8687 
 C                    -1.03155   0.6888    1.86722 
 C                    -0.22074   1.9908    1.67139 
 C                     0.53327   2.08232   0.37553 
 H                     1.47937  -0.29545   1.57464 
 H                    -1.07602  -0.23936  -0.09103 
 H                    -0.87199   2.86836   1.7545 
 H                     0.55914   2.09796   2.43606 
 O                     1.17556   0.96328  -0.02758 
 O                     0.64234   3.13481  -0.24425 
 C                     1.55577  -1.38745  -0.25905 
 C                     0.98434  -1.46115  -1.67054 
 C                    -1.01781  -1.84166   1.289 
 O                    -2.45763   0.91559   1.82575 
 Si                   -3.43605   1.32659   0.53537 
 C                    -4.90383   2.32636   1.18435 
 C                    -2.60791   2.351    -0.79083 
 C                    -4.13657  -0.22627  -0.27266 
 H                    -3.32961   2.61932  -1.56884 
 H                    -2.20676   3.28015  -0.37702 
 H                    -1.79593   1.79958  -1.27183 
 H                    -4.86366   0.04057  -1.04531 
 H                    -3.34337  -0.81668  -0.73917 
 H                    -4.63853  -0.85016   0.47259 
 H                    -5.45838   1.74818   1.92909 
 H                    -4.55547   3.25176   1.65207 
 H                    -5.58342   2.58374   0.36682 
 H                    -0.42006  -2.21717   2.12572 
 H                    -2.07321  -1.86244   1.57879 
 H                    -0.90387  -2.55044   0.46278 
 H                     1.47145  -2.36749   0.2229 
 H                     2.62874  -1.17604  -0.35355 
 H                    -0.07594  -1.72822  -1.66512 
 H                     1.09639  -0.50846  -2.19724 
 H                     1.51538  -2.22527  -2.24755 
 C                    -0.79922   0.21355   3.35482 
 C                    -1.12027   1.24851   4.40869 
 C                    -0.25586   1.67852   5.33655 
 H                     0.2329   -0.13433   3.48206 
 H                    -1.45656  -0.63729   3.57456 
 H                    -2.13413   1.64685   4.40329 
 H                    -0.55723   2.42016   6.07078 
 H                     0.76179   1.30553   5.3923 
 

 GradGradGradGradGradGradGradGradGradGradGradGradGradGradGradGradGradGrad
 Berny optimization.
 Initialization pass.
                           ----------------------------
                           !    Initial Parameters    !
                           ! (Angstroms and Degrees)  !
 --------------------------                            --------------------------
 ! Name  Definition              Value          Derivative Info.                !
 --------------------------------------------------------------------------------
 ! R1    R(1,2)                  1.5363         estimate D2E/DX2                !
 ! R2    R(1,6)                  1.0966         estimate D2E/DX2                !
 ! R3    R(1,10)                 1.4438         estimate D2E/DX2                !
 ! R4    R(1,12)                 1.538          estimate D2E/DX2                !
 ! R5    R(2,3)                  1.5665         estimate D2E/DX2                !
 ! R6    R(2,7)                  1.0954         estimate D2E/DX2                !
 ! R7    R(2,14)                 1.5331         estimate D2E/DX2                !
 ! R8    R(3,4)                  1.5463         estimate D2E/DX2                !
 ! R9    R(3,15)                 1.4446         estimate D2E/DX2                !
 ! R10   R(3,37)                 1.5789         estimate D2E/DX2                !
 ! R11   R(4,5)                  1.5021         estimate D2E/DX2                !
 ! R12   R(4,8)                  1.096          estimate D2E/DX2                !
 ! R13   R(4,9)                  1.0975         estimate D2E/DX2                !
 ! R14   R(5,10)                 1.3518         estimate D2E/DX2                !
 ! R15   R(5,11)                 1.2263         estimate D2E/DX2                !
 ! R16   R(12,13)                1.5246         estimate D2E/DX2                !
 ! R17   R(12,32)                1.0954         estimate D2E/DX2                !
 ! R18   R(12,33)                1.0977         estimate D2E/DX2                !
 ! R19   R(13,34)                1.0934         estimate D2E/DX2                !
 ! R20   R(13,35)                1.0943         estimate D2E/DX2                !
 ! R21   R(13,36)                1.0949         estimate D2E/DX2                !
 ! R22   R(14,29)                1.0947         estimate D2E/DX2                !
 ! R23   R(14,30)                1.0947         estimate D2E/DX2                !
 ! R24   R(14,31)                1.0945         estimate D2E/DX2                !
 ! R25   R(15,16)                1.6707         estimate D2E/DX2                !
 ! R26   R(16,17)                1.8908         estimate D2E/DX2                !
 ! R27   R(16,18)                1.8692         estimate D2E/DX2                !
 ! R28   R(16,19)                1.8855         estimate D2E/DX2                !
 ! R29   R(17,26)                1.0938         estimate D2E/DX2                !
 ! R30   R(17,27)                1.0938         estimate D2E/DX2                !
 ! R31   R(17,28)                1.0938         estimate D2E/DX2                !
 ! R32   R(18,20)                1.0946         estimate D2E/DX2                !
 ! R33   R(18,21)                1.0934         estimate D2E/DX2                !
 ! R34   R(18,22)                1.093          estimate D2E/DX2                !
 ! R35   R(19,23)                1.094          estimate D2E/DX2                !
 ! R36   R(19,24)                1.0933         estimate D2E/DX2                !
 ! R37   R(19,25)                1.0939         estimate D2E/DX2                !
 ! R38   R(37,38)                1.5116         estimate D2E/DX2                !
 ! R39   R(37,40)                1.0966         estimate D2E/DX2                !
 ! R40   R(37,41)                1.0974         estimate D2E/DX2                !
 ! R41   R(38,39)                1.339          estimate D2E/DX2                !
 ! R42   R(38,42)                1.0893         estimate D2E/DX2                !
 ! R43   R(39,43)                1.0862         estimate D2E/DX2                !
 ! R44   R(39,44)                1.0853         estimate D2E/DX2                !
 ! A1    A(2,1,6)              111.1112         estimate D2E/DX2                !
 ! A2    A(2,1,10)             108.4505         estimate D2E/DX2                !
 ! A3    A(2,1,12)             115.5597         estimate D2E/DX2                !
 ! A4    A(6,1,10)             107.5805         estimate D2E/DX2                !
 ! A5    A(6,1,12)             107.1168         estimate D2E/DX2                !
 ! A6    A(10,1,12)            106.6708         estimate D2E/DX2                !
 ! A7    A(1,2,3)              108.592          estimate D2E/DX2                !
 ! A8    A(1,2,7)              106.768          estimate D2E/DX2                !
 ! A9    A(1,2,14)             113.6295         estimate D2E/DX2                !
 ! A10   A(3,2,7)              107.7122         estimate D2E/DX2                !
 ! A11   A(3,2,14)             113.7355         estimate D2E/DX2                !
 ! A12   A(7,2,14)             105.9852         estimate D2E/DX2                !
 ! A13   A(2,3,4)              111.8581         estimate D2E/DX2                !
 ! A14   A(2,3,15)             112.0727         estimate D2E/DX2                !
 ! A15   A(2,3,37)             110.0674         estimate D2E/DX2                !
 ! A16   A(4,3,15)             112.4463         estimate D2E/DX2                !
 ! A17   A(4,3,37)             107.1947         estimate D2E/DX2                !
 ! A18   A(15,3,37)            102.6833         estimate D2E/DX2                !
 ! A19   A(3,4,5)              115.0738         estimate D2E/DX2                !
 ! A20   A(3,4,8)              110.6728         estimate D2E/DX2                !
 ! A21   A(3,4,9)              111.5063         estimate D2E/DX2                !
 ! A22   A(5,4,8)              108.3562         estimate D2E/DX2                !
 ! A23   A(5,4,9)              103.7949         estimate D2E/DX2                !
 ! A24   A(8,4,9)              106.9329         estimate D2E/DX2                !
 ! A25   A(4,5,10)             116.4454         estimate D2E/DX2                !
 ! A26   A(4,5,11)             122.2068         estimate D2E/DX2                !
 ! A27   A(10,5,11)            121.1673         estimate D2E/DX2                !
 ! A28   A(1,10,5)             120.4499         estimate D2E/DX2                !
 ! A29   A(1,12,13)            114.4904         estimate D2E/DX2                !
 ! A30   A(1,12,32)            110.3652         estimate D2E/DX2                !
 ! A31   A(1,12,33)            108.2417         estimate D2E/DX2                !
 ! A32   A(13,12,32)           109.5879         estimate D2E/DX2                !
 ! A33   A(13,12,33)           107.2165         estimate D2E/DX2                !
 ! A34   A(32,12,33)           106.5853         estimate D2E/DX2                !
 ! A35   A(12,13,34)           111.7573         estimate D2E/DX2                !
 ! A36   A(12,13,35)           111.4164         estimate D2E/DX2                !
 ! A37   A(12,13,36)           109.8682         estimate D2E/DX2                !
 ! A38   A(34,13,35)           108.3192         estimate D2E/DX2                !
 ! A39   A(34,13,36)           107.605          estimate D2E/DX2                !
 ! A40   A(35,13,36)           107.7136         estimate D2E/DX2                !
 ! A41   A(2,14,29)            111.7471         estimate D2E/DX2                !
 ! A42   A(2,14,30)            111.2554         estimate D2E/DX2                !
 ! A43   A(2,14,31)            111.0314         estimate D2E/DX2                !
 ! A44   A(29,14,30)           108.5178         estimate D2E/DX2                !
 ! A45   A(29,14,31)           107.3376         estimate D2E/DX2                !
 ! A46   A(30,14,31)           106.7329         estimate D2E/DX2                !
 ! A47   A(3,15,16)            129.7107         estimate D2E/DX2                !
 ! A48   A(15,16,17)           108.6381         estimate D2E/DX2                !
 ! A49   A(15,16,18)           115.0453         estimate D2E/DX2                !
 ! A50   A(15,16,19)           110.2411         estimate D2E/DX2                !
 ! A51   A(17,16,18)           107.3173         estimate D2E/DX2                !
 ! A52   A(17,16,19)           107.1068         estimate D2E/DX2                !
 ! A53   A(18,16,19)           108.1745         estimate D2E/DX2                !
 ! A54   A(16,17,26)           110.3506         estimate D2E/DX2                !
 ! A55   A(16,17,27)           110.2959         estimate D2E/DX2                !
 ! A56   A(16,17,28)           110.4985         estimate D2E/DX2                !
 ! A57   A(26,17,27)           108.5128         estimate D2E/DX2                !
 ! A58   A(26,17,28)           108.5586         estimate D2E/DX2                !
 ! A59   A(27,17,28)           108.5653         estimate D2E/DX2                !
 ! A60   A(16,18,20)           110.2743         estimate D2E/DX2                !
 ! A61   A(16,18,21)           111.0846         estimate D2E/DX2                !
 ! A62   A(16,18,22)           111.399          estimate D2E/DX2                !
 ! A63   A(20,18,21)           107.6135         estimate D2E/DX2                !
 ! A64   A(20,18,22)           107.4977         estimate D2E/DX2                !
 ! A65   A(21,18,22)           108.8271         estimate D2E/DX2                !
 ! A66   A(16,19,23)           110.4089         estimate D2E/DX2                !
 ! A67   A(16,19,24)           110.9803         estimate D2E/DX2                !
 ! A68   A(16,19,25)           110.3801         estimate D2E/DX2                !
 ! A69   A(23,19,24)           108.2119         estimate D2E/DX2                !
 ! A70   A(23,19,25)           108.3791         estimate D2E/DX2                !
 ! A71   A(24,19,25)           108.3982         estimate D2E/DX2                !
 ! A72   A(3,37,38)            114.8065         estimate D2E/DX2                !
 ! A73   A(3,37,40)            110.079          estimate D2E/DX2                !
 ! A74   A(3,37,41)            109.5054         estimate D2E/DX2                !
 ! A75   A(38,37,40)           109.6471         estimate D2E/DX2                !
 ! A76   A(38,37,41)           105.3091         estimate D2E/DX2                !
 ! A77   A(40,37,41)           107.1325         estimate D2E/DX2                !
 ! A78   A(37,38,39)           124.4634         estimate D2E/DX2                !
 ! A79   A(37,38,42)           116.3976         estimate D2E/DX2                !
 ! A80   A(39,38,42)           119.1324         estimate D2E/DX2                !
 ! A81   A(38,39,43)           120.5657         estimate D2E/DX2                !
 ! A82   A(38,39,44)           122.0418         estimate D2E/DX2                !
 ! A83   A(43,39,44)           117.3921         estimate D2E/DX2                !
 ! D1    D(6,1,2,3)             53.6441         estimate D2E/DX2                !
 ! D2    D(6,1,2,7)            169.531          estimate D2E/DX2                !
 ! D3    D(6,1,2,14)           -73.9968         estimate D2E/DX2                !
 ! D4    D(10,1,2,3)           -64.399          estimate D2E/DX2                !
 ! D5    D(10,1,2,7)            51.4879         estimate D2E/DX2                !
 ! D6    D(10,1,2,14)          167.9601         estimate D2E/DX2                !
 ! D7    D(12,1,2,3)           175.9453         estimate D2E/DX2                !
 ! D8    D(12,1,2,7)           -68.1678         estimate D2E/DX2                !
 ! D9    D(12,1,2,14)           48.3044         estimate D2E/DX2                !
 ! D10   D(2,1,10,5)            42.5012         estimate D2E/DX2                !
 ! D11   D(6,1,10,5)           -77.7645         estimate D2E/DX2                !
 ! D12   D(12,1,10,5)          167.5796         estimate D2E/DX2                !
 ! D13   D(2,1,12,13)           60.335          estimate D2E/DX2                !
 ! D14   D(2,1,12,32)          -63.8629         estimate D2E/DX2                !
 ! D15   D(2,1,12,33)          179.8461         estimate D2E/DX2                !
 ! D16   D(6,1,12,13)         -175.26           estimate D2E/DX2                !
 ! D17   D(6,1,12,32)           60.5421         estimate D2E/DX2                !
 ! D18   D(6,1,12,33)          -55.7489         estimate D2E/DX2                !
 ! D19   D(10,1,12,13)         -60.2908         estimate D2E/DX2                !
 ! D20   D(10,1,12,32)         175.5114         estimate D2E/DX2                !
 ! D21   D(10,1,12,33)          59.2203         estimate D2E/DX2                !
 ! D22   D(1,2,3,4)             34.2126         estimate D2E/DX2                !
 ! D23   D(1,2,3,15)           161.5564         estimate D2E/DX2                !
 ! D24   D(1,2,3,37)           -84.8423         estimate D2E/DX2                !
 ! D25   D(7,2,3,4)            -81.0623         estimate D2E/DX2                !
 ! D26   D(7,2,3,15)            46.2815         estimate D2E/DX2                !
 ! D27   D(7,2,3,37)           159.8829         estimate D2E/DX2                !
 ! D28   D(14,2,3,4)           161.7931         estimate D2E/DX2                !
 ! D29   D(14,2,3,15)          -70.8631         estimate D2E/DX2                !
 ! D30   D(14,2,3,37)           42.7383         estimate D2E/DX2                !
 ! D31   D(1,2,14,29)           50.9708         estimate D2E/DX2                !
 ! D32   D(1,2,14,30)          172.4415         estimate D2E/DX2                !
 ! D33   D(1,2,14,31)          -68.8381         estimate D2E/DX2                !
 ! D34   D(3,2,14,29)          -73.9564         estimate D2E/DX2                !
 ! D35   D(3,2,14,30)           47.5142         estimate D2E/DX2                !
 ! D36   D(3,2,14,31)          166.2347         estimate D2E/DX2                !
 ! D37   D(7,2,14,29)          167.9004         estimate D2E/DX2                !
 ! D38   D(7,2,14,30)          -70.629          estimate D2E/DX2                !
 ! D39   D(7,2,14,31)           48.0914         estimate D2E/DX2                !
 ! D40   D(2,3,4,5)             16.1862         estimate D2E/DX2                !
 ! D41   D(2,3,4,8)            139.4269         estimate D2E/DX2                !
 ! D42   D(2,3,4,9)           -101.674          estimate D2E/DX2                !
 ! D43   D(15,3,4,5)          -110.9565         estimate D2E/DX2                !
 ! D44   D(15,3,4,8)            12.2842         estimate D2E/DX2                !
 ! D45   D(15,3,4,9)           131.1834         estimate D2E/DX2                !
 ! D46   D(37,3,4,5)           136.9256         estimate D2E/DX2                !
 ! D47   D(37,3,4,8)           -99.8336         estimate D2E/DX2                !
 ! D48   D(37,3,4,9)            19.0655         estimate D2E/DX2                !
 ! D49   D(2,3,15,16)          -56.9119         estimate D2E/DX2                !
 ! D50   D(4,3,15,16)           70.1162         estimate D2E/DX2                !
 ! D51   D(37,3,15,16)        -174.997          estimate D2E/DX2                !
 ! D52   D(2,3,37,38)          176.5846         estimate D2E/DX2                !
 ! D53   D(2,3,37,40)           52.2986         estimate D2E/DX2                !
 ! D54   D(2,3,37,41)          -65.232          estimate D2E/DX2                !
 ! D55   D(4,3,37,38)           54.7168         estimate D2E/DX2                !
 ! D56   D(4,3,37,40)          -69.5691         estimate D2E/DX2                !
 ! D57   D(4,3,37,41)          172.9003         estimate D2E/DX2                !
 ! D58   D(15,3,37,38)         -63.9243         estimate D2E/DX2                !
 ! D59   D(15,3,37,40)         171.7898         estimate D2E/DX2                !
 ! D60   D(15,3,37,41)          54.2592         estimate D2E/DX2                !
 ! D61   D(3,4,5,10)           -42.4003         estimate D2E/DX2                !
 ! D62   D(3,4,5,11)           142.4325         estimate D2E/DX2                !
 ! D63   D(8,4,5,10)          -166.8651         estimate D2E/DX2                !
 ! D64   D(8,4,5,11)            17.9677         estimate D2E/DX2                !
 ! D65   D(9,4,5,10)            79.7162         estimate D2E/DX2                !
 ! D66   D(9,4,5,11)           -95.451          estimate D2E/DX2                !
 ! D67   D(4,5,10,1)            11.3607         estimate D2E/DX2                !
 ! D68   D(11,5,10,1)         -173.4181         estimate D2E/DX2                !
 ! D69   D(1,12,13,34)         -63.2683         estimate D2E/DX2                !
 ! D70   D(1,12,13,35)          58.0679         estimate D2E/DX2                !
 ! D71   D(1,12,13,36)         177.3592         estimate D2E/DX2                !
 ! D72   D(32,12,13,34)         61.3421         estimate D2E/DX2                !
 ! D73   D(32,12,13,35)       -177.3216         estimate D2E/DX2                !
 ! D74   D(32,12,13,36)        -58.0304         estimate D2E/DX2                !
 ! D75   D(33,12,13,34)        176.6482         estimate D2E/DX2                !
 ! D76   D(33,12,13,35)        -62.0156         estimate D2E/DX2                !
 ! D77   D(33,12,13,36)         57.2756         estimate D2E/DX2                !
 ! D78   D(3,15,16,17)        -150.638          estimate D2E/DX2                !
 ! D79   D(3,15,16,18)         -30.3505         estimate D2E/DX2                !
 ! D80   D(3,15,16,19)          92.282          estimate D2E/DX2                !
 ! D81   D(15,16,17,26)        -58.0497         estimate D2E/DX2                !
 ! D82   D(15,16,17,27)         61.8345         estimate D2E/DX2                !
 ! D83   D(15,16,17,28)       -178.1211         estimate D2E/DX2                !
 ! D84   D(18,16,17,26)        176.9809         estimate D2E/DX2                !
 ! D85   D(18,16,17,27)        -63.1349         estimate D2E/DX2                !
 ! D86   D(18,16,17,28)         56.9095         estimate D2E/DX2                !
 ! D87   D(19,16,17,26)         61.0168         estimate D2E/DX2                !
 ! D88   D(19,16,17,27)       -179.099          estimate D2E/DX2                !
 ! D89   D(19,16,17,28)        -59.0546         estimate D2E/DX2                !
 ! D90   D(15,16,18,20)       -177.0222         estimate D2E/DX2                !
 ! D91   D(15,16,18,21)        -57.803          estimate D2E/DX2                !
 ! D92   D(15,16,18,22)         63.7017         estimate D2E/DX2                !
 ! D93   D(17,16,18,20)        -56.0114         estimate D2E/DX2                !
 ! D94   D(17,16,18,21)         63.2078         estimate D2E/DX2                !
 ! D95   D(17,16,18,22)       -175.2875         estimate D2E/DX2                !
 ! D96   D(19,16,18,20)         59.2443         estimate D2E/DX2                !
 ! D97   D(19,16,18,21)        178.4635         estimate D2E/DX2                !
 ! D98   D(19,16,18,22)        -60.0318         estimate D2E/DX2                !
 ! D99   D(15,16,19,23)        173.7056         estimate D2E/DX2                !
 ! D100  D(15,16,19,24)        -66.3063         estimate D2E/DX2                !
 ! D101  D(15,16,19,25)         53.8965         estimate D2E/DX2                !
 ! D102  D(17,16,19,23)         55.6791         estimate D2E/DX2                !
 ! D103  D(17,16,19,24)        175.6673         estimate D2E/DX2                !
 ! D104  D(17,16,19,25)        -64.13           estimate D2E/DX2                !
 ! D105  D(18,16,19,23)        -59.7143         estimate D2E/DX2                !
 ! D106  D(18,16,19,24)         60.2738         estimate D2E/DX2                !
 ! D107  D(18,16,19,25)       -179.5235         estimate D2E/DX2                !
 ! D108  D(3,37,38,39)        -123.5649         estimate D2E/DX2                !
 ! D109  D(3,37,38,42)          57.3858         estimate D2E/DX2                !
 ! D110  D(40,37,38,39)          0.9489         estimate D2E/DX2                !
 ! D111  D(40,37,38,42)       -178.1005         estimate D2E/DX2                !
 ! D112  D(41,37,38,39)        115.9116         estimate D2E/DX2                !
 ! D113  D(41,37,38,42)        -63.1377         estimate D2E/DX2                !
 ! D114  D(37,38,39,43)       -179.4673         estimate D2E/DX2                !
 ! D115  D(37,38,39,44)          0.2832         estimate D2E/DX2                !
 ! D116  D(42,38,39,43)         -0.4421         estimate D2E/DX2                !
 ! D117  D(42,38,39,44)        179.3083         estimate D2E/DX2                !
 --------------------------------------------------------------------------------
 Trust Radius=3.00D-01 FncErr=1.00D-07 GrdErr=1.00D-06
 Number of steps in this run=     25 maximum allowed number of steps=    264.
 GradGradGradGradGradGradGradGradGradGradGradGradGradGradGradGradGradGrad

                          Input orientation:                          
 ---------------------------------------------------------------------
 Center     Atomic      Atomic             Coordinates (Angstroms)
 Number     Number       Type             X           Y           Z
 ---------------------------------------------------------------------
      1          6           0        0.926917   -0.299243    0.627333
      2          6           0       -0.584495   -0.432441    0.868702
      3          6           0       -1.031546    0.688799    1.867218
      4          6           0       -0.220736    1.990801    1.671393
      5          6           0        0.533272    2.082321    0.375527
      6          1           0        1.479369   -0.295452    1.574642
      7          1           0       -1.076019   -0.239360   -0.091030
      8          1           0       -0.871987    2.868360    1.754499
      9          1           0        0.559140    2.097960    2.436058
     10          8           0        1.175562    0.963280   -0.027576
     11          8           0        0.642337    3.134811   -0.244250
     12          6           0        1.555768   -1.387450   -0.259052
     13          6           0        0.984342   -1.461145   -1.670543
     14          6           0       -1.017809   -1.841664    1.288997
     15          8           0       -2.457625    0.915585    1.825749
     16         14           0       -3.436046    1.326588    0.535365
     17          6           0       -4.903834    2.326358    1.184350
     18          6           0       -2.607905    2.350998   -0.790827
     19          6           0       -4.136575   -0.226272   -0.272664
     20          1           0       -3.329608    2.619320   -1.568838
     21          1           0       -2.206759    3.280145   -0.377015
     22          1           0       -1.795934    1.799581   -1.271834
     23          1           0       -4.863659    0.040566   -1.045313
     24          1           0       -3.343366   -0.816675   -0.739172
     25          1           0       -4.638533   -0.850160    0.472588
     26          1           0       -5.458383    1.748184    1.929090
     27          1           0       -4.555469    3.251760    1.652070
     28          1           0       -5.583418    2.583741    0.366819
     29          1           0       -0.420058   -2.217166    2.125719
     30          1           0       -2.073213   -1.862437    1.578787
     31          1           0       -0.903873   -2.550440    0.462775
     32          1           0        1.471445   -2.367490    0.222900
     33          1           0        2.628739   -1.176042   -0.353552
     34          1           0       -0.075941   -1.728223   -1.665123
     35          1           0        1.096386   -0.508459   -2.197241
     36          1           0        1.515380   -2.225274   -2.247553
     37          6           0       -0.799223    0.213551    3.354825
     38          6           0       -1.120271    1.248507    4.408693
     39          6           0       -0.255864    1.678523    5.336550
     40          1           0        0.232895   -0.134334    3.482063
     41          1           0       -1.456563   -0.637289    3.574563
     42          1           0       -2.134128    1.646849    4.403286
     43          1           0       -0.557233    2.420161    6.070775
     44          1           0        0.761788    1.305526    5.392303
 ---------------------------------------------------------------------
                    Distance matrix (angstroms):
                    1          2          3          4          5
     1  C    0.000000
     2  C    1.536349   0.000000
     3  C    2.519746   1.566546   0.000000
     4  C    2.766129   2.578514   1.546276   0.000000
     5  C    2.426975   2.795828   2.572100   1.502056   0.000000
     6  H    1.096637   2.185555   2.712756   2.850732   2.826089
     7  H    2.128705   1.095428   2.167531   2.968377   2.863162
     8  H    3.813170   3.429661   2.188299   1.095967   2.119947
     9  H    3.025447   3.188642   2.199908   1.097453   2.060753
    10  O    1.443847   2.418502   2.921799   2.427333   1.351770
    11  O    3.554345   3.933073   3.639115   2.392351   1.226276
    12  C    1.537962   2.600884   3.940308   4.277285   3.672533
    13  C    2.575568   3.157095   4.604543   4.953451   4.116554
    14  C    2.568817   1.533075   2.595722   3.933108   4.317168
    15  O    3.790400   2.498345   1.444594   2.486682   3.522766
    16  Si   4.656955   3.366993   2.821742   3.474184   4.043781
    17  C    6.418855   5.134909   4.259404   4.720298   5.502351
    18  C    4.640035   3.820439   3.508991   3.448310   3.361482
    19  C    5.143372   3.736642   3.880419   4.901894   5.249498
    20  H    5.608849   4.773939   4.562289   4.534227   4.357839
    21  H    4.862166   4.238732   3.623918   3.130922   3.083646
    22  H    3.927571   3.321355   3.416398   3.343710   2.866870
    23  H    6.036885   4.711521   4.856762   5.721944   5.942593
    24  H    4.513357   3.216250   3.795291   4.841855   4.967399
    25  H    5.594791   4.094706   4.162180   5.387497   5.946128
    26  H    6.830709   5.443742   4.552253   5.249592   6.198801
    27  H    6.611828   5.473174   4.362693   4.514455   5.375168
    28  H    7.124881   5.859904   5.153789   5.550842   6.137214
    29  H    2.781714   2.189149   2.980834   4.237113   4.738945
    30  H    3.514203   2.182977   2.770752   4.276411   4.878803
    31  H    2.906331   2.180069   3.532907   4.748716   4.851337
    32  H    2.176631   2.896267   4.278977   4.894518   4.550196
    33  H    2.151072   3.517346   4.669811   4.716864   3.942013
    34  H    2.881504   2.891011   4.385500   4.998444   4.365276
    35  H    2.837377   3.497306   4.741450   4.790349   3.694371
    36  H    3.510107   4.163505   5.648893   6.012281   5.138138
    37  C    3.268292   2.577639   1.578863   2.515394   3.760859
    38  C    4.570032   3.955272   2.603889   2.975395   4.438004
    39  C    5.242829   4.952356   3.690190   3.678604   5.039597
    40  H    2.942507   2.754387   2.209996   2.828517   3.828100
    41  H    3.805446   2.850289   2.203219   3.472201   4.646456
    42  H    5.235942   4.383845   2.926634   3.353000   4.850516
    43  H    6.263299   5.932929   4.570829   4.433074   5.808544
    44  H    5.030655   5.029510   4.002827   3.908980   5.081700
                    6          7          8          9         10
     6  H    0.000000
     7  H    3.050839   0.000000
     8  H    3.946002   3.620156   0.000000
     9  H    2.705047   3.810903   1.762431   0.000000
    10  O    2.060050   2.553426   3.316260   2.781540   0.000000
    11  O    3.971863   3.789624   2.521740   2.875071   2.246514
    12  C    2.135587   2.876221   5.297197   4.517186   2.392503
    13  C    3.483550   2.869269   5.824215   5.450890   2.934918
    14  C    2.950977   2.115477   4.735217   4.395811   3.796308
    15  O    4.126692   2.629976   2.516477   3.297174   4.078865
    16  Si   5.279433   2.900740   3.230750   4.491009   4.660024
    17  C    6.911693   4.781388   4.107874   5.609191   6.347110
    18  C    5.413405   3.089716   3.124061   4.528464   4.101577
    19  C    5.912373   3.065969   4.933931   5.898217   5.449211
    20  H    6.442330   3.928693   4.140832   5.606547   5.041281
    21  H    5.493760   3.707732   2.548438   4.118390   4.114616
    22  H    4.818630   2.463708   3.339859   4.402711   3.328268
    23  H    6.871032   3.916022   5.636383   6.764582   6.193495
    24  H    5.374401   2.427806   5.089754   5.814356   4.908698
    25  H    6.241070   3.658175   5.445875   6.289867   6.110845
    26  H    7.241166   5.218844   4.724437   6.048962   6.960879
    27  H    7.000570   5.228087   3.704798   5.301426   6.395551
    28  H    7.722147   5.338180   4.919781   6.499904   6.961699
    29  H    2.757625   3.042364   5.119045   4.435702   4.159077
    30  H    3.882821   2.533192   4.884082   4.832074   4.595609
    31  H    3.464255   2.382735   5.570724   5.257554   4.112265
    32  H    2.473987   3.334226   5.937305   5.066617   3.353254
    33  H    2.411311   3.830342   5.749448   4.773285   2.606661
    34  H    3.868837   2.386344   5.784123   5.644705   3.389986
    35  H    3.797255   3.037743   5.558205   5.343174   2.622924
    36  H    4.281902   3.912773   6.903698   6.445228   3.900083
    37  C    2.936004   3.486497   3.100701   2.498055   3.987795
    38  C    4.144126   4.739537   3.119345   2.726404   5.003268
    39  C    4.589070   5.814598   3.824449   3.041877   5.597714
    40  H    2.284275   3.806741   3.636126   2.486704   3.796175
    41  H    3.568786   3.706715   3.992986   3.583412   4.739758
    42  H    4.983083   4.987610   3.178232   3.365588   5.572598
    43  H    5.633606   6.731273   4.350884   3.815923   6.504995
    44  H    4.201498   5.985912   4.283140   3.067312   5.446414
                   11         12         13         14         15
    11  O    0.000000
    12  C    4.613612   0.000000
    13  C    4.824323   1.524554   0.000000
    14  C    5.465550   3.037444   3.593366   0.000000
    15  O    4.338159   5.075203   5.451609   3.156516   0.000000
    16  Si   4.528872   5.737186   5.672505   4.056310   1.670725
    17  C    5.783987   7.589614   7.560834   5.699522   2.895792
    18  C    3.387799   5.620939   5.311363   4.942923   2.988221
    19  C    5.842575   5.809586   5.450025   3.843823   2.919940
    20  H    4.218603   6.452646   5.938914   5.780313   3.896959
    21  H    2.855888   5.996413   5.859707   5.515626   3.241334
    22  H    2.963770   4.734638   4.303631   4.519071   3.288511
    23  H    6.366478   6.623177   6.070022   4.876716   3.846772
    24  H    5.634272   4.955584   4.473461   3.251505   3.219329
    25  H    6.654430   6.260459   6.048391   3.841776   3.115327
    26  H    6.623060   7.988647   8.047724   5.745905   3.115838
    27  H    5.534157   7.907077   7.996295   6.212071   3.144651
    28  H    6.279897   8.193293   7.977933   6.424905   3.831684
    29  H    5.948873   3.206158   4.117707   1.094720   3.749105
    30  H    5.972450   4.095457   4.479712   1.094663   2.815345
    31  H    5.934031   2.814856   3.050076   1.094526   4.035489
    32  H    5.583992   1.095384   2.154961   2.758522   5.365193
    33  H    4.747757   1.097675   2.125980   4.054421   5.915687
    34  H    5.117021   2.180742   1.093417   3.102710   4.984810
    35  H    4.158576   2.177208   1.094338   4.289652   5.553678
    36  H    5.788431   2.158174   1.094913   4.367080   6.499350
    37  C    4.854400   4.601010   5.589279   2.922214   2.362461
    38  C    5.321166   5.991435   6.980596   4.392284   2.927619
    39  C    5.837197   6.632719   7.777852   5.418022   4.213733
    40  H    4.973968   4.161278   5.373495   3.047749   3.329355
    41  H    5.763458   4.932898   5.843620   2.620465   2.543992
    42  H    5.614479   6.675305   7.501725   4.807774   2.698721
    43  H    6.467552   7.683058   8.795965   6.421891   4.888301
    44  H    5.927165   6.310336   7.588662   5.468902   4.820475
                   16         17         18         19         20
    16  Si   0.000000
    17  C    1.890800   0.000000
    18  C    1.869229   3.028733   0.000000
    19  C    1.885478   3.037679   3.040994   0.000000
    20  H    2.471873   3.184974   1.094602   3.229343   0.000000
    21  H    2.481928   3.259108   1.093377   4.003753   1.765764
    22  H    2.485892   3.996170   1.093035   3.252848   1.764182
    23  H    2.488066   3.193408   3.239025   1.094002   3.045876
    24  H    2.495318   4.001706   3.252341   1.093337   3.534770
    25  H    2.487599   3.266077   3.995883   1.093892   4.232965
    26  H    2.491999   1.093822   3.985795   3.239348   4.186414
    27  H    2.491270   1.093841   3.251480   3.997096   3.503850
    28  H    2.494002   1.093818   3.201248   3.224665   2.971143
    29  H    4.917683   6.452444   5.844744   4.850608   6.745875
    30  H    3.621591   5.070897   4.863538   3.219063   5.618916
    31  H    4.631254   6.348505   5.338477   4.048826   6.061193
    32  H    6.150391   7.975010   6.319246   6.023312   7.150434
    33  H    6.620797   8.448172   6.328796   6.832136   7.168235
    34  H    5.046219   6.918647   4.880090   4.547917   5.431091
    35  H    5.601560   7.448086   4.886335   5.582787   5.455943
    36  H    6.699028   8.584965   6.329755   6.311956   6.885104
    37  C    4.017592   5.101250   5.002643   4.948741   6.035978
    38  C    4.513489   5.086600   5.519379   5.760917   6.518526
    39  C    5.769644   6.266106   6.597656   7.081768   7.616914
    40  H    4.927317   6.141700   5.701281   5.761831   6.766509
    41  H    4.124547   5.136146   5.414063   4.706650   6.369331
    42  H    4.093699   4.300529   5.262993   5.420598   6.167750
    43  H    6.334369   6.540557   7.161817   7.749485   8.129540
    44  H    6.419665   7.130795   7.118914   7.644097   8.180652
                   21         22         23         24         25
    21  H    0.000000
    22  H    1.778074   0.000000
    23  H    4.242713   3.543499   0.000000
    24  H    4.266962   3.085947   1.771969   0.000000
    25  H    4.867727   4.259637   1.774288   1.773962   0.000000
    26  H    4.270607   4.864369   3.480909   4.262795   3.089489
    27  H    3.103938   4.274701   4.205071   4.872309   4.268937
    28  H    3.527052   4.200610   2.996650   4.219464   3.563098
    29  H    6.298921   5.437891   5.907486   4.326050   4.732555
    30  H    5.503558   4.649011   4.277138   2.842506   2.971405
    31  H    6.033115   4.767318   4.966643   3.225173   4.103503
    32  H    6.766451   5.502225   6.894972   5.149079   6.300513
    33  H    6.575728   5.410666   7.621988   5.995322   7.321335
    34  H    5.593153   3.944421   5.141500   3.516301   5.114494
    35  H    5.345794   3.814308   6.095121   4.683200   6.335143
    36  H    6.903830   5.302479   6.875431   5.278899   6.867369
    37  C    5.031082   4.991482   5.992560   4.928980   4.917222
    38  C    5.311404   5.747051   6.724452   5.975587   5.681152
    39  C    6.246280   6.786546   8.040078   7.257622   7.018558
    40  H    5.701146   5.518669   6.819280   5.574411   5.770629
    41  H    5.614628   5.435170   5.780229   4.711742   4.448876
    42  H    5.052149   5.687239   6.302199   5.828901   5.287484
    43  H    6.710775   7.472175   8.651386   8.038347   7.661051
    44  H    6.782066   7.155191   8.642261   7.677956   7.616695
                   26         27         28         29         30
    26  H    0.000000
    27  H    1.775594   0.000000
    28  H    1.776086   1.776175   0.000000
    29  H    6.414623   6.872781   7.266548   0.000000
    30  H    4.961721   5.685242   5.793005   1.777045   0.000000
    31  H    6.432092   6.958024   6.947457   1.763670   1.756755
    32  H    8.238469   8.363145   8.620121   2.687211   3.828591
    33  H    8.897364   8.674145   9.060597   4.065204   5.129661
    34  H    7.346731   7.474635   7.283826   3.837703   3.811832
    35  H    8.067468   7.803839   7.794606   4.889506   5.112534
    36  H    9.047988   9.058707   8.964067   4.782415   5.258377
    37  C    5.108384   5.122448   6.118374   2.750064   3.014480
    38  C    5.021685   4.838655   6.167599   4.208700   4.312127
    39  C    6.219473   5.876825   7.341694   5.051019   5.473750
    40  H    6.192434   6.143528   7.135977   2.569865   3.453539
    41  H    4.940913   5.331407   6.139673   2.381072   2.421645
    42  H    4.145188   4.000978   5.391515   4.801662   4.505174
    43  H    6.451851   6.016843   7.604236   6.089917   6.388802
    44  H    7.133044   6.786044   8.194569   4.947392   5.711053
                   31         32         33         34         35
    31  H    0.000000
    32  H    2.394399   0.000000
    33  H    3.877461   1.758174   0.000000
    34  H    2.426821   2.523430   3.056209   0.000000
    35  H    3.904665   3.074695   2.488566   1.773506   0.000000
    36  H    3.647519   2.474933   2.434686   1.765952   1.767920
    37  C    4.001818   4.650447   5.237743   5.430792   5.911013
    38  C    5.481706   6.108460   6.527824   6.844179   7.186018
    39  C    6.485193   6.745608   6.989044   7.788563   7.960495
    40  H    4.030622   4.140427   4.640815   5.397165   5.756742
    41  H    3.694433   4.774984   5.692981   5.527256   6.312517
    42  H    5.887138   6.825738   7.299392   7.242433   7.658233
    43  H    7.501780   7.825265   8.022161   8.791180   8.925881
    44  H    6.476353   6.381018   6.531350   7.727398   7.810485
                   36         37         38         39         40
    36  H    0.000000
    37  C    6.533903   0.000000
    38  C    7.957350   1.511570   0.000000
    39  C    8.711805   2.523612   1.339041   0.000000
    40  H    6.232600   1.096577   2.145216   2.639026   0.000000
    41  H    6.726899   1.097410   2.089280   3.147898   1.765160
    42  H    8.517388   2.221618   1.089317   2.097584   3.102267
    43  H    9.750404   3.507716   2.110048   1.086249   3.721717
    44  H    8.449961   2.789351   2.124355   1.085288   2.449886
                   41         42         43         44
    41  H    0.000000
    42  H    2.522531   0.000000
    43  H    4.048193   2.421803   0.000000
    44  H    3.464071   3.079121   1.855412   0.000000
 Stoichiometry    C14H26O3Si
 Framework group  C1[X(C14H26O3Si)]
 Deg. of freedom   126
 Full point group                 C1      NOp   1
 Largest Abelian subgroup         C1      NOp   1
 Largest concise Abelian subgroup C1      NOp   1
                         Standard orientation:                         
 ---------------------------------------------------------------------
 Center     Atomic      Atomic             Coordinates (Angstroms)
 Number     Number       Type             X           Y           Z
 ---------------------------------------------------------------------
      1          6           0       -2.308399    0.210954   -0.160024
      2          6           0       -0.973926   -0.141685   -0.834705
      3          6           0        0.144009    0.783405   -0.244368
      4          6           0       -0.100725    1.101048    1.249010
      5          6           0       -1.087648    0.202137    1.937569
      6          1           0       -2.522302    1.283234   -0.244122
      7          1           0       -0.738345   -1.172754   -0.549469
      8          1           0        0.840576    1.073786    1.809683
      9          1           0       -0.523483    2.104932    1.382782
     10          8           0       -2.207406   -0.104697    1.245273
     11          8           0       -0.938509   -0.164722    3.098141
     12          6           0       -3.540308   -0.539558   -0.693370
     13          6           0       -3.468443   -2.055516   -0.548559
     14          6           0       -1.038194   -0.131554   -2.366399
     15          8           0        1.467599    0.257861   -0.486784
     16         14           0        2.121844   -1.221464   -0.068594
     17          6           0        3.984074   -1.009729    0.181184
     18          6           0        1.433015   -1.977504    1.495994
     19          6           0        1.887620   -2.458530   -1.472102
     20          1           0        1.950695   -2.914550    1.724259
     21          1           0        1.569258   -1.307843    2.349495
     22          1           0        0.369128   -2.206332    1.393487
     23          1           0        2.410919   -3.392855   -1.248413
     24          1           0        0.828679   -2.686924   -1.619969
     25          1           0        2.287451   -2.054496   -2.406709
     26          1           0        4.447871   -0.618395   -0.728870
     27          1           0        4.180094   -0.310507    0.999203
     28          1           0        4.449495   -1.969296    0.424188
     29          1           0       -1.473787    0.797473   -2.747948
     30          1           0       -0.043431   -0.255419   -2.806160
     31          1           0       -1.652582   -0.957089   -2.739237
     32          1           0       -3.721037   -0.278968   -1.741844
     33          1           0       -4.419502   -0.200710   -0.130262
     34          1           0       -2.647584   -2.480029   -1.132972
     35          1           0       -3.335411   -2.351223    0.496637
     36          1           0       -4.398792   -2.508083   -0.906986
     37          6           0        0.171113    2.160531   -1.016119
     38          6           0        1.160292    3.169295   -0.478753
     39          6           0        0.838234    4.403581   -0.071507
     40          1           0       -0.832583    2.601839   -1.034084
     41          1           0        0.468197    1.990470   -2.058774
     42          1           0        2.202456    2.854243   -0.443409
     43          1           0        1.603417    5.081090    0.296479
     44          1           0       -0.182969    4.770125   -0.096813
 ---------------------------------------------------------------------
 Rotational constants (GHZ):      0.4003679      0.3232789      0.2655266
 Standard basis: 6-31G(d,p) (6D, 7F)
 There are   404 symmetry adapted cartesian basis functions of A   symmetry.
 There are   404 symmetry adapted basis functions of A   symmetry.
   404 basis functions,   710 primitive gaussians,   404 cartesian basis functions
    74 alpha electrons       74 beta electrons
       nuclear repulsion energy      1647.5038354118 Hartrees.
 NAtoms=   44 NActive=   44 NUniq=   44 SFac= 1.00D+00 NAtFMM=   60 NAOKFM=F Big=F
 Integral buffers will be    131072 words long.
 Raffenetti 2 integral format.
 Two-electron integral symmetry is turned on.
 ------------------------------------------------------------------------------
 Polarizable Continuum Model (PCM)
 =================================
 Model                : PCM (using non-symmetric T matrix).
 Atomic radii         : UFF (Universal Force Field).
 Polarization charges : Total charges.
 Charge compensation  : None.
 Solution method      : On-the-fly selection.
 Cavity type          : Scaled VdW (van der Waals Surface) (Alpha=1.100).
 Cavity algorithm     : GePol (No added spheres)
                        Default sphere list used, NSphG=   44.
                        Lebedev-Laikov grids with approx.  5.0 points / Ang**2.
                        Smoothing algorithm: Karplus/York (Gamma=1.0000).
                        Polarization charges: spherical gaussians, with
                                              point-specific exponents (IZeta= 3).
                        Self-potential: point-specific (ISelfS= 7).
                        Self-field    : sphere-specific E.n sum rule (ISelfD= 2).
 1st derivatives      : Analytical E(r).r(x)/FMM algorithm (CHGder, D1EAlg=3).
                        Cavity 1st derivative terms included.
 Solvent              : Chloroform, Eps=   4.711300 Eps(inf)=   2.090627
 ------------------------------------------------------------------------------
 One-electron integrals computed using PRISM.
 NBasis=   404 RedAO= T EigKep=  1.46D-03  NBF=   404
 NBsUse=   404 1.00D-06 EigRej= -1.00D+00 NBFU=   404
 ExpMin= 7.78D-02 ExpMax= 1.61D+04 ExpMxC= 2.43D+03 IAcc=2 IRadAn=         4 AccDes= 0.00D+00
 Harris functional with IExCor=  402 and IRadAn=       4 diagonalized for initial guess.
 HarFok:  IExCor=  402 AccDes= 0.00D+00 IRadAn=         4 IDoV= 1 UseB2=F ITyADJ=14
 ICtDFT=  3500011 ScaDFX=  1.000000  1.000000  1.000000  1.000000
 FoFCou: FMM=F IPFlag=           0 FMFlag=      100000 FMFlg1=           0
         NFxFlg=           0 DoJE=T BraDBF=F KetDBF=T FulRan=T
         wScrn=  0.000000 ICntrl=     500 IOpCl=  0 I1Cent=   200000004 NGrid=           0
         NMat0=    1 NMatS0=      1 NMatT0=    0 NMatD0=    1 NMtDS0=    0 NMtDT0=    0
 Petite list used in FoFCou.
 Requested convergence on RMS density matrix=1.00D-08 within 128 cycles.
 Requested convergence on MAX density matrix=1.00D-06.
 Requested convergence on             energy=1.00D-06.
 No special actions if energy rises.
 Inv3:  Mode=1 IEnd=    23992752.
 Iteration    1 A*A^-1 deviation from unit magnitude is 4.11D-15 for   2827.
 Iteration    1 A*A^-1 deviation from orthogonality  is 1.90D-15 for   2251    940.
 Iteration    1 A^-1*A deviation from unit magnitude is 4.00D-15 for   2827.
 Iteration    1 A^-1*A deviation from orthogonality  is 9.93D-13 for   2472   2466.
 Error on total polarization charges =  0.00913
 SCF Done:  E(RB3LYP) =  -1064.41467777     A.U. after   13 cycles
            NFock= 13  Conv=0.52D-08     -V/T= 2.0081

 **********************************************************************

            Population analysis using the SCF density.

 **********************************************************************

 Orbital symmetries:
       Occupied  (A) (A) (A) (A) (A) (A) (A) (A) (A) (A) (A) (A)
                 (A) (A) (A) (A) (A) (A) (A) (A) (A) (A) (A) (A)
                 (A) (A) (A) (A) (A) (A) (A) (A) (A) (A) (A) (A)
                 (A) (A) (A) (A) (A) (A) (A) (A) (A) (A) (A) (A)
                 (A) (A) (A) (A) (A) (A) (A) (A) (A) (A) (A) (A)
                 (A) (A) (A) (A) (A) (A) (A) (A) (A) (A) (A) (A)
                 (A) (A)
       Virtual   (A) (A) (A) (A) (A) (A) (A) (A) (A) (A) (A) (A)
                 (A) (A) (A) (A) (A) (A) (A) (A) (A) (A) (A) (A)
                 (A) (A) (A) (A) (A) (A) (A) (A) (A) (A) (A) (A)
                 (A) (A) (A) (A) (A) (A) (A) (A) (A) (A) (A) (A)
                 (A) (A) (A) (A) (A) (A) (A) (A) (A) (A) (A) (A)
                 (A) (A) (A) (A) (A) (A) (A) (A) (A) (A) (A) (A)
                 (A) (A) (A) (A) (A) (A) (A) (A) (A) (A) (A) (A)
                 (A) (A) (A) (A) (A) (A) (A) (A) (A) (A) (A) (A)
                 (A) (A) (A) (A) (A) (A) (A) (A) (A) (A) (A) (A)
                 (A) (A) (A) (A) (A) (A) (A) (A) (A) (A) (A) (A)
                 (A) (A) (A) (A) (A) (A) (A) (A) (A) (A) (A) (A)
                 (A) (A) (A) (A) (A) (A) (A) (A) (A) (A) (A) (A)
                 (A) (A) (A) (A) (A) (A) (A) (A) (A) (A) (A) (A)
                 (A) (A) (A) (A) (A) (A) (A) (A) (A) (A) (A) (A)
                 (A) (A) (A) (A) (A) (A) (A) (A) (A) (A) (A) (A)
                 (A) (A) (A) (A) (A) (A) (A) (A) (A) (A) (A) (A)
                 (A) (A) (A) (A) (A) (A) (A) (A) (A) (A) (A) (A)
                 (A) (A) (A) (A) (A) (A) (A) (A) (A) (A) (A) (A)
                 (A) (A) (A) (A) (A) (A) (A) (A) (A) (A) (A) (A)
                 (A) (A) (A) (A) (A) (A) (A) (A) (A) (A) (A) (A)
                 (A) (A) (A) (A) (A) (A) (A) (A) (A) (A) (A) (A)
                 (A) (A) (A) (A) (A) (A) (A) (A) (A) (A) (A) (A)
                 (A) (A) (A) (A) (A) (A) (A) (A) (A) (A) (A) (A)
                 (A) (A) (A) (A) (A) (A) (A) (A) (A) (A) (A) (A)
                 (A) (A) (A) (A) (A) (A) (A) (A) (A) (A) (A) (A)
                 (A) (A) (A) (A) (A) (A) (A) (A) (A) (A) (A) (A)
                 (A) (A) (A) (A) (A) (A) (A) (A) (A) (A) (A) (A)
                 (A) (A) (A) (A) (A) (A)
 The electronic state is 1-A.
 Alpha  occ. eigenvalues --  -66.13718 -19.19340 -19.14414 -19.13213 -10.31885
 Alpha  occ. eigenvalues --  -10.26893 -10.25768 -10.20711 -10.20076 -10.19233
 Alpha  occ. eigenvalues --  -10.19095 -10.19068 -10.18480 -10.17971 -10.17628
 Alpha  occ. eigenvalues --  -10.15589 -10.15560 -10.15527  -5.27905  -3.63961
 Alpha  occ. eigenvalues --   -3.63724  -3.63695  -1.09962  -1.01358  -1.00709
 Alpha  occ. eigenvalues --   -0.83106  -0.80374  -0.77459  -0.75189  -0.71276
 Alpha  occ. eigenvalues --   -0.70217  -0.69480  -0.67444  -0.67229  -0.64865
 Alpha  occ. eigenvalues --   -0.60681  -0.59984  -0.56167  -0.53937  -0.51664
 Alpha  occ. eigenvalues --   -0.50654  -0.48922  -0.46750  -0.46449  -0.44746
 Alpha  occ. eigenvalues --   -0.44169  -0.43683  -0.42836  -0.42505  -0.41409
 Alpha  occ. eigenvalues --   -0.40968  -0.40604  -0.40324  -0.39947  -0.39173
 Alpha  occ. eigenvalues --   -0.38753  -0.38548  -0.38092  -0.37640  -0.37063
 Alpha  occ. eigenvalues --   -0.36748  -0.36388  -0.35746  -0.34934  -0.34452
 Alpha  occ. eigenvalues --   -0.34023  -0.33339  -0.31468  -0.30495  -0.29251
 Alpha  occ. eigenvalues --   -0.28571  -0.26754  -0.26390  -0.25365
 Alpha virt. eigenvalues --    0.00406   0.01645   0.06116   0.06759   0.08261
 Alpha virt. eigenvalues --    0.08561   0.10022   0.10527   0.10974   0.12239
 Alpha virt. eigenvalues --    0.12467   0.12693   0.13204   0.14104   0.14596
 Alpha virt. eigenvalues --    0.14961   0.15287   0.15928   0.16169   0.16661
 Alpha virt. eigenvalues --    0.17031   0.17115   0.18102   0.18393   0.18727
 Alpha virt. eigenvalues --    0.19232   0.19637   0.19936   0.20689   0.21271
 Alpha virt. eigenvalues --    0.21786   0.21823   0.22408   0.23109   0.23637
 Alpha virt. eigenvalues --    0.24173   0.25211   0.26528   0.27074   0.28852
 Alpha virt. eigenvalues --    0.30876   0.31296   0.32191   0.34909   0.37323
 Alpha virt. eigenvalues --    0.37553   0.38426   0.38990   0.41016   0.43045
 Alpha virt. eigenvalues --    0.45246   0.46919   0.48768   0.50418   0.51057
 Alpha virt. eigenvalues --    0.52436   0.53839   0.54337   0.55454   0.56149
 Alpha virt. eigenvalues --    0.57331   0.57861   0.58057   0.59273   0.60622
 Alpha virt. eigenvalues --    0.60732   0.62257   0.63041   0.64412   0.65024
 Alpha virt. eigenvalues --    0.65873   0.66193   0.66789   0.67648   0.69112
 Alpha virt. eigenvalues --    0.69345   0.70504   0.71522   0.72263   0.73431
 Alpha virt. eigenvalues --    0.74162   0.75756   0.75836   0.76558   0.77512
 Alpha virt. eigenvalues --    0.79311   0.80811   0.81792   0.82900   0.83186
 Alpha virt. eigenvalues --    0.83567   0.84164   0.84671   0.84927   0.85826
 Alpha virt. eigenvalues --    0.86481   0.87184   0.87520   0.88292   0.88354
 Alpha virt. eigenvalues --    0.89079   0.89428   0.89985   0.90948   0.91166
 Alpha virt. eigenvalues --    0.91557   0.92062   0.92640   0.93225   0.93711
 Alpha virt. eigenvalues --    0.94416   0.94861   0.96010   0.97064   0.97580
 Alpha virt. eigenvalues --    0.98195   0.99440   1.00290   1.01502   1.02252
 Alpha virt. eigenvalues --    1.03543   1.04316   1.05554   1.06544   1.07961
 Alpha virt. eigenvalues --    1.09791   1.11075   1.12220   1.13283   1.16528
 Alpha virt. eigenvalues --    1.19294   1.20475   1.21997   1.23411   1.24350
 Alpha virt. eigenvalues --    1.29060   1.30147   1.31073   1.31603   1.33734
 Alpha virt. eigenvalues --    1.35375   1.38192   1.39379   1.42610   1.42811
 Alpha virt. eigenvalues --    1.44041   1.44683   1.46220   1.47157   1.47463
 Alpha virt. eigenvalues --    1.48636   1.49951   1.51855   1.54289   1.55236
 Alpha virt. eigenvalues --    1.57673   1.58234   1.61386   1.62861   1.64017
 Alpha virt. eigenvalues --    1.65552   1.67081   1.68243   1.72159   1.72858
 Alpha virt. eigenvalues --    1.74239   1.75168   1.77468   1.79076   1.81036
 Alpha virt. eigenvalues --    1.81968   1.82429   1.83748   1.84765   1.84895
 Alpha virt. eigenvalues --    1.85357   1.86504   1.88372   1.89142   1.90590
 Alpha virt. eigenvalues --    1.92543   1.93498   1.94217   1.95906   1.97859
 Alpha virt. eigenvalues --    1.98719   1.99008   2.00544   2.02025   2.03293
 Alpha virt. eigenvalues --    2.04440   2.04940   2.05018   2.05207   2.05630
 Alpha virt. eigenvalues --    2.06398   2.07238   2.07927   2.08771   2.09037
 Alpha virt. eigenvalues --    2.09309   2.10224   2.11294   2.11369   2.12196
 Alpha virt. eigenvalues --    2.12683   2.13544   2.13894   2.14403   2.15035
 Alpha virt. eigenvalues --    2.16663   2.16873   2.17847   2.18537   2.20022
 Alpha virt. eigenvalues --    2.21453   2.21663   2.23458   2.25122   2.25340
 Alpha virt. eigenvalues --    2.28152   2.29533   2.31567   2.32423   2.33897
 Alpha virt. eigenvalues --    2.34709   2.35305   2.36535   2.37212   2.37997
 Alpha virt. eigenvalues --    2.38457   2.38944   2.39785   2.40483   2.42349
 Alpha virt. eigenvalues --    2.43001   2.44880   2.47292   2.48170   2.49400
 Alpha virt. eigenvalues --    2.52877   2.54552   2.55860   2.56906   2.57843
 Alpha virt. eigenvalues --    2.59736   2.60765   2.62002   2.63930   2.64318
 Alpha virt. eigenvalues --    2.64749   2.66776   2.67095   2.68520   2.68941
 Alpha virt. eigenvalues --    2.69698   2.71612   2.72667   2.74089   2.75276
 Alpha virt. eigenvalues --    2.76779   2.78900   2.79093   2.81986   2.82053
 Alpha virt. eigenvalues --    2.82621   2.83842   2.84045   2.85232   2.85288
 Alpha virt. eigenvalues --    2.85547   2.85815   2.86904   2.87555   2.88552
 Alpha virt. eigenvalues --    2.90304   2.91526   2.92574   2.94116   2.95656
 Alpha virt. eigenvalues --    2.97642   3.01276   3.02889   3.09190   3.09862
 Alpha virt. eigenvalues --    3.16077   3.16802   3.20072   3.21075   3.21558
 Alpha virt. eigenvalues --    3.21996   3.23183   3.25738   3.30892   3.31343
 Alpha virt. eigenvalues --    3.34973   3.35755   3.40190   3.43188   3.43487
 Alpha virt. eigenvalues --    3.44197   3.44733   3.44783   3.45045   3.46031
 Alpha virt. eigenvalues --    3.46789   3.47653   3.48809   3.48894   3.50518
 Alpha virt. eigenvalues --    3.54365   3.55518   3.66619   4.04438   4.13162
 Alpha virt. eigenvalues --    4.22977   4.25877   4.37331   4.39519   4.44346
 Alpha virt. eigenvalues --    4.45843   4.46835   4.48429   4.53980   4.60662
 Alpha virt. eigenvalues --    4.61460   4.64190   4.72152   4.77725   4.89711
          Condensed to atoms (all electrons):
               1          2          3          4          5          6
     1  C    4.837345   0.320221  -0.028724  -0.006593  -0.013980   0.381278
     2  C    0.320221   5.080438   0.364832  -0.068620  -0.005574  -0.053779
     3  C   -0.028724   0.364832   4.794371   0.282781  -0.016607  -0.007750
     4  C   -0.006593  -0.068620   0.282781   5.338881   0.304413   0.001271
     5  C   -0.013980  -0.005574  -0.016607   0.304413   4.364155  -0.005020
     6  H    0.381278  -0.053779  -0.007750   0.001271  -0.005020   0.637996
     7  H   -0.039627   0.373297  -0.041420  -0.003097   0.001550   0.006578
     8  H    0.000187   0.003388  -0.022831   0.360619  -0.022667  -0.000072
     9  H    0.000724   0.001788  -0.027240   0.358046  -0.027532   0.000385
    10  O    0.157929  -0.035696  -0.000228  -0.094111   0.251054  -0.034985
    11  O    0.002939  -0.000460   0.002963  -0.086324   0.561904  -0.000138
    12  C    0.375457  -0.033652   0.003847  -0.000320   0.002176  -0.046420
    13  C   -0.040477  -0.008825   0.000072  -0.000043   0.000060   0.005440
    14  C   -0.038223   0.344497  -0.033809   0.005147   0.000193  -0.000784
    15  O    0.002449  -0.033103   0.203927  -0.041536   0.000183   0.000030
    16  Si  -0.000334   0.000454  -0.011019  -0.003643  -0.000587   0.000062
    17  C    0.000000  -0.000046   0.000923  -0.000082   0.000002   0.000000
    18  C   -0.000045  -0.001795  -0.001574   0.000844  -0.000111  -0.000006
    19  C    0.000035  -0.000727  -0.000801  -0.000141  -0.000008  -0.000001
    20  H    0.000000   0.000036  -0.000004   0.000030   0.000044   0.000000
    21  H    0.000002   0.000132  -0.000157  -0.001614   0.000691   0.000000
    22  H   -0.000079  -0.000769   0.000071  -0.000190   0.003293   0.000004
    23  H    0.000000   0.000025   0.000011   0.000002   0.000000   0.000000
    24  H    0.000004  -0.000875  -0.000099  -0.000016  -0.000004   0.000000
    25  H   -0.000002   0.000001  -0.000023  -0.000001   0.000000   0.000000
    26  H    0.000000  -0.000003  -0.000020   0.000003   0.000000   0.000000
    27  H    0.000000   0.000001  -0.000040  -0.000023   0.000000   0.000000
    28  H    0.000000   0.000001  -0.000009   0.000000   0.000000   0.000000
    29  H   -0.005304  -0.033265  -0.007154  -0.000037   0.000012   0.003139
    30  H    0.004393  -0.027020  -0.005934   0.000185  -0.000023  -0.000141
    31  H   -0.004885  -0.026692   0.004409  -0.000152   0.000009  -0.000104
    32  H   -0.027735  -0.006418  -0.000050   0.000035  -0.000051   0.000156
    33  H   -0.029216   0.005345  -0.000090   0.000028  -0.000069  -0.005843
    34  H   -0.006283   0.004076   0.000031   0.000008  -0.000035  -0.000064
    35  H   -0.007511  -0.000805  -0.000045   0.000084   0.000316   0.000237
    36  H    0.004600   0.000108  -0.000002   0.000000   0.000000  -0.000130
    37  C   -0.004570  -0.048490   0.344152  -0.049234   0.001667   0.002654
    38  C    0.000033   0.004507  -0.035908  -0.009419   0.000649  -0.000112
    39  C    0.000000  -0.000097  -0.001479   0.000351   0.000113  -0.000034
    40  H   -0.000357  -0.000618  -0.031732  -0.002500  -0.000144   0.004654
    41  H    0.000342  -0.010916  -0.025806   0.005006  -0.000010  -0.000081
    42  H   -0.000008   0.000136  -0.003975  -0.000602  -0.000004   0.000003
    43  H    0.000000   0.000003  -0.000067  -0.000005   0.000000   0.000000
    44  H   -0.000006  -0.000008   0.000137  -0.000124  -0.000002   0.000014
               7          8          9         10         11         12
     1  C   -0.039627   0.000187   0.000724   0.157929   0.002939   0.375457
     2  C    0.373297   0.003388   0.001788  -0.035696  -0.000460  -0.033652
     3  C   -0.041420  -0.022831  -0.027240  -0.000228   0.002963   0.003847
     4  C   -0.003097   0.360619   0.358046  -0.094111  -0.086324  -0.000320
     5  C    0.001550  -0.022667  -0.027532   0.251054   0.561904   0.002176
     6  H    0.006578  -0.000072   0.000385  -0.034985  -0.000138  -0.046420
     7  H    0.623517  -0.000063  -0.000098  -0.000751  -0.000370  -0.008747
     8  H   -0.000063   0.538370  -0.018902   0.003202   0.001902   0.000006
     9  H   -0.000098  -0.018902   0.550184  -0.000164   0.000468   0.000033
    10  O   -0.000751   0.003202  -0.000164   8.339734  -0.073555  -0.045749
    11  O   -0.000370   0.001902   0.000468  -0.073555   8.104040  -0.000067
    12  C   -0.008747   0.000006   0.000033  -0.045749  -0.000067   4.938080
    13  C    0.004786   0.000000   0.000000  -0.003662  -0.000017   0.363402
    14  C   -0.042393  -0.000091  -0.000129   0.003040  -0.000002  -0.003189
    15  O   -0.005380  -0.003338   0.002504  -0.000007   0.000003  -0.000040
    16  Si   0.008975   0.003164   0.000042  -0.000587  -0.000966  -0.000032
    17  C   -0.000008  -0.000232   0.000000   0.000000   0.000000   0.000000
    18  C   -0.000723  -0.000482   0.000055  -0.000315  -0.001764   0.000008
    19  C   -0.000683   0.000009   0.000001   0.000002   0.000000   0.000002
    20  H    0.000001   0.000004  -0.000001   0.000001   0.000101   0.000000
    21  H   -0.000050   0.001774   0.000033   0.000054   0.004118   0.000000
    22  H    0.002073  -0.000178   0.000009   0.000423   0.000057  -0.000024
    23  H   -0.000002   0.000000   0.000000   0.000000   0.000000   0.000000
    24  H    0.001199  -0.000001   0.000000   0.000000   0.000000  -0.000003
    25  H    0.000070   0.000000   0.000000   0.000000   0.000000   0.000000
    26  H    0.000001   0.000000   0.000000   0.000000   0.000000   0.000000
    27  H    0.000000   0.000017   0.000000   0.000000   0.000000   0.000000
    28  H    0.000002   0.000005   0.000000   0.000000   0.000000   0.000000
    29  H    0.005587  -0.000001  -0.000009   0.000005   0.000000  -0.001723
    30  H   -0.002863  -0.000002  -0.000006  -0.000056   0.000000   0.000110
    31  H   -0.006892   0.000002   0.000003   0.000009   0.000000   0.001826
    32  H    0.000373   0.000000  -0.000001   0.002873   0.000001   0.377126
    33  H   -0.000067   0.000000  -0.000004   0.000542  -0.000004   0.379169
    34  H    0.000305   0.000000   0.000000  -0.000190   0.000000  -0.037027
    35  H    0.000760  -0.000001   0.000000   0.008406   0.000011  -0.035186
    36  H   -0.000116   0.000000   0.000000   0.000140   0.000000  -0.028577
    37  C    0.005043  -0.000413  -0.011529  -0.000093  -0.000068  -0.000076
    38  C   -0.000097   0.001346   0.004534  -0.000008  -0.000002   0.000001
    39  C    0.000000  -0.000149   0.004474   0.000000   0.000000   0.000000
    40  H    0.000009   0.000096   0.000788  -0.000037   0.000002  -0.000088
    41  H   -0.000052  -0.000211   0.000678  -0.000007   0.000001  -0.000006
    42  H    0.000002   0.000407   0.000203   0.000000   0.000000   0.000000
    43  H    0.000000   0.000003  -0.000021   0.000000   0.000000   0.000000
    44  H    0.000000   0.000007   0.000489   0.000000   0.000000   0.000000
              13         14         15         16         17         18
     1  C   -0.040477  -0.038223   0.002449  -0.000334   0.000000  -0.000045
     2  C   -0.008825   0.344497  -0.033103   0.000454  -0.000046  -0.001795
     3  C    0.000072  -0.033809   0.203927  -0.011019   0.000923  -0.001574
     4  C   -0.000043   0.005147  -0.041536  -0.003643  -0.000082   0.000844
     5  C    0.000060   0.000193   0.000183  -0.000587   0.000002  -0.000111
     6  H    0.005440  -0.000784   0.000030   0.000062   0.000000  -0.000006
     7  H    0.004786  -0.042393  -0.005380   0.008975  -0.000008  -0.000723
     8  H    0.000000  -0.000091  -0.003338   0.003164  -0.000232  -0.000482
     9  H    0.000000  -0.000129   0.002504   0.000042   0.000000   0.000055
    10  O   -0.003662   0.003040  -0.000007  -0.000587   0.000000  -0.000315
    11  O   -0.000017  -0.000002   0.000003  -0.000966   0.000000  -0.001764
    12  C    0.363402  -0.003189  -0.000040  -0.000032   0.000000   0.000008
    13  C    4.932872  -0.002654   0.000000  -0.000097   0.000000  -0.000010
    14  C   -0.002654   4.971747  -0.002110  -0.000644   0.000000   0.000059
    15  O    0.000000  -0.002110   8.274372   0.335346  -0.020238  -0.013339
    16  Si  -0.000097  -0.000644   0.335346  11.861353   0.375782   0.370368
    17  C    0.000000   0.000000  -0.020238   0.375782   5.121038  -0.031456
    18  C   -0.000010   0.000059  -0.013339   0.370368  -0.031456   5.156111
    19  C   -0.000010  -0.000332  -0.018915   0.367576  -0.034697  -0.034795
    20  H    0.000000  -0.000001   0.000480  -0.013324  -0.001098   0.370664
    21  H    0.000000  -0.000002  -0.000495  -0.027447  -0.001035   0.376887
    22  H    0.000054   0.000021  -0.000343  -0.028250   0.001467   0.374850
    23  H    0.000000   0.000017   0.000600  -0.013715  -0.000437  -0.000436
    24  H   -0.000011   0.000515  -0.000581  -0.028461   0.001407  -0.001526
    25  H    0.000000  -0.000103  -0.000701  -0.026575  -0.001239   0.001345
    26  H    0.000000   0.000000  -0.000535  -0.024601   0.376219   0.001394
    27  H    0.000000   0.000000  -0.000463  -0.024794   0.375487  -0.001270
    28  H    0.000000   0.000000   0.000502  -0.014507   0.372753  -0.000856
    29  H    0.000214   0.385582   0.000016   0.000080   0.000000  -0.000001
    30  H   -0.000006   0.379398   0.005159   0.000816  -0.000005   0.000007
    31  H    0.000263   0.378663  -0.000008  -0.000320   0.000000   0.000002
    32  H   -0.036317   0.003449   0.000000  -0.000006   0.000000   0.000000
    33  H   -0.041956  -0.000034   0.000000   0.000001   0.000000   0.000000
    34  H    0.385761  -0.000706   0.000002   0.000001   0.000000  -0.000008
    35  H    0.389720   0.000163   0.000000  -0.000039   0.000000  -0.000007
    36  H    0.382366   0.000042   0.000000   0.000004   0.000000   0.000000
    37  C    0.000000  -0.010882  -0.064249  -0.001024   0.000003  -0.000018
    38  C    0.000000   0.000279   0.000299   0.000296  -0.000035  -0.000005
    39  C    0.000000   0.000004   0.000411   0.000032   0.000000   0.000000
    40  H    0.000002  -0.001395   0.003673   0.000121   0.000000   0.000002
    41  H    0.000000   0.004292  -0.000263   0.000762  -0.000007   0.000004
    42  H    0.000000  -0.000016   0.006279   0.001130   0.000007   0.000002
    43  H    0.000000   0.000000   0.000002  -0.000002   0.000000   0.000000
    44  H    0.000000  -0.000001  -0.000002   0.000005   0.000000   0.000000
              19         20         21         22         23         24
     1  C    0.000035   0.000000   0.000002  -0.000079   0.000000   0.000004
     2  C   -0.000727   0.000036   0.000132  -0.000769   0.000025  -0.000875
     3  C   -0.000801  -0.000004  -0.000157   0.000071   0.000011  -0.000099
     4  C   -0.000141   0.000030  -0.001614  -0.000190   0.000002  -0.000016
     5  C   -0.000008   0.000044   0.000691   0.003293   0.000000  -0.000004
     6  H   -0.000001   0.000000   0.000000   0.000004   0.000000   0.000000
     7  H   -0.000683   0.000001  -0.000050   0.002073  -0.000002   0.001199
     8  H    0.000009   0.000004   0.001774  -0.000178   0.000000  -0.000001
     9  H    0.000001  -0.000001   0.000033   0.000009   0.000000   0.000000
    10  O    0.000002   0.000001   0.000054   0.000423   0.000000   0.000000
    11  O    0.000000   0.000101   0.004118   0.000057   0.000000   0.000000
    12  C    0.000002   0.000000   0.000000  -0.000024   0.000000  -0.000003
    13  C   -0.000010   0.000000   0.000000   0.000054   0.000000  -0.000011
    14  C   -0.000332  -0.000001  -0.000002   0.000021   0.000017   0.000515
    15  O   -0.018915   0.000480  -0.000495  -0.000343   0.000600  -0.000581
    16  Si   0.367576  -0.013324  -0.027447  -0.028250  -0.013715  -0.028461
    17  C   -0.034697  -0.001098  -0.001035   0.001467  -0.000437   0.001407
    18  C   -0.034795   0.370664   0.376887   0.374850  -0.000436  -0.001526
    19  C    5.144008  -0.000740   0.001325  -0.001486   0.369695   0.375398
    20  H   -0.000740   0.562464  -0.021789  -0.021807   0.000121  -0.000016
    21  H    0.001325  -0.021789   0.560826  -0.022894   0.000006   0.000005
    22  H   -0.001486  -0.021807  -0.022894   0.573078  -0.000008   0.000572
    23  H    0.369695   0.000121   0.000006  -0.000008   0.572871  -0.023583
    24  H    0.375398  -0.000016   0.000005   0.000572  -0.023583   0.587372
    25  H    0.378996   0.000019  -0.000025   0.000010  -0.023957  -0.023008
    26  H   -0.001475   0.000016   0.000007  -0.000027  -0.000037   0.000004
    27  H    0.001376  -0.000055   0.000637   0.000001   0.000015  -0.000027
    28  H   -0.000269   0.000083  -0.000058   0.000002  -0.000041   0.000004
    29  H    0.000010   0.000000   0.000000   0.000000   0.000000  -0.000001
    30  H    0.000564   0.000000   0.000000  -0.000003   0.000015   0.000036
    31  H   -0.000033   0.000000   0.000000  -0.000001  -0.000001   0.000347
    32  H    0.000000   0.000000   0.000000   0.000000   0.000000  -0.000001
    33  H    0.000000   0.000000   0.000000   0.000000   0.000000   0.000000
    34  H   -0.000010   0.000000   0.000000   0.000028   0.000000   0.000365
    35  H    0.000001   0.000000   0.000000   0.000125   0.000000  -0.000003
    36  H    0.000000   0.000000   0.000000  -0.000001   0.000000   0.000000
    37  C   -0.000044   0.000001  -0.000007   0.000001   0.000001   0.000000
    38  C    0.000004   0.000000  -0.000002   0.000000   0.000000   0.000000
    39  C    0.000000   0.000000   0.000000   0.000000   0.000000   0.000000
    40  H    0.000000   0.000000   0.000000   0.000000   0.000000   0.000000
    41  H   -0.000036   0.000000   0.000000   0.000000   0.000000  -0.000004
    42  H    0.000000   0.000000  -0.000001   0.000000   0.000000   0.000000
    43  H    0.000000   0.000000   0.000000   0.000000   0.000000   0.000000
    44  H    0.000000   0.000000   0.000000   0.000000   0.000000   0.000000
              25         26         27         28         29         30
     1  C   -0.000002   0.000000   0.000000   0.000000  -0.005304   0.004393
     2  C    0.000001  -0.000003   0.000001   0.000001  -0.033265  -0.027020
     3  C   -0.000023  -0.000020  -0.000040  -0.000009  -0.007154  -0.005934
     4  C   -0.000001   0.000003  -0.000023   0.000000  -0.000037   0.000185
     5  C    0.000000   0.000000   0.000000   0.000000   0.000012  -0.000023
     6  H    0.000000   0.000000   0.000000   0.000000   0.003139  -0.000141
     7  H    0.000070   0.000001   0.000000   0.000002   0.005587  -0.002863
     8  H    0.000000   0.000000   0.000017   0.000005  -0.000001  -0.000002
     9  H    0.000000   0.000000   0.000000   0.000000  -0.000009  -0.000006
    10  O    0.000000   0.000000   0.000000   0.000000   0.000005  -0.000056
    11  O    0.000000   0.000000   0.000000   0.000000   0.000000   0.000000
    12  C    0.000000   0.000000   0.000000   0.000000  -0.001723   0.000110
    13  C    0.000000   0.000000   0.000000   0.000000   0.000214  -0.000006
    14  C   -0.000103   0.000000   0.000000   0.000000   0.385582   0.379398
    15  O   -0.000701  -0.000535  -0.000463   0.000502   0.000016   0.005159
    16  Si  -0.026575  -0.024601  -0.024794  -0.014507   0.000080   0.000816
    17  C   -0.001239   0.376219   0.375487   0.372753   0.000000  -0.000005
    18  C    0.001345   0.001394  -0.001270  -0.000856  -0.000001   0.000007
    19  C    0.378996  -0.001475   0.001376  -0.000269   0.000010   0.000564
    20  H    0.000019   0.000016  -0.000055   0.000083   0.000000   0.000000
    21  H   -0.000025   0.000007   0.000637  -0.000058   0.000000   0.000000
    22  H    0.000010  -0.000027   0.000001   0.000002   0.000000  -0.000003
    23  H   -0.023957  -0.000037   0.000015  -0.000041   0.000000   0.000015
    24  H   -0.023008   0.000004  -0.000027   0.000004  -0.000001   0.000036
    25  H    0.576937   0.000624   0.000004  -0.000033   0.000002   0.000707
    26  H    0.000624   0.576807  -0.022197  -0.023931   0.000000  -0.000002
    27  H    0.000004  -0.022197   0.577949  -0.023512   0.000000   0.000000
    28  H   -0.000033  -0.023931  -0.023512   0.568828   0.000000   0.000000
    29  H    0.000002   0.000000   0.000000   0.000000   0.590491  -0.028523
    30  H    0.000707  -0.000002   0.000000   0.000000  -0.028523   0.573981
    31  H    0.000006   0.000000   0.000000   0.000000  -0.031992  -0.029386
    32  H    0.000000   0.000000   0.000000   0.000000   0.001075   0.000028
    33  H    0.000000   0.000000   0.000000   0.000000  -0.000028  -0.000001
    34  H   -0.000001   0.000000   0.000000   0.000000  -0.000045  -0.000038
    35  H    0.000000   0.000000   0.000000   0.000000  -0.000003   0.000002
    36  H    0.000000   0.000000   0.000000   0.000000   0.000000   0.000000
    37  C    0.000012   0.000005  -0.000002   0.000000   0.002696  -0.002405
    38  C    0.000000  -0.000005  -0.000005   0.000000   0.000037  -0.000096
    39  C    0.000000   0.000000   0.000000   0.000000  -0.000001  -0.000001
    40  H    0.000000   0.000000   0.000000   0.000000   0.001137   0.000188
    41  H   -0.000004   0.000000   0.000000   0.000000   0.000011   0.001707
    42  H    0.000000   0.000010   0.000030   0.000000   0.000004   0.000001
    43  H    0.000000   0.000000   0.000000   0.000000   0.000000   0.000000
    44  H    0.000000   0.000000   0.000000   0.000000   0.000000   0.000000
              31         32         33         34         35         36
     1  C   -0.004885  -0.027735  -0.029216  -0.006283  -0.007511   0.004600
     2  C   -0.026692  -0.006418   0.005345   0.004076  -0.000805   0.000108
     3  C    0.004409  -0.000050  -0.000090   0.000031  -0.000045  -0.000002
     4  C   -0.000152   0.000035   0.000028   0.000008   0.000084   0.000000
     5  C    0.000009  -0.000051  -0.000069  -0.000035   0.000316   0.000000
     6  H   -0.000104   0.000156  -0.005843  -0.000064   0.000237  -0.000130
     7  H   -0.006892   0.000373  -0.000067   0.000305   0.000760  -0.000116
     8  H    0.000002   0.000000   0.000000   0.000000  -0.000001   0.000000
     9  H    0.000003  -0.000001  -0.000004   0.000000   0.000000   0.000000
    10  O    0.000009   0.002873   0.000542  -0.000190   0.008406   0.000140
    11  O    0.000000   0.000001  -0.000004   0.000000   0.000011   0.000000
    12  C    0.001826   0.377126   0.379169  -0.037027  -0.035186  -0.028577
    13  C    0.000263  -0.036317  -0.041956   0.385761   0.389720   0.382366
    14  C    0.378663   0.003449  -0.000034  -0.000706   0.000163   0.000042
[...]
    13  C   -0.000010   0.000000   0.000000   0.000052   0.000000  -0.000005
    14  C   -0.000392  -0.000001  -0.000002   0.000019   0.000017   0.000409
    15  O   -0.018524   0.000519  -0.000592  -0.000408   0.000568  -0.000624
    16  Si   0.363259  -0.014169  -0.024299  -0.025619  -0.013474  -0.025907
    17  C   -0.030756  -0.000848  -0.000883   0.001178  -0.000348   0.001206
    18  C   -0.032236   0.366538   0.375934   0.376734  -0.000329  -0.001362
    19  C    5.143859  -0.000369   0.001144  -0.001304   0.367811   0.377029
    20  H   -0.000369   0.571149  -0.021482  -0.023017   0.000078  -0.000023
    21  H    0.001144  -0.021482   0.556547  -0.024227   0.000003   0.000004
    22  H   -0.001304  -0.023017  -0.024227   0.570537  -0.000041   0.000500
    23  H    0.367811   0.000078   0.000003  -0.000041   0.574631  -0.024209
    24  H    0.377029  -0.000023   0.000004   0.000500  -0.024209   0.579509
    25  H    0.379216   0.000005  -0.000020   0.000009  -0.024404  -0.023543
    26  H   -0.001340   0.000014  -0.000001  -0.000020  -0.000016   0.000002
    27  H    0.001204  -0.000053   0.000407   0.000005   0.000010  -0.000022
    28  H   -0.000034   0.000098  -0.000032  -0.000005  -0.000016   0.000004
    29  H    0.000011   0.000000   0.000000   0.000000   0.000000   0.000000
    30  H    0.000650   0.000000   0.000000  -0.000002   0.000012   0.000066
    31  H   -0.000033   0.000000   0.000000  -0.000001  -0.000002   0.000300
    32  H    0.000000   0.000000   0.000000   0.000000   0.000000  -0.000001
    33  H    0.000000   0.000000   0.000000   0.000000   0.000000   0.000000
    34  H   -0.000008   0.000000   0.000000   0.000029   0.000000   0.000325
    35  H    0.000001   0.000000  -0.000001   0.000153   0.000000  -0.000003
    36  H    0.000000   0.000000   0.000000  -0.000001   0.000000   0.000000
    37  C   -0.000038   0.000001  -0.000007  -0.000002   0.000001   0.000004
    38  C    0.000005   0.000000  -0.000001   0.000000   0.000000   0.000000
    39  C    0.000000   0.000000   0.000000   0.000000   0.000000   0.000000
    40  H    0.000000   0.000000   0.000000   0.000000   0.000000   0.000000
    41  H   -0.000054   0.000000   0.000000   0.000000   0.000000  -0.000006
    42  H   -0.000001   0.000000  -0.000001   0.000000   0.000000   0.000000
    43  H    0.000000   0.000000   0.000000   0.000000   0.000000   0.000000
    44  H    0.000000   0.000000   0.000000   0.000000   0.000000   0.000000
              25         26         27         28         29         30
     1  C   -0.000001   0.000000   0.000000   0.000000  -0.005239   0.004598
     2  C   -0.000022  -0.000005   0.000001   0.000001  -0.032054  -0.028703
     3  C   -0.000034  -0.000036  -0.000033  -0.000012  -0.007429  -0.005185
     4  C   -0.000002   0.000004  -0.000024   0.000000  -0.000027   0.000171
     5  C    0.000000   0.000000   0.000000   0.000000   0.000010  -0.000025
     6  H    0.000000   0.000000   0.000000   0.000000   0.003073  -0.000169
     7  H    0.000098   0.000001   0.000000   0.000002   0.005365  -0.003269
     8  H    0.000000  -0.000003   0.000043   0.000004  -0.000001  -0.000002
     9  H    0.000000   0.000000   0.000000   0.000000  -0.000013  -0.000008
    10  O    0.000000   0.000000   0.000000   0.000000   0.000000  -0.000054
    11  O    0.000000   0.000000   0.000000   0.000000   0.000000   0.000000
    12  C    0.000000   0.000000   0.000000   0.000000  -0.001668   0.000119
    13  C    0.000000   0.000000   0.000000   0.000000   0.000228  -0.000006
    14  C   -0.000121   0.000000   0.000000   0.000000   0.384994   0.379579
    15  O   -0.000825  -0.000778  -0.000562   0.000674   0.000027   0.004483
    16  Si  -0.025668  -0.023155  -0.023390  -0.014741   0.000063   0.000818
    17  C   -0.001128   0.377157   0.377231   0.367790   0.000000  -0.000007
    18  C    0.001200   0.001170  -0.001277  -0.000537  -0.000001   0.000005
    19  C    0.379216  -0.001340   0.001204  -0.000034   0.000011   0.000650
    20  H    0.000005   0.000014  -0.000053   0.000098   0.000000   0.000000
    21  H   -0.000020  -0.000001   0.000407  -0.000032   0.000000   0.000000
    22  H    0.000009  -0.000020   0.000005  -0.000005   0.000000  -0.000002
    23  H   -0.024404  -0.000016   0.000010  -0.000016   0.000000   0.000012
    24  H   -0.023543   0.000002  -0.000022   0.000004   0.000000   0.000066
    25  H    0.574172   0.000459   0.000000  -0.000043   0.000002   0.000788
    26  H    0.000459   0.572295  -0.022591  -0.024389   0.000000  -0.000003
    27  H    0.000000  -0.022591   0.572377  -0.024083   0.000000   0.000000
    28  H   -0.000043  -0.024389  -0.024083   0.577485   0.000000   0.000000
    29  H    0.000002   0.000000   0.000000   0.000000   0.591814  -0.029883
    30  H    0.000788  -0.000003   0.000000   0.000000  -0.029883   0.577600
    31  H    0.000007   0.000000   0.000000   0.000000  -0.031851  -0.028381
    32  H    0.000000   0.000000   0.000000   0.000000   0.001063   0.000027
    33  H    0.000000   0.000000   0.000000   0.000000  -0.000026  -0.000001
    34  H   -0.000001   0.000000   0.000000   0.000000  -0.000042  -0.000036
    35  H    0.000000   0.000000   0.000000   0.000000  -0.000003   0.000002
    36  H    0.000000   0.000000   0.000000   0.000000  -0.000001   0.000000
    37  C    0.000014   0.000009  -0.000003   0.000000   0.002643  -0.002884
    38  C    0.000000  -0.000015  -0.000010   0.000001   0.000047  -0.000105
    39  C    0.000000   0.000000   0.000000   0.000000  -0.000001  -0.000001
    40  H    0.000000   0.000000   0.000000   0.000000   0.001378   0.000200
    41  H   -0.000006   0.000002   0.000000   0.000000  -0.000124   0.001982
    42  H   -0.000001   0.000075   0.000072   0.000000   0.000004   0.000000
    43  H    0.000000   0.000000   0.000000   0.000000   0.000000   0.000000
    44  H    0.000000   0.000000   0.000000   0.000000   0.000000   0.000000
              31         32         33         34         35         36
     1  C   -0.005268  -0.030149  -0.030466  -0.005840  -0.007417   0.004404
     2  C   -0.026898  -0.006384   0.005459   0.003928  -0.000849   0.000089
     3  C    0.004441  -0.000074  -0.000098   0.000022  -0.000042  -0.000002
     4  C   -0.000159   0.000045   0.000034   0.000007   0.000082   0.000000
     5  C    0.000007  -0.000062  -0.000076  -0.000029   0.000256   0.000000
     6  H   -0.000108  -0.000139  -0.006082  -0.000059   0.000223  -0.000122
     7  H   -0.006291   0.000363  -0.000085   0.000178   0.000825  -0.000103
     8  H    0.000002   0.000000   0.000000   0.000000  -0.000001   0.000000
     9  H    0.000004  -0.000001  -0.000005   0.000000   0.000000   0.000000
    10  O    0.000013   0.003163   0.000624  -0.000157   0.008732   0.000131
    11  O    0.000000   0.000001  -0.000007   0.000000   0.000009   0.000000
    12  C    0.002157   0.374721   0.379083  -0.035209  -0.035690  -0.027983
    13  C    0.000180  -0.035190  -0.039115   0.385608   0.389009   0.382547
    14  C    0.379065   0.003489  -0.000027  -0.000864   0.000184   0.000052
    15  O   -0.000041   0.000000   0.000000   0.000002   0.000000   0.000000
    16  Si  -0.000345  -0.000006   0.000002   0.000027  -0.000047   0.000003
    17  C    0.000000   0.000000   0.000000   0.000000   0.000000   0.000000
    18  C    0.000002   0.000000   0.000000  -0.000008  -0.000007   0.000000
    19  C   -0.000033   0.000000   0.000000  -0.000008   0.000001   0.000000
    20  H    0.000000   0.000000   0.000000   0.000000   0.000000   0.000000
    21  H    0.000000   0.000000   0.000000   0.000000  -0.000001   0.000000
    22  H   -0.000001   0.000000   0.000000   0.000029   0.000153  -0.000001
    23  H   -0.000002   0.000000   0.000000   0.000000   0.000000   0.000000
    24  H    0.000300  -0.000001   0.000000   0.000325  -0.000003   0.000000
    25  H    0.000007   0.000000   0.000000  -0.000001   0.000000   0.000000
    26  H    0.000000   0.000000   0.000000   0.000000   0.000000   0.000000
    27  H    0.000000   0.000000   0.000000   0.000000   0.000000   0.000000
    28  H    0.000000   0.000000   0.000000   0.000000   0.000000   0.000000
    29  H   -0.031851   0.001063  -0.000026  -0.000042  -0.000003  -0.000001
    30  H   -0.028381   0.000027  -0.000001  -0.000036   0.000002   0.000000
    31  H    0.594374  -0.000491   0.000022   0.003232  -0.000083  -0.000049
    32  H   -0.000491   0.612301  -0.032364  -0.004927   0.005106  -0.002765
    33  H    0.000022  -0.032364   0.609945   0.005148  -0.003582  -0.003935
    34  H    0.003232  -0.004927   0.005148   0.601092  -0.031116  -0.030554
    35  H   -0.000083   0.005106  -0.003582  -0.031116   0.577472  -0.029502
    36  H   -0.000049  -0.002765  -0.003935  -0.030554  -0.029502   0.597017
    37  C    0.000322  -0.000004   0.000001  -0.000002   0.000000   0.000000
    38  C   -0.000006   0.000000   0.000000   0.000000   0.000000   0.000000
    39  C    0.000000   0.000000   0.000000   0.000000   0.000000   0.000000
    40  H   -0.000019   0.000005   0.000001   0.000000   0.000000   0.000000
    41  H    0.000015  -0.000003   0.000000   0.000000   0.000000   0.000000
    42  H    0.000000   0.000000   0.000000   0.000000   0.000000   0.000000
    43  H    0.000000   0.000000   0.000000   0.000000   0.000000   0.000000
    44  H    0.000000   0.000000   0.000000   0.000000   0.000000   0.000000
              37         38         39         40         41         42
     1  C   -0.003290  -0.000003   0.000002  -0.000134   0.000305  -0.000008
     2  C   -0.048948   0.004922  -0.000112  -0.000522  -0.012481   0.000170
     3  C    0.348486  -0.037163  -0.001660  -0.031181  -0.028575  -0.004240
     4  C   -0.051525  -0.009517   0.000726  -0.002521   0.005606  -0.000942
     5  C    0.002038   0.000616   0.000101  -0.000158  -0.000014  -0.000008
     6  H    0.002474  -0.000139  -0.000031   0.003944  -0.000106   0.000003
     7  H    0.005100  -0.000112   0.000000   0.000037  -0.000076   0.000003
     8  H   -0.001850   0.002167  -0.000053   0.000146  -0.000208   0.000670
     9  H   -0.009336   0.003776   0.003511   0.000684   0.000565   0.000203
    10  O   -0.000071  -0.000005   0.000000  -0.000027  -0.000006   0.000000
    11  O   -0.000059  -0.000003   0.000000   0.000001   0.000001   0.000000
    12  C   -0.000098   0.000002   0.000000  -0.000087   0.000000   0.000000
    13  C    0.000000   0.000000   0.000000   0.000002   0.000000   0.000000
    14  C   -0.010304   0.000283   0.000004  -0.001555   0.005248  -0.000017
    15  O   -0.067064   0.000187   0.000453   0.003727  -0.000101   0.006931
    16  Si  -0.001069   0.000136   0.000032   0.000076   0.001085   0.001046
    17  C   -0.000006  -0.000059   0.000000   0.000001  -0.000016   0.000089
    18  C   -0.000036  -0.000003   0.000000   0.000002   0.000004   0.000002
    19  C   -0.000038   0.000005   0.000000   0.000000  -0.000054  -0.000001
    20  H    0.000001   0.000000   0.000000   0.000000   0.000000   0.000000
    21  H   -0.000007  -0.000001   0.000000   0.000000   0.000000  -0.000001
    22  H   -0.000002   0.000000   0.000000   0.000000   0.000000   0.000000
    23  H    0.000001   0.000000   0.000000   0.000000   0.000000   0.000000
    24  H    0.000004   0.000000   0.000000   0.000000  -0.000006   0.000000
    25  H    0.000014   0.000000   0.000000   0.000000  -0.000006  -0.000001
    26  H    0.000009  -0.000015   0.000000   0.000000   0.000002   0.000075
    27  H   -0.000003  -0.000010   0.000000   0.000000   0.000000   0.000072
    28  H    0.000000   0.000001   0.000000   0.000000   0.000000   0.000000
    29  H    0.002643   0.000047  -0.000001   0.001378  -0.000124   0.000004
    30  H   -0.002884  -0.000105  -0.000001   0.000200   0.001982   0.000000
    31  H    0.000322  -0.000006   0.000000  -0.000019   0.000015   0.000000
    32  H   -0.000004   0.000000   0.000000   0.000005  -0.000003   0.000000
    33  H    0.000001   0.000000   0.000000   0.000001   0.000000   0.000000
    34  H   -0.000002   0.000000   0.000000   0.000000   0.000000   0.000000
    35  H    0.000000   0.000000   0.000000   0.000000   0.000000   0.000000
    36  H    0.000000   0.000000   0.000000   0.000000   0.000000   0.000000
    37  C    5.051272   0.384342  -0.040997   0.360016   0.366567  -0.052640
    38  C    0.384342   4.779342   0.654163  -0.039207  -0.033863   0.384514
    39  C   -0.040997   0.654163   4.936959  -0.006561   0.000729  -0.045291
    40  H    0.360016  -0.039207  -0.006561   0.630270  -0.030113   0.005402
    41  H    0.366567  -0.033863   0.000729  -0.030113   0.602605  -0.001741
    42  H   -0.052640   0.384514  -0.045291   0.005402  -0.001741   0.602428
    43  H    0.004594  -0.024851   0.376494   0.000100  -0.000206  -0.007817
    44  H   -0.012437  -0.034804   0.380755   0.006402   0.000201   0.005701
              43         44
     1  C    0.000000  -0.000005
     2  C    0.000003  -0.000008
     3  C   -0.000065   0.000173
     4  C   -0.000012  -0.000138
     5  C    0.000000  -0.000002
     6  H    0.000000   0.000010
     7  H    0.000000   0.000000
     8  H    0.000006   0.000010
     9  H   -0.000016   0.000433
    10  O    0.000000   0.000000
    11  O    0.000000   0.000000
    12  C    0.000000   0.000000
    13  C    0.000000   0.000000
    14  C    0.000000  -0.000001
    15  O    0.000002  -0.000002
    16  Si  -0.000001   0.000004
    17  C    0.000000   0.000000
    18  C    0.000000   0.000000
    19  C    0.000000   0.000000
    20  H    0.000000   0.000000
    21  H    0.000000   0.000000
    22  H    0.000000   0.000000
    23  H    0.000000   0.000000
    24  H    0.000000   0.000000
    25  H    0.000000   0.000000
    26  H    0.000000   0.000000
    27  H    0.000000   0.000000
    28  H    0.000000   0.000000
    29  H    0.000000   0.000000
    30  H    0.000000   0.000000
    31  H    0.000000   0.000000
    32  H    0.000000   0.000000
    33  H    0.000000   0.000000
    34  H    0.000000   0.000000
    35  H    0.000000   0.000000
    36  H    0.000000   0.000000
    37  C    0.004594  -0.012437
    38  C   -0.024851  -0.034804
    39  C    0.376494   0.380755
    40  H    0.000100   0.006402
    41  H   -0.000206   0.000201
    42  H   -0.007817   0.005701
    43  H    0.590217  -0.043979
    44  H   -0.043979   0.599474
 Mulliken charges:
               1
     1  C    0.160291
     2  C   -0.104387
     3  C    0.310854
     4  C   -0.295674
     5  C    0.595733
     6  H    0.108648
     7  H    0.116826
     8  H    0.149776
     9  H    0.152846
    10  O   -0.476903
    11  O   -0.506441
    12  C   -0.197705
    13  C   -0.331700
    14  C   -0.342567
    15  O   -0.635594
    16  Si   0.904238
    17  C   -0.532133
    18  C   -0.567121
    19  C   -0.547432
    20  H    0.121434
    21  H    0.131545
    22  H    0.122357
    23  H    0.119679
    24  H    0.116056
    25  H    0.119847
    26  H    0.121165
    27  H    0.120698
    28  H    0.117836
    29  H    0.117640
    30  H    0.127622
    31  H    0.115883
    32  H    0.112277
    33  H    0.115550
    34  H    0.109254
    35  H    0.126288
    36  H    0.110775
    37  C   -0.225213
    38  C   -0.034635
    39  C   -0.259222
    40  H    0.099692
    41  H    0.122784
    42  H    0.105391
    43  H    0.105531
    44  H    0.098213
 Sum of Mulliken charges =   0.00000
 Mulliken charges with hydrogens summed into heavy atoms:
               1
     1  C    0.268939
     2  C    0.012439
     3  C    0.310854
     4  C    0.006947
     5  C    0.595733
    10  O   -0.476903
    11  O   -0.506441
    12  C    0.030122
    13  C    0.014617
    14  C    0.018578
    15  O   -0.635594
    16  Si   0.904238
    17  C   -0.172435
    18  C   -0.191785
    19  C   -0.191849
    37  C   -0.002737
    38  C    0.070756
    39  C   -0.055478
 Electronic spatial extent (au):  <R**2>=           5163.7232
 Charge=              0.0000 electrons
 Dipole moment (field-independent basis, Debye):
    X=             -0.2128    Y=              0.6601    Z=             -4.8165  Tot=              4.8661
 Quadrupole moment (field-independent basis, Debye-Ang):
   XX=           -114.1056   YY=           -112.7293   ZZ=           -132.3243
   XY=             -4.6418   XZ=              9.7412   YZ=              3.2190
 Traceless Quadrupole moment (field-independent basis, Debye-Ang):
   XX=              5.6141   YY=              6.9905   ZZ=            -12.6046
   XY=             -4.6418   XZ=              9.7412   YZ=              3.2190
 Octapole moment (field-independent basis, Debye-Ang**2):
  XXX=            -16.8670  YYY=              2.4047  ZZZ=            -43.8107  XYY=             -2.4134
  XXY=             -2.7675  XXZ=             -9.1294  XZZ=             15.0569  YZZ=              3.9917
  YYZ=             12.3974  XYZ=             -1.2788
 Hexadecapole moment (field-independent basis, Debye-Ang**3):
 XXXX=          -3103.8955 YYYY=          -2383.4261 ZZZZ=          -1513.2087 XXXY=              0.6838
 XXXZ=             17.1520 YYYX=            -26.6513 YYYZ=             25.3461 ZZZX=             41.4777
 ZZZY=             14.3494 XXYY=           -891.7414 XXZZ=           -764.8173 YYZZ=           -650.0931
 XXYZ=             13.3228 YYXZ=             14.6663 ZZXY=             -9.7358
 N-N= 1.643324703022D+03 E-N=-5.777128635835D+03  KE= 1.055911832898D+03
 1\1\GINC-CPU-E-532\FOpt\RB3LYP\6-31G(d,p)\C14H26O3Si1\KE291\06-Feb-201
 9\0\\# b3lyp/6-31g(d,p) Opt=(maxcycles=25) scrf=(solvent=chloroform)\\
 P_ng_correct1ginp014\\0,1\C,0.9482698778,-0.2855138551,0.608063614\C,-
 0.5587289897,-0.4182894139,0.8897211234\C,-1.0107847789,0.6842775802,1
 .9008391136\C,-0.143360279,1.9663999292,1.7037258822\C,0.5837581176,2.
 1005151313,0.3865004279\H,1.5054993315,-0.2643737778,1.5549155897\H,-1
 .0512285553,-0.1761597521,-0.0600580499\H,-0.7505298235,2.8578552437,1
 .8572868657\H,0.6381193495,1.987162805,2.474106526\O,1.1843806698,0.98
 11718416,-0.0777808374\O,0.7072281026,3.1390335272,-0.228535495\C,1.57
 59247867,-1.3550620449,-0.2896378073\C,0.9664879174,-1.4721735538,-1.6
 906945212\C,-0.981807494,-1.8379998832,1.2887379168\O,-2.3920429989,0.
 9916788456,1.7330095737\Si,-3.443173066,1.3350142819,0.4634109613\C,-4
 .8188217719,2.3289823234,1.2750627418\C,-2.635328403,2.3369200495,-0.9
 157397236\C,-4.1558698238,-0.2618956035,-0.2469445897\H,-3.4099938504,
 2.6605747425,-1.6212780124\H,-2.1306650524,3.232411113,-0.5411976804\H
 ,-1.9008488775,1.758719264,-1.4855618977\H,-4.9386508493,-0.0318504442
 ,-0.9793465971\H,-3.4006292689,-0.8705794085,-0.7549823701\H,-4.608351
 832,-0.8754115869,0.5395029081\H,-5.2692923763,1.7727770772,2.10384952
 19\H,-4.4421504104,3.2770206206,1.673004772\H,-5.6126930043,2.55841112
 52,0.5555461564\H,-0.4004339227,-2.2224114283,2.1322362478\H,-2.037889
 439,-1.855267341,1.5701507453\H,-0.8526034017,-2.5315992161,0.45454978
 24\H,1.5210981234,-2.3148631773,0.235208555\H,2.6415483842,-1.11466070
 71,-0.3770109602\H,-0.0824242913,-1.784034115,-1.6619327124\H,1.020012
 292,-0.5170565394,-2.2197526472\H,1.5130286122,-2.2150505758,-2.279120
 6432\C,-0.877097103,0.2124409752,3.3743693142\C,-1.1990468633,1.275684
 4483,4.3881012278\C,-0.379419532,1.6682839691,5.3647124589\H,0.1371827
 239,-0.1666266427,3.5476535613\H,-1.5686857659,-0.6261939424,3.5098310
 012\H,-2.1836039787,1.7308196463,4.2968488012\H,-0.6696689479,2.431487
 4387,6.0809400283\H,0.6105534622,1.2346900301,5.4897451269\\Version=ES
 64L-G09RevD.01\State=1-A\HF=-1064.4217371\RMSD=4.961e-09\RMSF=5.483e-0
 6\Dipole=-0.4208296,-1.7249992,0.7159224\Quadrupole=2.0693952,-1.63382
 42,-0.4355709,-7.7966039,6.5900514,5.3317967\PG=C01 [X(C14H26O3Si1)]\\
 @


 PATIENCE IS THE ABILITY TO IDLE YOUR MOTOR WHEN
 YOU FEEL LIKE STRIPPING YOUR GEARS.
 Job cpu time:       0 days  2 hours 35 minutes 54.9 seconds.
 File lengths (MBytes):  RWF=    361 Int=      0 D2E=      0 Chk=     17 Scr=      1
 Normal termination of Gaussian 09 at Wed Feb  6 11:28:57 2019.
