 Entering Gaussian System, Link 0=/usr/local/Cluster-Apps/gaussian/g09/g09
 Initial command:
 /usr/local/Cluster-Apps/gaussian/g09/l1.exe "/home/ke291/rds/hpc-work/06Feb0927IP1/Gau-371555.inp" -scrdir="/home/ke291/rds/hpc-work/06Feb0927IP1/"
 Entering Link 1 = /usr/local/Cluster-Apps/gaussian/g09/l1.exe PID=    371561.
  
 Copyright (c) 1988,1990,1992,1993,1995,1998,2003,2009,2013,
            Gaussian, Inc.  All Rights Reserved.
  
 This is part of the Gaussian(R) 09 program.  It is based on
 the Gaussian(R) 03 system (copyright 2003, Gaussian, Inc.),
 the Gaussian(R) 98 system (copyright 1998, Gaussian, Inc.),
 the Gaussian(R) 94 system (copyright 1995, Gaussian, Inc.),
 the Gaussian 92(TM) system (copyright 1992, Gaussian, Inc.),
 the Gaussian 90(TM) system (copyright 1990, Gaussian, Inc.),
 the Gaussian 88(TM) system (copyright 1988, Gaussian, Inc.),
 the Gaussian 86(TM) system (copyright 1986, Carnegie Mellon
 University), and the Gaussian 82(TM) system (copyright 1983,
 Carnegie Mellon University). Gaussian is a federally registered
 trademark of Gaussian, Inc.
  
 This software contains proprietary and confidential information,
 including trade secrets, belonging to Gaussian, Inc.
  
 This software is provided under written license and may be
 used, copied, transmitted, or stored only in accord with that
 written license.
  
 The following legend is applicable only to US Government
 contracts under FAR:
  
                    RESTRICTED RIGHTS LEGEND
  
 Use, reproduction and disclosure by the US Government is
 subject to restrictions as set forth in subparagraphs (a)
 and (c) of the Commercial Computer Software - Restricted
 Rights clause in FAR 52.227-19.
  
 Gaussian, Inc.
 340 Quinnipiac St., Bldg. 40, Wallingford CT 06492
  
  
 ---------------------------------------------------------------
 Warning -- This program may not be used in any manner that
 competes with the business of Gaussian, Inc. or will provide
 assistance to any competitor of Gaussian, Inc.  The licensee
 of this program is prohibited from giving any competitor of
 Gaussian, Inc. access to this program.  By using this program,
 the user acknowledges that Gaussian, Inc. is engaged in the
 business of creating and licensing software in the field of
 computational chemistry and represents and warrants to the
 licensee that it is not a competitor of Gaussian, Inc. and that
 it will not use this program in any manner prohibited above.
 ---------------------------------------------------------------
  

 Cite this work as:
 Gaussian 09, Revision D.01,
 M. J. Frisch, G. W. Trucks, H. B. Schlegel, G. E. Scuseria, 
 M. A. Robb, J. R. Cheeseman, G. Scalmani, V. Barone, B. Mennucci, 
 G. A. Petersson, H. Nakatsuji, M. Caricato, X. Li, H. P. Hratchian, 
 A. F. Izmaylov, J. Bloino, G. Zheng, J. L. Sonnenberg, M. Hada, 
 M. Ehara, K. Toyota, R. Fukuda, J. Hasegawa, M. Ishida, T. Nakajima, 
 Y. Honda, O. Kitao, H. Nakai, T. Vreven, J. A. Montgomery, Jr., 
 J. E. Peralta, F. Ogliaro, M. Bearpark, J. J. Heyd, E. Brothers, 
 K. N. Kudin, V. N. Staroverov, T. Keith, R. Kobayashi, J. Normand, 
 K. Raghavachari, A. Rendell, J. C. Burant, S. S. Iyengar, J. Tomasi, 
 M. Cossi, N. Rega, J. M. Millam, M. Klene, J. E. Knox, J. B. Cross, 
 V. Bakken, C. Adamo, J. Jaramillo, R. Gomperts, R. E. Stratmann, 
 O. Yazyev, A. J. Austin, R. Cammi, C. Pomelli, J. W. Ochterski, 
 R. L. Martin, K. Morokuma, V. G. Zakrzewski, G. A. Voth, 
 P. Salvador, J. J. Dannenberg, S. Dapprich, A. D. Daniels, 
 O. Farkas, J. B. Foresman, J. V. Ortiz, J. Cioslowski, 
 and D. J. Fox, Gaussian, Inc., Wallingford CT, 2013.
 
 ******************************************
 Gaussian 09:  ES64L-G09RevD.01 24-Apr-2013
                 6-Feb-2019 
 ******************************************
 %nprocshared=2
 Will use up to    2 processors via shared memory.
 %mem=6000MB
 %chk=/home/ke291/rds/hpc-work/06Feb0927IP1/P_ng_correct1ginp004.chk
 ---------------------------------------------------------------
 # b3lyp/6-31g(d,p) Opt=(maxcycles=25) scrf=(solvent=chloroform)
 ---------------------------------------------------------------
 1/6=25,14=-1,18=20,19=15,26=3,38=1/1,3;
 2/9=110,12=2,17=6,18=5,40=1/2;
 3/5=1,6=6,7=101,11=2,16=1,25=1,30=1,70=2201,71=1,72=7,74=-5/1,2,3;
 4//1;
 5/5=2,38=5,53=7/2;
 6/7=2,8=2,9=2,10=2,28=1/1;
 7//1,2,3,16;
 1/6=25,14=-1,18=20,19=15,26=3/3(2);
 2/9=110/2;
 99//99;
 2/9=110/2;
 3/5=1,6=6,7=101,11=2,16=1,25=1,30=1,70=2205,71=1,72=7,74=-5/1,2,3;
 4/5=5,16=3,69=1/1;
 5/5=2,38=5,53=7/2;
 7//1,2,3,16;
 1/6=25,14=-1,18=20,19=15,26=3/3(-5);
 2/9=110/2;
 6/7=2,8=2,9=2,10=2,19=2,28=1/1;
 99/9=1/99;
 --------------------
 P_ng_correct1ginp004
 --------------------
 Symbolic Z-matrix:
 Charge =  0 Multiplicity = 1
 C                     1.19039  -0.11442   1.00415 
 C                    -0.30695  -0.42476   0.88335 
 C                    -1.1533    0.84247   1.22856 
 C                    -0.72793   1.89436   0.19313 
 C                     0.74859   2.15423   0.14964 
 H                     1.44916   0.02969   2.06026 
 H                    -0.53519  -0.64643  -0.16963 
 H                    -1.03251   1.59516  -0.81744 
 H                    -1.22057   2.8514    0.40151 
 O                     1.5748    1.10723   0.33451 
 O                     1.18993   3.26244  -0.1402 
 C                     2.12762  -1.21978   0.48346 
 C                     1.96076  -1.53943  -0.99676 
 C                    -0.68872  -1.69977   1.6482 
 O                    -2.526     0.42555   1.0509 
 Si                   -3.89313   1.35817   0.80802 
 C                    -4.01181   2.85485   1.92892 
 C                    -4.01502   1.93816  -0.97796 
 C                    -5.41558   0.28672   1.14882 
 H                    -3.24395   2.67907  -1.20544 
 H                    -3.897     1.09402  -1.6636 
 H                    -4.9904    2.39777  -1.16386 
 H                    -5.40797  -0.06363   2.185 
 H                    -6.332     0.85978   0.98102 
 H                    -5.42271  -0.58421   0.48713 
 H                    -3.94996   2.56066   2.98064 
 H                    -3.21334   3.5719    1.71948 
 H                    -4.9671    3.36744   1.77917 
 H                    -0.2979   -2.58405   1.13279 
 H                    -0.27314  -1.71216   2.65883 
 H                    -1.77247  -1.8324    1.71507 
 H                     2.00214  -2.13648   1.06965 
 H                     3.16441  -0.89142   0.63256 
 H                     2.0686   -0.64301  -1.61493 
 H                     2.72506  -2.25765  -1.31127 
 H                     0.98481  -1.98795  -1.20275 
 C                    -0.92222   1.40775   2.66965 
 C                    -1.33533   0.51814   3.81016 
 C                    -0.54985   0.22      4.85324 
 H                    -1.49322   2.33507   2.78486 
 H                     0.12522   1.70618   2.79654 
 H                    -2.34517   0.11244   3.77979 
 H                    -0.91055  -0.42211   5.65164 
 H                     0.46049   0.60711   4.94225 
 

 GradGradGradGradGradGradGradGradGradGradGradGradGradGradGradGradGradGrad
 Berny optimization.
 Initialization pass.
                           ----------------------------
                           !    Initial Parameters    !
                           ! (Angstroms and Degrees)  !
 --------------------------                            --------------------------
 ! Name  Definition              Value          Derivative Info.                !
 --------------------------------------------------------------------------------
 ! R1    R(1,2)                  1.5339         estimate D2E/DX2                !
 ! R2    R(1,6)                  1.0969         estimate D2E/DX2                !
 ! R3    R(1,10)                 1.4452         estimate D2E/DX2                !
 ! R4    R(1,12)                 1.5399         estimate D2E/DX2                !
 ! R5    R(2,3)                  1.5625         estimate D2E/DX2                !
 ! R6    R(2,7)                  1.1            estimate D2E/DX2                !
 ! R7    R(2,14)                 1.5351         estimate D2E/DX2                !
 ! R8    R(3,4)                  1.5361         estimate D2E/DX2                !
 ! R9    R(3,15)                 1.4456         estimate D2E/DX2                !
 ! R10   R(3,37)                 1.5651         estimate D2E/DX2                !
 ! R11   R(4,5)                  1.4998         estimate D2E/DX2                !
 ! R12   R(4,8)                  1.0971         estimate D2E/DX2                !
 ! R13   R(4,9)                  1.0964         estimate D2E/DX2                !
 ! R14   R(5,10)                 1.3465         estimate D2E/DX2                !
 ! R15   R(5,11)                 1.2276         estimate D2E/DX2                !
 ! R16   R(12,13)                1.5235         estimate D2E/DX2                !
 ! R17   R(12,32)                1.0953         estimate D2E/DX2                !
 ! R18   R(12,33)                1.0977         estimate D2E/DX2                !
 ! R19   R(13,34)                1.0942         estimate D2E/DX2                !
 ! R20   R(13,35)                1.0949         estimate D2E/DX2                !
 ! R21   R(13,36)                1.0937         estimate D2E/DX2                !
 ! R22   R(14,29)                1.0956         estimate D2E/DX2                !
 ! R23   R(14,30)                1.0928         estimate D2E/DX2                !
 ! R24   R(14,31)                1.0939         estimate D2E/DX2                !
 ! R25   R(15,16)                1.6727         estimate D2E/DX2                !
 ! R26   R(16,17)                1.8736         estimate D2E/DX2                !
 ! R27   R(16,18)                1.8818         estimate D2E/DX2                !
 ! R28   R(16,19)                1.8926         estimate D2E/DX2                !
 ! R29   R(17,26)                1.0938         estimate D2E/DX2                !
 ! R30   R(17,27)                1.0934         estimate D2E/DX2                !
 ! R31   R(17,28)                1.0944         estimate D2E/DX2                !
 ! R32   R(18,20)                1.0933         estimate D2E/DX2                !
 ! R33   R(18,21)                1.0939         estimate D2E/DX2                !
 ! R34   R(18,22)                1.0941         estimate D2E/DX2                !
 ! R35   R(19,23)                1.0938         estimate D2E/DX2                !
 ! R36   R(19,24)                1.0938         estimate D2E/DX2                !
 ! R37   R(19,25)                1.0938         estimate D2E/DX2                !
 ! R38   R(37,38)                1.5043         estimate D2E/DX2                !
 ! R39   R(37,40)                1.0951         estimate D2E/DX2                !
 ! R40   R(37,41)                1.0965         estimate D2E/DX2                !
 ! R41   R(38,39)                1.3394         estimate D2E/DX2                !
 ! R42   R(38,42)                1.0887         estimate D2E/DX2                !
 ! R43   R(39,43)                1.0862         estimate D2E/DX2                !
 ! R44   R(39,44)                1.0856         estimate D2E/DX2                !
 ! A1    A(2,1,6)              109.433          estimate D2E/DX2                !
 ! A2    A(2,1,10)             113.2144         estimate D2E/DX2                !
 ! A3    A(2,1,12)             114.9771         estimate D2E/DX2                !
 ! A4    A(6,1,10)             105.803          estimate D2E/DX2                !
 ! A5    A(6,1,12)             106.0386         estimate D2E/DX2                !
 ! A6    A(10,1,12)            106.7507         estimate D2E/DX2                !
 ! A7    A(1,2,3)              110.3202         estimate D2E/DX2                !
 ! A8    A(1,2,7)              108.5842         estimate D2E/DX2                !
 ! A9    A(1,2,14)             111.8124         estimate D2E/DX2                !
 ! A10   A(3,2,7)              105.2209         estimate D2E/DX2                !
 ! A11   A(3,2,14)             115.3945         estimate D2E/DX2                !
 ! A12   A(7,2,14)             104.9499         estimate D2E/DX2                !
 ! A13   A(2,3,4)              104.8604         estimate D2E/DX2                !
 ! A14   A(2,3,15)             104.6729         estimate D2E/DX2                !
 ! A15   A(2,3,37)             114.6057         estimate D2E/DX2                !
 ! A16   A(4,3,15)             112.1863         estimate D2E/DX2                !
 ! A17   A(4,3,37)             109.4167         estimate D2E/DX2                !
 ! A18   A(15,3,37)            110.9479         estimate D2E/DX2                !
 ! A19   A(3,4,5)              114.2558         estimate D2E/DX2                !
 ! A20   A(3,4,8)              110.9333         estimate D2E/DX2                !
 ! A21   A(3,4,9)              110.195          estimate D2E/DX2                !
 ! A22   A(5,4,8)              107.089          estimate D2E/DX2                !
 ! A23   A(5,4,9)              107.2546         estimate D2E/DX2                !
 ! A24   A(8,4,9)              106.7621         estimate D2E/DX2                !
 ! A25   A(4,5,10)             117.733          estimate D2E/DX2                !
 ! A26   A(4,5,11)             121.1443         estimate D2E/DX2                !
 ! A27   A(10,5,11)            120.9171         estimate D2E/DX2                !
 ! A28   A(1,10,5)             123.8975         estimate D2E/DX2                !
 ! A29   A(1,12,13)            114.3597         estimate D2E/DX2                !
 ! A30   A(1,12,32)            110.4915         estimate D2E/DX2                !
 ! A31   A(1,12,33)            108.3123         estimate D2E/DX2                !
 ! A32   A(13,12,32)           109.3801         estimate D2E/DX2                !
 ! A33   A(13,12,33)           107.3481         estimate D2E/DX2                !
 ! A34   A(32,12,33)           106.6106         estimate D2E/DX2                !
 ! A35   A(12,13,34)           111.4821         estimate D2E/DX2                !
 ! A36   A(12,13,35)           109.8917         estimate D2E/DX2                !
 ! A37   A(12,13,36)           111.5169         estimate D2E/DX2                !
 ! A38   A(34,13,35)           107.8368         estimate D2E/DX2                !
 ! A39   A(34,13,36)           108.5132         estimate D2E/DX2                !
 ! A40   A(35,13,36)           107.4448         estimate D2E/DX2                !
 ! A41   A(2,14,29)            110.3208         estimate D2E/DX2                !
 ! A42   A(2,14,30)            112.063          estimate D2E/DX2                !
 ! A43   A(2,14,31)            112.1827         estimate D2E/DX2                !
 ! A44   A(29,14,30)           106.8733         estimate D2E/DX2                !
 ! A45   A(29,14,31)           106.5178         estimate D2E/DX2                !
 ! A46   A(30,14,31)           108.5937         estimate D2E/DX2                !
 ! A47   A(3,15,16)            129.2845         estimate D2E/DX2                !
 ! A48   A(15,16,17)           114.2228         estimate D2E/DX2                !
 ! A49   A(15,16,18)           111.2605         estimate D2E/DX2                !
 ! A50   A(15,16,19)           108.4019         estimate D2E/DX2                !
 ! A51   A(17,16,18)           108.5111         estimate D2E/DX2                !
 ! A52   A(17,16,19)           107.0703         estimate D2E/DX2                !
 ! A53   A(18,16,19)           107.055          estimate D2E/DX2                !
 ! A54   A(16,17,26)           110.903          estimate D2E/DX2                !
 ! A55   A(16,17,27)           111.2843         estimate D2E/DX2                !
 ! A56   A(16,17,28)           110.3382         estimate D2E/DX2                !
 ! A57   A(26,17,27)           108.6177         estimate D2E/DX2                !
 ! A58   A(26,17,28)           107.8718         estimate D2E/DX2                !
 ! A59   A(27,17,28)           107.7014         estimate D2E/DX2                !
 ! A60   A(16,18,20)           111.1422         estimate D2E/DX2                !
 ! A61   A(16,18,21)           110.4905         estimate D2E/DX2                !
 ! A62   A(16,18,22)           110.3934         estimate D2E/DX2                !
 ! A63   A(20,18,21)           108.4491         estimate D2E/DX2                !
 ! A64   A(20,18,22)           107.9811         estimate D2E/DX2                !
 ! A65   A(21,18,22)           108.2906         estimate D2E/DX2                !
 ! A66   A(16,19,23)           110.2618         estimate D2E/DX2                !
 ! A67   A(16,19,24)           110.4713         estimate D2E/DX2                !
 ! A68   A(16,19,25)           110.3089         estimate D2E/DX2                !
 ! A69   A(23,19,24)           108.5998         estimate D2E/DX2                !
 ! A70   A(23,19,25)           108.5468         estimate D2E/DX2                !
 ! A71   A(24,19,25)           108.5965         estimate D2E/DX2                !
 ! A72   A(3,37,38)            116.3565         estimate D2E/DX2                !
 ! A73   A(3,37,40)            109.0093         estimate D2E/DX2                !
 ! A74   A(3,37,41)            110.236          estimate D2E/DX2                !
 ! A75   A(38,37,40)           106.13           estimate D2E/DX2                !
 ! A76   A(38,37,41)           109.6064         estimate D2E/DX2                !
 ! A77   A(40,37,41)           104.7998         estimate D2E/DX2                !
 ! A78   A(37,38,39)           124.1289         estimate D2E/DX2                !
 ! A79   A(37,38,42)           116.9982         estimate D2E/DX2                !
 ! A80   A(39,38,42)           118.8644         estimate D2E/DX2                !
 ! A81   A(38,39,43)           120.6159         estimate D2E/DX2                !
 ! A82   A(38,39,44)           122.0235         estimate D2E/DX2                !
 ! A83   A(43,39,44)           117.3598         estimate D2E/DX2                !
 ! D1    D(6,1,2,3)             69.6848         estimate D2E/DX2                !
 ! D2    D(6,1,2,7)           -175.4884         estimate D2E/DX2                !
 ! D3    D(6,1,2,14)           -60.1654         estimate D2E/DX2                !
 ! D4    D(10,1,2,3)           -48.0603         estimate D2E/DX2                !
 ! D5    D(10,1,2,7)            66.7665         estimate D2E/DX2                !
 ! D6    D(10,1,2,14)         -177.9105         estimate D2E/DX2                !
 ! D7    D(12,1,2,3)          -171.1358         estimate D2E/DX2                !
 ! D8    D(12,1,2,7)           -56.309          estimate D2E/DX2                !
 ! D9    D(12,1,2,14)           59.0141         estimate D2E/DX2                !
 ! D10   D(2,1,10,5)            28.1987         estimate D2E/DX2                !
 ! D11   D(6,1,10,5)           -91.6442         estimate D2E/DX2                !
 ! D12   D(12,1,10,5)          155.7091         estimate D2E/DX2                !
 ! D13   D(2,1,12,13)           61.024          estimate D2E/DX2                !
 ! D14   D(2,1,12,32)          -62.8988         estimate D2E/DX2                !
 ! D15   D(2,1,12,33)         -179.3311         estimate D2E/DX2                !
 ! D16   D(6,1,12,13)         -177.9245         estimate D2E/DX2                !
 ! D17   D(6,1,12,32)           58.1527         estimate D2E/DX2                !
 ! D18   D(6,1,12,33)          -58.2796         estimate D2E/DX2                !
 ! D19   D(10,1,12,13)         -65.4396         estimate D2E/DX2                !
 ! D20   D(10,1,12,32)         170.6376         estimate D2E/DX2                !
 ! D21   D(10,1,12,33)          54.2053         estimate D2E/DX2                !
 ! D22   D(1,2,3,4)             60.6088         estimate D2E/DX2                !
 ! D23   D(1,2,3,15)           178.8597         estimate D2E/DX2                !
 ! D24   D(1,2,3,37)           -59.3783         estimate D2E/DX2                !
 ! D25   D(7,2,3,4)            -56.325          estimate D2E/DX2                !
 ! D26   D(7,2,3,15)            61.9259         estimate D2E/DX2                !
 ! D27   D(7,2,3,37)          -176.312          estimate D2E/DX2                !
 ! D28   D(14,2,3,4)          -171.4828         estimate D2E/DX2                !
 ! D29   D(14,2,3,15)          -53.2319         estimate D2E/DX2                !
 ! D30   D(14,2,3,37)           68.5302         estimate D2E/DX2                !
 ! D31   D(1,2,14,29)          -71.4546         estimate D2E/DX2                !
 ! D32   D(1,2,14,30)           47.497          estimate D2E/DX2                !
 ! D33   D(1,2,14,31)          169.9636         estimate D2E/DX2                !
 ! D34   D(3,2,14,29)          161.3852         estimate D2E/DX2                !
 ! D35   D(3,2,14,30)          -79.6632         estimate D2E/DX2                !
 ! D36   D(3,2,14,31)           42.8034         estimate D2E/DX2                !
 ! D37   D(7,2,14,29)           46.0724         estimate D2E/DX2                !
 ! D38   D(7,2,14,30)          165.0239         estimate D2E/DX2                !
 ! D39   D(7,2,14,31)          -72.5094         estimate D2E/DX2                !
 ! D40   D(2,3,4,5)            -55.0764         estimate D2E/DX2                !
 ! D41   D(2,3,4,8)             66.085          estimate D2E/DX2                !
 ! D42   D(2,3,4,9)           -175.8995         estimate D2E/DX2                !
 ! D43   D(15,3,4,5)          -168.1074         estimate D2E/DX2                !
 ! D44   D(15,3,4,8)           -46.946          estimate D2E/DX2                !
 ! D45   D(15,3,4,9)            71.0695         estimate D2E/DX2                !
 ! D46   D(37,3,4,5)            68.3101         estimate D2E/DX2                !
 ! D47   D(37,3,4,8)          -170.5285         estimate D2E/DX2                !
 ! D48   D(37,3,4,9)           -52.513          estimate D2E/DX2                !
 ! D49   D(2,3,15,16)         -159.7451         estimate D2E/DX2                !
 ! D50   D(4,3,15,16)          -46.5982         estimate D2E/DX2                !
 ! D51   D(37,3,15,16)          76.1226         estimate D2E/DX2                !
 ! D52   D(2,3,37,38)          -64.6955         estimate D2E/DX2                !
 ! D53   D(2,3,37,40)          175.3956         estimate D2E/DX2                !
 ! D54   D(2,3,37,41)           60.8794         estimate D2E/DX2                !
 ! D55   D(4,3,37,38)          177.8843         estimate D2E/DX2                !
 ! D56   D(4,3,37,40)           57.9755         estimate D2E/DX2                !
 ! D57   D(4,3,37,41)          -56.5407         estimate D2E/DX2                !
 ! D58   D(15,3,37,38)          53.5746         estimate D2E/DX2                !
 ! D59   D(15,3,37,40)         -66.3342         estimate D2E/DX2                !
 ! D60   D(15,3,37,41)         179.1496         estimate D2E/DX2                !
 ! D61   D(3,4,5,10)            36.7875         estimate D2E/DX2                !
 ! D62   D(3,4,5,11)          -148.3778         estimate D2E/DX2                !
 ! D63   D(8,4,5,10)           -86.4768         estimate D2E/DX2                !
 ! D64   D(8,4,5,11)            88.3579         estimate D2E/DX2                !
 ! D65   D(9,4,5,10)           159.2289         estimate D2E/DX2                !
 ! D66   D(9,4,5,11)           -25.9364         estimate D2E/DX2                !
 ! D67   D(4,5,10,1)           -21.981          estimate D2E/DX2                !
 ! D68   D(11,5,10,1)          163.1719         estimate D2E/DX2                !
 ! D69   D(1,12,13,34)          54.845          estimate D2E/DX2                !
 ! D70   D(1,12,13,35)         174.3472         estimate D2E/DX2                !
 ! D71   D(1,12,13,36)         -66.6179         estimate D2E/DX2                !
 ! D72   D(32,12,13,34)        179.3605         estimate D2E/DX2                !
 ! D73   D(32,12,13,35)        -61.1373         estimate D2E/DX2                !
 ! D74   D(32,12,13,36)         57.8977         estimate D2E/DX2                !
 ! D75   D(33,12,13,34)        -65.339          estimate D2E/DX2                !
 ! D76   D(33,12,13,35)         54.1632         estimate D2E/DX2                !
 ! D77   D(33,12,13,36)        173.1981         estimate D2E/DX2                !
 ! D78   D(3,15,16,17)         -44.4907         estimate D2E/DX2                !
 ! D79   D(3,15,16,18)          78.7813         estimate D2E/DX2                !
 ! D80   D(3,15,16,19)        -163.7596         estimate D2E/DX2                !
 ! D81   D(15,16,17,26)        -55.5301         estimate D2E/DX2                !
 ! D82   D(15,16,17,27)         65.5039         estimate D2E/DX2                !
 ! D83   D(15,16,17,28)       -174.9969         estimate D2E/DX2                !
 ! D84   D(18,16,17,26)        179.7238         estimate D2E/DX2                !
 ! D85   D(18,16,17,27)        -59.2422         estimate D2E/DX2                !
 ! D86   D(18,16,17,28)         60.257          estimate D2E/DX2                !
 ! D87   D(19,16,17,26)         64.4872         estimate D2E/DX2                !
 ! D88   D(19,16,17,27)       -174.4788         estimate D2E/DX2                !
 ! D89   D(19,16,17,28)        -54.9796         estimate D2E/DX2                !
 ! D90   D(15,16,18,20)        -69.868          estimate D2E/DX2                !
 ! D91   D(15,16,18,21)         50.5783         estimate D2E/DX2                !
 ! D92   D(15,16,18,22)        170.3381         estimate D2E/DX2                !
 ! D93   D(17,16,18,20)         56.6119         estimate D2E/DX2                !
 ! D94   D(17,16,18,21)        177.0582         estimate D2E/DX2                !
 ! D95   D(17,16,18,22)        -63.182          estimate D2E/DX2                !
 ! D96   D(19,16,18,20)        171.8584         estimate D2E/DX2                !
 ! D97   D(19,16,18,21)        -67.6952         estimate D2E/DX2                !
 ! D98   D(19,16,18,22)         52.0646         estimate D2E/DX2                !
 ! D99   D(15,16,19,23)         61.0304         estimate D2E/DX2                !
 ! D100  D(15,16,19,24)       -178.9218         estimate D2E/DX2                !
 ! D101  D(15,16,19,25)        -58.8475         estimate D2E/DX2                !
 ! D102  D(17,16,19,23)        -62.6448         estimate D2E/DX2                !
 ! D103  D(17,16,19,24)         57.403          estimate D2E/DX2                !
 ! D104  D(17,16,19,25)        177.4772         estimate D2E/DX2                !
 ! D105  D(18,16,19,23)       -178.8509         estimate D2E/DX2                !
 ! D106  D(18,16,19,24)        -58.8031         estimate D2E/DX2                !
 ! D107  D(18,16,19,25)         61.2711         estimate D2E/DX2                !
 ! D108  D(3,37,38,39)         129.7376         estimate D2E/DX2                !
 ! D109  D(3,37,38,42)         -51.3404         estimate D2E/DX2                !
 ! D110  D(40,37,38,39)       -108.8165         estimate D2E/DX2                !
 ! D111  D(40,37,38,42)         70.1055         estimate D2E/DX2                !
 ! D112  D(41,37,38,39)          3.8455         estimate D2E/DX2                !
 ! D113  D(41,37,38,42)       -177.2325         estimate D2E/DX2                !
 ! D114  D(37,38,39,43)        179.3985         estimate D2E/DX2                !
 ! D115  D(37,38,39,44)         -0.2688         estimate D2E/DX2                !
 ! D116  D(42,38,39,43)          0.4953         estimate D2E/DX2                !
 ! D117  D(42,38,39,44)       -179.172          estimate D2E/DX2                !
 --------------------------------------------------------------------------------
 Trust Radius=3.00D-01 FncErr=1.00D-07 GrdErr=1.00D-06
 Number of steps in this run=     25 maximum allowed number of steps=    264.
 GradGradGradGradGradGradGradGradGradGradGradGradGradGradGradGradGradGrad

                          Input orientation:                          
 ---------------------------------------------------------------------
 Center     Atomic      Atomic             Coordinates (Angstroms)
 Number     Number       Type             X           Y           Z
 ---------------------------------------------------------------------
      1          6           0        1.190390   -0.114418    1.004152
      2          6           0       -0.306952   -0.424755    0.883349
      3          6           0       -1.153299    0.842471    1.228558
      4          6           0       -0.727930    1.894361    0.193134
      5          6           0        0.748592    2.154231    0.149640
      6          1           0        1.449164    0.029691    2.060263
      7          1           0       -0.535189   -0.646425   -0.169627
      8          1           0       -1.032509    1.595155   -0.817435
      9          1           0       -1.220573    2.851396    0.401512
     10          8           0        1.574797    1.107226    0.334508
     11          8           0        1.189928    3.262443   -0.140197
     12          6           0        2.127624   -1.219782    0.483463
     13          6           0        1.960762   -1.539428   -0.996763
     14          6           0       -0.688718   -1.699770    1.648200
     15          8           0       -2.526000    0.425553    1.050902
     16         14           0       -3.893129    1.358168    0.808022
     17          6           0       -4.011807    2.854845    1.928923
     18          6           0       -4.015015    1.938163   -0.977961
     19          6           0       -5.415576    0.286715    1.148819
     20          1           0       -3.243952    2.679069   -1.205443
     21          1           0       -3.896999    1.094020   -1.663602
     22          1           0       -4.990395    2.397768   -1.163855
     23          1           0       -5.407973   -0.063633    2.185002
     24          1           0       -6.331995    0.859779    0.981022
     25          1           0       -5.422707   -0.584210    0.487127
     26          1           0       -3.949955    2.560656    2.980637
     27          1           0       -3.213335    3.571898    1.719480
     28          1           0       -4.967104    3.367436    1.779170
     29          1           0       -0.297897   -2.584045    1.132790
     30          1           0       -0.273139   -1.712158    2.658828
     31          1           0       -1.772473   -1.832401    1.715071
     32          1           0        2.002141   -2.136477    1.069649
     33          1           0        3.164407   -0.891421    0.632564
     34          1           0        2.068601   -0.643014   -1.614926
     35          1           0        2.725061   -2.257651   -1.311267
     36          1           0        0.984810   -1.987954   -1.202747
     37          6           0       -0.922218    1.407747    2.669645
     38          6           0       -1.335328    0.518144    3.810158
     39          6           0       -0.549851    0.219996    4.853237
     40          1           0       -1.493219    2.335069    2.784862
     41          1           0        0.125221    1.706179    2.796535
     42          1           0       -2.345165    0.112438    3.779793
     43          1           0       -0.910554   -0.422107    5.651635
     44          1           0        0.460486    0.607108    4.942245
 ---------------------------------------------------------------------
                    Distance matrix (angstroms):
                    1          2          3          4          5
     1  C    0.000000
     2  C    1.533928   0.000000
     3  C    2.541431   1.562477   0.000000
     4  C    2.893595   2.455996   1.536071   0.000000
     5  C    2.464172   2.881609   2.549896   1.499847   0.000000
     6  H    1.096860   2.162312   2.850466   3.420951   2.941930
     7  H    2.153697   1.099995   2.133962   2.573779   3.097370
     8  H    3.343965   2.738455   2.183394   1.097061   2.102408
     9  H    3.869363   3.435118   2.173548   1.096373   2.104065
    10  O    1.445201   2.487805   2.883042   2.437646   1.346481
    11  O    3.565491   4.108981   3.635996   2.379272   1.227565
    12  C    1.539920   2.592130   3.946202   4.235135   3.660209
    13  C    2.574449   3.149578   4.508090   4.520600   4.052988
    14  C    2.541493   1.535059   2.618191   3.877697   4.377770
    15  O    3.755704   2.382283   1.445576   2.475120   3.810978
    16  Si   5.296144   4.005640   2.819479   3.268650   4.755287
    17  C    6.060906   5.057168   3.565281   3.836579   5.130118
    18  C    5.936169   4.774682   3.776067   3.489744   4.900012
    19  C    6.619715   5.164756   4.299096   5.046968   6.517894
    20  H    5.687642   4.756337   3.697064   2.983647   4.248778
    21  H    5.870158   4.656401   3.994466   3.759124   5.098373
    22  H    7.015229   5.838863   4.781830   4.501494   5.892415
    23  H    6.703386   5.276848   4.453994   5.450145   6.853095
    24  H    7.585240   6.161226   5.184637   5.752971   7.245793
    25  H    6.649893   5.133553   4.562125   5.317018   6.760021
    26  H    6.122553   5.155848   3.720649   4.312258   5.500552
    27  H    5.787349   5.011927   3.454638   3.364684   4.491218
    28  H    7.116087   6.074555   4.606922   4.759838   6.066005
    29  H    2.886278   2.173669   3.532973   4.596086   4.951059
    30  H    2.726287   2.193371   3.057202   4.392432   4.721115
    31  H    3.497918   2.195673   2.788371   4.158860   4.969867
    32  H    2.179897   2.880384   4.342371   4.946637   4.563768
    33  H    2.153730   3.511553   4.690861   4.806659   3.917317
    34  H    2.812515   3.454311   4.546725   4.186638   3.560997
    35  H    3.508536   4.167607   5.577019   5.605852   5.050285
    36  H    2.902207   2.909302   4.300472   4.467027   4.363765
    37  C    3.090949   2.632009   1.565141   2.531333   3.114365
    38  C    3.827931   3.242349   2.608253   3.917368   4.518727
    39  C    4.237420   4.029232   3.726919   4.954974   5.248909
    40  H    4.046316   3.555223   2.182997   2.738055   3.464508
    41  H    2.767995   2.896193   2.199808   2.746084   2.755974
    42  H    4.500644   3.582217   2.909002   4.319123   5.188281
    43  H    5.109573   4.806339   4.606701   5.932504   6.297796
    44  H    4.069636   4.257739   4.056004   5.061957   5.044369
                    6          7          8          9         10
     6  H    0.000000
     7  H    3.060588   0.000000
     8  H    4.109808   2.385721   0.000000
     9  H    4.223857   3.609806   1.760495   0.000000
    10  O    2.038405   2.789531   2.891901   3.295559   0.000000
    11  O    3.919172   4.272721   2.859672   2.504580   2.240185
    12  C    2.123155   2.801042   4.427488   5.271777   2.396408
    13  C    3.474086   2.776937   4.337907   5.599589   2.987646
    14  C    2.780534   2.106562   4.129658   4.748706   3.837775
    15  O    4.120370   2.569466   2.662549   2.830293   4.218345
    16  Si   5.645622   4.031123   3.298700   3.088290   5.494124
    17  C    6.149874   5.361872   4.243291   3.181821   6.066834
    18  C    6.536843   4.409386   3.006454   3.247437   5.801640
    19  C    6.929751   5.140742   4.978900   4.973340   7.085313
    20  H    6.301538   4.412394   2.493171   2.589607   5.297403
    21  H    6.601623   4.069751   3.028603   3.810029   5.825218
    22  H    7.580940   5.486753   4.053277   4.107032   6.856554
    23  H    6.858906   5.443156   5.559756   5.404863   7.318081
    24  H    7.899382   6.098820   5.644447   5.516249   7.937038
    25  H    7.076316   4.931838   5.072017   5.428503   7.200647
    26  H    6.033520   5.645366   4.885595   3.766423   6.295819
    27  H    5.865344   5.341857   3.885801   2.495448   5.560482
    28  H    7.237959   6.288940   5.036306   4.025013   7.070507
    29  H    3.277811   2.346693   4.669983   5.561485   4.215414
    30  H    2.521636   3.033911   4.857918   5.178719   4.094662
    31  H    3.737043   2.547449   4.325422   4.895711   4.663859
    32  H    2.445278   3.192821   5.166746   5.975882   3.353306
    33  H    2.414297   3.793487   5.089171   5.769759   2.571048
    34  H    3.787248   2.978023   3.906696   5.205342   2.665985
    35  H    4.269316   3.811643   5.404379   6.678623   3.918428
    36  H    3.864421   2.275398   4.129977   5.554878   3.505906
    37  C    2.809597   3.525745   3.493854   2.705100   3.431947
    38  C    3.324773   4.223166   4.760911   4.132324   4.571213
    39  C    3.439910   5.097064   5.854959   5.214594   5.071510
    40  H    3.807549   4.305361   3.706247   2.453831   4.113946
    41  H    2.259543   3.843046   3.796504   2.976377   2.919177
    42  H    4.166601   4.410193   5.005599   4.492147   5.312786
    43  H    4.320919   5.837663   6.777395   6.194814   6.065284
    44  H    3.101083   5.356673   6.031516   5.336763   4.766870
                   11         12         13         14         15
    11  O    0.000000
    12  C    4.621533   0.000000
    13  C    4.938204   1.523511   0.000000
    14  C    5.599217   3.085253   3.747170   0.000000
    15  O    4.824395   4.968433   5.308966   2.872171   0.000000
    16  Si   5.510250   6.557487   6.776529   4.508340   1.672663
    17  C    5.612971   7.508965   7.971252   5.645019   2.979933
    18  C    5.435715   7.059773   6.914037   5.585296   2.936229
    19  C    7.358614   7.720887   7.896118   5.151572   2.894566
    20  H    4.597213   6.848888   6.702859   5.817794   3.268774
    21  H    5.735821   6.801445   6.457018   5.391323   3.113682
    22  H    6.323917   8.152700   7.990495   6.572815   3.855908
    23  H    7.746072   7.811347   8.160873   5.023591   3.135483
    24  H    7.975541   8.725669   8.856503   6.232415   3.831323
    25  H    7.675755   7.577035   7.591442   5.000322   3.119034
    26  H    6.053966   7.580538   8.219913   5.528317   3.210948
    27  H    4.789873   7.281056   7.763692   5.845447   3.289212
    28  H    6.450119   8.547315   8.931878   6.633123   3.891534
    29  H    6.165674   2.857620   3.275326   1.095596   3.745508
    30  H    5.892517   3.276936   4.287598   1.092808   3.497230
    31  H    6.178614   4.135567   4.623518   1.093886   2.471291
    32  H    5.592115   1.095303   2.151334   2.786782   5.202731
    33  H    4.663723   1.097712   2.126824   4.065897   5.855780
    34  H    4.266086   2.177012   1.094218   4.400856   5.418379
    35  H    5.848032   2.157582   1.094947   4.552314   6.352406
    36  H    5.360761   2.177020   1.093658   3.318380   4.819724
    37  C    3.974452   4.580921   5.517242   3.279411   2.481361
    38  C    5.432624   5.106792   6.180963   3.164065   3.006620
    39  C    6.100631   5.323228   6.604639   3.738589   4.290125
    40  H    4.076183   5.571706   6.422025   4.268389   2.778400
    41  H    3.489979   4.233340   5.319049   3.685330   3.422895
    42  H    6.147010   5.713707   6.639665   3.251400   2.752742
    43  H    7.178666   6.047877   7.327623   4.208221   4.949236
    44  H    5.780494   5.098785   6.490783   4.182474   4.908626
                   16         17         18         19         20
    16  Si   0.000000
    17  C    1.873645   0.000000
    18  C    1.881751   3.047998   0.000000
    19  C    1.892617   3.028931   3.035135   0.000000
    20  H    2.494043   3.231834   1.093265   3.997732   0.000000
    21  H    2.485702   4.002489   1.093896   3.296594   1.774475
    22  H    2.484564   3.275947   1.094148   3.160029   1.769441
    23  H    2.492457   3.245361   3.993977   1.093836   4.868318
    24  H    2.495273   3.203448   3.220081   1.093792   4.198387
    25  H    2.493073   3.987043   3.238896   1.093800   4.273261
    26  H    2.483840   1.093835   4.007771   3.267172   4.246849
    27  H    2.488670   1.093430   3.253916   3.995991   3.058309
    28  H    2.476633   1.094426   3.248240   3.176368   3.514401
    29  H    5.345298   6.633889   6.222749   5.867892   6.468921
    30  H    5.094773   5.947093   6.368101   5.720164   6.560579
    31  H    3.936960   5.199098   5.147676   4.252469   5.572074
    32  H    6.858221   7.862520   7.549938   7.803887   7.475762
    33  H    7.409470   8.198360   7.883174   8.675865   7.562654
    34  H    6.739260   7.859087   6.639170   8.032160   6.279103
    35  H    7.833644   9.056591   7.946356   8.876699   7.746710
    36  H    6.247721   7.630612   6.361067   7.188110   6.297900
    37  C    3.506339   3.491178   4.811628   4.874412   4.692869
    38  C    4.032469   4.020293   5.667739   4.876957   5.785214
    39  C    5.369982   5.242059   6.997309   6.115754   7.071975
    40  H    3.259110   2.710366   4.547068   4.717762   4.371034
    41  H    4.496936   4.380318   5.607334   5.952334   5.321059
    42  H    3.574837   3.704620   5.362639   4.047199   5.678731
    43  H    5.960346   5.849339   7.691560   6.408822   7.879185
    44  H    6.050608   5.842417   7.539937   7.001488   7.470606
                   21         22         23         24         25
    21  H    0.000000
    22  H    1.773421   0.000000
    23  H    4.293595   4.177046   0.000000
    24  H    3.602514   2.960709   1.776534   0.000000
    25  H    3.125680   3.435815   1.775950   1.776469   0.000000
    26  H    4.870604   4.276197   3.105760   3.544793   4.275134
    27  H    4.248826   3.584710   4.272029   4.198446   4.865517
    28  H    4.262185   3.098741   3.483002   2.964509   4.182398
    29  H    5.856749   7.218904   5.794178   6.949338   5.538944
    30  H    6.300032   7.331910   5.413748   6.792616   5.701456
    31  H    4.949038   6.044631   4.070164   5.345643   4.048461
    32  H    7.259933   8.628063   7.774991   8.856818   7.607709
    33  H    7.686209   8.974780   8.751057   9.662804   8.593838
    34  H    6.213537   7.699302   8.406800   8.920053   7.780860
    35  H    7.430311   9.012376   9.120518   9.849021   8.510038
    36  H    5.791633   7.412094   7.486490   8.149483   6.773658
    37  C    5.265432   5.676789   4.745718   5.693628   5.383835
    38  C    6.070901   6.452388   4.423351   5.752165   5.381857
    39  C    7.378110   7.788871   5.549889   6.988316   6.591994
    40  H    5.206457   5.275086   4.630216   5.370668   5.407648
    41  H    6.037037   6.506344   5.841442   6.760778   6.431077
    42  H    5.744758   6.054720   3.457622   4.928129   4.560508
    43  H    8.045507   8.428980   5.689712   7.269792   6.859879
    44  H    7.928554   8.378724   6.518519   7.867206   7.475244
                   26         27         28         29         30
    26  H    0.000000
    27  H    1.776439   0.000000
    28  H    1.768901   1.766656   0.000000
    29  H    6.574193   6.836638   7.592063   0.000000
    30  H    5.646191   6.119508   6.972043   1.757723   0.000000
    31  H    5.063796   5.593081   6.103121   1.754535   1.775708
    32  H    7.819359   7.759447   8.908808   2.344030   2.807568
    33  H    8.248905   7.859911   9.250624   3.886226   4.073828
    34  H    8.222270   7.535423   8.780931   4.113132   4.989167
    35  H    9.283984   8.856276  10.018074   3.901054   5.004840
    36  H    7.908379   7.554852   8.543846   2.730457   4.070658
    37  C    3.254705   3.291744   4.581968   4.322743   3.186727
    38  C    3.419976   4.150091   5.043131   4.227072   2.725446
    39  C    4.532773   5.305641   6.234452   4.665603   2.936872
    40  H    2.474827   2.371410   3.760994   5.325018   4.229010
    41  H    4.167863   3.973275   5.452209   4.620941   3.444224
    42  H    3.034431   4.119038   4.633796   4.297552   2.979766
    43  H    5.026834   6.059432   6.768472   5.046710   3.320756
    44  H    5.207326   5.716044   6.861719   5.026982   3.336344
                   31         32         33         34         35
    31  H    0.000000
    32  H    3.841451   0.000000
    33  H    5.141016   1.758428   0.000000
    34  H    5.220859   3.072750   2.512709   0.000000
    35  H    5.437589   2.491196   2.416214   1.769237   0.000000
    36  H    4.017520   2.494154   3.053096   1.775770   1.764366
    37  C    3.483203   4.865530   5.112375   5.613214   6.525753
    38  C    3.178922   5.069132   5.686088   6.508960   7.100760
    39  C    3.944011   5.136260   5.731059   7.031231   7.407084
    40  H    4.311640   5.929099   6.061032   6.396380   7.460914
    41  H    4.158408   4.612046   4.546091   5.362501   6.272572
    42  H    2.893692   5.594780   6.424030   7.011065   7.565937
    43  H    4.269469   5.693633   6.482024   7.856658   8.066531
    44  H    4.620818   4.990086   5.303784   6.866246   7.241654
                   36         37         38         39         40
    36  H    0.000000
    37  C    5.492082   0.000000
    38  C    6.065706   1.504268   0.000000
    39  C    6.626098   2.513460   1.339358   0.000000
    40  H    6.382020   1.095100   2.092218   3.105101   0.000000
    41  H    5.511785   1.096490   2.138238   2.625735   1.736372
    42  H    6.350282   2.221493   1.088710   2.094517   2.579881
    43  H    7.281953   3.498681   2.110816   1.086205   4.019938
    44  H    6.691053   2.778058   2.124731   1.085615   3.384836
                   41         42         43         44
    41  H    0.000000
    42  H    3.099938   0.000000
    43  H    3.708642   2.418189   0.000000
    44  H    2.434015   3.076958   1.855335   0.000000
 Stoichiometry    C14H26O3Si
 Framework group  C1[X(C14H26O3Si)]
 Deg. of freedom   126
 Full point group                 C1      NOp   1
 Largest Abelian subgroup         C1      NOp   1
 Largest concise Abelian subgroup C1      NOp   1
                         Standard orientation:                         
 ---------------------------------------------------------------------
 Center     Atomic      Atomic             Coordinates (Angstroms)
 Number     Number       Type             X           Y           Z
 ---------------------------------------------------------------------
      1          6           0        2.477047    0.243308    0.058784
      2          6           0        1.150187    0.325354    0.824058
      3          6           0       -0.051283    0.086743   -0.145926
      4          6           0        0.169711   -1.326137   -0.706682
      5          6           0        1.508733   -1.531023   -1.350564
      6          1           0        2.568815    1.110495   -0.606549
      7          1           0        1.109058   -0.504914    1.544442
      8          1           0        0.073076   -2.081000    0.083498
      9          1           0       -0.592307   -1.557772   -1.460147
     10          8           0        2.571546   -0.919218   -0.794567
     11          8           0        1.648380   -2.305652   -2.292564
     12          6           0        3.738516    0.249284    0.941968
     13          6           0        3.829757   -0.919282    1.915218
     14          6           0        1.062949    1.596791    1.679770
     15          8           0       -1.223120    0.162318    0.697150
     16         14           0       -2.763073   -0.431619    0.425878
     17          6           0       -3.419486   -0.106917   -1.298719
     18          6           0       -2.849510   -2.281532    0.759549
     19          6           0       -3.949233    0.407231    1.638873
     20          1           0       -2.298720   -2.845066    0.001731
     21          1           0       -2.424807   -2.513956    1.740475
     22          1           0       -3.888812   -2.623317    0.745613
     23          1           0       -3.955345    1.488847    1.475946
     24          1           0       -4.966273    0.028248    1.503291
     25          1           0       -3.638874    0.212380    2.669459
     26          1           0       -3.391397    0.961322   -1.532280
     27          1           0       -2.837795   -0.644475   -2.052545
     28          1           0       -4.458493   -0.441159   -1.379438
     29          1           0        1.740612    1.525261    2.537667
     30          1           0        1.353246    2.489190    1.119788
     31          1           0        0.059953    1.751992    2.087812
     32          1           0        3.813906    1.190845    1.496467
     33          1           0        4.618177    0.199396    0.287233
     34          1           0        3.746725   -1.879569    1.397271
     35          1           0        4.794902   -0.899272    2.431944
     36          1           0        3.048122   -0.867646    2.678413
     37          6           0       -0.146321    1.107083   -1.328948
     38          6           0       -0.412756    2.539688   -0.955481
     39          6           0        0.307223    3.578288   -1.399124
     40          1           0       -0.964579    0.808474   -1.992673
     41          1           0        0.754341    1.050612   -1.951773
     42          1           0       -1.257773    2.729510   -0.295780
     43          1           0        0.057992    4.592271   -1.099849
     44          1           0        1.151612    3.449119   -2.069110
 ---------------------------------------------------------------------
 Rotational constants (GHZ):      0.4959161      0.2621397      0.2391605
 Standard basis: 6-31G(d,p) (6D, 7F)
 There are   404 symmetry adapted cartesian basis functions of A   symmetry.
 There are   404 symmetry adapted basis functions of A   symmetry.
   404 basis functions,   710 primitive gaussians,   404 cartesian basis functions
    74 alpha electrons       74 beta electrons
       nuclear repulsion energy      1629.8504098416 Hartrees.
 NAtoms=   44 NActive=   44 NUniq=   44 SFac= 1.00D+00 NAtFMM=   60 NAOKFM=F Big=F
 Integral buffers will be    131072 words long.
 Raffenetti 2 integral format.
 Two-electron integral symmetry is turned on.
 ------------------------------------------------------------------------------
 Polarizable Continuum Model (PCM)
 =================================
 Model                : PCM (using non-symmetric T matrix).
 Atomic radii         : UFF (Universal Force Field).
 Polarization charges : Total charges.
 Charge compensation  : None.
 Solution method      : On-the-fly selection.
 Cavity type          : Scaled VdW (van der Waals Surface) (Alpha=1.100).
 Cavity algorithm     : GePol (No added spheres)
                        Default sphere list used, NSphG=   44.
                        Lebedev-Laikov grids with approx.  5.0 points / Ang**2.
                        Smoothing algorithm: Karplus/York (Gamma=1.0000).
                        Polarization charges: spherical gaussians, with
                                              point-specific exponents (IZeta= 3).
                        Self-potential: point-specific (ISelfS= 7).
                        Self-field    : sphere-specific E.n sum rule (ISelfD= 2).
 1st derivatives      : Analytical E(r).r(x)/FMM algorithm (CHGder, D1EAlg=3).
                        Cavity 1st derivative terms included.
 Solvent              : Chloroform, Eps=   4.711300 Eps(inf)=   2.090627
 ------------------------------------------------------------------------------
 One-electron integrals computed using PRISM.
 NBasis=   404 RedAO= T EigKep=  1.80D-03  NBF=   404
 NBsUse=   404 1.00D-06 EigRej= -1.00D+00 NBFU=   404
 ExpMin= 7.78D-02 ExpMax= 1.61D+04 ExpMxC= 2.43D+03 IAcc=2 IRadAn=         4 AccDes= 0.00D+00
 Harris functional with IExCor=  402 and IRadAn=       4 diagonalized for initial guess.
 HarFok:  IExCor=  402 AccDes= 0.00D+00 IRadAn=         4 IDoV= 1 UseB2=F ITyADJ=14
 ICtDFT=  3500011 ScaDFX=  1.000000  1.000000  1.000000  1.000000
 FoFCou: FMM=F IPFlag=           0 FMFlag=      100000 FMFlg1=           0
         NFxFlg=           0 DoJE=T BraDBF=F KetDBF=T FulRan=T
         wScrn=  0.000000 ICntrl=     500 IOpCl=  0 I1Cent=   200000004 NGrid=           0
         NMat0=    1 NMatS0=      1 NMatT0=    0 NMatD0=    1 NMtDS0=    0 NMtDT0=    0
 Petite list used in FoFCou.
 Requested convergence on RMS density matrix=1.00D-08 within 128 cycles.
 Requested convergence on MAX density matrix=1.00D-06.
 Requested convergence on             energy=1.00D-06.
 No special actions if energy rises.
 Inv3:  Mode=1 IEnd=    24111675.
 Iteration    1 A*A^-1 deviation from unit magnitude is 4.11D-15 for   2832.
 Iteration    1 A*A^-1 deviation from orthogonality  is 4.94D-15 for   2381   2309.
 Iteration    1 A^-1*A deviation from unit magnitude is 4.11D-15 for   2832.
 Iteration    1 A^-1*A deviation from orthogonality  is 2.17D-12 for   2120   2071.
 Error on total polarization charges =  0.00917
 SCF Done:  E(RB3LYP) =  -1064.41615248     A.U. after   13 cycles
            NFock= 13  Conv=0.58D-08     -V/T= 2.0081

 **********************************************************************

            Population analysis using the SCF density.

 **********************************************************************

 Orbital symmetries:
       Occupied  (A) (A) (A) (A) (A) (A) (A) (A) (A) (A) (A) (A)
                 (A) (A) (A) (A) (A) (A) (A) (A) (A) (A) (A) (A)
                 (A) (A) (A) (A) (A) (A) (A) (A) (A) (A) (A) (A)
                 (A) (A) (A) (A) (A) (A) (A) (A) (A) (A) (A) (A)
                 (A) (A) (A) (A) (A) (A) (A) (A) (A) (A) (A) (A)
                 (A) (A) (A) (A) (A) (A) (A) (A) (A) (A) (A) (A)
                 (A) (A)
       Virtual   (A) (A) (A) (A) (A) (A) (A) (A) (A) (A) (A) (A)
                 (A) (A) (A) (A) (A) (A) (A) (A) (A) (A) (A) (A)
                 (A) (A) (A) (A) (A) (A) (A) (A) (A) (A) (A) (A)
                 (A) (A) (A) (A) (A) (A) (A) (A) (A) (A) (A) (A)
                 (A) (A) (A) (A) (A) (A) (A) (A) (A) (A) (A) (A)
                 (A) (A) (A) (A) (A) (A) (A) (A) (A) (A) (A) (A)
                 (A) (A) (A) (A) (A) (A) (A) (A) (A) (A) (A) (A)
                 (A) (A) (A) (A) (A) (A) (A) (A) (A) (A) (A) (A)
                 (A) (A) (A) (A) (A) (A) (A) (A) (A) (A) (A) (A)
                 (A) (A) (A) (A) (A) (A) (A) (A) (A) (A) (A) (A)
                 (A) (A) (A) (A) (A) (A) (A) (A) (A) (A) (A) (A)
                 (A) (A) (A) (A) (A) (A) (A) (A) (A) (A) (A) (A)
                 (A) (A) (A) (A) (A) (A) (A) (A) (A) (A) (A) (A)
                 (A) (A) (A) (A) (A) (A) (A) (A) (A) (A) (A) (A)
                 (A) (A) (A) (A) (A) (A) (A) (A) (A) (A) (A) (A)
                 (A) (A) (A) (A) (A) (A) (A) (A) (A) (A) (A) (A)
                 (A) (A) (A) (A) (A) (A) (A) (A) (A) (A) (A) (A)
                 (A) (A) (A) (A) (A) (A) (A) (A) (A) (A) (A) (A)
                 (A) (A) (A) (A) (A) (A) (A) (A) (A) (A) (A) (A)
                 (A) (A) (A) (A) (A) (A) (A) (A) (A) (A) (A) (A)
                 (A) (A) (A) (A) (A) (A) (A) (A) (A) (A) (A) (A)
                 (A) (A) (A) (A) (A) (A) (A) (A) (A) (A) (A) (A)
                 (A) (A) (A) (A) (A) (A) (A) (A) (A) (A) (A) (A)
                 (A) (A) (A) (A) (A) (A) (A) (A) (A) (A) (A) (A)
                 (A) (A) (A) (A) (A) (A) (A) (A) (A) (A) (A) (A)
                 (A) (A) (A) (A) (A) (A) (A) (A) (A) (A) (A) (A)
                 (A) (A) (A) (A) (A) (A) (A) (A) (A) (A) (A) (A)
                 (A) (A) (A) (A) (A) (A)
 The electronic state is 1-A.
 Alpha  occ. eigenvalues --  -66.13991 -19.19402 -19.14561 -19.13488 -10.32380
 Alpha  occ. eigenvalues --  -10.26719 -10.25465 -10.20238 -10.19954 -10.19650
 Alpha  occ. eigenvalues --  -10.19347 -10.18927 -10.18040 -10.17505 -10.17444
 Alpha  occ. eigenvalues --  -10.15995 -10.15784 -10.15650  -5.28153  -3.64210
 Alpha  occ. eigenvalues --   -3.63975  -3.63941  -1.10014  -1.01465  -1.00787
 Alpha  occ. eigenvalues --   -0.83007  -0.80410  -0.78029  -0.74950  -0.71282
 Alpha  occ. eigenvalues --   -0.70459  -0.69444  -0.67688  -0.67380  -0.64464
 Alpha  occ. eigenvalues --   -0.60681  -0.60114  -0.56559  -0.53755  -0.51255
 Alpha  occ. eigenvalues --   -0.50252  -0.48909  -0.47066  -0.46437  -0.45191
 Alpha  occ. eigenvalues --   -0.44642  -0.43310  -0.42904  -0.42302  -0.41891
 Alpha  occ. eigenvalues --   -0.40893  -0.40661  -0.40608  -0.39928  -0.39305
 Alpha  occ. eigenvalues --   -0.38929  -0.38616  -0.38469  -0.37846  -0.37060
 Alpha  occ. eigenvalues --   -0.36082  -0.35881  -0.35557  -0.34858  -0.34788
 Alpha  occ. eigenvalues --   -0.33746  -0.32718  -0.31611  -0.30126  -0.29382
 Alpha  occ. eigenvalues --   -0.28516  -0.27810  -0.26430  -0.25205
 Alpha virt. eigenvalues --   -0.00208   0.01216   0.06287   0.06959   0.08525
 Alpha virt. eigenvalues --    0.08925   0.09698   0.10236   0.11379   0.11953
 Alpha virt. eigenvalues --    0.12620   0.13034   0.13616   0.14010   0.14285
 Alpha virt. eigenvalues --    0.15051   0.16013   0.16443   0.16740   0.16817
 Alpha virt. eigenvalues --    0.16947   0.17343   0.18165   0.18327   0.18662
 Alpha virt. eigenvalues --    0.19330   0.19656   0.20122   0.20649   0.21248
 Alpha virt. eigenvalues --    0.21334   0.21714   0.22366   0.22870   0.23449
 Alpha virt. eigenvalues --    0.24551   0.25298   0.26079   0.26980   0.28052
 Alpha virt. eigenvalues --    0.29081   0.30035   0.32506   0.35193   0.36506
 Alpha virt. eigenvalues --    0.36997   0.38913   0.39768   0.40632   0.43928
 Alpha virt. eigenvalues --    0.45781   0.47080   0.48646   0.49013   0.50666
 Alpha virt. eigenvalues --    0.51686   0.52959   0.53683   0.54079   0.54875
 Alpha virt. eigenvalues --    0.57486   0.58085   0.59150   0.60565   0.61154
 Alpha virt. eigenvalues --    0.61750   0.62786   0.63364   0.64207   0.64985
 Alpha virt. eigenvalues --    0.66009   0.66975   0.67257   0.68258   0.68972
 Alpha virt. eigenvalues --    0.69473   0.70583   0.71651   0.72256   0.73824
 Alpha virt. eigenvalues --    0.74826   0.75565   0.75616   0.76208   0.76737
 Alpha virt. eigenvalues --    0.79308   0.80297   0.81652   0.81797   0.82696
 Alpha virt. eigenvalues --    0.83917   0.84703   0.85548   0.85905   0.86544
 Alpha virt. eigenvalues --    0.87190   0.87448   0.87848   0.88768   0.89256
 Alpha virt. eigenvalues --    0.89446   0.89986   0.90405   0.90670   0.91111
 Alpha virt. eigenvalues --    0.91918   0.92272   0.92507   0.93608   0.93886
 Alpha virt. eigenvalues --    0.94451   0.95077   0.95557   0.96651   0.97777
 Alpha virt. eigenvalues --    0.98328   0.98935   1.00538   1.00598   1.01133
 Alpha virt. eigenvalues --    1.02442   1.03786   1.04612   1.06648   1.07941
 Alpha virt. eigenvalues --    1.10353   1.11928   1.13575   1.14562   1.16181
 Alpha virt. eigenvalues --    1.17271   1.20757   1.22170   1.23805   1.25628
 Alpha virt. eigenvalues --    1.28454   1.29702   1.30297   1.31939   1.32271
 Alpha virt. eigenvalues --    1.34025   1.38632   1.40128   1.41936   1.42788
 Alpha virt. eigenvalues --    1.44350   1.45365   1.46480   1.47194   1.48174
 Alpha virt. eigenvalues --    1.48896   1.51536   1.54446   1.55286   1.57267
 Alpha virt. eigenvalues --    1.58022   1.58491   1.62026   1.63480   1.64464
 Alpha virt. eigenvalues --    1.65467   1.66338   1.68944   1.69591   1.71742
 Alpha virt. eigenvalues --    1.73043   1.75971   1.77116   1.77395   1.79626
 Alpha virt. eigenvalues --    1.81041   1.81658   1.83441   1.85128   1.85509
 Alpha virt. eigenvalues --    1.86202   1.87432   1.88638   1.90024   1.90700
 Alpha virt. eigenvalues --    1.91965   1.94171   1.95715   1.95913   1.96841
 Alpha virt. eigenvalues --    1.97893   1.98729   1.99293   2.01986   2.02432
 Alpha virt. eigenvalues --    2.03108   2.04538   2.04835   2.05176   2.05990
 Alpha virt. eigenvalues --    2.06374   2.07283   2.07826   2.08294   2.09042
 Alpha virt. eigenvalues --    2.09198   2.10169   2.10961   2.11707   2.11787
 Alpha virt. eigenvalues --    2.12530   2.12958   2.13311   2.13792   2.15185
 Alpha virt. eigenvalues --    2.15454   2.15801   2.16858   2.17021   2.19204
 Alpha virt. eigenvalues --    2.20119   2.21800   2.23631   2.24430   2.26280
 Alpha virt. eigenvalues --    2.28254   2.30034   2.30291   2.31301   2.32340
 Alpha virt. eigenvalues --    2.33579   2.33836   2.35519   2.35926   2.36177
 Alpha virt. eigenvalues --    2.37253   2.38067   2.39408   2.40086   2.41376
 Alpha virt. eigenvalues --    2.42802   2.44432   2.48579   2.50011   2.51682
 Alpha virt. eigenvalues --    2.52732   2.53093   2.55750   2.57639   2.58046
 Alpha virt. eigenvalues --    2.59714   2.60959   2.62305   2.63918   2.64032
 Alpha virt. eigenvalues --    2.65834   2.66341   2.67747   2.68389   2.68909
 Alpha virt. eigenvalues --    2.69749   2.71716   2.72150   2.73678   2.75394
 Alpha virt. eigenvalues --    2.76854   2.78009   2.79708   2.79921   2.81356
 Alpha virt. eigenvalues --    2.81677   2.82269   2.84569   2.85057   2.85688
 Alpha virt. eigenvalues --    2.86012   2.86509   2.87200   2.87815   2.89021
 Alpha virt. eigenvalues --    2.90808   2.92164   2.93216   2.93564   2.95705
 Alpha virt. eigenvalues --    2.96806   2.98555   3.02099   3.08554   3.10816
 Alpha virt. eigenvalues --    3.17155   3.18260   3.20598   3.20930   3.21275
 Alpha virt. eigenvalues --    3.21778   3.23039   3.25940   3.30802   3.32395
 Alpha virt. eigenvalues --    3.35072   3.37006   3.40496   3.43405   3.43703
 Alpha virt. eigenvalues --    3.44328   3.44695   3.45042   3.45310   3.45818
 Alpha virt. eigenvalues --    3.46179   3.46761   3.48044   3.49559   3.51204
 Alpha virt. eigenvalues --    3.54669   3.55671   3.66888   4.01860   4.13682
 Alpha virt. eigenvalues --    4.21683   4.25405   4.31528   4.38631   4.44776
 Alpha virt. eigenvalues --    4.45574   4.49647   4.52111   4.54750   4.59000
 Alpha virt. eigenvalues --    4.64069   4.65496   4.75722   4.78608   4.80283
          Condensed to atoms (all electrons):
               1          2          3          4          5          6
     1  C    4.821809   0.314829  -0.028397  -0.009493  -0.008323   0.382586
     2  C    0.314829   5.086478   0.342808  -0.049318  -0.016598  -0.045833
     3  C   -0.028397   0.342808   4.844765   0.287845  -0.015326  -0.013652
     4  C   -0.009493  -0.049318   0.287845   5.346781   0.286267   0.001532
     5  C   -0.008323  -0.016598  -0.015326   0.286267   4.357353  -0.001932
     6  H    0.382586  -0.045833  -0.013652   0.001532  -0.001932   0.637330
     7  H   -0.038232   0.376622  -0.044334  -0.007312  -0.000168   0.006239
     8  H    0.000411  -0.007497  -0.021607   0.364225  -0.023783  -0.000004
     9  H    0.000075   0.005963  -0.033150   0.353999  -0.021187   0.000079
    10  O    0.165409  -0.028325   0.002017  -0.098614   0.262475  -0.040626
    11  O    0.001860  -0.000111   0.002055  -0.087752   0.577657   0.000069
    12  C    0.373111  -0.035859   0.005437  -0.000624   0.001201  -0.049315
    13  C   -0.040389  -0.008724  -0.000101  -0.000095   0.000305   0.005558
    14  C   -0.033013   0.349310  -0.028659   0.004840   0.000542  -0.004164
    15  O    0.002810  -0.046361   0.182637  -0.025156   0.001594  -0.000029
    16  Si   0.000338  -0.001919  -0.014793   0.003748  -0.000511  -0.000027
    17  C    0.000002  -0.000020  -0.000817  -0.002303   0.000004   0.000000
    18  C   -0.000001  -0.000059  -0.001307  -0.000352   0.000085   0.000000
    19  C    0.000000  -0.000004   0.000944  -0.000048   0.000000   0.000000
    20  H   -0.000001   0.000011  -0.000124   0.000095  -0.000013   0.000000
    21  H    0.000000   0.000019   0.000029  -0.000239  -0.000004   0.000000
    22  H    0.000000   0.000001   0.000031   0.000046   0.000000   0.000000
    23  H    0.000000  -0.000002  -0.000050   0.000003   0.000000   0.000000
    24  H    0.000000   0.000000  -0.000012   0.000001   0.000000   0.000000
    25  H    0.000000   0.000006  -0.000042  -0.000004   0.000000   0.000000
    26  H    0.000000  -0.000006  -0.000384   0.000124   0.000002   0.000000
    27  H    0.000000  -0.000005   0.000415  -0.000765  -0.000017   0.000000
    28  H    0.000000   0.000001   0.000008   0.000028   0.000000   0.000000
    29  H   -0.005004  -0.026705   0.003961  -0.000126  -0.000016  -0.000050
    30  H   -0.005694  -0.035388  -0.004170   0.000064  -0.000018   0.005877
    31  H    0.003924  -0.025950  -0.008338   0.000265  -0.000020  -0.000086
    32  H   -0.027264  -0.006033  -0.000027   0.000029  -0.000046  -0.000265
    33  H   -0.029595   0.005124  -0.000082   0.000013   0.000024  -0.005747
    34  H   -0.007574  -0.000702  -0.000099   0.000162   0.000288   0.000279
    35  H    0.004502   0.000174  -0.000003   0.000001  -0.000008  -0.000144
    36  H   -0.005523   0.002299  -0.000009  -0.000013   0.000019  -0.000053
    37  C    0.000301  -0.059182   0.338644  -0.065578   0.000340   0.004208
    38  C   -0.001360  -0.004370  -0.032698   0.004663  -0.000018   0.000468
    39  C   -0.000539   0.001380  -0.000138  -0.000063  -0.000016   0.001353
    40  H   -0.000128   0.005389  -0.031173  -0.006860  -0.000357   0.000059
    41  H    0.001927  -0.006009  -0.023966  -0.004322   0.005112  -0.000126
    42  H    0.000014  -0.000570  -0.004327   0.000084   0.000001   0.000007
    43  H    0.000009  -0.000038  -0.000077   0.000002   0.000000  -0.000011
    44  H   -0.000109  -0.000029   0.000117  -0.000005  -0.000005   0.000687
               7          8          9         10         11         12
     1  C   -0.038232   0.000411   0.000075   0.165409   0.001860   0.373111
     2  C    0.376622  -0.007497   0.005963  -0.028325  -0.000111  -0.035859
     3  C   -0.044334  -0.021607  -0.033150   0.002017   0.002055   0.005437
     4  C   -0.007312   0.364225   0.353999  -0.098614  -0.087752  -0.000624
     5  C   -0.000168  -0.023783  -0.021187   0.262475   0.577657   0.001201
     6  H    0.006239  -0.000004   0.000079  -0.040626   0.000069  -0.049315
     7  H    0.638318   0.004695   0.000183  -0.000775  -0.000029  -0.011346
     8  H    0.004695   0.543477  -0.026586   0.000119  -0.000477  -0.000049
     9  H    0.000183  -0.026586   0.573342   0.003350   0.003596   0.000006
    10  O   -0.000775   0.000119   0.003350   8.327920  -0.075428  -0.046757
    11  O   -0.000029  -0.000477   0.003596  -0.075428   8.082958  -0.000077
    12  C   -0.011346  -0.000049   0.000006  -0.046757  -0.000077   4.947366
    13  C    0.005388   0.000041   0.000002  -0.003405  -0.000005   0.361961
    14  C   -0.043285  -0.000012  -0.000144   0.002447   0.000002  -0.003816
    15  O    0.000726  -0.001751  -0.001087  -0.000010  -0.000013  -0.000040
    16  Si   0.000858  -0.000434   0.004123  -0.000061  -0.000298  -0.000003
    17  C    0.000007   0.000114  -0.000105   0.000000   0.000002   0.000000
    18  C   -0.000064   0.000153  -0.001701   0.000000   0.000003   0.000000
    19  C   -0.000009  -0.000014   0.000005   0.000000   0.000000   0.000000
    20  H   -0.000014   0.000831   0.000905   0.000000  -0.000002   0.000000
    21  H    0.000024   0.000613   0.000042   0.000000   0.000000   0.000000
    22  H    0.000001   0.000031   0.000050   0.000000   0.000000   0.000000
    23  H    0.000000   0.000000   0.000000   0.000000   0.000000   0.000000
    24  H    0.000000   0.000000   0.000000   0.000000   0.000000   0.000000
    25  H   -0.000001  -0.000002   0.000000   0.000000   0.000000   0.000000
    26  H    0.000000   0.000001  -0.000082   0.000000   0.000000   0.000000
    27  H    0.000000  -0.000033   0.002194   0.000000  -0.000006   0.000000
    28  H    0.000000   0.000000   0.000004   0.000000   0.000000   0.000000
    29  H   -0.009064  -0.000009   0.000003  -0.000011   0.000000   0.001649
    30  H    0.005531   0.000000   0.000005   0.000027   0.000000  -0.001639
    31  H   -0.001082   0.000008  -0.000007  -0.000045   0.000000   0.000068
    32  H    0.000226  -0.000001   0.000000   0.002897   0.000001   0.376821
    33  H    0.000031   0.000001  -0.000001   0.000694  -0.000007   0.379693
    34  H    0.000668   0.000028  -0.000001   0.008106  -0.000031  -0.037094
    35  H   -0.000141   0.000000   0.000000   0.000082   0.000000  -0.028375
    36  H    0.001822  -0.000010   0.000000  -0.000083   0.000000  -0.036378
    37  C    0.006067   0.004816  -0.006878  -0.002724   0.000128  -0.000100
    38  C   -0.000104  -0.000110   0.000017   0.000074   0.000001   0.000019
    39  C   -0.000012   0.000001   0.000002  -0.000001   0.000000   0.000002
    40  H   -0.000145  -0.000002   0.004242   0.000018  -0.000002   0.000000
    41  H   -0.000070   0.000031   0.000002   0.001300  -0.000282   0.000101
    42  H   -0.000016   0.000003   0.000001   0.000000   0.000000   0.000001
    43  H    0.000000   0.000000   0.000000   0.000000   0.000000   0.000000
    44  H    0.000000   0.000000   0.000000  -0.000003   0.000000   0.000001
              13         14         15         16         17         18
     1  C   -0.040389  -0.033013   0.002810   0.000338   0.000002  -0.000001
     2  C   -0.008724   0.349310  -0.046361  -0.001919  -0.000020  -0.000059
     3  C   -0.000101  -0.028659   0.182637  -0.014793  -0.000817  -0.001307
     4  C   -0.000095   0.004840  -0.025156   0.003748  -0.002303  -0.000352
     5  C    0.000305   0.000542   0.001594  -0.000511   0.000004   0.000085
     6  H    0.005558  -0.004164  -0.000029  -0.000027   0.000000   0.000000
     7  H    0.005388  -0.043285   0.000726   0.000858   0.000007  -0.000064
     8  H    0.000041  -0.000012  -0.001751  -0.000434   0.000114   0.000153
     9  H    0.000002  -0.000144  -0.001087   0.004123  -0.000105  -0.001701
    10  O   -0.003405   0.002447  -0.000010  -0.000061   0.000000   0.000000
    11  O   -0.000005   0.000002  -0.000013  -0.000298   0.000002   0.000003
    12  C    0.361961  -0.003816  -0.000040  -0.000003   0.000000   0.000000
    13  C    4.930801  -0.001424  -0.000002  -0.000004   0.000000   0.000000
    14  C   -0.001424   4.982440  -0.009177   0.000071  -0.000005   0.000002
    15  O   -0.000002  -0.009177   8.296670   0.333749  -0.014395  -0.018212
    16  Si  -0.000004   0.000071   0.333749  11.858084   0.367148   0.370095
    17  C    0.000000  -0.000005  -0.014395   0.367148   5.148695  -0.035658
    18  C    0.000000   0.000002  -0.018212   0.370095  -0.035658   5.142227
    19  C    0.000000  -0.000008  -0.019241   0.378107  -0.031417  -0.033262
    20  H    0.000000   0.000000  -0.000484  -0.026969  -0.001670   0.375363
    21  H    0.000000   0.000000  -0.000602  -0.025435   0.001319   0.378081
    22  H    0.000000   0.000000   0.000565  -0.013879  -0.000144   0.369986
    23  H    0.000000  -0.000001  -0.000316  -0.025484  -0.001198   0.001385
    24  H    0.000000   0.000000   0.000492  -0.014802  -0.000743  -0.000482
    25  H    0.000000  -0.000003  -0.000424  -0.024859   0.001395  -0.001287
    26  H    0.000000   0.000000  -0.000467  -0.027800   0.377911   0.001344
    27  H    0.000000   0.000000  -0.000422  -0.027959   0.375092  -0.001560
    28  H    0.000000   0.000000   0.000488  -0.014195   0.372083  -0.000375
    29  H    0.000358   0.372690   0.000086  -0.000039   0.000000   0.000000
    30  H    0.000153   0.380751  -0.000006  -0.000076   0.000000   0.000000
    31  H   -0.000014   0.380080   0.010387   0.001216   0.000006  -0.000002
    32  H   -0.036405   0.003171   0.000000   0.000000   0.000000   0.000000
    33  H   -0.042571   0.000003   0.000000   0.000000   0.000000   0.000000
    34  H    0.389582   0.000106   0.000000  -0.000001   0.000000   0.000000
    35  H    0.382898   0.000001   0.000000   0.000000   0.000000   0.000000
    36  H    0.386963   0.000107   0.000001  -0.000003   0.000000   0.000000
    37  C    0.000004  -0.006397  -0.053629  -0.006360  -0.001022  -0.000139
    38  C   -0.000001  -0.004900   0.000873   0.001464  -0.000484   0.000006
    39  C    0.000000  -0.003843   0.000342  -0.000160   0.000002   0.000000
    40  H    0.000000  -0.000109  -0.002182  -0.001815   0.002040  -0.000032
    41  H   -0.000001   0.000330   0.002900   0.000463   0.000013   0.000002
    42  H    0.000000   0.000178   0.004095   0.002718  -0.000305   0.000006
    43  H    0.000000   0.000027   0.000003   0.000014   0.000000   0.000000
    44  H    0.000000   0.000012  -0.000002   0.000020  -0.000001   0.000000
              19         20         21         22         23         24
     1  C    0.000000  -0.000001   0.000000   0.000000   0.000000   0.000000
     2  C   -0.000004   0.000011   0.000019   0.000001  -0.000002   0.000000
     3  C    0.000944  -0.000124   0.000029   0.000031  -0.000050  -0.000012
     4  C   -0.000048   0.000095  -0.000239   0.000046   0.000003   0.000001
     5  C    0.000000  -0.000013  -0.000004   0.000000   0.000000   0.000000
     6  H    0.000000   0.000000   0.000000   0.000000   0.000000   0.000000
     7  H   -0.000009  -0.000014   0.000024   0.000001   0.000000   0.000000
     8  H   -0.000014   0.000831   0.000613   0.000031   0.000000   0.000000
     9  H    0.000005   0.000905   0.000042   0.000050   0.000000   0.000000
    10  O    0.000000   0.000000   0.000000   0.000000   0.000000   0.000000
    11  O    0.000000  -0.000002   0.000000   0.000000   0.000000   0.000000
    12  C    0.000000   0.000000   0.000000   0.000000   0.000000   0.000000
    13  C    0.000000   0.000000   0.000000   0.000000   0.000000   0.000000
    14  C   -0.000008   0.000000   0.000000   0.000000  -0.000001   0.000000
    15  O   -0.019241  -0.000484  -0.000602   0.000565  -0.000316   0.000492
    16  Si   0.378107  -0.026969  -0.025435  -0.013879  -0.025484  -0.014802
    17  C   -0.031417  -0.001670   0.001319  -0.000144  -0.001198  -0.000743
    18  C   -0.033262   0.375363   0.378081   0.369986   0.001385  -0.000482
    19  C    5.118537   0.001441  -0.001030  -0.000847   0.375442   0.373449
    20  H    0.001441   0.581717  -0.023054  -0.023274  -0.000027   0.000001
    21  H   -0.001030  -0.023054   0.574758  -0.023293   0.000002  -0.000023
    22  H   -0.000847  -0.023274  -0.023293   0.570435   0.000016   0.000009
    23  H    0.375442  -0.000027   0.000002   0.000016   0.578543  -0.023445
    24  H    0.373449   0.000001  -0.000023   0.000009  -0.023445   0.566865
    25  H    0.376383   0.000008   0.000547  -0.000052  -0.022042  -0.023581
    26  H   -0.001064   0.000006  -0.000025   0.000005   0.000613  -0.000056
    27  H    0.001485   0.000706   0.000007  -0.000032   0.000003   0.000000
    28  H   -0.001071  -0.000027   0.000016   0.000042  -0.000037   0.000114
    29  H    0.000000   0.000000   0.000000   0.000000   0.000000   0.000000
    30  H    0.000000   0.000000   0.000000   0.000000   0.000000   0.000000
    31  H   -0.000007   0.000000  -0.000002   0.000000   0.000012   0.000000
    32  H    0.000000   0.000000   0.000000   0.000000   0.000000   0.000000
    33  H    0.000000   0.000000   0.000000   0.000000   0.000000   0.000000
    34  H    0.000000   0.000000   0.000000   0.000000   0.000000   0.000000
    35  H    0.000000   0.000000   0.000000   0.000000   0.000000   0.000000
    36  H    0.000000   0.000000   0.000000   0.000000   0.000000   0.000000
    37  C   -0.000096  -0.000036   0.000000   0.000001  -0.000013   0.000001
    38  C   -0.000050   0.000000   0.000000   0.000000  -0.000038   0.000001
    39  C    0.000000   0.000000   0.000000   0.000000  -0.000001   0.000000
    40  H    0.000001  -0.000011   0.000000   0.000001  -0.000005   0.000001
    41  H    0.000000   0.000000   0.000000   0.000000   0.000000   0.000000
    42  H   -0.000083   0.000000   0.000000   0.000000   0.000279   0.000000
    43  H    0.000000   0.000000   0.000000   0.000000   0.000000   0.000000
    44  H    0.000000   0.000000   0.000000   0.000000   0.000000   0.000000
              25         26         27         28         29         30
     1  C    0.000000   0.000000   0.000000   0.000000  -0.005004  -0.005694
     2  C    0.000006  -0.000006  -0.000005   0.000001  -0.026705  -0.035388
     3  C   -0.000042  -0.000384   0.000415   0.000008   0.003961  -0.004170
     4  C   -0.000004   0.000124  -0.000765   0.000028  -0.000126   0.000064
     5  C    0.000000   0.000002  -0.000017   0.000000  -0.000016  -0.000018
     6  H    0.000000   0.000000   0.000000   0.000000  -0.000050   0.005877
     7  H   -0.000001   0.000000   0.000000   0.000000  -0.009064   0.005531
     8  H   -0.000002   0.000001  -0.000033   0.000000  -0.000009   0.000000
     9  H    0.000000  -0.000082   0.002194   0.000004   0.000003   0.000005
    10  O    0.000000   0.000000   0.000000   0.000000  -0.000011   0.000027
    11  O    0.000000   0.000000  -0.000006   0.000000   0.000000   0.000000
    12  C    0.000000   0.000000   0.000000   0.000000   0.001649  -0.001639
    13  C    0.000000   0.000000   0.000000   0.000000   0.000358   0.000153
    14  C   -0.000003   0.000000   0.000000   0.000000   0.372690   0.380751
    15  O   -0.000424  -0.000467  -0.000422   0.000488   0.000086  -0.000006
    16  Si  -0.024859  -0.027800  -0.027959  -0.014195  -0.000039  -0.000076
    17  C    0.001395   0.377911   0.375092   0.372083   0.000000   0.000000
    18  C   -0.001287   0.001344  -0.001560  -0.000375   0.000000   0.000000
    19  C    0.376383  -0.001064   0.001485  -0.001071   0.000000   0.000000
    20  H    0.000008   0.000006   0.000706  -0.000027   0.000000   0.000000
    21  H    0.000547  -0.000025   0.000007   0.000016   0.000000   0.000000
    22  H   -0.000052   0.000005  -0.000032   0.000042   0.000000   0.000000
    23  H   -0.022042   0.000613   0.000003  -0.000037   0.000000   0.000000
    24  H   -0.023581  -0.000056   0.000000   0.000114   0.000000   0.000000
    25  H    0.575223   0.000002  -0.000028   0.000014   0.000000   0.000000
    26  H    0.000002   0.574015  -0.023819  -0.022736   0.000000   0.000000
    27  H   -0.000028  -0.023819   0.576974  -0.022553   0.000000   0.000000
    28  H    0.000014  -0.022736  -0.022553   0.563237   0.000000   0.000000
    29  H    0.000000   0.000000   0.000000   0.000000   0.614711  -0.030764
    30  H    0.000000   0.000000   0.000000   0.000000  -0.030764   0.585617
    31  H    0.000018  -0.000001   0.000000   0.000000  -0.030597  -0.028130
    32  H    0.000000   0.000000   0.000000   0.000000   0.000404   0.000860
    33  H    0.000000   0.000000   0.000000   0.000000   0.000015  -0.000042
    34  H    0.000000   0.000000   0.000000   0.000000  -0.000037  -0.000002
    35  H    0.000000   0.000000   0.000000   0.000000  -0.000062   0.000002
    36  H    0.000000   0.000000   0.000000   0.000000   0.001629  -0.000032
    37  C    0.000003  -0.000913  -0.001574   0.000132  -0.000017   0.001008
    38  C   -0.000001   0.000985  -0.000001  -0.000005   0.000234   0.006035
    39  C    0.000000   0.000034  -0.000001   0.000000   0.000154   0.004842
    40  H    0.000000   0.000649   0.002541   0.000068   0.000004   0.000056
    41  H    0.000000   0.000016  -0.000009  -0.000002  -0.000002  -0.000213
    42  H   -0.000002   0.000347   0.000005   0.000001   0.000007  -0.000226
    43  H    0.000000   0.000000   0.000000   0.000000  -0.000001   0.000008
    44  H    0.000000   0.000001   0.000000   0.000000   0.000001   0.000008
              31         32         33         34         35         36
     1  C    0.003924  -0.027264  -0.029595  -0.007574   0.004502  -0.005523
     2  C   -0.025950  -0.006033   0.005124  -0.000702   0.000174   0.002299
     3  C   -0.008338  -0.000027  -0.000082  -0.000099  -0.000003  -0.000009
     4  C    0.000265   0.000029   0.000013   0.000162   0.000001  -0.000013
     5  C   -0.000020  -0.000046   0.000024   0.000288  -0.000008   0.000019
     6  H   -0.000086  -0.000265  -0.005747   0.000279  -0.000144  -0.000053
     7  H   -0.001082   0.000226   0.000031   0.000668  -0.000141   0.001822
     8  H    0.000008  -0.000001   0.000001   0.000028   0.000000  -0.000010
     9  H   -0.000007   0.000000  -0.000001  -0.000001   0.000000   0.000000
    10  O   -0.000045   0.002897   0.000694   0.008106   0.000082  -0.000083
    11  O    0.000000   0.000001  -0.000007  -0.000031   0.000000   0.000000
    12  C    0.000068   0.376821   0.379693  -0.037094  -0.028375  -0.036378
    13  C   -0.000014  -0.036405  -0.042571   0.389582   0.382898   0.386963
    14  C    0.380080   0.003171   0.000003   0.000106   0.000001   0.000107
[...]
    13  C    0.000000   0.000000   0.000000   0.000000   0.000000   0.000000
    14  C   -0.000025   0.000000   0.000000   0.000000  -0.000002   0.000000
    15  O   -0.025019  -0.000513  -0.000670   0.000541  -0.000415   0.000677
    16  Si   0.381139  -0.024359  -0.023982  -0.014077  -0.023731  -0.015149
    17  C   -0.027645  -0.001380   0.001185  -0.000167  -0.001276  -0.000425
    18  C   -0.028923   0.376714   0.378012   0.368079   0.001202  -0.000211
    19  C    5.113036   0.001219  -0.001041  -0.000629   0.377052   0.368574
    20  H    0.001219   0.573551  -0.023597  -0.023592  -0.000021   0.000001
    21  H   -0.001041  -0.023597   0.572271  -0.023881  -0.000001  -0.000039
    22  H   -0.000629  -0.023592  -0.023881   0.572482   0.000009   0.000014
    23  H    0.377052  -0.000021  -0.000001   0.000009   0.572214  -0.023975
    24  H    0.368574   0.000001  -0.000039   0.000014  -0.023975   0.575318
    25  H    0.377430   0.000006   0.000428  -0.000030  -0.022450  -0.023997
    26  H   -0.001067   0.000003  -0.000021   0.000003   0.000480  -0.000056
    27  H    0.001200   0.000518   0.000002  -0.000037   0.000007  -0.000001
    28  H   -0.000699  -0.000036   0.000009   0.000059  -0.000025   0.000062
    29  H    0.000000   0.000000   0.000000   0.000000   0.000000   0.000000
    30  H    0.000000   0.000000   0.000000   0.000000   0.000000   0.000000
    31  H    0.000064   0.000000  -0.000003   0.000000   0.000030   0.000001
    32  H    0.000000   0.000000   0.000000   0.000000   0.000000   0.000000
    33  H    0.000000   0.000000   0.000000   0.000000   0.000000   0.000000
    34  H    0.000000   0.000000   0.000000   0.000000   0.000000   0.000000
    35  H    0.000000   0.000000   0.000000   0.000000   0.000000   0.000000
    36  H    0.000000   0.000000   0.000000   0.000000   0.000000   0.000000
    37  C   -0.000098  -0.000027  -0.000001   0.000001  -0.000014   0.000001
    38  C   -0.000073   0.000000   0.000000   0.000000  -0.000055   0.000001
    39  C    0.000000   0.000000   0.000000   0.000000  -0.000001   0.000000
    40  H   -0.000009  -0.000010   0.000000   0.000001  -0.000005   0.000000
    41  H    0.000000   0.000000   0.000000   0.000000   0.000000   0.000000
    42  H   -0.000053   0.000000   0.000000   0.000000   0.000435   0.000000
    43  H    0.000000   0.000000   0.000000   0.000000   0.000000   0.000000
    44  H    0.000000   0.000000   0.000000   0.000000   0.000000   0.000000
              25         26         27         28         29         30
     1  C    0.000000   0.000000   0.000000   0.000000  -0.005108  -0.005898
     2  C    0.000011  -0.000005  -0.000004   0.000001  -0.027365  -0.033638
     3  C   -0.000055  -0.000349   0.000279  -0.000004   0.003951  -0.005121
     4  C   -0.000005   0.000094  -0.000526   0.000022  -0.000128   0.000070
     5  C    0.000000   0.000001  -0.000008   0.000000  -0.000013  -0.000015
     6  H    0.000000   0.000000   0.000000   0.000000  -0.000059   0.006072
     7  H    0.000000   0.000000   0.000000   0.000000  -0.007516   0.005274
     8  H   -0.000003   0.000002  -0.000034   0.000000  -0.000006   0.000000
     9  H    0.000000  -0.000062   0.001614   0.000004   0.000003   0.000005
    10  O    0.000000   0.000000   0.000000   0.000000  -0.000007   0.000022
    11  O    0.000000   0.000000  -0.000001   0.000000   0.000000   0.000000
    12  C    0.000000   0.000000   0.000000   0.000000   0.001743  -0.001345
    13  C    0.000000   0.000000   0.000000   0.000000   0.000352   0.000126
    14  C   -0.000010   0.000000   0.000000   0.000000   0.374620   0.379584
    15  O   -0.000586  -0.000558  -0.000534   0.000522   0.000094  -0.000076
    16  Si  -0.023298  -0.025605  -0.025139  -0.014702  -0.000038  -0.000091
    17  C    0.001176   0.378321   0.376496   0.369132   0.000000   0.000000
    18  C   -0.001236   0.001196  -0.001223  -0.000233   0.000000   0.000000
    19  C    0.377430  -0.001067   0.001200  -0.000699   0.000000   0.000000
    20  H    0.000006   0.000003   0.000518  -0.000036   0.000000   0.000000
    21  H    0.000428  -0.000021   0.000002   0.000009   0.000000   0.000000
    22  H   -0.000030   0.000003  -0.000037   0.000059   0.000000   0.000000
    23  H   -0.022450   0.000480   0.000007  -0.000025   0.000000   0.000000
    24  H   -0.023997  -0.000056  -0.000001   0.000062   0.000000   0.000000
    25  H    0.570325  -0.000002  -0.000021   0.000006   0.000000   0.000000
    26  H   -0.000002   0.570740  -0.023915  -0.023335   0.000000   0.000000
    27  H   -0.000021  -0.023915   0.572751  -0.023428   0.000000   0.000000
    28  H    0.000006  -0.023335  -0.023428   0.569962   0.000000   0.000000
    29  H    0.000000   0.000000   0.000000   0.000000   0.606421  -0.029340
    30  H    0.000000   0.000000   0.000000   0.000000  -0.029340   0.583828
    31  H    0.000116  -0.000001   0.000000   0.000000  -0.028751  -0.028762
    32  H    0.000000   0.000000   0.000000   0.000000   0.000522   0.000659
    33  H    0.000000   0.000000   0.000000   0.000000  -0.000002  -0.000035
    34  H    0.000000   0.000000   0.000000   0.000000  -0.000038  -0.000002
    35  H    0.000000   0.000000   0.000000   0.000000  -0.000059   0.000001
    36  H    0.000000   0.000000   0.000000   0.000000   0.001466  -0.000028
    37  C    0.000003  -0.000308  -0.000735   0.000074  -0.000008   0.001104
    38  C    0.000000   0.000688  -0.000006  -0.000003   0.000179   0.007873
    39  C    0.000000   0.000027  -0.000001   0.000000   0.000098   0.004554
    40  H    0.000000   0.000473   0.001743   0.000031   0.000004   0.000075
    41  H    0.000000   0.000004  -0.000013  -0.000001  -0.000001  -0.000277
    42  H   -0.000005   0.000184   0.000003   0.000002   0.000014  -0.000424
    43  H    0.000000   0.000000   0.000000   0.000000   0.000000   0.000017
    44  H    0.000000   0.000000   0.000000   0.000000   0.000001  -0.000025
              31         32         33         34         35         36
     1  C    0.004320  -0.030000  -0.031116  -0.006981   0.004231  -0.005289
     2  C   -0.028279  -0.005770   0.005216  -0.000751   0.000191   0.002069
     3  C   -0.008618  -0.000065  -0.000085  -0.000114  -0.000003  -0.000003
     4  C    0.000252   0.000035   0.000014   0.000190   0.000001  -0.000017
     5  C   -0.000023  -0.000061   0.000049   0.000535  -0.000010   0.000029
     6  H   -0.000085  -0.000504  -0.005360   0.000239  -0.000132  -0.000046
     7  H   -0.001709   0.000255   0.000042   0.000760  -0.000136   0.001732
     8  H    0.000007  -0.000001   0.000001   0.000009   0.000000  -0.000011
     9  H   -0.000007   0.000000  -0.000001  -0.000001   0.000000   0.000000
    10  O   -0.000048   0.003305   0.000440   0.007676   0.000066  -0.000052
    11  O    0.000000   0.000001  -0.000010  -0.000058   0.000000   0.000000
    12  C    0.000039   0.373118   0.379708  -0.037465  -0.027474  -0.034425
    13  C   -0.000013  -0.035350  -0.039133   0.388541   0.383104   0.387021
    14  C    0.379298   0.002917  -0.000009   0.000109  -0.000003   0.000179
    15  O    0.011114   0.000000   0.000000   0.000000   0.000000   0.000001
    16  Si   0.001161   0.000000   0.000000  -0.000001   0.000000  -0.000002
    17  C    0.000008   0.000000   0.000000   0.000000   0.000000   0.000000
    18  C   -0.000007   0.000000   0.000000   0.000000   0.000000   0.000000
    19  C    0.000064   0.000000   0.000000   0.000000   0.000000   0.000000
    20  H    0.000000   0.000000   0.000000   0.000000   0.000000   0.000000
    21  H   -0.000003   0.000000   0.000000   0.000000   0.000000   0.000000
    22  H    0.000000   0.000000   0.000000   0.000000   0.000000   0.000000
    23  H    0.000030   0.000000   0.000000   0.000000   0.000000   0.000000
    24  H    0.000001   0.000000   0.000000   0.000000   0.000000   0.000000
    25  H    0.000116   0.000000   0.000000   0.000000   0.000000   0.000000
    26  H   -0.000001   0.000000   0.000000   0.000000   0.000000   0.000000
    27  H    0.000000   0.000000   0.000000   0.000000   0.000000   0.000000
    28  H    0.000000   0.000000   0.000000   0.000000   0.000000   0.000000
    29  H   -0.028751   0.000522  -0.000002  -0.000038  -0.000059   0.001466
    30  H   -0.028762   0.000659  -0.000035  -0.000002   0.000001  -0.000028
    31  H    0.572143  -0.000002   0.000001   0.000002   0.000000  -0.000025
    32  H   -0.000002   0.613626  -0.032255   0.005287  -0.002360  -0.005258
    33  H    0.000001  -0.032255   0.610149  -0.003342  -0.004374   0.005033
    34  H    0.000002   0.005287  -0.003342   0.588495  -0.030025  -0.032342
    35  H    0.000000  -0.002360  -0.004374  -0.030025   0.596351  -0.030470
    36  H   -0.000025  -0.005258   0.005033  -0.032342  -0.030470   0.598728
    37  C   -0.000148  -0.000002   0.000000   0.000000   0.000000  -0.000001
    38  C    0.000381  -0.000004   0.000000   0.000000   0.000000   0.000000
    39  C    0.000016   0.000000   0.000000   0.000000   0.000000   0.000000
    40  H   -0.000033   0.000000   0.000000   0.000000   0.000000   0.000000
    41  H   -0.000009  -0.000001   0.000001   0.000000   0.000000   0.000000
    42  H    0.000397   0.000000   0.000000   0.000000   0.000000   0.000000
    43  H   -0.000002   0.000000   0.000000   0.000000   0.000000   0.000000
    44  H   -0.000001   0.000000   0.000000   0.000000   0.000000   0.000000
              37         38         39         40         41         42
     1  C    0.000384  -0.001409  -0.000434  -0.000143   0.001715   0.000028
     2  C   -0.060970  -0.004316   0.001153   0.006074  -0.005892  -0.000855
     3  C    0.342484  -0.030657   0.000598  -0.033288  -0.025499  -0.004968
     4  C   -0.064299   0.004815  -0.000088  -0.008560  -0.003782   0.000157
     5  C    0.000078  -0.000065  -0.000011  -0.000357   0.003706  -0.000002
     6  H    0.005000   0.000459   0.001287   0.000058  -0.001141  -0.000001
     7  H    0.006452  -0.000123  -0.000007  -0.000174  -0.000105  -0.000025
     8  H    0.005037  -0.000125   0.000001   0.000008   0.000030   0.000003
     9  H   -0.006868   0.000022   0.000001   0.004919  -0.000036   0.000002
    10  O   -0.003037   0.000100  -0.000003   0.000014   0.002441  -0.000001
    11  O    0.000083   0.000000   0.000000  -0.000015  -0.000325   0.000000
    12  C   -0.000102   0.000020   0.000000  -0.000001   0.000146   0.000001
    13  C    0.000004  -0.000001   0.000000   0.000000  -0.000002   0.000000
    14  C   -0.006717  -0.005165  -0.003092  -0.000138   0.000354   0.000373
    15  O   -0.059172   0.000322   0.000409  -0.002724   0.003375   0.005742
    16  Si  -0.005355   0.001134  -0.000088  -0.000843   0.000402   0.002433
    17  C   -0.000647  -0.000312  -0.000005   0.001883  -0.000002  -0.000277
    18  C   -0.000107   0.000005   0.000000  -0.000039   0.000002   0.000007
    19  C   -0.000098  -0.000073   0.000000  -0.000009   0.000000  -0.000053
    20  H   -0.000027   0.000000   0.000000  -0.000010   0.000000   0.000000
    21  H   -0.000001   0.000000   0.000000   0.000000   0.000000   0.000000
    22  H    0.000001   0.000000   0.000000   0.000001   0.000000   0.000000
    23  H   -0.000014  -0.000055  -0.000001  -0.000005   0.000000   0.000435
    24  H    0.000001   0.000001   0.000000   0.000000   0.000000   0.000000
    25  H    0.000003   0.000000   0.000000   0.000000   0.000000  -0.000005
    26  H   -0.000308   0.000688   0.000027   0.000473   0.000004   0.000184
    27  H   -0.000735  -0.000006  -0.000001   0.001743  -0.000013   0.000003
    28  H    0.000074  -0.000003   0.000000   0.000031  -0.000001   0.000002
    29  H   -0.000008   0.000179   0.000098   0.000004  -0.000001   0.000014
    30  H    0.001104   0.007873   0.004554   0.000075  -0.000277  -0.000424
    31  H   -0.000148   0.000381   0.000016  -0.000033  -0.000009   0.000397
    32  H   -0.000002  -0.000004   0.000000   0.000000  -0.000001   0.000000
    33  H    0.000000   0.000000   0.000000   0.000000   0.000001   0.000000
    34  H    0.000000   0.000000   0.000000   0.000000   0.000000   0.000000
    35  H    0.000000   0.000000   0.000000   0.000000   0.000000   0.000000
    36  H   -0.000001   0.000000   0.000000   0.000000   0.000000   0.000000
    37  C    5.059683   0.385160  -0.040358   0.370471   0.362766  -0.053209
    38  C    0.385160   4.757765   0.651177  -0.037522  -0.036518   0.385489
    39  C   -0.040358   0.651177   4.946358  -0.001548  -0.006136  -0.044290
    40  H    0.370471  -0.037522  -0.001548   0.609034  -0.031279  -0.000807
    41  H    0.362766  -0.036518  -0.006136  -0.031279   0.616861   0.005167
    42  H   -0.053209   0.385489  -0.044290  -0.000807   0.005167   0.600773
    43  H    0.004630  -0.024665   0.376039  -0.000212   0.000082  -0.007909
    44  H   -0.012004  -0.034580   0.381834   0.000249   0.005822   0.005589
              43         44
     1  C    0.000006  -0.000067
     2  C   -0.000026  -0.000027
     3  C   -0.000091   0.000137
     4  C    0.000002  -0.000004
     5  C    0.000000  -0.000003
     6  H   -0.000007   0.000405
     7  H    0.000000   0.000000
     8  H    0.000000   0.000000
     9  H    0.000000   0.000000
    10  O    0.000000  -0.000002
    11  O    0.000000   0.000000
    12  C    0.000000   0.000001
    13  C    0.000000   0.000000
    14  C    0.000015   0.000018
    15  O    0.000003  -0.000002
    16  Si   0.000012   0.000015
    17  C    0.000000   0.000000
    18  C    0.000000   0.000000
    19  C    0.000000   0.000000
    20  H    0.000000   0.000000
    21  H    0.000000   0.000000
    22  H    0.000000   0.000000
    23  H    0.000000   0.000000
    24  H    0.000000   0.000000
    25  H    0.000000   0.000000
    26  H    0.000000   0.000000
    27  H    0.000000   0.000000
    28  H    0.000000   0.000000
    29  H    0.000000   0.000001
    30  H    0.000017  -0.000025
    31  H   -0.000002  -0.000001
    32  H    0.000000   0.000000
    33  H    0.000000   0.000000
    34  H    0.000000   0.000000
    35  H    0.000000   0.000000
    36  H    0.000000   0.000000
    37  C    0.004630  -0.012004
    38  C   -0.024665  -0.034580
    39  C    0.376039   0.381834
    40  H   -0.000212   0.000249
    41  H    0.000082   0.005822
    42  H   -0.007909   0.005589
    43  H    0.590921  -0.043651
    44  H   -0.043651   0.595466
 Mulliken charges:
               1
     1  C    0.167543
     2  C   -0.090540
     3  C    0.310295
     4  C   -0.308517
     5  C    0.592774
     6  H    0.115517
     7  H    0.105572
     8  H    0.159700
     9  H    0.139842
    10  O   -0.486567
    11  O   -0.499716
    12  C   -0.190824
    13  C   -0.332641
    14  C   -0.338816
    15  O   -0.651006
    16  Si   0.910307
    17  C   -0.556182
    18  C   -0.548865
    19  C   -0.535356
    20  H    0.120050
    21  H    0.120855
    22  H    0.121096
    23  H    0.120590
    24  H    0.119216
    25  H    0.122197
    26  H    0.123066
    27  H    0.121015
    28  H    0.122579
    29  H    0.108972
    30  H    0.115811
    31  H    0.127176
    32  H    0.111908
    33  H    0.115067
    34  H    0.119274
    35  H    0.111100
    36  H    0.111714
    37  C   -0.229228
    38  C   -0.019992
    39  C   -0.267492
    40  H    0.122668
    41  H    0.108146
    42  H    0.106027
    43  H    0.104837
    44  H    0.100830
 Sum of Mulliken charges =   0.00000
 Mulliken charges with hydrogens summed into heavy atoms:
               1
     1  C    0.283060
     2  C    0.015032
     3  C    0.310295
     4  C   -0.008975
     5  C    0.592774
    10  O   -0.486567
    11  O   -0.499716
    12  C    0.036151
    13  C    0.009447
    14  C    0.013143
    15  O   -0.651006
    16  Si   0.910307
    17  C   -0.189523
    18  C   -0.186864
    19  C   -0.173354
    37  C    0.001586
    38  C    0.086035
    39  C   -0.061825
 Electronic spatial extent (au):  <R**2>=           5501.4823
 Charge=              0.0000 electrons
 Dipole moment (field-independent basis, Debye):
    X=             -2.3810    Y=              2.5259    Z=              3.0127  Tot=              4.5963
 Quadrupole moment (field-independent basis, Debye-Ang):
   XX=           -115.0564   YY=           -122.8946   ZZ=           -125.2083
   XY=             10.1157   XZ=              9.6431   YZ=             -8.9533
 Traceless Quadrupole moment (field-independent basis, Debye-Ang):
   XX=              5.9967   YY=             -1.8415   ZZ=             -4.1552
   XY=             10.1157   XZ=              9.6431   YZ=             -8.9533
 Octapole moment (field-independent basis, Debye-Ang**2):
  XXX=            -11.6953  YYY=             15.8794  ZZZ=             16.6281  XYY=            -12.3754
  XXY=             10.4928  XXZ=             23.2506  XZZ=             -8.0893  YZZ=             15.7290
  YYZ=             18.8810  XYZ=            -21.6783
 Hexadecapole moment (field-independent basis, Debye-Ang**3):
 XXXX=          -4108.5520 YYYY=          -1828.6983 ZZZZ=          -1341.8817 XXXY=             57.4681
 XXXZ=             42.6488 YYYX=              7.2882 YYYZ=            -30.5673 ZZZX=             18.1166
 ZZZY=            -30.2794 XXYY=          -1040.2038 XXZZ=           -959.6094 YYZZ=           -583.6440
 XXYZ=            -34.9692 YYXZ=             21.6690 ZZXY=             52.6713
 N-N= 1.625085549897D+03 E-N=-5.740425875079D+03  KE= 1.055904263548D+03
 1\1\GINC-CPU-E-532\FOpt\RB3LYP\6-31G(d,p)\C14H26O3Si1\KE291\06-Feb-201
 9\0\\# b3lyp/6-31g(d,p) Opt=(maxcycles=25) scrf=(solvent=chloroform)\\
 P_ng_correct1ginp004\\0,1\C,1.1846307697,-0.1683946081,1.0238391199\C,
 -0.3215419685,-0.4189956005,0.8791765861\C,-1.1220163302,0.856606367,1
 .2662727491\C,-0.6876869507,1.9335287012,0.2565552308\C,0.8125559747,2
 .1270785023,0.1299105441\H,1.4240353683,-0.0728775408,2.0899453626\H,-
 0.5444281713,-0.5708702804,-0.1847058647\H,-1.0473647133,1.6461293568,
 -0.738398465\H,-1.116556005,2.912773602,0.4843823179\O,1.6256785354,1.
 090772432,0.4165626658\O,1.3029581052,3.162637241,-0.2700042552\C,2.10
 01259919,-1.2463058478,0.4319736446\C,1.8954176239,-1.5354668648,-1.05
 80448685\C,-0.740035995,-1.6988816715,1.617551552\O,-2.5017816613,0.53
 86974921,1.1097852239\Si,-3.9111898187,1.4095120531,0.8004599199\C,-4.
 0884818598,2.9206994207,1.9179800735\C,-4.0005038825,1.9476089833,-1.0
 064831733\C,-5.2791858757,0.1711020766,1.1625061616\H,-3.2644170255,2.
 7187296391,-1.2544504086\H,-3.8423035054,1.0995080757,-1.6813168772\H,
 -4.9927872857,2.3611752805,-1.2221523073\H,-5.2588084069,-0.1496736412
 ,2.2092074467\H,-6.2636429267,0.6099439196,0.9655123968\H,-5.179856797
 1,-0.7215804839,0.5362393918\H,-4.0393638874,2.6508555122,2.9780264945
 \H,-3.3232513763,3.6801020447,1.7257794869\H,-5.0630308635,3.391093001
 1,1.7412102545\H,-0.3333308968,-2.5814943451,1.1160204126\H,-0.3978921
 729,-1.7064158844,2.6550392444\H,-1.8281616419,-1.7837801159,1.6168707
 273\H,1.9710149335,-2.1616141088,1.0194207704\H,3.1306009038,-0.915567
 7057,0.6027437003\H,1.9811912824,-0.6197331638,-1.6506045483\H,2.65508
 06907,-2.2367825896,-1.4156894163\H,0.9167375301,-1.9816355193,-1.2607
 947542\C,-0.8745526127,1.3908663683,2.7049777527\C,-1.3145980499,0.510
 0030257,3.8423870614\C,-0.599362686,0.2811701378,4.9452520038\H,-1.428
 3978094,2.3370774937,2.7704711942\H,0.1815018484,1.6564779794,2.830093
 2589\H,-2.307541267,0.0742442981,3.7485287671\H,-0.9838560703,-0.33037
 58526,5.7562563563\H,0.3954269555,0.7001288201,5.0807790659\\Version=E
 S64L-G09RevD.01\State=1-A\HF=-1064.4227847\RMSD=3.768e-09\RMSF=1.044e-
 05\Dipole=-1.263343,-1.1757182,0.54002\Quadrupole=-0.5902612,-1.741317
 7,2.3315789,-11.1759816,4.9761486,3.7211271\PG=C01 [X(C14H26O3Si1)]\\@


 IT MATTERS NOT HOW DEEP YOU PLOW,
 BUT HOW LONG YOU STAY IN THE FURROW.
 Job cpu time:       0 days  2 hours 15 minutes  1.9 seconds.
 File lengths (MBytes):  RWF=    363 Int=      0 D2E=      0 Chk=     17 Scr=      1
 Normal termination of Gaussian 09 at Wed Feb  6 11:18:29 2019.
