 Entering Gaussian System, Link 0=/usr/local/shared/gaussian/em64t/09-D01/g09/g09
 Initial command:
 /usr/local/shared/gaussian/em64t/09-D01/g09/l1.exe "/scratch/ke291/AT3_2ginp010/Gau-32266.inp" -scrdir="/scratch/ke291/AT3_2ginp010/"
 Entering Link 1 = /usr/local/shared/gaussian/em64t/09-D01/g09/l1.exe PID=     32270.
  
 Copyright (c) 1988,1990,1992,1993,1995,1998,2003,2009,2013,
            Gaussian, Inc.  All Rights Reserved.
  
 This is part of the Gaussian(R) 09 program.  It is based on
 the Gaussian(R) 03 system (copyright 2003, Gaussian, Inc.),
 the Gaussian(R) 98 system (copyright 1998, Gaussian, Inc.),
 the Gaussian(R) 94 system (copyright 1995, Gaussian, Inc.),
 the Gaussian 92(TM) system (copyright 1992, Gaussian, Inc.),
 the Gaussian 90(TM) system (copyright 1990, Gaussian, Inc.),
 the Gaussian 88(TM) system (copyright 1988, Gaussian, Inc.),
 the Gaussian 86(TM) system (copyright 1986, Carnegie Mellon
 University), and the Gaussian 82(TM) system (copyright 1983,
 Carnegie Mellon University). Gaussian is a federally registered
 trademark of Gaussian, Inc.
  
 This software contains proprietary and confidential information,
 including trade secrets, belonging to Gaussian, Inc.
  
 This software is provided under written license and may be
 used, copied, transmitted, or stored only in accord with that
 written license.
  
 The following legend is applicable only to US Government
 contracts under FAR:
  
                    RESTRICTED RIGHTS LEGEND
  
 Use, reproduction and disclosure by the US Government is
 subject to restrictions as set forth in subparagraphs (a)
 and (c) of the Commercial Computer Software - Restricted
 Rights clause in FAR 52.227-19.
  
 Gaussian, Inc.
 340 Quinnipiac St., Bldg. 40, Wallingford CT 06492
  
  
 ---------------------------------------------------------------
 Warning -- This program may not be used in any manner that
 competes with the business of Gaussian, Inc. or will provide
 assistance to any competitor of Gaussian, Inc.  The licensee
 of this program is prohibited from giving any competitor of
 Gaussian, Inc. access to this program.  By using this program,
 the user acknowledges that Gaussian, Inc. is engaged in the
 business of creating and licensing software in the field of
 computational chemistry and represents and warrants to the
 licensee that it is not a competitor of Gaussian, Inc. and that
 it will not use this program in any manner prohibited above.
 ---------------------------------------------------------------
  

 Cite this work as:
 Gaussian 09, Revision D.01,
 M. J. Frisch, G. W. Trucks, H. B. Schlegel, G. E. Scuseria, 
 M. A. Robb, J. R. Cheeseman, G. Scalmani, V. Barone, B. Mennucci, 
 G. A. Petersson, H. Nakatsuji, M. Caricato, X. Li, H. P. Hratchian, 
 A. F. Izmaylov, J. Bloino, G. Zheng, J. L. Sonnenberg, M. Hada, 
 M. Ehara, K. Toyota, R. Fukuda, J. Hasegawa, M. Ishida, T. Nakajima, 
 Y. Honda, O. Kitao, H. Nakai, T. Vreven, J. A. Montgomery, Jr., 
 J. E. Peralta, F. Ogliaro, M. Bearpark, J. J. Heyd, E. Brothers, 
 K. N. Kudin, V. N. Staroverov, T. Keith, R. Kobayashi, J. Normand, 
 K. Raghavachari, A. Rendell, J. C. Burant, S. S. Iyengar, J. Tomasi, 
 M. Cossi, N. Rega, J. M. Millam, M. Klene, J. E. Knox, J. B. Cross, 
 V. Bakken, C. Adamo, J. Jaramillo, R. Gomperts, R. E. Stratmann, 
 O. Yazyev, A. J. Austin, R. Cammi, C. Pomelli, J. W. Ochterski, 
 R. L. Martin, K. Morokuma, V. G. Zakrzewski, G. A. Voth, 
 P. Salvador, J. J. Dannenberg, S. Dapprich, A. D. Daniels, 
 O. Farkas, J. B. Foresman, J. V. Ortiz, J. Cioslowski, 
 and D. J. Fox, Gaussian, Inc., Wallingford CT, 2013.
 
 ******************************************
 Gaussian 09:  EM64L-G09RevD.01 24-Apr-2013
                 6-Mar-2019 
 ******************************************
 %nprocshared=2
 Will use up to    2 processors via shared memory.
 %mem=6000MB
 %chk=AT3_2ginp010.chk
 ----------------------------------------------------------------------
 # mPW1PW91/6-311g(d) geom=checkpoint nmr=giao scrf=(solvent=chloroform
 )
 ----------------------------------------------------------------------
 1/29=2,38=1/1;
 2/12=2,40=1/2;
 3/5=4,6=6,7=1,11=2,14=-4,16=1,25=1,30=1,70=2201,72=7,74=-7/1,2,8,3;
 4//1;
 5/5=2,38=5,53=7/2;
 8/6=1,10=90,11=11/1;
 10/13=100,45=16/2;
 6/7=2,8=2,9=2,10=2,28=1/1;
 99/9=1/99;
 ------------
 AT3_2ginp010
 ------------
 Structure from the checkpoint file:  "AT3_2ginp010.chk"
 Charge =  0 Multiplicity = 1
 Redundant internal coordinates found in file.
 C,0,-2.7602476368,-2.8498319254,0.4490277668
 C,0,-3.6299787747,-1.610699998,0.6904479583
 C,0,-3.6187445915,-1.0831110207,2.1406338769
 C,0,-2.2021446627,-0.7219166371,2.6691887756
 C,0,-2.2591870446,-0.2964456136,4.1498958822
 O,0,-2.8609398478,0.9756700332,4.3459348628
 N,0,-4.5418826307,0.0729912989,2.324756372
 C,0,-5.895514859,-0.2245177649,2.8188753744
 C,0,-8.4568018557,-2.6355359589,0.2659161626
 C,0,-8.2240242045,-1.2943407377,-0.0473583765
 C,0,-7.3980159296,-0.5593241686,0.7914530268
 C,0,-6.7855772952,-1.0799951815,1.9336654797
 C,0,-7.0525671966,-2.4251902629,2.1919163123
 C,0,-7.8707888036,-3.21487711,1.3917785641
 H,0,-9.0982311148,-3.2328400108,-0.3733990044
 H,0,-8.666909559,-0.8218784445,-0.9164175703
 H,0,-8.0354335289,-4.2535064897,1.6540990296
 F,0,-7.1562244709,0.7419074059,0.4953363578
 F,0,-6.4762297124,-2.9905270552,3.2809534134
 H,0,-3.0247111944,-3.6598867393,1.1384025182
 H,0,-2.8991386787,-3.2246583338,-0.5699348754
 H,0,-1.6947272412,-2.6376382125,0.577976502
 H,0,-3.3185974739,-0.8057079273,0.0116342412
 H,0,-4.6652708353,-1.846414674,0.4232818521
 H,0,-1.6106508167,-1.6471816533,2.6416974993
 H,0,-1.2393866623,-0.2373701514,4.5508138727
 H,0,-2.7840856204,-1.0789286291,4.7270739213
 H,0,-3.6227963093,0.9647232382,3.7258985388
 H,0,-5.8004811321,-0.7088153718,3.7929867415
 H,0,-6.3934069794,0.7357785979,2.9829837379
 H,0,-3.999002614,-1.883805408,2.7893431008
 C,0,-1.4811365592,0.3386864553,1.8238211681
 H,0,-2.0402218178,1.2784151954,1.8105104077
 H,0,-0.4940789444,0.5541291022,2.2463191965
 H,0,-1.3331955925,0.0108544354,0.7907094183
 H,0,-4.6064678093,0.6143847175,1.4662418948
 Recover connectivity data from disk.
                          Input orientation:                          
 ---------------------------------------------------------------------
 Center     Atomic      Atomic             Coordinates (Angstroms)
 Number     Number       Type             X           Y           Z
 ---------------------------------------------------------------------
      1          6           0       -2.760248   -2.849832    0.449028
      2          6           0       -3.629979   -1.610700    0.690448
      3          6           0       -3.618745   -1.083111    2.140634
      4          6           0       -2.202145   -0.721917    2.669189
      5          6           0       -2.259187   -0.296446    4.149896
      6          8           0       -2.860940    0.975670    4.345935
      7          7           0       -4.541883    0.072991    2.324756
      8          6           0       -5.895515   -0.224518    2.818875
      9          6           0       -8.456802   -2.635536    0.265916
     10          6           0       -8.224024   -1.294341   -0.047358
     11          6           0       -7.398016   -0.559324    0.791453
     12          6           0       -6.785577   -1.079995    1.933665
     13          6           0       -7.052567   -2.425190    2.191916
     14          6           0       -7.870789   -3.214877    1.391779
     15          1           0       -9.098231   -3.232840   -0.373399
     16          1           0       -8.666910   -0.821878   -0.916418
     17          1           0       -8.035434   -4.253506    1.654099
     18          9           0       -7.156224    0.741907    0.495336
     19          9           0       -6.476230   -2.990527    3.280953
     20          1           0       -3.024711   -3.659887    1.138403
     21          1           0       -2.899139   -3.224658   -0.569935
     22          1           0       -1.694727   -2.637638    0.577977
     23          1           0       -3.318597   -0.805708    0.011634
     24          1           0       -4.665271   -1.846415    0.423282
     25          1           0       -1.610651   -1.647182    2.641697
     26          1           0       -1.239387   -0.237370    4.550814
     27          1           0       -2.784086   -1.078929    4.727074
     28          1           0       -3.622796    0.964723    3.725899
     29          1           0       -5.800481   -0.708815    3.792987
     30          1           0       -6.393407    0.735779    2.982984
     31          1           0       -3.999003   -1.883805    2.789343
     32          6           0       -1.481137    0.338686    1.823821
     33          1           0       -2.040222    1.278415    1.810510
     34          1           0       -0.494079    0.554129    2.246319
     35          1           0       -1.333196    0.010854    0.790709
     36          1           0       -4.606468    0.614385    1.466242
 ---------------------------------------------------------------------
                    Distance matrix (angstroms):
                    1          2          3          4          5
     1  C    0.000000
     2  C    1.533024   0.000000
     3  C    2.592268   1.543216   0.000000
     4  C    3.125479   2.596933   1.554538   0.000000
     5  C    4.524077   3.946405   2.550367   1.541679   0.000000
     6  O    5.461729   4.543492   3.110659   2.475336   1.420850
     7  N    3.903265   2.517409   1.490858   2.494972   2.945898
     8  C    4.726347   3.403580   2.526040   3.729718   3.872941
     9  C    5.703524   4.952649   5.415846   6.968385   7.679002
    10  C    5.702526   4.663657   5.102992   6.631013   7.361523
    11  C    5.183877   3.913272   4.046917   5.527152   6.144575
    12  C    4.641094   3.432935   3.173590   4.655864   5.100376
    13  C    4.652095   3.825168   3.687132   5.162899   5.598369
    14  C    5.209575   4.587997   4.815090   6.322986   6.900328
    15  H    6.402587   5.802145   6.400505   7.944689   8.709485
    16  H    6.392628   5.345552   5.907434   7.393223   8.185507
    17  H    5.590178   5.226957   5.458504   6.894185   7.433193
    18  F    5.676914   4.243494   4.307141   5.604580   6.197980
    19  F    4.674197   4.088494   3.619915   4.877361   5.079034
    20  H    1.096069   2.183158   2.827917   3.413443   4.579067
    21  H    1.094564   2.174294   3.528632   4.152281   5.591133
    22  H    1.094069   2.193730   2.925798   2.881081   4.307947
    23  H    2.163680   1.098070   2.167875   2.883762   4.301966
    24  H    2.153282   1.094883   2.151081   3.517895   4.698861
    25  H    2.752406   2.808272   2.145153   1.098515   2.125970
    26  H    5.095353   4.743774   3.490786   2.168456   1.097369
    27  H    4.630156   4.158445   2.717783   2.168180   1.104958
    28  H    5.102225   3.980806   2.589731   2.445330   1.905191
    29  H    5.000903   3.892329   2.762307   3.769764   3.583043
    30  H    5.698893   4.289314   3.422961   4.448598   4.418025
    31  H    2.818652   2.148517   1.098422   2.143157   2.719885
    32  C    3.700383   3.114830   2.586744   1.536027   2.533649
    33  H    4.406188   3.482650   2.859637   2.182859   2.828579
    34  H    4.466848   4.115955   3.529201   2.173614   2.731792
    35  H    3.215082   2.813308   2.871026   2.195612   3.498003
    36  H    4.055126   2.550762   2.076510   3.002258   3.679856
                    6          7          8          9         10
     6  O    0.000000
     7  N    2.779489   0.000000
     8  C    3.602916   1.471389   0.000000
     9  C    7.810316   5.186669   4.346355   0.000000
    10  C    7.294974   4.588539   3.844707   1.396829   0.000000
    11  C    5.964529   3.302778   2.545593   2.389115   1.387856
    12  C    5.044560   2.552743   1.519095   2.827382   2.457545
    13  C    5.811660   3.544305   2.564139   2.392822   2.768661
    14  C    7.168425   4.770969   3.857533   1.395211   2.425768
    15  H    8.881862   6.242505   5.431207   1.084863   2.151353
    16  H    8.039454   5.321827   4.689337   2.175181   1.083804
    17  H    7.833623   5.601184   4.708366   2.173116   3.418653
    18  F    5.773320   3.260216   2.814640   3.626466   2.362418
    19  F    5.471309   3.747153   2.863835   3.624794   4.124257
    20  H    5.639457   4.200431   4.781973   5.596261   5.833926
    21  H    6.466065   4.685332   5.427997   5.650959   5.688024
    22  H    5.349164   4.301749   5.337733   6.769272   6.695313
    23  H    4.708388   2.760267   3.854723   5.460227   4.930056
    24  H    5.158195   2.704616   3.143711   3.875975   3.631943
    25  H    3.368531   3.413439   4.518343   7.313752   7.147883
    26  H    2.035406   3.994764   4.967827   8.729412   8.428851
    27  H    2.091064   3.191849   3.748631   7.382727   7.241170
    28  H    0.982339   1.898185   2.720705   6.949889   6.364914
    29  H    3.432804   2.085903   1.092002   4.817522   4.578717
    30  H    3.793878   2.073811   1.094074   4.796438   4.081117
    31  H    3.448879   2.083174   2.520093   5.177331   5.123002
    32  C    2.944599   3.112828   4.560051   7.741639   7.185724
    33  H    2.682091   2.824146   4.258978   7.673153   6.950551
    34  H    3.191882   4.077053   5.487223   8.803460   8.272234
    35  H    3.988045   3.557082   4.998361   7.617385   7.063244
    36  H    3.386743   1.017018   2.048174   5.179560   4.361299
                   11         12         13         14         15
    11  C    0.000000
    12  C    1.396721   0.000000
    13  C    2.358408   1.395538   0.000000
    14  C    2.763307   2.455412   1.390436   0.000000
    15  H    3.375692   3.912244   3.379036   2.150067   0.000000
    16  H    2.143793   3.424764   3.852071   3.418775   2.508713
    17  H    3.846744   3.422203   2.144298   1.083822   2.506401
    18  F    1.356227   2.350638   3.594390   4.119509   4.508293
    19  F    3.599729   2.358180   1.355645   2.358836   4.504209
    20  H    5.372118   4.629514   4.342579   4.873059   6.273401
    21  H    5.403451   5.096273   5.051528   5.344691   6.202213
    22  H    6.073917   5.493714   5.599677   6.256134   7.488074
    23  H    4.160586   3.973586   4.617238   5.332105   6.280397
    24  H    3.043033   2.713735   3.026918   3.617461   4.712538
    25  H    6.172555   5.253844   5.515619   6.573378   8.226116
    26  H    7.222545   6.190292   6.644097   7.925941   9.745879
    27  H    6.086662   4.880068   5.143868   6.446784   8.397773
    28  H    5.018563   4.170870   5.060429   6.400204   8.025220
    29  H    3.403479   2.136648   2.660280   4.041327   5.882570
    30  H    2.736665   2.133518   3.324455   4.508023   5.859293
    31  H    4.159219   3.023788   3.158207   4.326161   6.150200
    32  C    6.073028   5.491977   6.230196   7.324079   8.695039
    33  H    5.755147   5.300534   6.243859   7.372959   8.656580
    34  H    7.142882   6.507770   7.203685   8.327755   9.758867
    35  H    6.091564   5.676686   6.372512   7.314831   8.495439
    36  H    3.102527   2.799630   3.968504   5.032354   6.193654
                   16         17         18         19         20
    16  H    0.000000
    17  H    4.333865   0.000000
    18  F    2.592421   5.202874   0.000000
    19  F    5.207690   2.583194   4.706710   0.000000
    20  H    6.641610   5.072047   6.071139   4.117226   0.000000
    21  H    6.257842   5.690903   5.915338   5.261154   1.767373
    22  H    7.358092   6.631261   6.423092   5.503942   1.768595
    23  H    5.428258   6.069065   4.166109   5.043067   3.082582
    24  H    4.342532   4.320532   3.592973   3.571394   2.547845
    25  H    7.945571   7.003293   6.408432   5.087935   2.882784
    26  H    9.241232   8.408719   7.239810   6.051194   5.152238
    27  H    8.156144   6.862782   6.351271   4.401977   4.426941
    28  H    7.084216   7.140983   4.792838   4.897353   5.332903
    29  H    5.514316   4.704752   3.849303   2.434137   4.843608
    30  H    4.774981   5.418039   2.601983   3.739117   5.837162
    31  H    6.053900   4.816330   4.703710   2.757384   2.613296
    32  C    7.777606   8.004739   5.842438   6.177204   4.340623
    33  H    7.467286   8.158994   5.309520   6.329632   5.080135
    34  H    8.870821   8.963042   6.890964   7.030020   5.038800
    35  H    7.575691   7.990633   5.876168   6.454487   4.056656
    36  H    4.922104   5.957303   2.731333   4.447986   4.569336
                   21         22         23         24         25
    21  H    0.000000
    22  H    1.764341   0.000000
    23  H    2.522992   2.512701   0.000000
    24  H    2.450563   3.078002   1.751015   0.000000
    25  H    3.803054   2.290637   3.246905   3.780445   0.000000
    26  H    6.156357   4.663910   5.024965   5.600199   2.402110
    27  H    5.716266   4.564130   4.753496   4.759256   2.459401
    28  H    6.043905   5.157894   4.125860   4.460552   3.470773
    29  H    5.812258   5.560024   4.524131   3.733329   4.445298
    30  H    6.365391   6.264311   4.545278   4.025699   5.354412
    31  H    3.780521   3.281477   3.056291   2.458365   2.404582
    32  C    4.520865   3.233614   2.823105   4.107906   2.151597
    33  H    5.165455   4.119949   3.035419   4.310435   3.071566
    34  H    5.291014   3.796354   3.849789   5.146350   2.499765
    35  H    3.843446   2.681506   2.283758   3.832385   2.500444
    36  H    4.668966   4.454537   2.406482   2.673342   3.933357
                   26         27         28         29         30
    26  H    0.000000
    27  H    1.767875   0.000000
    28  H    2.793950   2.425345   0.000000
    29  H    4.647596   3.179331   2.747279   0.000000
    30  H    5.474398   4.400252   2.877607   1.759124   0.000000
    31  H    3.664561   2.424593   3.022049   2.373442   3.554278
    32  C    2.797637   3.483703   2.931983   4.861236   5.062780
    33  H    3.232368   3.823185   2.504328   4.692425   4.540856
    34  H    2.548068   3.750354   3.485199   5.669666   5.947919
    35  H    3.769456   4.334475   3.842847   5.430307   5.562133
    36  H    4.645138   4.101392   2.489256   2.930916   2.346997
                   31         32         33         34         35
    31  H    0.000000
    32  C    3.494475   0.000000
    33  H    3.846372   1.093546   0.000000
    34  H    4.303823   1.095081   1.762123   0.000000
    35  H    3.832858   1.093929   1.773863   1.765804   0.000000
    36  H    2.891464   3.157779   2.673027   4.186155   3.396307
                   36
    36  H    0.000000
 Stoichiometry    C13H19F2NO
 Framework group  C1[X(C13H19F2NO)]
 Deg. of freedom   102
 Full point group                 C1      NOp   1
 Largest Abelian subgroup         C1      NOp   1
 Largest concise Abelian subgroup C1      NOp   1
                         Standard orientation:                         
 ---------------------------------------------------------------------
 Center     Atomic      Atomic             Coordinates (Angstroms)
 Number     Number       Type             X           Y           Z
 ---------------------------------------------------------------------
      1          6           0       -1.155690    2.953686   -0.699867
      2          6           0       -0.779475    1.493698   -0.977463
      3          6           0       -1.390725    0.469178    0.001439
      4          6           0       -2.943496    0.506853    0.065232
      5          6           0       -3.474431   -0.472523    1.130926
      6          8           0       -3.336493   -1.836719    0.758423
      7          7           0       -0.925244   -0.919670   -0.276208
      8          6           0        0.230613   -1.403991    0.494774
      9          6           0        4.021350    0.632029   -0.118195
     10          6           0        3.542404   -0.255462   -1.084685
     11          6           0        2.326629   -0.883327   -0.852694
     12          6           0        1.552113   -0.682716    0.292167
     13          6           0        2.080588    0.217267    1.218596
     14          6           0        3.292020    0.877437    1.045620
     15          1           0        4.968892    1.136546   -0.274892
     16          1           0        4.089882   -0.462050   -1.996947
     17          1           0        3.642507    1.562729    1.808643
     18          9           0        1.844991   -1.741360   -1.786051
     19          9           0        1.367836    0.462426    2.345385
     20          1           0       -0.911453    3.236694    0.330483
     21          1           0       -0.606007    3.625909   -1.366226
     22          1           0       -2.222744    3.141057   -0.852435
     23          1           0       -1.068305    1.228826   -2.003221
     24          1           0        0.310082    1.394091   -0.936079
     25          1           0       -3.219903    1.511913    0.411914
     26          1           0       -4.543843   -0.287984    1.293777
     27          1           0       -2.965640   -0.267818    2.090176
     28          1           0       -2.445618   -1.870747    0.345902
     29          1           0       -0.030565   -1.366194    1.554409
     30          1           0        0.369325   -2.457403    0.233852
     31          1           0       -1.030976    0.715988    1.009505
     32          6           0       -3.621934    0.258915   -1.290359
     33          1           0       -3.366073   -0.728746   -1.683939
     34          1           0       -4.711068    0.292862   -1.181562
     35          1           0       -3.341332    1.009933   -2.034613
     36          1           0       -0.743758   -1.040024   -1.269637
 ---------------------------------------------------------------------
 Rotational constants (GHZ):      0.7210521      0.2753156      0.2658365
 Standard basis: 6-311G(d) (5D, 7F)
 There are   380 symmetry adapted cartesian basis functions of A   symmetry.
 There are   363 symmetry adapted basis functions of A   symmetry.
   363 basis functions,   639 primitive gaussians,   380 cartesian basis functions
    65 alpha electrons       65 beta electrons
       nuclear repulsion energy      1299.4182907516 Hartrees.
 NAtoms=   36 NActive=   36 NUniq=   36 SFac= 1.00D+00 NAtFMM=   60 NAOKFM=F Big=F
 Integral buffers will be    131072 words long.
 Raffenetti 2 integral format.
 Two-electron integral symmetry is turned on.
 ------------------------------------------------------------------------------
 Polarizable Continuum Model (PCM)
 =================================
 Model                : PCM (using non-symmetric T matrix).
 Atomic radii         : UFF (Universal Force Field).
 Polarization charges : Total charges.
 Charge compensation  : None.
 Solution method      : On-the-fly selection.
 Cavity type          : Scaled VdW (van der Waals Surface) (Alpha=1.100).
 Cavity algorithm     : GePol (No added spheres)
                        Default sphere list used, NSphG=   36.
                        Lebedev-Laikov grids with approx.  5.0 points / Ang**2.
                        Smoothing algorithm: Karplus/York (Gamma=1.0000).
                        Polarization charges: spherical gaussians, with
                                              point-specific exponents (IZeta= 3).
                        Self-potential: point-specific (ISelfS= 7).
                        Self-field    : sphere-specific E.n sum rule (ISelfD= 2).
 Solvent              : Chloroform, Eps=   4.711300 Eps(inf)=   2.090627
 ------------------------------------------------------------------------------
 One-electron integrals computed using PRISM.
 NBasis=   363 RedAO= T EigKep=  2.30D-04  NBF=   363
 NBsUse=   363 1.00D-06 EigRej= -1.00D+00 NBFU=   363
 ExpMin= 1.03D-01 ExpMax= 1.14D+04 ExpMxC= 1.72D+03 IAcc=1 IRadAn=         1 AccDes= 0.00D+00
 Harris functional with IExCor=  908 and IRadAn=       1 diagonalized for initial guess.
 HarFok:  IExCor=  908 AccDes= 0.00D+00 IRadAn=         1 IDoV= 1 UseB2=F ITyADJ=14
 ICtDFT=  3500011 ScaDFX=  1.000000  1.000000  1.000000  1.000000
 FoFCou: FMM=F IPFlag=           0 FMFlag=      100000 FMFlg1=           0
         NFxFlg=           0 DoJE=T BraDBF=F KetDBF=T FulRan=T
         wScrn=  0.000000 ICntrl=     500 IOpCl=  0 I1Cent=   200000004 NGrid=           0
         NMat0=    1 NMatS0=      1 NMatT0=    0 NMatD0=    1 NMtDS0=    0 NMtDT0=    0
 Petite list used in FoFCou.
 Requested convergence on RMS density matrix=1.00D-08 within 128 cycles.
 Requested convergence on MAX density matrix=1.00D-06.
 Requested convergence on             energy=1.00D-06.
 No special actions if energy rises.
 Inv3:  Mode=1 IEnd=    17685552.
 Iteration    1 A*A^-1 deviation from unit magnitude is 6.88D-15 for      7.
 Iteration    1 A*A^-1 deviation from orthogonality  is 1.24D-14 for   2161   1090.
 Iteration    1 A^-1*A deviation from unit magnitude is 1.27D-14 for    475.
 Iteration    1 A^-1*A deviation from orthogonality  is 1.79D-14 for   2212   2157.
 Error on total polarization charges =  0.00913
 SCF Done:  E(RmPW1PW91) =  -836.468762488     A.U. after   12 cycles
            NFock= 12  Conv=0.78D-08     -V/T= 2.0039
 DoSCS=F DFT=T ScalE2(SS,OS)=  1.000000  1.000000
 Range of M.O.s used for correlation:     1   363
 NBasis=   363 NAE=    65 NBE=    65 NFC=     0 NFV=     0
 NROrb=    363 NOA=    65 NOB=    65 NVA=   298 NVB=   298

 **** Warning!!: The largest alpha MO coefficient is  0.12099268D+02

 NEqPCM:  Using equilibrium solvation (IEInf=0, Eps=   4.7113, EpsInf=   2.0906)
          Differentiating once with respect to magnetic field using GIAOs.
          Electric field/nuclear overlap derivatives assumed to be zero.
 FoFJK:  IHMeth= 1 ICntrl=    6127 DoSepK=F KAlg= 0 I1Cent=   0 FoldK=F
 IRaf=         1 NMat=   1 IRICut=       1 DoRegI=T DoRafI=F ISym2E= 0.
          There are     3 degrees of freedom in the 1st order CPHF.  IDoFFX=0 NUNeed=     3.
      3 vectors produced by pass  0 Test12= 6.46D-13 3.33D-08 XBig12= 3.70D+01 1.99D+00.
 AX will form     3 AO Fock derivatives at one time.
      3 vectors produced by pass  1 Test12= 6.46D-13 3.33D-08 XBig12= 1.25D-01 1.95D-01.
      3 vectors produced by pass  2 Test12= 6.46D-13 3.33D-08 XBig12= 5.77D-04 7.43D-03.
      3 vectors produced by pass  3 Test12= 6.46D-13 3.33D-08 XBig12= 1.38D-06 2.32D-04.
      3 vectors produced by pass  4 Test12= 6.46D-13 3.33D-08 XBig12= 3.57D-09 1.21D-05.
      3 vectors produced by pass  5 Test12= 6.46D-13 3.33D-08 XBig12= 1.57D-11 7.67D-07.
      1 vectors produced by pass  6 Test12= 6.46D-13 3.33D-08 XBig12= 3.60D-14 5.39D-08.
 InvSVY:  IOpt=1 It=  1 EMax= 8.88D-16
 Solved reduced A of dimension    19 with     3 vectors.
 Calculating GIAO nuclear magnetic shielding tensors.
 SCF GIAO Magnetic shielding tensor (ppm):
      1  C    Isotropic =   176.0256   Anisotropy =    20.4685
   XX=   167.5526   YX=    -3.2422   ZX=    -1.3261
   XY=    -1.9541   YY=   189.1025   ZY=     1.3395
   XZ=    -0.6831   YZ=     2.8055   ZZ=   171.4218
   Eigenvalues:   167.1056   171.3000   189.6713
      2  C    Isotropic =   158.0810   Anisotropy =    30.0534
   XX=   148.0381   YX=     2.0456   ZX=   -10.4788
   XY=    -2.4282   YY=   176.0485   ZY=    -5.1068
   XZ=   -10.4305   YZ=    -9.2080   ZZ=   150.1565
   Eigenvalues:   137.9271   158.1993   178.1166
      3  C    Isotropic =   119.9642   Anisotropy =    26.9242
   XX=   120.5968   YX=    -1.9061   ZX=    -2.4098
   XY=   -13.9426   YY=   133.7528   ZY=     8.5790
   XZ=    -1.8678   YZ=    -2.2498   ZZ=   105.5431
   Eigenvalues:   105.0740   116.9049   137.9137
      4  C    Isotropic =   150.5968   Anisotropy =     5.4522
   XX=   149.5098   YX=     6.7257   ZX=    -0.6569
   XY=    -0.9214   YY=   148.8735   ZY=    -0.9180
   XZ=     1.3365   YZ=     3.8825   ZZ=   153.4071
   Eigenvalues:   146.1620   151.3967   154.2316
      5  C    Isotropic =   115.4837   Anisotropy =    39.4026
   XX=    96.2440   YX=    -3.9774   ZX=    -4.6561
   XY=    -0.7778   YY=   141.4529   ZY=    -1.8724
   XZ=    -5.1492   YZ=     6.1263   ZZ=   108.7541
   Eigenvalues:    94.4997   110.1993   141.7520
      6  O    Isotropic =   313.9805   Anisotropy =    85.2749
   XX=   352.4956   YX=    -7.6702   ZX=   -36.0471
   XY=    17.9215   YY=   280.9145   ZY=    -8.3079
   XZ=   -28.9642   YZ=   -14.1726   ZZ=   308.5313
   Eigenvalues:   276.1464   294.9646   370.8304
      7  N    Isotropic =   197.2965   Anisotropy =    20.7953
   XX=   177.5173   YX=     2.9768   ZX=    -2.1557
   XY=   -13.3723   YY=   205.9684   ZY=     7.6940
   XZ=     6.4859   YZ=    -0.2473   ZZ=   208.4038
   Eigenvalues:   176.3535   204.3760   211.1600
      8  C    Isotropic =   144.7930   Anisotropy =    53.0393
   XX=   156.8478   YX=   -16.3489   ZX=    18.8360
   XY=   -13.5782   YY=   140.3847   ZY=   -18.2647
   XZ=    19.0091   YZ=   -15.1826   ZZ=   137.1465
   Eigenvalues:   121.1520   133.0745   180.1525
      9  C    Isotropic =    53.5391   Anisotropy =   189.2454
   XX=     2.2807   YX=   -87.4558   ZX=    42.8144
   XY=   -85.9918   YY=    97.3638   ZY=   -45.1403
   XZ=    41.3179   YZ=   -45.5636   ZZ=    60.9730
   Eigenvalues:   -50.9079    31.8225   179.7028
     10  C    Isotropic =    72.2303   Anisotropy =   147.2564
   XX=    68.8751   YX=   -35.1927   ZX=    49.2930
   XY=   -31.8401   YY=   117.9894   ZY=   -52.7979
   XZ=    56.0071   YZ=   -49.3113   ZZ=    29.8265
   Eigenvalues:   -11.8611    58.1508   170.4013
     11  C    Isotropic =    17.4509   Anisotropy =    97.2073
   XX=    35.1362   YX=   -41.1495   ZX=   -16.7664
   XY=   -35.4047   YY=    23.7123   ZY=   -59.6888
   XZ=   -10.6134   YZ=   -59.0311   ZZ=    -6.4958
   Eigenvalues:   -64.8425    34.9394    82.2558
     12  C    Isotropic =    64.3694   Anisotropy =   142.6282
   XX=    48.8200   YX=   -54.0656   ZX=    33.0129
   XY=   -50.8537   YY=    92.5318   ZY=   -49.6823
   XZ=    32.6010   YZ=   -47.5719   ZZ=    51.7562
   Eigenvalues:    13.8319    19.8213   159.4548
     13  C    Isotropic =    18.5739   Anisotropy =    99.0119
   XX=    20.7664   YX=    -6.3742   ZX=    56.3668
   XY=   -10.8171   YY=    56.7688   ZY=   -33.1050
   XZ=    51.4433   YZ=   -32.9285   ZZ=   -21.8134
   Eigenvalues:   -62.9002    34.0402    84.5818
     14  C    Isotropic =    72.2570   Anisotropy =   147.3832
   XX=    77.9280   YX=   -51.9458   ZX=    12.5044
   XY=   -56.3298   YY=    93.0305   ZY=   -67.7814
   XZ=     6.4036   YZ=   -71.7637   ZZ=    45.8124
   Eigenvalues:   -11.9335    58.1920   170.5124
     15  H    Isotropic =    24.6159   Anisotropy =     3.0089
   XX=    25.3350   YX=     1.5322   ZX=    -1.0058
   XY=     1.4735   YY=    23.1158   ZY=     2.0218
   XZ=    -1.1039   YZ=     2.0304   ZZ=    25.3968
   Eigenvalues:    21.1335    26.0923    26.6218
     16  H    Isotropic =    25.1518   Anisotropy =     4.7155
   XX=    27.2065   YX=     2.1919   ZX=    -1.2597
   XY=     2.1566   YY=    23.7486   ZY=     1.4221
   XZ=    -0.9818   YZ=     1.5803   ZZ=    24.5002
   Eigenvalues:    21.5470    25.6129    28.2954
     17  H    Isotropic =    25.0881   Anisotropy =     4.8508
   XX=    27.2717   YX=     2.4035   ZX=    -0.8724
   XY=     2.1201   YY=    23.1263   ZY=     1.2180
   XZ=    -1.0850   YZ=     1.1792   ZZ=    24.8664
   Eigenvalues:    21.4712    25.4711    28.3220
     18  F    Isotropic =   296.0216   Anisotropy =   128.9399
   XX=   251.1719   YX=   -54.5400   ZX=    37.1554
   XY=   -36.8549   YY=   353.3263   ZY=   -12.3150
   XZ=    52.6377   YZ=   -21.2297   ZZ=   283.5666
   Eigenvalues:   213.4353   292.6480   381.9815
     19  F    Isotropic =   296.5933   Anisotropy =   119.4837
   XX=   270.1575   YX=   -66.2054   ZX=     7.8500
   XY=   -62.7712   YY=   303.2965   ZY=   -49.8732
   XZ=    -4.4758   YZ=   -38.0021   ZZ=   316.3259
   Eigenvalues:   213.1775   300.3532   376.2491
     20  H    Isotropic =    31.6509   Anisotropy =     8.1064
   XX=    28.4263   YX=     0.0431   ZX=     1.3499
   XY=     0.1970   YY=    33.7633   ZY=     4.2647
   XZ=     2.5024   YZ=     2.8111   ZZ=    32.7632
   Eigenvalues:    27.4043    30.4932    37.0552
     21  H    Isotropic =    31.4493   Anisotropy =    10.9684
   XX=    29.1051   YX=     1.6847   ZX=    -2.0157
   XY=     2.2522   YY=    36.0403   ZY=    -4.4614
   XZ=    -1.8965   YZ=    -3.9624   ZZ=    29.2026
   Eigenvalues:    26.7211    28.8653    38.7616
     22  H    Isotropic =    31.4010   Anisotropy =     8.3879
   XX=    34.4924   YX=    -2.1568   ZX=     1.2671
   XY=    -3.2063   YY=    33.5275   ZY=    -1.1524
   XZ=     1.2907   YZ=    -0.9997   ZZ=    26.1833
   Eigenvalues:    25.9249    31.2853    36.9930
     23  H    Isotropic =    31.0386   Anisotropy =     4.0673
   XX=    29.6439   YX=     0.2688   ZX=    -0.1399
   XY=    -0.3492   YY=    29.7877   ZY=    -0.2520
   XZ=     1.1804   YZ=     0.2346   ZZ=    33.6841
   Eigenvalues:    29.5711    29.7946    33.7501
     24  H    Isotropic =    31.4840   Anisotropy =    12.3062
   XX=    37.4988   YX=    -2.4765   ZX=     0.5230
   XY=    -5.3771   YY=    31.3305   ZY=    -3.0191
   XZ=     1.0009   YZ=    -2.7672   ZZ=    25.6229
   Eigenvalues:    24.3544    30.4096    39.6882
     25  H    Isotropic =    30.6610   Anisotropy =     6.4821
   XX=    30.5401   YX=    -1.0994   ZX=    -1.6569
   XY=    -1.3164   YY=    33.8375   ZY=     1.6712
   XZ=    -1.4882   YZ=     2.1932   ZZ=    27.6053
   Eigenvalues:    26.6617    30.3388    34.9824
     26  H    Isotropic =    28.3228   Anisotropy =     8.0783
   XX=    30.6388   YX=    -0.1597   ZX=    -4.4024
   XY=    -2.1941   YY=    27.8641   ZY=     0.4961
   XZ=    -4.4642   YZ=     0.3606   ZZ=    26.4655
   Eigenvalues:    23.6346    27.6255    33.7083
     27  H    Isotropic =    27.8868   Anisotropy =     5.8603
   XX=    24.9762   YX=     0.3127   ZX=    -1.3663
   XY=     0.7359   YY=    27.5099   ZY=     2.3767
   XZ=    -0.1565   YZ=     0.7522   ZZ=    31.1742
   Eigenvalues:    24.6825    27.1842    31.7936
     28  H    Isotropic =    27.6095   Anisotropy =    24.5101
   XX=    39.4723   YX=     1.9943   ZX=   -10.7710
   XY=     0.9555   YY=    24.6939   ZY=    -0.4759
   XZ=   -10.1537   YZ=    -0.5676   ZZ=    18.6623
   Eigenvalues:    14.3111    24.5678    43.9495
     29  H    Isotropic =    28.1747   Anisotropy =     5.8726
   XX=    28.7915   YX=     1.3672   ZX=     2.0797
   XY=     1.9319   YY=    24.3724   ZY=    -3.1758
   XZ=     0.1144   YZ=    -1.0920   ZZ=    31.3603
   Eigenvalues:    23.1390    29.2954    32.0898
     30  H    Isotropic =    28.1592   Anisotropy =     7.7347
   XX=    28.4293   YX=    -2.7522   ZX=     0.1095
   XY=    -0.3831   YY=    32.8027   ZY=     0.5306
   XZ=    -0.6526   YZ=    -1.3418   ZZ=    23.2457
   Eigenvalues:    23.2055    27.9564    33.3157
     31  H    Isotropic =    29.1794   Anisotropy =     4.6450
   XX=    31.0128   YX=    -1.1585   ZX=     1.7121
   XY=    -0.8545   YY=    28.0497   ZY=     2.0178
   XZ=     2.6349   YZ=     0.5333   ZZ=    28.4757
   Eigenvalues:    25.9762    29.2859    32.2761
     32  C    Isotropic =   178.3671   Anisotropy =    16.7155
   XX=   184.8086   YX=     3.2423   ZX=     5.0328
   XY=     1.5074   YY=   166.3533   ZY=     1.4856
   XZ=     4.9052   YZ=    -1.2005   ZZ=   183.9395
   Eigenvalues:   166.0386   179.5520   189.5108
     33  H    Isotropic =    30.8857   Anisotropy =     6.0346
   XX=    29.3146   YX=    -0.0690   ZX=     1.6365
   XY=    -0.8197   YY=    32.1554   ZY=     2.8604
   XZ=     2.1478   YZ=     3.2286   ZZ=    31.1871
   Eigenvalues:    27.1440    30.6042    34.9088
     34  H    Isotropic =    31.3693   Anisotropy =    11.6727
   XX=    38.7131   YX=    -0.2192   ZX=     1.7088
   XY=    -0.7135   YY=    26.8031   ZY=    -0.7616
   XZ=     2.4630   YZ=    -0.2451   ZZ=    28.5919
   Eigenvalues:    26.6705    28.2864    39.1511
     35  H    Isotropic =    31.3271   Anisotropy =     7.5407
   XX=    31.0230   YX=     1.6900   ZX=     1.8875
   XY=     1.0796   YY=    29.5225   ZY=    -4.1700
   XZ=     1.8885   YZ=    -4.4427   ZZ=    33.4357
   Eigenvalues:    25.8185    31.8086    36.3542
     36  H    Isotropic =    31.2999   Anisotropy =     9.0071
   XX=    30.9641   YX=    -4.2412   ZX=     0.0947
   XY=    -4.9505   YY=    27.1567   ZY=     3.0080
   XZ=    -0.2551   YZ=     3.3235   ZZ=    35.7789
   Eigenvalues:    23.5249    33.0702    37.3046
 End of Minotr F.D. properties file   721 does not exist.
 End of Minotr F.D. properties file   722 does not exist.
 End of Minotr F.D. properties file   788 does not exist.

 **********************************************************************

            Population analysis using the SCF density.

 **********************************************************************

 Orbital symmetries:
       Occupied  (A) (A) (A) (A) (A) (A) (A) (A) (A) (A) (A) (A)
                 (A) (A) (A) (A) (A) (A) (A) (A) (A) (A) (A) (A)
                 (A) (A) (A) (A) (A) (A) (A) (A) (A) (A) (A) (A)
                 (A) (A) (A) (A) (A) (A) (A) (A) (A) (A) (A) (A)
                 (A) (A) (A) (A) (A) (A) (A) (A) (A) (A) (A) (A)
                 (A) (A) (A) (A) (A)
       Virtual   (A) (A) (A) (A) (A) (A) (A) (A) (A) (A) (A) (A)
                 (A) (A) (A) (A) (A) (A) (A) (A) (A) (A) (A) (A)
                 (A) (A) (A) (A) (A) (A) (A) (A) (A) (A) (A) (A)
                 (A) (A) (A) (A) (A) (A) (A) (A) (A) (A) (A) (A)
                 (A) (A) (A) (A) (A) (A) (A) (A) (A) (A) (A) (A)
                 (A) (A) (A) (A) (A) (A) (A) (A) (A) (A) (A) (A)
                 (A) (A) (A) (A) (A) (A) (A) (A) (A) (A) (A) (A)
                 (A) (A) (A) (A) (A) (A) (A) (A) (A) (A) (A) (A)
                 (A) (A) (A) (A) (A) (A) (A) (A) (A) (A) (A) (A)
                 (A) (A) (A) (A) (A) (A) (A) (A) (A) (A) (A) (A)
                 (A) (A) (A) (A) (A) (A) (A) (A) (A) (A) (A) (A)
                 (A) (A) (A) (A) (A) (A) (A) (A) (A) (A) (A) (A)
                 (A) (A) (A) (A) (A) (A) (A) (A) (A) (A) (A) (A)
                 (A) (A) (A) (A) (A) (A) (A) (A) (A) (A) (A) (A)
                 (A) (A) (A) (A) (A) (A) (A) (A) (A) (A) (A) (A)
                 (A) (A) (A) (A) (A) (A) (A) (A) (A) (A) (A) (A)
                 (A) (A) (A) (A) (A) (A) (A) (A) (A) (A) (A) (A)
                 (A) (A) (A) (A) (A) (A) (A) (A) (A) (A) (A) (A)
                 (A) (A) (A) (A) (A) (A) (A) (A) (A) (A) (A) (A)
                 (A) (A) (A) (A) (A) (A) (A) (A) (A) (A) (A) (A)
                 (A) (A) (A) (A) (A) (A) (A) (A) (A) (A) (A) (A)
                 (A) (A) (A) (A) (A) (A) (A) (A) (A) (A) (A) (A)
                 (A) (A) (A) (A) (A) (A) (A) (A) (A) (A) (A) (A)
                 (A) (A) (A) (A) (A) (A) (A) (A) (A) (A) (A) (A)
                 (A) (A) (A) (A) (A) (A) (A) (A) (A) (A)
 The electronic state is 1-A.
 Alpha  occ. eigenvalues --  -24.80296 -24.80178 -19.18042 -14.39657 -10.34054
 Alpha  occ. eigenvalues --  -10.34018 -10.27815 -10.26780 -10.26704 -10.26450
 Alpha  occ. eigenvalues --  -10.26326 -10.25649 -10.25630 -10.23445 -10.23076
 Alpha  occ. eigenvalues --  -10.22180 -10.21540  -1.27165  -1.27046  -1.02722
 Alpha  occ. eigenvalues --   -0.94740  -0.90897  -0.83215  -0.80429  -0.79066
 Alpha  occ. eigenvalues --   -0.78018  -0.72243  -0.69545  -0.67660  -0.66106
 Alpha  occ. eigenvalues --   -0.64064  -0.62904  -0.58949  -0.57852  -0.55317
 Alpha  occ. eigenvalues --   -0.52785  -0.51766  -0.51492  -0.50906  -0.49484
 Alpha  occ. eigenvalues --   -0.49184  -0.48397  -0.47520  -0.46814  -0.46237
 Alpha  occ. eigenvalues --   -0.44470  -0.43331  -0.42636  -0.41952  -0.41038
 Alpha  occ. eigenvalues --   -0.40804  -0.39894  -0.39214  -0.38374  -0.38003
 Alpha  occ. eigenvalues --   -0.37895  -0.37146  -0.36503  -0.33968  -0.33111
 Alpha  occ. eigenvalues --   -0.32817  -0.28100  -0.27301  -0.26634  -0.24882
 Alpha virt. eigenvalues --   -0.02672  -0.01229   0.05011   0.05463   0.06548
 Alpha virt. eigenvalues --    0.07339   0.07549   0.10070   0.10137   0.10786
 Alpha virt. eigenvalues --    0.11231   0.11400   0.12232   0.12952   0.13149
 Alpha virt. eigenvalues --    0.13976   0.14451   0.14959   0.15592   0.15980
 Alpha virt. eigenvalues --    0.16238   0.17422   0.18476   0.18603   0.19405
 Alpha virt. eigenvalues --    0.20663   0.22491   0.22869   0.24421   0.24908
 Alpha virt. eigenvalues --    0.25692   0.26186   0.26722   0.29167   0.29981
 Alpha virt. eigenvalues --    0.30868   0.32464   0.32819   0.33642   0.34156
 Alpha virt. eigenvalues --    0.35672   0.36896   0.37651   0.38309   0.38864
 Alpha virt. eigenvalues --    0.39853   0.40366   0.40512   0.41144   0.42379
 Alpha virt. eigenvalues --    0.42508   0.43503   0.44997   0.45595   0.46111
 Alpha virt. eigenvalues --    0.46850   0.49219   0.50400   0.50924   0.51683
 Alpha virt. eigenvalues --    0.52154   0.52837   0.54105   0.54527   0.55437
 Alpha virt. eigenvalues --    0.56556   0.56736   0.58433   0.59185   0.59617
 Alpha virt. eigenvalues --    0.59922   0.60326   0.60669   0.61140   0.61771
 Alpha virt. eigenvalues --    0.62410   0.63087   0.63668   0.63907   0.64348
 Alpha virt. eigenvalues --    0.64694   0.64960   0.65745   0.66068   0.66679
 Alpha virt. eigenvalues --    0.68479   0.68634   0.69962   0.70934   0.71487
 Alpha virt. eigenvalues --    0.73477   0.74230   0.75424   0.77466   0.78199
 Alpha virt. eigenvalues --    0.78569   0.79270   0.80544   0.83031   0.83595
 Alpha virt. eigenvalues --    0.87979   0.88998   0.90219   0.92464   0.94147
 Alpha virt. eigenvalues --    0.95179   0.95836   0.97631   0.99139   0.99386
 Alpha virt. eigenvalues --    1.00560   1.02510   1.04570   1.06484   1.07250
 Alpha virt. eigenvalues --    1.08518   1.09719   1.11414   1.11873   1.14856
 Alpha virt. eigenvalues --    1.16434   1.18061   1.19270   1.20659   1.23358
 Alpha virt. eigenvalues --    1.26253   1.27403   1.28882   1.29838   1.33079
 Alpha virt. eigenvalues --    1.33571   1.35418   1.37046   1.38292   1.40550
 Alpha virt. eigenvalues --    1.45121   1.46493   1.46660   1.48398   1.49176
 Alpha virt. eigenvalues --    1.50649   1.52547   1.53354   1.54236   1.55259
 Alpha virt. eigenvalues --    1.56342   1.56643   1.57971   1.59638   1.60806
 Alpha virt. eigenvalues --    1.62913   1.63791   1.64104   1.65570   1.66711
 Alpha virt. eigenvalues --    1.67841   1.68547   1.70538   1.72441   1.73097
 Alpha virt. eigenvalues --    1.74111   1.76949   1.78810   1.79597   1.81588
 Alpha virt. eigenvalues --    1.83147   1.84870   1.85808   1.87300   1.88761
 Alpha virt. eigenvalues --    1.89493   1.90696   1.91387   1.93487   1.95680
 Alpha virt. eigenvalues --    1.97813   1.98474   1.99259   2.01868   2.02784
 Alpha virt. eigenvalues --    2.07838   2.12948   2.15844   2.18804   2.19095
 Alpha virt. eigenvalues --    2.21081   2.23671   2.27050   2.27712   2.27907
 Alpha virt. eigenvalues --    2.30384   2.32864   2.36070   2.37891   2.39568
 Alpha virt. eigenvalues --    2.42395   2.43359   2.44257   2.45801   2.48278
 Alpha virt. eigenvalues --    2.48833   2.50428   2.52422   2.53064   2.54397
 Alpha virt. eigenvalues --    2.57527   2.58114   2.59909   2.62728   2.64400
 Alpha virt. eigenvalues --    2.66642   2.67486   2.69657   2.71296   2.73607
 Alpha virt. eigenvalues --    2.77409   2.83981   2.84293   2.85676   2.86373
 Alpha virt. eigenvalues --    2.91547   2.94631   2.98056   2.99586   3.05635
 Alpha virt. eigenvalues --    3.06356   3.06485   3.08069   3.10305   3.12597
 Alpha virt. eigenvalues --    3.14229   3.15574   3.16250   3.21250   3.22109
 Alpha virt. eigenvalues --    3.24492   3.25417   3.27446   3.28208   3.28904
 Alpha virt. eigenvalues --    3.29797   3.31410   3.34759   3.37646   3.40728
 Alpha virt. eigenvalues --    3.45108   3.47914   3.51047   3.58590   3.63547
 Alpha virt. eigenvalues --    3.76436   3.78317   3.79857   3.80144   3.81149
 Alpha virt. eigenvalues --    3.86233   3.87522   3.95130   3.97351   3.98550
 Alpha virt. eigenvalues --    3.98886   4.06458   4.07661   4.09771   4.10861
 Alpha virt. eigenvalues --    4.16449   4.23050   4.43476   4.74552   4.76227
 Alpha virt. eigenvalues --    4.77575   4.77952   4.95517   5.08241   5.45774
 Alpha virt. eigenvalues --    6.13708   6.15484   6.30167   6.32838   6.54876
 Alpha virt. eigenvalues --    6.56930  23.29711  23.46753  23.58325  23.69165
 Alpha virt. eigenvalues --   23.72646  23.76896  23.82616  23.83948  23.85770
 Alpha virt. eigenvalues --   23.90563  24.09749  24.10241  24.19376  35.56421
 Alpha virt. eigenvalues --   50.00489  66.89393  66.89859
          Condensed to atoms (all electrons):
               1          2          3          4          5          6
     1  C    5.357182   0.295624  -0.070816   0.003211  -0.000162   0.000007
     2  C    0.295624   5.319026   0.332404  -0.076779   0.006961  -0.000034
     3  C   -0.070816   0.332404   5.383705   0.295233  -0.080201  -0.003953
     4  C    0.003211  -0.076779   0.295233   5.501841   0.334358  -0.053938
     5  C   -0.000162   0.006961  -0.080201   0.334358   5.081747   0.252579
     6  O    0.000007  -0.000034  -0.003953  -0.053938   0.252579   8.230038
     7  N    0.006103  -0.052294   0.221423  -0.072005   0.004752  -0.035420
     8  C   -0.000459   0.001612  -0.070183   0.004514   0.000598   0.002398
     9  C   -0.000010  -0.000010   0.000020  -0.000001   0.000000   0.000000
    10  C    0.000003   0.000111  -0.000065   0.000001   0.000000   0.000000
    11  C    0.000037  -0.000401  -0.000219   0.000011  -0.000002  -0.000001
    12  C    0.000137   0.000262  -0.010381  -0.001196   0.000129   0.000065
    13  C    0.000226  -0.002809   0.003124  -0.000092  -0.000005   0.000001
    14  C    0.000005   0.000101  -0.000150   0.000003   0.000000   0.000000
    15  H    0.000000  -0.000002   0.000000   0.000000   0.000000   0.000000
    16  H    0.000000   0.000011  -0.000001   0.000000   0.000000   0.000000
    17  H    0.000005   0.000013  -0.000012   0.000000   0.000000   0.000000
    18  F   -0.000001   0.000045  -0.000242   0.000001   0.000000   0.000000
    19  F   -0.000022  -0.000132  -0.001635   0.000052  -0.000004   0.000000
    20  H    0.387112  -0.043975  -0.002265  -0.001765  -0.000185   0.000001
    21  H    0.388456  -0.033394   0.007543  -0.000195   0.000013   0.000000
    22  H    0.386246  -0.034314  -0.008716   0.003439   0.000280  -0.000004
    23  H   -0.038694   0.390564  -0.037764  -0.012567  -0.000275  -0.000027
    24  H   -0.038496   0.404490  -0.048007   0.008624  -0.000246   0.000013
    25  H    0.001692  -0.006814  -0.047936   0.386656  -0.033473   0.004833
    26  H    0.000025  -0.000381   0.009253  -0.030192   0.388582  -0.033903
    27  H   -0.000038   0.000499  -0.010131  -0.060626   0.389756  -0.036532
    28  H   -0.000113   0.000930  -0.000240  -0.006289  -0.066073   0.262410
    29  H    0.000048   0.000162  -0.008341   0.000227   0.000201   0.002329
    30  H    0.000024  -0.000545   0.006884  -0.000357  -0.000014   0.000212
    31  H   -0.002129  -0.042015   0.402376  -0.050274  -0.005357  -0.000694
    32  C   -0.003011  -0.000658  -0.088167   0.259521  -0.086578   0.005023
    33  H   -0.000016   0.000738  -0.011899  -0.040042  -0.008027   0.015092
    34  H    0.000002  -0.000132   0.008182  -0.033608  -0.004034  -0.000564
    35  H   -0.000483   0.002235  -0.007569  -0.035160   0.006729   0.000095
    36  H    0.000353  -0.001074  -0.055915  -0.000747   0.000255   0.000866
               7          8          9         10         11         12
     1  C    0.006103  -0.000459  -0.000010   0.000003   0.000037   0.000137
     2  C   -0.052294   0.001612  -0.000010   0.000111  -0.000401   0.000262
     3  C    0.221423  -0.070183   0.000020  -0.000065  -0.000219  -0.010381
     4  C   -0.072005   0.004514  -0.000001   0.000001   0.000011  -0.001196
     5  C    0.004752   0.000598   0.000000   0.000000  -0.000002   0.000129
     6  O   -0.035420   0.002398   0.000000   0.000000  -0.000001   0.000065
     7  N    7.042295   0.282763  -0.000028   0.000354   0.001881  -0.073363
     8  C    0.282763   5.304698  -0.001418   0.008170  -0.076652   0.232262
     9  C   -0.000028  -0.001418   5.073724   0.431178  -0.005508  -0.058502
    10  C    0.000354   0.008170   0.431178   5.179907   0.478572  -0.034956
    11  C    0.001881  -0.076652  -0.005508   0.478572   4.758234   0.240232
    12  C   -0.073363   0.232262  -0.058502  -0.034956   0.240232   5.869523
    13  C   -0.000246  -0.074902  -0.002954  -0.061977   0.054593   0.291729
    14  C   -0.000013   0.008338   0.436553  -0.041661  -0.053969  -0.030910
    15  H   -0.000001   0.000025   0.403034  -0.040935   0.006187  -0.001727
    16  H    0.000029  -0.000230  -0.040477   0.395419  -0.051381   0.012397
    17  H    0.000014  -0.000182  -0.040632   0.007026  -0.001777   0.012220
    18  F   -0.001877   0.004917   0.005341  -0.054217   0.313772  -0.086243
    19  F   -0.000052  -0.007420   0.005369  -0.000415   0.005506  -0.074111
    20  H   -0.000052   0.000033   0.000003  -0.000004  -0.000015   0.000060
    21  H   -0.000233   0.000015   0.000005   0.000000   0.000010   0.000000
    22  H   -0.000093  -0.000027   0.000000   0.000000  -0.000002   0.000001
    23  H   -0.002983   0.000461  -0.000002  -0.000024   0.000187   0.000203
    24  H    0.000032  -0.001977   0.000111   0.000116  -0.002126  -0.001546
    25  H    0.005481  -0.000170   0.000000   0.000000  -0.000004   0.000035
    26  H   -0.000457   0.000071   0.000000   0.000000   0.000000   0.000008
    27  H    0.000166  -0.000213   0.000000   0.000000   0.000001  -0.000185
    28  H    0.054026  -0.003294   0.000000  -0.000001  -0.000074   0.001905
    29  H   -0.034072   0.406585  -0.000279   0.000160   0.006811  -0.061196
    30  H   -0.033807   0.408049  -0.000085   0.000423  -0.009210  -0.053664
    31  H   -0.040582  -0.000863  -0.000074   0.000074   0.000106  -0.007925
    32  C   -0.001598  -0.000298   0.000000   0.000000  -0.000003  -0.000040
    33  H    0.008106  -0.000109   0.000000   0.000000  -0.000007   0.000014
    34  H   -0.000358   0.000014   0.000000   0.000000   0.000000   0.000001
    35  H    0.000016  -0.000040   0.000000   0.000000   0.000000  -0.000002
    36  H    0.332158  -0.039244  -0.000087   0.000390   0.003049  -0.010601
              13         14         15         16         17         18
     1  C    0.000226   0.000005   0.000000   0.000000   0.000005  -0.000001
     2  C   -0.002809   0.000101  -0.000002   0.000011   0.000013   0.000045
     3  C    0.003124  -0.000150   0.000000  -0.000001  -0.000012  -0.000242
     4  C   -0.000092   0.000003   0.000000   0.000000   0.000000   0.000001
     5  C   -0.000005   0.000000   0.000000   0.000000   0.000000   0.000000
     6  O    0.000001   0.000000   0.000000   0.000000   0.000000   0.000000
     7  N   -0.000246  -0.000013  -0.000001   0.000029   0.000014  -0.001877
     8  C   -0.074902   0.008338   0.000025  -0.000230  -0.000182   0.004917
     9  C   -0.002954   0.436553   0.403034  -0.040477  -0.040632   0.005341
    10  C   -0.061977  -0.041661  -0.040935   0.395419   0.007026  -0.054217
    11  C    0.054593  -0.053969   0.006187  -0.051381  -0.001777   0.313772
    12  C    0.291729  -0.030910  -0.001727   0.012397   0.012220  -0.086243
    13  C    4.747558   0.474710   0.006119  -0.001704  -0.049427   0.005135
    14  C    0.474710   5.162184  -0.040023   0.006871   0.394102  -0.000524
    15  H    0.006119  -0.040023   0.443826  -0.006401  -0.006365  -0.000079
    16  H   -0.001704   0.006871  -0.006401   0.444659  -0.000124   0.001475
    17  H   -0.049427   0.394102  -0.006365  -0.000124   0.444290   0.000004
    18  F    0.005135  -0.000524  -0.000079   0.001475   0.000004   9.048905
    19  F    0.296627  -0.051491  -0.000082   0.000004   0.001318  -0.000002
    20  H    0.000237   0.000050   0.000000   0.000000   0.000009   0.000000
    21  H    0.000022   0.000006   0.000000  -0.000001  -0.000002   0.000000
    22  H   -0.000010   0.000001   0.000000   0.000000   0.000000   0.000000
    23  H    0.000168  -0.000001   0.000000   0.000001   0.000000  -0.000043
    24  H   -0.003987   0.000060   0.000011   0.000047   0.000040   0.000184
    25  H    0.000015   0.000000   0.000000   0.000000   0.000000   0.000000
    26  H    0.000000   0.000000   0.000000   0.000000   0.000000   0.000000
    27  H    0.000005   0.000000   0.000000   0.000000   0.000000   0.000000
    28  H   -0.000052   0.000000   0.000000   0.000000   0.000000  -0.000011
    29  H   -0.009670   0.001255   0.000004   0.000011  -0.000017   0.000301
    30  H    0.004191  -0.000075   0.000001  -0.000014   0.000011   0.004876
    31  H   -0.000893   0.000154   0.000002  -0.000001  -0.000017  -0.000016
    32  C    0.000001   0.000000   0.000000   0.000000   0.000000   0.000000
    33  H    0.000001   0.000000   0.000000   0.000000   0.000000  -0.000010
    34  H    0.000000   0.000000   0.000000   0.000000   0.000000   0.000000
    35  H   -0.000001   0.000000   0.000000   0.000000   0.000000   0.000000
    36  H   -0.000565   0.000104   0.000001   0.000015   0.000000   0.007274
              19         20         21         22         23         24
     1  C   -0.000022   0.387112   0.388456   0.386246  -0.038694  -0.038496
     2  C   -0.000132  -0.043975  -0.033394  -0.034314   0.390564   0.404490
     3  C   -0.001635  -0.002265   0.007543  -0.008716  -0.037764  -0.048007
     4  C    0.000052  -0.001765  -0.000195   0.003439  -0.012567   0.008624
     5  C   -0.000004  -0.000185   0.000013   0.000280  -0.000275  -0.000246
     6  O    0.000000   0.000001   0.000000  -0.000004  -0.000027   0.000013
     7  N   -0.000052  -0.000052  -0.000233  -0.000093  -0.002983   0.000032
     8  C   -0.007420   0.000033   0.000015  -0.000027   0.000461  -0.001977
     9  C    0.005369   0.000003   0.000005   0.000000  -0.000002   0.000111
    10  C   -0.000415  -0.000004   0.000000   0.000000  -0.000024   0.000116
    11  C    0.005506  -0.000015   0.000010  -0.000002   0.000187  -0.002126
    12  C   -0.074111   0.000060   0.000000   0.000001   0.000203  -0.001546
    13  C    0.296627   0.000237   0.000022  -0.000010   0.000168  -0.003987
    14  C   -0.051491   0.000050   0.000006   0.000001  -0.000001   0.000060
    15  H   -0.000082   0.000000   0.000000   0.000000   0.000000   0.000011
    16  H    0.000004   0.000000  -0.000001   0.000000   0.000001   0.000047
    17  H    0.001318   0.000009  -0.000002   0.000000   0.000000   0.000040
    18  F   -0.000002   0.000000   0.000000   0.000000  -0.000043   0.000184
    19  F    9.054726  -0.000002  -0.000002   0.000000  -0.000005   0.000198
    20  H   -0.000002   0.482358  -0.027035  -0.028859   0.007408  -0.004590
    21  H   -0.000002  -0.027035   0.472166  -0.027654  -0.003924  -0.006049
    22  H    0.000000  -0.028859  -0.027654   0.475788  -0.006267   0.006650
    23  H   -0.000005   0.007408  -0.003924  -0.006267   0.499333  -0.034878
    24  H    0.000198  -0.004590  -0.006049   0.006650  -0.034878   0.478332
    25  H   -0.000008   0.000040   0.000387  -0.001055  -0.000443  -0.000052
    26  H    0.000000   0.000012  -0.000002   0.000007   0.000009   0.000017
    27  H   -0.000103  -0.000025   0.000001   0.000008  -0.000029  -0.000019
    28  H   -0.000010  -0.000002   0.000003   0.000007  -0.000056  -0.000013
    29  H    0.010285  -0.000007  -0.000002   0.000001   0.000001   0.000125
    30  H    0.000154   0.000000  -0.000001   0.000000   0.000057  -0.000134
    31  H    0.010454   0.004561  -0.000173  -0.000320   0.006975  -0.006629
    32  C    0.000000   0.000282  -0.000060   0.000280   0.004815  -0.000344
    33  H    0.000000  -0.000011   0.000028  -0.000081  -0.000313  -0.000105
    34  H    0.000000   0.000013  -0.000006  -0.000010   0.000107   0.000016
    35  H    0.000000  -0.000115   0.000008   0.002322  -0.000852   0.000326
    36  H   -0.000053   0.000049  -0.000042   0.000006   0.004668  -0.000188
              25         26         27         28         29         30
     1  C    0.001692   0.000025  -0.000038  -0.000113   0.000048   0.000024
     2  C   -0.006814  -0.000381   0.000499   0.000930   0.000162  -0.000545
     3  C   -0.047936   0.009253  -0.010131  -0.000240  -0.008341   0.006884
     4  C    0.386656  -0.030192  -0.060626  -0.006289   0.000227  -0.000357
     5  C   -0.033473   0.388582   0.389756  -0.066073   0.000201  -0.000014
     6  O    0.004833  -0.033903  -0.036532   0.262410   0.002329   0.000212
     7  N    0.005481  -0.000457   0.000166   0.054026  -0.034072  -0.033807
     8  C   -0.000170   0.000071  -0.000213  -0.003294   0.406585   0.408049
     9  C    0.000000   0.000000   0.000000   0.000000  -0.000279  -0.000085
    10  C    0.000000   0.000000   0.000000  -0.000001   0.000160   0.000423
    11  C   -0.000004   0.000000   0.000001  -0.000074   0.006811  -0.009210
    12  C    0.000035   0.000008  -0.000185   0.001905  -0.061196  -0.053664
    13  C    0.000015   0.000000   0.000005  -0.000052  -0.009670   0.004191
    14  C    0.000000   0.000000   0.000000   0.000000   0.001255  -0.000075
    15  H    0.000000   0.000000   0.000000   0.000000   0.000004   0.000001
    16  H    0.000000   0.000000   0.000000   0.000000   0.000011  -0.000014
    17  H    0.000000   0.000000   0.000000   0.000000  -0.000017   0.000011
    18  F    0.000000   0.000000   0.000000  -0.000011   0.000301   0.004876
    19  F   -0.000008   0.000000  -0.000103  -0.000010   0.010285   0.000154
    20  H    0.000040   0.000012  -0.000025  -0.000002  -0.000007   0.000000
    21  H    0.000387  -0.000002   0.000001   0.000003  -0.000002  -0.000001
    22  H   -0.001055   0.000007   0.000008   0.000007   0.000001   0.000000
    23  H   -0.000443   0.000009  -0.000029  -0.000056   0.000001   0.000057
    24  H   -0.000052   0.000017  -0.000019  -0.000013   0.000125  -0.000134
    25  H    0.506284  -0.003657   0.001314  -0.000548  -0.000148   0.000020
    26  H   -0.003657   0.508294  -0.046910   0.005515   0.000111  -0.000004
    27  H    0.001314  -0.046910   0.551345   0.000324  -0.001177   0.000024
    28  H   -0.000548   0.005515   0.000324   0.341198  -0.001855  -0.001154
    29  H   -0.000148   0.000111  -0.001177  -0.001855   0.432903  -0.019828
    30  H    0.000020  -0.000004   0.000024  -0.001154  -0.019828   0.437377
    31  H   -0.004662  -0.000423   0.005715   0.000432   0.000354   0.000524
    32  C   -0.038982  -0.013038   0.011770   0.000524  -0.000096   0.000048
    33  H    0.008341  -0.001888   0.001049   0.000633  -0.000136   0.000039
    34  H   -0.004954   0.004422  -0.000134  -0.000139   0.000006  -0.000003
    35  H   -0.004856  -0.000173  -0.000228   0.000036  -0.000005  -0.000002
    36  H   -0.000238   0.000073  -0.000147  -0.001907   0.006493  -0.005731
              31         32         33         34         35         36
     1  C   -0.002129  -0.003011  -0.000016   0.000002  -0.000483   0.000353
     2  C   -0.042015  -0.000658   0.000738  -0.000132   0.002235  -0.001074
     3  C    0.402376  -0.088167  -0.011899   0.008182  -0.007569  -0.055915
     4  C   -0.050274   0.259521  -0.040042  -0.033608  -0.035160  -0.000747
     5  C   -0.005357  -0.086578  -0.008027  -0.004034   0.006729   0.000255
     6  O   -0.000694   0.005023   0.015092  -0.000564   0.000095   0.000866
     7  N   -0.040582  -0.001598   0.008106  -0.000358   0.000016   0.332158
     8  C   -0.000863  -0.000298  -0.000109   0.000014  -0.000040  -0.039244
     9  C   -0.000074   0.000000   0.000000   0.000000   0.000000  -0.000087
    10  C    0.000074   0.000000   0.000000   0.000000   0.000000   0.000390
    11  C    0.000106  -0.000003  -0.000007   0.000000   0.000000   0.003049
    12  C   -0.007925  -0.000040   0.000014   0.000001  -0.000002  -0.010601
    13  C   -0.000893   0.000001   0.000001   0.000000  -0.000001  -0.000565
    14  C    0.000154   0.000000   0.000000   0.000000   0.000000   0.000104
    15  H    0.000002   0.000000   0.000000   0.000000   0.000000   0.000001
    16  H   -0.000001   0.000000   0.000000   0.000000   0.000000   0.000015
    17  H   -0.000017   0.000000   0.000000   0.000000   0.000000   0.000000
    18  F   -0.000016   0.000000  -0.000010   0.000000   0.000000   0.007274
    19  F    0.010454   0.000000   0.000000   0.000000   0.000000  -0.000053
    20  H    0.004561   0.000282  -0.000011   0.000013  -0.000115   0.000049
    21  H   -0.000173  -0.000060   0.000028  -0.000006   0.000008  -0.000042
    22  H   -0.000320   0.000280  -0.000081  -0.000010   0.002322   0.000006
    23  H    0.006975   0.004815  -0.000313   0.000107  -0.000852   0.004668
    24  H   -0.006629  -0.000344  -0.000105   0.000016   0.000326  -0.000188
    25  H   -0.004662  -0.038982   0.008341  -0.004954  -0.004856  -0.000238
    26  H   -0.000423  -0.013038  -0.001888   0.004422  -0.000173   0.000073
    27  H    0.005715   0.011770   0.001049  -0.000134  -0.000228  -0.000147
    28  H    0.000432   0.000524   0.000633  -0.000139   0.000036  -0.001907
    29  H    0.000354  -0.000096  -0.000136   0.000006  -0.000005   0.006493
    30  H    0.000524   0.000048   0.000039  -0.000003  -0.000002  -0.005731
    31  H    0.475365   0.007888   0.000056  -0.000233  -0.000123   0.005737
    32  C    0.007888   5.440731   0.381506   0.387084   0.386981   0.001633
    33  H    0.000056   0.381506   0.476688  -0.027189  -0.026556  -0.001147
    34  H   -0.000233   0.387084  -0.027189   0.470029  -0.027499   0.000046
    35  H   -0.000123   0.386981  -0.026556  -0.027499   0.474882  -0.000270
    36  H    0.005737   0.001633  -0.001147   0.000046  -0.000270   0.406736
 Mulliken charges:
               1
     1  C   -0.672051
     2  C   -0.460027
     3  C   -0.105337
     4  C   -0.321861
     5  C   -0.182304
     6  O   -0.610891
     7  N   -0.610067
     8  C   -0.387840
     9  C   -0.205271
    10  C   -0.267649
    11  C    0.332162
    12  C   -0.154632
    13  C    0.324832
    14  C   -0.265682
    15  H    0.236407
    16  H    0.239393
    17  H    0.239503
    18  F   -0.248964
    19  F   -0.249147
    20  H    0.226681
    21  H    0.230113
    22  H    0.232376
    23  H    0.224191
    24  H    0.249993
    25  H    0.232902
    26  H    0.214631
    27  H    0.194519
    28  H    0.413890
    29  H    0.268457
    30  H    0.261716
    31  H    0.242631
    32  C   -0.655212
    33  H    0.225243
    34  H    0.228941
    35  H    0.230302
    36  H    0.348051
 Sum of Mulliken charges =   0.00000
 Mulliken charges with hydrogens summed into heavy atoms:
               1
     1  C    0.017119
     2  C    0.014157
     3  C    0.137294
     4  C   -0.088959
     5  C    0.226846
     6  O   -0.197001
     7  N   -0.262016
     8  C    0.142334
     9  C    0.031136
    10  C   -0.028255
    11  C    0.332162
    12  C   -0.154632
    13  C    0.324832
    14  C   -0.026179
    18  F   -0.248964
    19  F   -0.249147
    32  C    0.029274
 Electronic spatial extent (au):  <R**2>=           4604.2323
 Charge=              0.0000 electrons
 Dipole moment (field-independent basis, Debye):
    X=              4.5979    Y=              3.3072    Z=             -1.3891  Tot=              5.8316
 Quadrupole moment (field-independent basis, Debye-Ang):
   XX=           -101.4566   YY=           -106.5454   ZZ=           -102.8271
   XY=             -6.7758   XZ=              1.3289   YZ=              2.2301
 Traceless Quadrupole moment (field-independent basis, Debye-Ang):
   XX=              2.1531   YY=             -2.9357   ZZ=              0.7826
   XY=             -6.7758   XZ=              1.3289   YZ=              2.2301
 Octapole moment (field-independent basis, Debye-Ang**2):
  XXX=            105.6531  YYY=             -6.7597  ZZZ=             -1.3020  XYY=             25.7504
  XXY=             60.5400  XXZ=            -14.7393  XZZ=              6.6016  YZZ=             -0.8096
  YYZ=              0.5059  XYZ=             -6.2084
 Hexadecapole moment (field-independent basis, Debye-Ang**3):
 XXXX=          -3916.0381 YYYY=          -1123.0038 ZZZZ=           -828.1460 XXXY=            -47.1376
 XXXZ=            -50.6704 YYYX=            -30.8102 YYYZ=             38.4575 ZZZX=            -22.5137
 ZZZY=             29.6513 XXYY=           -948.9243 XXZZ=           -798.4964 YYZZ=           -322.7853
 XXYZ=             66.8690 YYXZ=             36.0528 ZZXY=              3.4713
 N-N= 1.299418290752D+03 E-N=-4.556357264138D+03  KE= 8.332522000149D+02
 1\1\GINC-SWANNODE-0-0\SP\RmPW1PW91\6-311G(d)\C13H19F2N1O1\ROOT\06-Mar-
 2019\0\\# mPW1PW91/6-311g(d) geom=checkpoint nmr=giao scrf=(solvent=ch
 loroform)\\AT3_2ginp010\\0,1\C,0,-2.7602476368,-2.8498319254,0.4490277
 668\C,0,-3.6299787747,-1.610699998,0.6904479583\C,0,-3.6187445915,-1.0
 831110207,2.1406338769\C,0,-2.2021446627,-0.7219166371,2.6691887756\C,
 0,-2.2591870446,-0.2964456136,4.1498958822\O,0,-2.8609398478,0.9756700
 332,4.3459348628\N,0,-4.5418826307,0.0729912989,2.324756372\C,0,-5.895
 514859,-0.2245177649,2.8188753744\C,0,-8.4568018557,-2.6355359589,0.26
 59161626\C,0,-8.2240242045,-1.2943407377,-0.0473583765\C,0,-7.39801592
 96,-0.5593241686,0.7914530268\C,0,-6.7855772952,-1.0799951815,1.933665
 4797\C,0,-7.0525671966,-2.4251902629,2.1919163123\C,0,-7.8707888036,-3
 .21487711,1.3917785641\H,0,-9.0982311148,-3.2328400108,-0.3733990044\H
 ,0,-8.666909559,-0.8218784445,-0.9164175703\H,0,-8.0354335289,-4.25350
 64897,1.6540990296\F,0,-7.1562244709,0.7419074059,0.4953363578\F,0,-6.
 4762297124,-2.9905270552,3.2809534134\H,0,-3.0247111944,-3.6598867393,
 1.1384025182\H,0,-2.8991386787,-3.2246583338,-0.5699348754\H,0,-1.6947
 272412,-2.6376382125,0.577976502\H,0,-3.3185974739,-0.8057079273,0.011
 6342412\H,0,-4.6652708353,-1.846414674,0.4232818521\H,0,-1.6106508167,
 -1.6471816533,2.6416974993\H,0,-1.2393866623,-0.2373701514,4.550813872
 7\H,0,-2.7840856204,-1.0789286291,4.7270739213\H,0,-3.6227963093,0.964
 7232382,3.7258985388\H,0,-5.8004811321,-0.7088153718,3.7929867415\H,0,
 -6.3934069794,0.7357785979,2.9829837379\H,0,-3.999002614,-1.883805408,
 2.7893431008\C,0,-1.4811365592,0.3386864553,1.8238211681\H,0,-2.040221
 8178,1.2784151954,1.8105104077\H,0,-0.4940789444,0.5541291022,2.246319
 1965\H,0,-1.3331955925,0.0108544354,0.7907094183\H,0,-4.6064678093,0.6
 143847175,1.4662418948\\Version=EM64L-G09RevD.01\State=1-A\HF=-836.468
 7625\RMSD=7.848e-09\Dipole=-1.0561752,-1.2967012,-1.5706634\Quadrupole
 =4.6471601,-1.8716473,-2.7755128,-1.7326672,-0.591815,-3.6306245\PG=C0
 1 [X(C13H19F2N1O1)]\\@


 AND THIS OUR LIFE, EXEMPT FROM PUBLIC HAUNT,
 FINDS TONGUES IN TREES, BOOKS IN THE RUNNING BROOKS,
 SERMONS IN STONES, AND GOOD IN EVERYTHING.
 I WOULD NOT CHANGE IT. -- W. SHAKESPEARE
 AS YOU LIKE IT, ACT II, SCENE 1.
 Job cpu time:       0 days  0 hours 30 minutes 34.0 seconds.
 File lengths (MBytes):  RWF=    176 Int=      0 D2E=      0 Chk=     14 Scr=      1
 Normal termination of Gaussian 09 at Wed Mar  6 12:37:58 2019.
