 Entering Gaussian System, Link 0=/usr/local/shared/gaussian/em64t/09-D01/g09/g09
 Initial command:
 /usr/local/shared/gaussian/em64t/09-D01/g09/l1.exe "/scratch/ke291/AT3_2ginp011/Gau-16900.inp" -scrdir="/scratch/ke291/AT3_2ginp011/"
 Entering Link 1 = /usr/local/shared/gaussian/em64t/09-D01/g09/l1.exe PID=     16904.
  
 Copyright (c) 1988,1990,1992,1993,1995,1998,2003,2009,2013,
            Gaussian, Inc.  All Rights Reserved.
  
 This is part of the Gaussian(R) 09 program.  It is based on
 the Gaussian(R) 03 system (copyright 2003, Gaussian, Inc.),
 the Gaussian(R) 98 system (copyright 1998, Gaussian, Inc.),
 the Gaussian(R) 94 system (copyright 1995, Gaussian, Inc.),
 the Gaussian 92(TM) system (copyright 1992, Gaussian, Inc.),
 the Gaussian 90(TM) system (copyright 1990, Gaussian, Inc.),
 the Gaussian 88(TM) system (copyright 1988, Gaussian, Inc.),
 the Gaussian 86(TM) system (copyright 1986, Carnegie Mellon
 University), and the Gaussian 82(TM) system (copyright 1983,
 Carnegie Mellon University). Gaussian is a federally registered
 trademark of Gaussian, Inc.
  
 This software contains proprietary and confidential information,
 including trade secrets, belonging to Gaussian, Inc.
  
 This software is provided under written license and may be
 used, copied, transmitted, or stored only in accord with that
 written license.
  
 The following legend is applicable only to US Government
 contracts under FAR:
  
                    RESTRICTED RIGHTS LEGEND
  
 Use, reproduction and disclosure by the US Government is
 subject to restrictions as set forth in subparagraphs (a)
 and (c) of the Commercial Computer Software - Restricted
 Rights clause in FAR 52.227-19.
  
 Gaussian, Inc.
 340 Quinnipiac St., Bldg. 40, Wallingford CT 06492
  
  
 ---------------------------------------------------------------
 Warning -- This program may not be used in any manner that
 competes with the business of Gaussian, Inc. or will provide
 assistance to any competitor of Gaussian, Inc.  The licensee
 of this program is prohibited from giving any competitor of
 Gaussian, Inc. access to this program.  By using this program,
 the user acknowledges that Gaussian, Inc. is engaged in the
 business of creating and licensing software in the field of
 computational chemistry and represents and warrants to the
 licensee that it is not a competitor of Gaussian, Inc. and that
 it will not use this program in any manner prohibited above.
 ---------------------------------------------------------------
  

 Cite this work as:
 Gaussian 09, Revision D.01,
 M. J. Frisch, G. W. Trucks, H. B. Schlegel, G. E. Scuseria, 
 M. A. Robb, J. R. Cheeseman, G. Scalmani, V. Barone, B. Mennucci, 
 G. A. Petersson, H. Nakatsuji, M. Caricato, X. Li, H. P. Hratchian, 
 A. F. Izmaylov, J. Bloino, G. Zheng, J. L. Sonnenberg, M. Hada, 
 M. Ehara, K. Toyota, R. Fukuda, J. Hasegawa, M. Ishida, T. Nakajima, 
 Y. Honda, O. Kitao, H. Nakai, T. Vreven, J. A. Montgomery, Jr., 
 J. E. Peralta, F. Ogliaro, M. Bearpark, J. J. Heyd, E. Brothers, 
 K. N. Kudin, V. N. Staroverov, T. Keith, R. Kobayashi, J. Normand, 
 K. Raghavachari, A. Rendell, J. C. Burant, S. S. Iyengar, J. Tomasi, 
 M. Cossi, N. Rega, J. M. Millam, M. Klene, J. E. Knox, J. B. Cross, 
 V. Bakken, C. Adamo, J. Jaramillo, R. Gomperts, R. E. Stratmann, 
 O. Yazyev, A. J. Austin, R. Cammi, C. Pomelli, J. W. Ochterski, 
 R. L. Martin, K. Morokuma, V. G. Zakrzewski, G. A. Voth, 
 P. Salvador, J. J. Dannenberg, S. Dapprich, A. D. Daniels, 
 O. Farkas, J. B. Foresman, J. V. Ortiz, J. Cioslowski, 
 and D. J. Fox, Gaussian, Inc., Wallingford CT, 2013.
 
 ******************************************
 Gaussian 09:  EM64L-G09RevD.01 24-Apr-2013
                 6-Mar-2019 
 ******************************************
 %nprocshared=2
 Will use up to    2 processors via shared memory.
 %mem=6000MB
 %chk=AT3_2ginp011.chk
 ----------------------------------------------------------------------
 # mPW1PW91/6-311g(d) geom=checkpoint nmr=giao scrf=(solvent=chloroform
 )
 ----------------------------------------------------------------------
 1/29=2,38=1/1;
 2/12=2,40=1/2;
 3/5=4,6=6,7=1,11=2,14=-4,16=1,25=1,30=1,70=2201,72=7,74=-7/1,2,8,3;
 4//1;
 5/5=2,38=5,53=7/2;
 8/6=1,10=90,11=11/1;
 10/13=100,45=16/2;
 6/7=2,8=2,9=2,10=2,28=1/1;
 99/9=1/99;
 ------------
 AT3_2ginp011
 ------------
 Structure from the checkpoint file:  "AT3_2ginp011.chk"
 Charge =  0 Multiplicity = 1
 Redundant internal coordinates found in file.
 C,0,-0.9988938164,-1.8632519746,0.3638597014
 C,0,-2.4406120721,-1.3411785346,0.3666091196
 C,0,-3.0916364374,-1.2258679017,1.7645218049
 C,0,-2.4180414047,-0.1700038186,2.6792413037
 C,0,-2.8441866459,-0.3935747199,4.1402049531
 O,0,-2.1728093782,0.465707162,5.0643641923
 N,0,-4.5467607872,-0.9753663264,1.7079151447
 C,0,-5.3553581048,-2.1485749583,1.3522593301
 C,0,-9.5807345337,-1.1566041127,1.3258476377
 C,0,-8.7469883391,-0.6824825267,0.3110068095
 C,0,-7.4023466467,-1.0234461441,0.3559070366
 C,0,-6.8295218721,-1.8133305482,1.35429309
 C,0,-7.710251735,-2.2518802559,2.3441862599
 C,0,-9.0673825137,-1.948004693,2.3534662761
 H,0,-10.6363323118,-0.9063803694,1.3155097933
 H,0,-9.1184157035,-0.0635893091,-0.4974697652
 H,0,-9.6937970138,-2.3276147375,3.1523579924
 F,0,-6.5798102781,-0.5600321527,-0.6203023877
 F,0,-7.2192896475,-3.0230622713,3.3419072174
 H,0,-0.6356153218,-1.9950760552,-0.660423183
 H,0,-0.31017676,-1.1791913071,0.8690809565
 H,0,-0.9302263183,-2.834688573,0.866891559
 H,0,-2.4818390425,-0.3650484289,-0.1345012676
 H,0,-3.0558078247,-2.0166272082,-0.2401762153
 H,0,-1.3345775144,-0.3411092078,2.6419004108
 H,0,-2.5819102039,-1.4141970095,4.4416439525
 H,0,-3.9343047311,-0.2949932119,4.2243493739
 H,0,-2.5870467055,1.3359210536,5.0071041408
 H,0,-5.1006625563,-2.5785440197,0.3693945952
 H,0,-5.1718756989,-2.9265397938,2.0973865077
 H,0,-2.9711112937,-2.2004771893,2.2608797247
 C,0,-2.684177513,1.2766561935,2.2379896877
 H,0,-2.3523646786,1.4624367292,1.2118445653
 H,0,-3.7510356769,1.5189985541,2.2998389978
 H,0,-2.1409486967,1.9771930314,2.8796959546
 H,0,-4.7302102222,-0.2443923645,1.0234837297
 Recover connectivity data from disk.
                          Input orientation:                          
 ---------------------------------------------------------------------
 Center     Atomic      Atomic             Coordinates (Angstroms)
 Number     Number       Type             X           Y           Z
 ---------------------------------------------------------------------
      1          6           0       -0.998894   -1.863252    0.363860
      2          6           0       -2.440612   -1.341179    0.366609
      3          6           0       -3.091636   -1.225868    1.764522
      4          6           0       -2.418041   -0.170004    2.679241
      5          6           0       -2.844187   -0.393575    4.140205
      6          8           0       -2.172809    0.465707    5.064364
      7          7           0       -4.546761   -0.975366    1.707915
      8          6           0       -5.355358   -2.148575    1.352259
      9          6           0       -9.580735   -1.156604    1.325848
     10          6           0       -8.746988   -0.682483    0.311007
     11          6           0       -7.402347   -1.023446    0.355907
     12          6           0       -6.829522   -1.813331    1.354293
     13          6           0       -7.710252   -2.251880    2.344186
     14          6           0       -9.067383   -1.948005    2.353466
     15          1           0      -10.636332   -0.906380    1.315510
     16          1           0       -9.118416   -0.063589   -0.497470
     17          1           0       -9.693797   -2.327615    3.152358
     18          9           0       -6.579810   -0.560032   -0.620302
     19          9           0       -7.219290   -3.023062    3.341907
     20          1           0       -0.635615   -1.995076   -0.660423
     21          1           0       -0.310177   -1.179191    0.869081
     22          1           0       -0.930226   -2.834689    0.866892
     23          1           0       -2.481839   -0.365048   -0.134501
     24          1           0       -3.055808   -2.016627   -0.240176
     25          1           0       -1.334578   -0.341109    2.641900
     26          1           0       -2.581910   -1.414197    4.441644
     27          1           0       -3.934305   -0.294993    4.224349
     28          1           0       -2.587047    1.335921    5.007104
     29          1           0       -5.100663   -2.578544    0.369395
     30          1           0       -5.171876   -2.926540    2.097387
     31          1           0       -2.971111   -2.200477    2.260880
     32          6           0       -2.684178    1.276656    2.237990
     33          1           0       -2.352365    1.462437    1.211845
     34          1           0       -3.751036    1.518999    2.299839
     35          1           0       -2.140949    1.977193    2.879696
     36          1           0       -4.730210   -0.244392    1.023484
 ---------------------------------------------------------------------
                    Distance matrix (angstroms):
                    1          2          3          4          5
     1  C    0.000000
     2  C    1.533336   0.000000
     3  C    2.597631   1.546379   0.000000
     4  C    3.200322   2.592379   1.550900   0.000000
     5  C    4.452622   3.911630   2.529390   1.538180   0.000000
     6  O    5.375581   5.040383   3.820292   2.480540   1.429400
     7  N    3.896432   2.523645   1.477614   2.474577   3.025438
     8  C    4.476285   3.181060   2.479069   3.781991   4.142300
     9  C    8.664454   7.206633   6.504278   7.355897   7.340565
    10  C    7.837728   6.340927   5.864382   6.776927   7.041967
    11  C    6.458293   4.971909   4.539537   5.565029   5.957724
    12  C    5.914362   4.523381   3.805941   4.890518   5.065561
    13  C    7.008213   5.701692   4.766584   5.696838   5.509771
    14  C    8.310609   6.944777   6.047965   6.890657   6.658593
    15  H    9.731468   8.261918   7.564795   8.363152   8.304180
    16  H    8.361059   6.853607   6.541373   7.416052   7.809153
    17  H    9.142904   7.832123   6.835822   7.603666   7.185646
    18  F    5.814945   4.326332   4.277626   5.325357   6.053513
    19  F    6.993372   5.875108   4.770280   5.624149   5.166528
    20  H    1.094762   2.177244   3.536111   4.202534   5.521651
    21  H    1.094312   2.194874   2.922415   2.956050   4.211728
    22  H    1.096105   2.182228   2.840024   3.549472   4.509641
    23  H    2.166127   1.098017   2.172361   2.821216   4.290131
    24  H    2.149251   1.096761   2.155319   3.512800   4.676197
    25  H    2.760267   2.720368   2.154030   1.097527   2.127578
    26  H    4.397262   4.078138   2.731716   2.163546   1.096049
    27  H    5.097004   4.267058   2.761769   2.168418   1.097796
    28  H    5.858042   5.359338   4.163137   2.777646   1.951612
    29  H    4.163674   2.933760   2.795049   4.281695   4.907625
    30  H    4.642141   3.601217   2.707486   3.939625   4.000894
    31  H    2.757181   2.146645   1.100346   2.145632   2.610147
    32  C    4.026359   3.227142   2.579306   1.535694   2.536473
    33  H    3.689332   2.929585   2.842351   2.196003   3.501708
    34  H    4.770945   3.692587   2.873267   2.184845   2.804863
    35  H    4.731040   4.173367   3.522360   2.174262   2.775602
    36  H    4.120501   2.622343   2.048745   2.844854   3.645997
                    6          7          8          9         10
     6  O    0.000000
     7  N    4.356385   0.000000
     8  C    5.544620   1.468584   0.000000
     9  C    8.454925   5.051704   4.340335   0.000000
    10  C    8.193447   4.436107   3.838853   1.396362   0.000000
    11  C    7.192719   3.159843   2.539448   2.388282   1.387924
    12  C    6.375234   2.457281   1.511804   2.828652   2.458443
    13  C    6.741507   3.470159   2.557365   2.394859   2.769774
    14  C    7.791669   4.668917   3.849905   1.394936   2.424013
    15  H    9.357764   6.102591   5.425227   1.084899   2.151459
    16  H    8.913787   5.157043   4.682869   2.175524   1.083800
    17  H    8.247646   5.514252   4.700475   2.172600   3.417043
    18  F    7.265620   3.118716   2.813139   3.626147   2.361989
    19  F    6.372231   3.742379   2.863157   3.622787   4.122928
    20  H    6.418069   4.684644   5.133266   9.201275   8.274113
    21  H    4.876012   4.323636   5.160138   9.281831   8.469826
    22  H    5.482281   4.152556   4.504234   8.823712   8.126670
    23  H    5.273884   2.833882   3.694392   7.290644   6.288985
    24  H    5.922822   2.665000   2.800213   6.765112   5.871395
    25  H    2.687362   3.404810   4.593123   8.390240   7.777753
    26  H    2.022173   3.395068   4.216115   7.665382   7.456927
    27  H    2.094554   2.677770   3.701899   6.405143   6.215008
    28  H    0.965476   4.479640   5.758746   8.287098   8.004509
    29  H    6.315262   2.160700   1.102618   4.796641   4.110249
    30  H    5.413381   2.085554   1.092753   4.813105   4.583489
    31  H    3.950361   2.071072   2.552042   6.756558   6.282282
    32  C    2.984548   2.970152   4.433050   7.369889   6.656513
    33  H    3.983418   3.317280   4.698627   7.689064   6.804660
    34  H    3.353032   2.684289   4.113740   6.487904   5.810466
    35  H    2.656761   3.984797   5.448619   8.221043   7.570456
    36  H    4.834589   1.018049   2.030964   4.944809   4.102932
                   11         12         13         14         15
    11  C    0.000000
    12  C    1.396002   0.000000
    13  C    2.357352   1.395672   0.000000
    14  C    2.759963   2.454487   1.390766   0.000000
    15  H    3.375382   3.913549   3.380901   2.150334   0.000000
    16  H    2.143472   3.424858   3.853122   3.417815   2.510232
    17  H    3.843402   3.420760   2.143205   1.083848   2.506450
    18  F    1.358051   2.352050   3.595614   4.117983   4.508070
    19  F    3.598357   2.359233   1.353223   2.355464   4.501423
    20  H    6.911269   6.515872   7.690521   8.954353  10.252020
    21  H    7.112417   6.568061   7.621529   8.915331  10.339401
    22  H    6.740181   6.006864   6.963534   8.319220   9.905964
    23  H    4.988525   4.818337   6.086076   7.215616   8.300080
    24  H    4.498236   4.101778   5.328989   6.547574   7.817746
    25  H    6.519906   5.832648   6.662500   7.903264   9.412836
    26  H    6.331077   5.266237   5.603653   6.834236   8.654727
    27  H    5.246218   4.350271   4.649967   5.707989   7.331597
    28  H    7.098406   6.423349   6.797844   7.734385   9.134921
    29  H    2.777816   2.131791   3.288840   4.479842   5.859599
    30  H    3.410208   2.130543   2.638073   4.024684   5.878151
    31  H    4.964894   3.982350   4.740151   6.102199   7.830966
    32  C    5.576184   5.245266   6.141927   7.152418   8.297794
    33  H    5.693379   5.549404   6.617046   7.617472   8.616621
    34  H    4.855406   4.634172   5.467804   6.347167   7.366049
    35  H    6.561681   6.219135   7.013485   7.978695   9.106768
    36  H    2.862324   2.641611   3.828173   4.845845   5.950276
                   16         17         18         19         20
    16  H    0.000000
    17  H    4.333373   0.000000
    18  F    2.589606   5.201368   0.000000
    19  F    5.206340   2.577356   4.708987   0.000000
    20  H    8.701442   9.833541   6.115097   7.773041   0.000000
    21  H    8.983157   9.725459   6.473788   7.566411   1.763792
    22  H    8.751395   9.070868   6.269259   6.761176   1.767607
    23  H    6.653328   8.165014   4.131270   6.449333   2.518358
    24  H    6.374619   7.461160   3.832070   5.583799   2.456502
    25  H    8.397666   8.607167   6.180806   6.504823   3.758922
    26  H    8.303306   7.285295   6.506620   5.030224   5.491500
    27  H    7.015991   6.201005   5.526264   4.360297   6.134545
    28  H    8.655504   8.207769   7.155732   6.575051   6.857441
    29  H    4.818588   5.376312   2.691053   3.677228   4.619265
    30  H    5.523128   4.681821   3.868911   2.397927   5.389879
    31  H    7.068531   6.782728   4.900508   4.460077   3.745763
    32  C    7.118878   7.934835   5.169063   6.346137   4.827177
    33  H    7.143526   8.486855   5.031743   6.952973   4.290339
    34  H    6.256060   7.130192   4.566351   5.809045   5.551371
    35  H    8.015927   8.697772   6.196046   7.141830   5.529683
    36  H    4.647831   5.788706   2.494530   4.392222   4.760897
                   21         22         23         24         25
    21  H    0.000000
    22  H    1.767806   0.000000
    23  H    2.527078   3.083733   0.000000
    24  H    3.077376   2.532374   1.751662   0.000000
    25  H    2.212390   3.087409   3.004195   3.751848   0.000000
    26  H    4.240189   4.186253   4.695938   4.744148   2.438531
    27  H    5.017363   5.171756   4.595013   4.864953   3.043822
    28  H    5.350996   6.105768   5.416685   6.244459   3.158370
    29  H    5.015638   4.207808   3.465791   2.206526   4.934956
    30  H    5.310186   4.417482   4.333458   3.281750   4.658949
    31  H    3.171861   2.551595   3.057129   2.509234   2.506126
    32  C    3.679807   4.675405   2.892205   4.138252   2.145164
    33  H    3.356519   4.539466   2.273568   3.834981   2.516690
    34  H    4.600740   5.381904   3.329640   4.408590   3.068595
    35  H    4.166181   5.354571   3.832452   5.149871   2.466031
    36  H    4.520441   4.601525   2.531928   2.746138   3.762838
                   26         27         28         29         30
    26  H    0.000000
    27  H    1.768843   0.000000
    28  H    2.807654   2.255591   0.000000
    29  H    4.927782   4.629867   6.568839   0.000000
    30  H    3.806658   3.602859   5.772033   1.764123   0.000000
    31  H    2.350627   2.900659   4.493926   2.873263   2.323201
    32  C    3.479546   2.824628   2.771451   4.918701   4.886232
    33  H    4.331203   3.829658   3.804613   4.959071   5.291214
    34  H    3.815471   2.651018   2.952570   4.726305   4.671465
    35  H    3.759741   3.191716   2.266296   5.984669   5.817656
    36  H    4.203267   3.298722   4.791636   2.452210   2.922713
                   31         32         33         34         35
    31  H    0.000000
    32  C    3.489027   0.000000
    33  H    3.860086   1.094344   0.000000
    34  H    3.800566   1.095784   1.772911   0.000000
    35  H    4.304072   1.094366   1.758237   1.771597   0.000000
    36  H    2.907206   2.823980   2.933069   2.386925   3.883972
                   36
    36  H    0.000000
 Stoichiometry    C13H19F2NO
 Framework group  C1[X(C13H19F2NO)]
 Deg. of freedom   102
 Full point group                 C1      NOp   1
 Largest Abelian subgroup         C1      NOp   1
 Largest concise Abelian subgroup C1      NOp   1
                         Standard orientation:                         
 ---------------------------------------------------------------------
 Center     Atomic      Atomic             Coordinates (Angstroms)
 Number     Number       Type             X           Y           Z
 ---------------------------------------------------------------------
      1          6           0       -3.567296   -2.253910   -1.294969
      2          6           0       -2.267393   -1.938560   -0.545352
      3          6           0       -1.899397   -0.438154   -0.477150
      4          6           0       -2.901739    0.411339    0.346841
      5          6           0       -2.700514    1.904873    0.038842
      6          8           0       -3.666496    2.748887    0.669478
      7          7           0       -0.526763   -0.199292    0.014952
      8          6           0        0.531206   -0.485012   -0.962701
      9          6           0        4.445009    0.364028    0.710556
     10          6           0        3.726588   -0.750502    1.148185
     11          6           0        2.479413   -0.986913    0.586938
     12          6           0        1.896702   -0.178619   -0.390779
     13          6           0        2.658422    0.923107   -0.783058
     14          6           0        3.915101    1.212061   -0.262008
     15          1           0        5.422975    0.572662    1.131341
     16          1           0        4.112761   -1.424111    1.904322
     17          1           0        4.452851    2.083284   -0.617707
     18          9           0        1.767130   -2.062330    1.011713
     19          9           0        2.151658    1.747660   -1.728847
     20          1           0       -3.718205   -3.335443   -1.372548
     21          1           0       -4.445843   -1.836790   -0.793287
     22          1           0       -3.543432   -1.849255   -2.313365
     23          1           0       -2.319007   -2.346158    0.472902
     24          1           0       -1.444063   -2.468338   -1.039667
     25          1           0       -3.912878    0.156857    0.004203
     26          1           0       -2.820314    2.071802   -1.037776
     27          1           0       -1.677785    2.200846    0.306389
     28          1           0       -3.414301    2.838132    1.597151
     29          1           0        0.532617   -1.528439   -1.319104
     30          1           0        0.366892    0.149847   -1.836808
     31          1           0       -1.924000   -0.050077   -1.506495
     32          6           0       -2.831758    0.141080    1.856947
     33          1           0       -3.009794   -0.911869    2.096091
     34          1           0       -1.853909    0.421903    2.263998
     35          1           0       -3.596024    0.720576    2.383937
     36          1           0       -0.364384   -0.778358    0.836377
 ---------------------------------------------------------------------
 Rotational constants (GHZ):      0.6606389      0.2375035      0.2095094
 Standard basis: 6-311G(d) (5D, 7F)
 There are   380 symmetry adapted cartesian basis functions of A   symmetry.
 There are   363 symmetry adapted basis functions of A   symmetry.
   363 basis functions,   639 primitive gaussians,   380 cartesian basis functions
    65 alpha electrons       65 beta electrons
       nuclear repulsion energy      1249.7842562009 Hartrees.
 NAtoms=   36 NActive=   36 NUniq=   36 SFac= 1.00D+00 NAtFMM=   60 NAOKFM=F Big=F
 Integral buffers will be    131072 words long.
 Raffenetti 2 integral format.
 Two-electron integral symmetry is turned on.
 ------------------------------------------------------------------------------
 Polarizable Continuum Model (PCM)
 =================================
 Model                : PCM (using non-symmetric T matrix).
 Atomic radii         : UFF (Universal Force Field).
 Polarization charges : Total charges.
 Charge compensation  : None.
 Solution method      : On-the-fly selection.
 Cavity type          : Scaled VdW (van der Waals Surface) (Alpha=1.100).
 Cavity algorithm     : GePol (No added spheres)
                        Default sphere list used, NSphG=   36.
                        Lebedev-Laikov grids with approx.  5.0 points / Ang**2.
                        Smoothing algorithm: Karplus/York (Gamma=1.0000).
                        Polarization charges: spherical gaussians, with
                                              point-specific exponents (IZeta= 3).
                        Self-potential: point-specific (ISelfS= 7).
                        Self-field    : sphere-specific E.n sum rule (ISelfD= 2).
 Solvent              : Chloroform, Eps=   4.711300 Eps(inf)=   2.090627
 ------------------------------------------------------------------------------
 One-electron integrals computed using PRISM.
 NBasis=   363 RedAO= T EigKep=  2.30D-04  NBF=   363
 NBsUse=   363 1.00D-06 EigRej= -1.00D+00 NBFU=   363
 ExpMin= 1.03D-01 ExpMax= 1.14D+04 ExpMxC= 1.72D+03 IAcc=1 IRadAn=         1 AccDes= 0.00D+00
 Harris functional with IExCor=  908 and IRadAn=       1 diagonalized for initial guess.
 HarFok:  IExCor=  908 AccDes= 0.00D+00 IRadAn=         1 IDoV= 1 UseB2=F ITyADJ=14
 ICtDFT=  3500011 ScaDFX=  1.000000  1.000000  1.000000  1.000000
 FoFCou: FMM=F IPFlag=           0 FMFlag=      100000 FMFlg1=           0
         NFxFlg=           0 DoJE=T BraDBF=F KetDBF=T FulRan=T
         wScrn=  0.000000 ICntrl=     500 IOpCl=  0 I1Cent=   200000004 NGrid=           0
         NMat0=    1 NMatS0=      1 NMatT0=    0 NMatD0=    1 NMtDS0=    0 NMtDT0=    0
 Petite list used in FoFCou.
 Requested convergence on RMS density matrix=1.00D-08 within 128 cycles.
 Requested convergence on MAX density matrix=1.00D-06.
 Requested convergence on             energy=1.00D-06.
 No special actions if energy rises.
 Inv3:  Mode=1 IEnd=    19370043.
 Iteration    1 A*A^-1 deviation from unit magnitude is 7.99D-15 for    233.
 Iteration    1 A*A^-1 deviation from orthogonality  is 5.27D-15 for   1915   1856.
 Iteration    1 A^-1*A deviation from unit magnitude is 7.77D-15 for   2111.
 Iteration    1 A^-1*A deviation from orthogonality  is 4.84D-08 for   2518   2498.
 Iteration    2 A*A^-1 deviation from unit magnitude is 9.21D-15 for     97.
 Iteration    2 A*A^-1 deviation from orthogonality  is 9.55D-15 for   1941    578.
 Iteration    2 A^-1*A deviation from unit magnitude is 1.78D-15 for    632.
 Iteration    2 A^-1*A deviation from orthogonality  is 8.33D-16 for   2108    814.
 Error on total polarization charges =  0.00937
 SCF Done:  E(RmPW1PW91) =  -836.460955291     A.U. after   12 cycles
            NFock= 12  Conv=0.68D-08     -V/T= 2.0038
 DoSCS=F DFT=T ScalE2(SS,OS)=  1.000000  1.000000
 Range of M.O.s used for correlation:     1   363
 NBasis=   363 NAE=    65 NBE=    65 NFC=     0 NFV=     0
 NROrb=    363 NOA=    65 NOB=    65 NVA=   298 NVB=   298

 **** Warning!!: The largest alpha MO coefficient is  0.11244258D+02

 NEqPCM:  Using equilibrium solvation (IEInf=0, Eps=   4.7113, EpsInf=   2.0906)
          Differentiating once with respect to magnetic field using GIAOs.
          Electric field/nuclear overlap derivatives assumed to be zero.
 FoFJK:  IHMeth= 1 ICntrl=    6127 DoSepK=F KAlg= 0 I1Cent=   0 FoldK=F
 IRaf=         1 NMat=   1 IRICut=       1 DoRegI=T DoRafI=F ISym2E= 0.
          There are     3 degrees of freedom in the 1st order CPHF.  IDoFFX=0 NUNeed=     3.
      3 vectors produced by pass  0 Test12= 6.46D-13 3.33D-08 XBig12= 3.72D+01 1.57D+00.
 AX will form     3 AO Fock derivatives at one time.
      3 vectors produced by pass  1 Test12= 6.46D-13 3.33D-08 XBig12= 1.02D-01 1.32D-01.
      3 vectors produced by pass  2 Test12= 6.46D-13 3.33D-08 XBig12= 5.08D-04 6.85D-03.
      3 vectors produced by pass  3 Test12= 6.46D-13 3.33D-08 XBig12= 1.34D-06 2.47D-04.
      3 vectors produced by pass  4 Test12= 6.46D-13 3.33D-08 XBig12= 3.29D-09 1.23D-05.
      3 vectors produced by pass  5 Test12= 6.46D-13 3.33D-08 XBig12= 1.26D-11 5.83D-07.
      1 vectors produced by pass  6 Test12= 6.46D-13 3.33D-08 XBig12= 3.41D-14 4.02D-08.
 InvSVY:  IOpt=1 It=  1 EMax= 4.44D-16
 Solved reduced A of dimension    19 with     3 vectors.
 Calculating GIAO nuclear magnetic shielding tensors.
 SCF GIAO Magnetic shielding tensor (ppm):
      1  C    Isotropic =   175.4148   Anisotropy =    22.3542
   XX=   179.6127   YX=     7.2056   ZX=    11.4863
   XY=     4.6983   YY=   171.3595   ZY=    -0.2699
   XZ=    11.0723   YZ=     1.7934   ZZ=   175.2723
   Eigenvalues:   164.2617   171.6651   190.3176
      2  C    Isotropic =   163.3506   Anisotropy =    22.3585
   XX=   163.8010   YX=     5.0860   ZX=    15.2644
   XY=     7.9021   YY=   172.3516   ZY=    -1.3962
   XZ=    15.6515   YZ=    -2.8221   ZZ=   153.8991
   Eigenvalues:   141.6075   170.1880   178.2562
      3  C    Isotropic =   123.6359   Anisotropy =    30.8830
   XX=   139.6822   YX=    -1.7465   ZX=     6.7232
   XY=     9.9602   YY=   116.5510   ZY=     5.4434
   XZ=    13.2263   YZ=     3.5912   ZZ=   114.6745
   Eigenvalues:   109.7583   116.9248   144.2246
      4  C    Isotropic =   148.7746   Anisotropy =    20.8612
   XX=   149.7269   YX=    -4.1581   ZX=    -7.5531
   XY=   -11.0672   YY=   157.5429   ZY=     2.6616
   XZ=    -7.2772   YZ=    -4.1914   ZZ=   139.0538
   Eigenvalues:   134.4316   149.2101   162.6820
      5  C    Isotropic =   116.9806   Anisotropy =    57.1800
   XX=   112.6217   YX=   -17.1155   ZX=   -21.8901
   XY=   -21.8549   YY=   130.9931   ZY=     6.9924
   XZ=   -30.3835   YZ=    12.8817   ZZ=   107.3270
   Eigenvalues:    82.8883   112.9529   155.1006
      6  O    Isotropic =   310.9227   Anisotropy =    44.3383
   XX=   307.2778   YX=    -9.8755   ZX=    13.2351
   XY=     6.2824   YY=   288.2311   ZY=    -9.3384
   XZ=     6.3960   YZ=     2.2188   ZZ=   337.2590
   Eigenvalues:   287.9064   304.3801   340.4815
      7  N    Isotropic =   204.9065   Anisotropy =    53.0076
   XX=   218.7222   YX=     6.5449   ZX=    31.7866
   XY=    16.3798   YY=   169.3965   ZY=    -6.6689
   XZ=     2.0950   YZ=    -2.4175   ZZ=   226.6007
   Eigenvalues:   165.7047   208.7698   240.2449
      8  C    Isotropic =   145.6216   Anisotropy =    50.3092
   XX=   160.0870   YX=    -2.1163   ZX=   -18.5786
   XY=    -9.2693   YY=   122.2249   ZY=     7.6732
   XZ=   -21.8722   YZ=     6.6857   ZZ=   154.5529
   Eigenvalues:   120.6326   137.0712   179.1611
      9  C    Isotropic =    54.2031   Anisotropy =   188.2426
   XX=    -8.0330   YX=   -49.2111   ZX=   -73.9869
   XY=   -48.9101   YY=    74.7677   ZY=    51.9516
   XZ=   -73.9439   YZ=    51.3281   ZZ=    95.8744
   Eigenvalues:   -50.3667    33.2778   179.6981
     10  C    Isotropic =    72.7593   Anisotropy =   145.9090
   XX=    72.6980   YX=   -14.2237   ZX=   -47.3987
   XY=    -9.0241   YY=    64.8098   ZY=    76.2647
   XZ=   -52.5685   YZ=    74.3172   ZZ=    80.7702
   Eigenvalues:   -11.5058    59.7518   170.0320
     11  C    Isotropic =    17.4563   Anisotropy =    95.1893
   XX=    19.3045   YX=   -54.6408   ZX=     4.4971
   XY=   -48.6045   YY=   -13.2151   ZY=    44.5490
   XZ=     2.3394   YZ=    44.9064   ZZ=    46.2796
   Eigenvalues:   -64.7143    36.1674    80.9159
     12  C    Isotropic =    65.2495   Anisotropy =   138.2568
   XX=    42.5198   YX=   -33.7206   ZX=   -46.5141
   XY=   -32.0698   YY=    63.2543   ZY=    51.4437
   XZ=   -44.2371   YZ=    52.1489   ZZ=    89.9745
   Eigenvalues:    14.8955    23.4323   157.4207
     13  C    Isotropic =    19.0933   Anisotropy =    97.7657
   XX=    30.5048   YX=    13.6698   ZX=   -43.7884
   XY=     7.9299   YY=    11.7518   ZY=    60.8433
   XZ=   -36.1528   YZ=    60.6858   ZZ=    15.0232
   Eigenvalues:   -61.6712    34.6806    84.2704
     14  C    Isotropic =    72.0327   Anisotropy =   146.8907
   XX=    62.8448   YX=   -50.6505   ZX=   -25.0079
   XY=   -56.5636   YY=    46.2721   ZY=    62.1064
   XZ=   -20.2175   YZ=    65.4291   ZZ=   106.9813
   Eigenvalues:   -12.1984    58.3367   169.9598
     15  H    Isotropic =    24.6323   Anisotropy =     3.1539
   XX=    25.3807   YX=     1.2684   ZX=     1.3751
   XY=     1.1789   YY=    24.9125   ZY=    -2.3385
   XZ=     1.3721   YZ=    -2.3760   ZZ=    23.6038
   Eigenvalues:    21.0368    26.1253    26.7349
     16  H    Isotropic =    25.1708   Anisotropy =     5.1115
   XX=    27.5297   YX=     1.4208   ZX=     2.1486
   XY=     1.5142   YY=    24.4609   ZY=    -1.4330
   XZ=     1.9831   YZ=    -1.4933   ZZ=    23.5217
   Eigenvalues:    21.4062    25.5277    28.5785
     17  H    Isotropic =    25.1289   Anisotropy =     4.7807
   XX=    27.2405   YX=     1.4813   ZX=     2.0380
   XY=     1.1655   YY=    24.2722   ZY=    -1.7189
   XZ=     2.1534   YZ=    -1.5777   ZZ=    23.8742
   Eigenvalues:    21.3846    25.6862    28.3161
     18  F    Isotropic =   299.2700   Anisotropy =   114.1391
   XX=   259.8255   YX=   -14.8001   ZX=   -53.2342
   XY=     5.5952   YY=   334.4813   ZY=    34.2651
   XZ=   -54.0305   YZ=    48.8992   ZZ=   303.5031
   Eigenvalues:   220.1027   302.3445   375.3627
     19  F    Isotropic =   295.7088   Anisotropy =   117.6520
   XX=   253.2398   YX=   -57.3381   ZX=   -27.9609
   XY=   -57.3625   YY=   295.9988   ZY=    26.1357
   XZ=   -26.3988   YZ=    26.4532   ZZ=   337.8879
   Eigenvalues:   212.9417   300.0413   374.1435
     20  H    Isotropic =    30.9498   Anisotropy =    11.2560
   XX=    29.5734   YX=     4.2165   ZX=     2.0521
   XY=     3.2502   YY=    36.0730   ZY=     1.9750
   XZ=     1.8877   YZ=     2.2925   ZZ=    27.2030
   Eigenvalues:    26.0891    28.3064    38.4538
     21  H    Isotropic =    31.0338   Anisotropy =     7.6534
   XX=    36.0683   YX=    -0.0102   ZX=    -1.0037
   XY=     0.5577   YY=    28.9249   ZY=     2.7631
   XZ=    -0.4693   YZ=     2.3883   ZZ=    28.1083
   Eigenvalues:    25.8553    31.1101    36.1361
     22  H    Isotropic =    31.3503   Anisotropy =     9.2982
   XX=    29.4011   YX=     0.8994   ZX=     3.6848
   XY=     1.4417   YY=    28.2834   ZY=    -0.5538
   XZ=     2.5156   YZ=    -0.6795   ZZ=    36.3662
   Eigenvalues:    26.9374    29.5643    37.5491
     23  H    Isotropic =    30.7616   Anisotropy =     5.2135
   XX=    28.3145   YX=     1.1078   ZX=     1.6814
   XY=     0.9376   YY=    31.5262   ZY=    -2.5621
   XZ=     0.5400   YZ=    -1.8298   ZZ=    32.4442
   Eigenvalues:    27.3674    30.6802    34.2373
     24  H    Isotropic =    30.0755   Anisotropy =     6.3783
   XX=    33.8746   YX=    -0.5959   ZX=    -1.0053
   XY=    -0.7510   YY=    31.0544   ZY=     3.4929
   XZ=    -0.4121   YZ=     2.8861   ZZ=    25.2976
   Eigenvalues:    23.8656    32.0332    34.3277
     25  H    Isotropic =    30.2020   Anisotropy =     6.3899
   XX=    32.8922   YX=     0.0334   ZX=     3.1525
   XY=     0.5318   YY=    29.4838   ZY=     2.2786
   XZ=     2.2608   YZ=     2.3004   ZZ=    28.2298
   Eigenvalues:    25.8678    30.2762    34.4619
     26  H    Isotropic =    28.5174   Anisotropy =     4.8719
   XX=    25.6208   YX=    -3.3654   ZX=    -2.0697
   XY=    -2.7832   YY=    29.7422   ZY=    -1.0951
   XZ=    -1.1582   YZ=    -2.0150   ZZ=    30.1894
   Eigenvalues:    23.3010    30.4859    31.7654
     27  H    Isotropic =    28.2880   Anisotropy =     7.8564
   XX=    31.9108   YX=    -0.3226   ZX=    -1.6567
   XY=    -2.2732   YY=    30.5239   ZY=     1.2392
   XZ=    -3.9487   YZ=     1.2426   ZZ=    22.4292
   Eigenvalues:    21.5790    29.7594    33.5256
     28  H    Isotropic =    31.6688   Anisotropy =    15.4924
   XX=    25.3137   YX=    -2.1555   ZX=     1.5354
   XY=    -4.1147   YY=    29.3413   ZY=     4.2603
   XZ=     1.7275   YZ=     4.8224   ZZ=    40.3513
   Eigenvalues:    22.8026    30.2066    41.9970
     29  H    Isotropic =    28.0894   Anisotropy =     5.2611
   XX=    29.3527   YX=    -1.4838   ZX=    -2.0845
   XY=     0.8645   YY=    29.0980   ZY=     2.5480
   XZ=     0.5044   YZ=     4.5855   ZZ=    25.8175
   Eigenvalues:    23.4891    29.1823    31.5968
     30  H    Isotropic =    28.7344   Anisotropy =     8.2553
   XX=    29.8305   YX=     2.4932   ZX=    -2.2862
   XY=     2.7615   YY=    26.0519   ZY=    -3.1505
   XZ=    -0.6211   YZ=    -4.6571   ZZ=    30.3209
   Eigenvalues:    23.3376    28.6278    34.2379
     31  H    Isotropic =    29.8032   Anisotropy =     2.1784
   XX=    29.9864   YX=    -0.0208   ZX=     0.9093
   XY=    -0.0077   YY=    28.6031   ZY=    -0.7802
   XZ=    -0.1179   YZ=    -1.0304   ZZ=    30.8200
   Eigenvalues:    28.2718    29.8822    31.2555
     32  C    Isotropic =   180.0950   Anisotropy =    17.7684
   XX=   178.0853   YX=     4.1562   ZX=     5.4236
   XY=     3.6682   YY=   172.9107   ZY=    -2.9528
   XZ=     5.8398   YZ=    -5.3247   ZZ=   189.2892
   Eigenvalues:   168.7865   179.5579   191.9406
     33  H    Isotropic =    31.2576   Anisotropy =     8.3362
   XX=    27.4861   YX=     1.9931   ZX=    -2.1789
   XY=     1.3962   YY=    34.0683   ZY=    -2.2931
   XZ=    -2.4036   YZ=    -3.1477   ZZ=    32.2183
   Eigenvalues:    26.5086    30.4491    36.8151
     34  H    Isotropic =    31.7673   Anisotropy =     7.1857
   XX=    34.3525   YX=     0.4669   ZX=     2.3985
   XY=    -0.0057   YY=    27.3510   ZY=     1.6354
   XZ=     2.3422   YZ=     1.7561   ZZ=    33.5986
   Eigenvalues:    26.9010    31.8433    36.5578
     35  H    Isotropic =    31.2685   Anisotropy =     9.6855
   XX=    30.9300   YX=    -2.8953   ZX=    -4.4701
   XY=    -3.3667   YY=    29.7908   ZY=     0.9234
   XZ=    -4.7031   YZ=     1.1841   ZZ=    33.0848
   Eigenvalues:    26.1746    29.9055    37.7255
     36  H    Isotropic =    31.9386   Anisotropy =    10.2492
   XX=    36.7719   YX=    -2.6731   ZX=     1.7145
   XY=    -3.6707   YY=    24.9116   ZY=    -4.1586
   XZ=    -0.4505   YZ=    -6.3568   ZZ=    34.1323
   Eigenvalues:    22.0519    34.9925    38.7714
 End of Minotr F.D. properties file   721 does not exist.
 End of Minotr F.D. properties file   722 does not exist.
 End of Minotr F.D. properties file   788 does not exist.

 **********************************************************************

            Population analysis using the SCF density.

 **********************************************************************

 Orbital symmetries:
       Occupied  (A) (A) (A) (A) (A) (A) (A) (A) (A) (A) (A) (A)
                 (A) (A) (A) (A) (A) (A) (A) (A) (A) (A) (A) (A)
                 (A) (A) (A) (A) (A) (A) (A) (A) (A) (A) (A) (A)
                 (A) (A) (A) (A) (A) (A) (A) (A) (A) (A) (A) (A)
                 (A) (A) (A) (A) (A) (A) (A) (A) (A) (A) (A) (A)
                 (A) (A) (A) (A) (A)
       Virtual   (A) (A) (A) (A) (A) (A) (A) (A) (A) (A) (A) (A)
                 (A) (A) (A) (A) (A) (A) (A) (A) (A) (A) (A) (A)
                 (A) (A) (A) (A) (A) (A) (A) (A) (A) (A) (A) (A)
                 (A) (A) (A) (A) (A) (A) (A) (A) (A) (A) (A) (A)
                 (A) (A) (A) (A) (A) (A) (A) (A) (A) (A) (A) (A)
                 (A) (A) (A) (A) (A) (A) (A) (A) (A) (A) (A) (A)
                 (A) (A) (A) (A) (A) (A) (A) (A) (A) (A) (A) (A)
                 (A) (A) (A) (A) (A) (A) (A) (A) (A) (A) (A) (A)
                 (A) (A) (A) (A) (A) (A) (A) (A) (A) (A) (A) (A)
                 (A) (A) (A) (A) (A) (A) (A) (A) (A) (A) (A) (A)
                 (A) (A) (A) (A) (A) (A) (A) (A) (A) (A) (A) (A)
                 (A) (A) (A) (A) (A) (A) (A) (A) (A) (A) (A) (A)
                 (A) (A) (A) (A) (A) (A) (A) (A) (A) (A) (A) (A)
                 (A) (A) (A) (A) (A) (A) (A) (A) (A) (A) (A) (A)
                 (A) (A) (A) (A) (A) (A) (A) (A) (A) (A) (A) (A)
                 (A) (A) (A) (A) (A) (A) (A) (A) (A) (A) (A) (A)
                 (A) (A) (A) (A) (A) (A) (A) (A) (A) (A) (A) (A)
                 (A) (A) (A) (A) (A) (A) (A) (A) (A) (A) (A) (A)
                 (A) (A) (A) (A) (A) (A) (A) (A) (A) (A) (A) (A)
                 (A) (A) (A) (A) (A) (A) (A) (A) (A) (A) (A) (A)
                 (A) (A) (A) (A) (A) (A) (A) (A) (A) (A) (A) (A)
                 (A) (A) (A) (A) (A) (A) (A) (A) (A) (A) (A) (A)
                 (A) (A) (A) (A) (A) (A) (A) (A) (A) (A) (A) (A)
                 (A) (A) (A) (A) (A) (A) (A) (A) (A) (A) (A) (A)
                 (A) (A) (A) (A) (A) (A) (A) (A) (A) (A)
 The electronic state is 1-A.
 Alpha  occ. eigenvalues --  -24.80150 -24.79796 -19.20448 -14.37930 -10.33784
 Alpha  occ. eigenvalues --  -10.33761 -10.27057 -10.26612 -10.26603 -10.26278
 Alpha  occ. eigenvalues --  -10.26182 -10.25412 -10.25347 -10.23220 -10.22787
 Alpha  occ. eigenvalues --  -10.21977 -10.21901  -1.26967  -1.26767  -1.04413
 Alpha  occ. eigenvalues --   -0.94155  -0.90655  -0.83137  -0.79933  -0.78809
 Alpha  occ. eigenvalues --   -0.78078  -0.71634  -0.70238  -0.67253  -0.65857
 Alpha  occ. eigenvalues --   -0.63905  -0.62261  -0.58740  -0.57730  -0.55232
 Alpha  occ. eigenvalues --   -0.52662  -0.52299  -0.51518  -0.50922  -0.49497
 Alpha  occ. eigenvalues --   -0.49012  -0.47906  -0.47342  -0.46617  -0.45238
 Alpha  occ. eigenvalues --   -0.45156  -0.43138  -0.42432  -0.42316  -0.41288
 Alpha  occ. eigenvalues --   -0.40269  -0.39541  -0.38676  -0.38449  -0.37842
 Alpha  occ. eigenvalues --   -0.37571  -0.36533  -0.35489  -0.35239  -0.33193
 Alpha  occ. eigenvalues --   -0.32517  -0.28296  -0.27602  -0.27018  -0.23881
 Alpha virt. eigenvalues --   -0.02226  -0.00929   0.04862   0.05518   0.06254
 Alpha virt. eigenvalues --    0.07410   0.07561   0.08864   0.10349   0.10980
 Alpha virt. eigenvalues --    0.11173   0.11590   0.12262   0.13080   0.13308
 Alpha virt. eigenvalues --    0.13468   0.14174   0.14972   0.15538   0.16424
 Alpha virt. eigenvalues --    0.17567   0.18345   0.18572   0.18967   0.20451
 Alpha virt. eigenvalues --    0.21296   0.22651   0.23391   0.24959   0.25230
 Alpha virt. eigenvalues --    0.25861   0.26108   0.26577   0.28213   0.29583
 Alpha virt. eigenvalues --    0.32109   0.32914   0.33574   0.34419   0.34796
 Alpha virt. eigenvalues --    0.36290   0.37066   0.37619   0.38033   0.38568
 Alpha virt. eigenvalues --    0.39379   0.40365   0.41029   0.41136   0.41590
 Alpha virt. eigenvalues --    0.42786   0.44006   0.44726   0.45167   0.45462
 Alpha virt. eigenvalues --    0.47412   0.47806   0.48882   0.50675   0.52072
 Alpha virt. eigenvalues --    0.52394   0.52916   0.54309   0.54971   0.55456
 Alpha virt. eigenvalues --    0.56794   0.57521   0.58428   0.58985   0.59281
 Alpha virt. eigenvalues --    0.59797   0.60447   0.60855   0.61418   0.61995
 Alpha virt. eigenvalues --    0.62688   0.63007   0.63830   0.63863   0.64188
 Alpha virt. eigenvalues --    0.65222   0.65820   0.66721   0.66940   0.67524
 Alpha virt. eigenvalues --    0.68114   0.68423   0.68906   0.69551   0.70891
 Alpha virt. eigenvalues --    0.71655   0.73490   0.74084   0.74565   0.76226
 Alpha virt. eigenvalues --    0.77386   0.78913   0.81722   0.83110   0.84810
 Alpha virt. eigenvalues --    0.86757   0.87757   0.89902   0.92740   0.93656
 Alpha virt. eigenvalues --    0.94627   0.96414   0.97174   0.98162   0.98937
 Alpha virt. eigenvalues --    0.99871   1.01535   1.05603   1.06350   1.06726
 Alpha virt. eigenvalues --    1.08181   1.08618   1.12392   1.14098   1.14755
 Alpha virt. eigenvalues --    1.15361   1.17941   1.19500   1.21462   1.24530
 Alpha virt. eigenvalues --    1.26495   1.27475   1.28520   1.29445   1.30292
 Alpha virt. eigenvalues --    1.33383   1.33908   1.36089   1.40180   1.43447
 Alpha virt. eigenvalues --    1.44716   1.46344   1.47001   1.48057   1.49774
 Alpha virt. eigenvalues --    1.50292   1.51932   1.52626   1.53778   1.54002
 Alpha virt. eigenvalues --    1.55389   1.56240   1.57484   1.58029   1.59927
 Alpha virt. eigenvalues --    1.60924   1.61526   1.64407   1.64893   1.66772
 Alpha virt. eigenvalues --    1.67379   1.68034   1.69209   1.70885   1.73076
 Alpha virt. eigenvalues --    1.74406   1.77083   1.78152   1.81222   1.82801
 Alpha virt. eigenvalues --    1.82927   1.84436   1.85777   1.88063   1.88679
 Alpha virt. eigenvalues --    1.89965   1.90235   1.91243   1.93710   1.94912
 Alpha virt. eigenvalues --    1.97000   1.97916   1.99365   2.01676   2.03535
 Alpha virt. eigenvalues --    2.09503   2.10534   2.13055   2.16283   2.17762
 Alpha virt. eigenvalues --    2.19547   2.20337   2.26149   2.27484   2.27660
 Alpha virt. eigenvalues --    2.29642   2.31417   2.34510   2.39290   2.39880
 Alpha virt. eigenvalues --    2.41321   2.41919   2.43034   2.44981   2.45879
 Alpha virt. eigenvalues --    2.49051   2.49806   2.50828   2.52632   2.54478
 Alpha virt. eigenvalues --    2.55493   2.56608   2.58867   2.61286   2.66099
 Alpha virt. eigenvalues --    2.66607   2.68225   2.69203   2.72827   2.73880
 Alpha virt. eigenvalues --    2.77652   2.82288   2.83520   2.84314   2.89432
 Alpha virt. eigenvalues --    2.90837   2.93634   2.96847   3.00155   3.03439
 Alpha virt. eigenvalues --    3.04797   3.06184   3.06839   3.08616   3.10227
 Alpha virt. eigenvalues --    3.12916   3.14254   3.16652   3.20212   3.22096
 Alpha virt. eigenvalues --    3.22813   3.25029   3.26192   3.27861   3.28735
 Alpha virt. eigenvalues --    3.29710   3.30152   3.32947   3.36049   3.40882
 Alpha virt. eigenvalues --    3.46497   3.48066   3.51725   3.56739   3.63882
 Alpha virt. eigenvalues --    3.74599   3.78118   3.80060   3.80194   3.81070
 Alpha virt. eigenvalues --    3.85772   3.87078   3.96970   3.97498   3.98703
 Alpha virt. eigenvalues --    3.99454   4.02756   4.06453   4.10459   4.12105
 Alpha virt. eigenvalues --    4.18870   4.20134   4.46292   4.75002   4.76434
 Alpha virt. eigenvalues --    4.77801   4.80202   4.92964   5.05720   5.39930
 Alpha virt. eigenvalues --    6.13129   6.14856   6.29443   6.32637   6.55121
 Alpha virt. eigenvalues --    6.57145  23.28938  23.47273  23.57226  23.69231
 Alpha virt. eigenvalues --   23.72744  23.77026  23.81847  23.85762  23.86104
 Alpha virt. eigenvalues --   23.90567  24.10000  24.10654  24.19710  35.58026
 Alpha virt. eigenvalues --   49.96253  66.89141  66.89543
          Condensed to atoms (all electrons):
               1          2          3          4          5          6
     1  C    5.353963   0.294514  -0.071514   0.002573  -0.000431  -0.000003
     2  C    0.294514   5.335129   0.331476  -0.077021   0.006948  -0.000101
     3  C   -0.071514   0.331476   5.349789   0.257073  -0.066486   0.004680
     4  C    0.002573  -0.077021   0.257073   5.514506   0.304322  -0.067899
     5  C   -0.000431   0.006948  -0.066486   0.304322   5.114490   0.250570
     6  O   -0.000003  -0.000101   0.004680  -0.067899   0.250570   8.183383
     7  N    0.006254  -0.059929   0.271119  -0.067519  -0.006427   0.000001
     8  C    0.000059  -0.004326  -0.082104   0.008889  -0.000171   0.000002
     9  C    0.000000   0.000000   0.000000   0.000000   0.000000   0.000000
    10  C    0.000000   0.000000   0.000015   0.000000   0.000000   0.000000
    11  C    0.000003   0.000132  -0.000319   0.000050   0.000004   0.000000
    12  C    0.000007  -0.000171   0.009147  -0.000473   0.000000   0.000000
    13  C   -0.000001  -0.000006  -0.000251  -0.000033  -0.000028   0.000000
    14  C    0.000000   0.000000   0.000006   0.000000   0.000000   0.000000
    15  H    0.000000   0.000000   0.000000   0.000000   0.000000   0.000000
    16  H    0.000000   0.000000  -0.000001   0.000000   0.000000   0.000000
    17  H    0.000000   0.000000   0.000000   0.000000   0.000000   0.000000
    18  F    0.000000  -0.000065  -0.000115   0.000010   0.000000   0.000000
    19  F    0.000000   0.000000  -0.000016   0.000001  -0.000002   0.000000
    20  H    0.387547  -0.033246   0.007419  -0.000246   0.000021   0.000000
    21  H    0.387421  -0.036373  -0.008182   0.003071   0.000231  -0.000043
    22  H    0.386449  -0.042834  -0.003877  -0.000441  -0.000173   0.000002
    23  H   -0.038734   0.388202  -0.041221  -0.009207  -0.000249   0.000001
    24  H   -0.040496   0.404601  -0.046605   0.006910  -0.000192   0.000003
    25  H   -0.000213  -0.005006  -0.041334   0.397883  -0.042757   0.008300
    26  H    0.000065  -0.000305  -0.002220  -0.049906   0.392083  -0.027316
    27  H   -0.000133   0.000639  -0.003810  -0.055667   0.381081  -0.030122
    28  H    0.000001   0.000031  -0.000825  -0.003364  -0.048944   0.262039
    29  H   -0.000895   0.003145   0.001757  -0.000981   0.000018   0.000000
    30  H    0.000089  -0.000135  -0.007170   0.000424   0.000277  -0.000005
    31  H   -0.000964  -0.054240   0.406736  -0.051446  -0.007506   0.000059
    32  C    0.000404  -0.007281  -0.060907   0.257247  -0.071364   0.003227
    33  H    0.000154   0.001416  -0.004564  -0.035233   0.006476   0.000036
    34  H   -0.000162   0.001447  -0.010535  -0.039695  -0.002953  -0.000207
    35  H   -0.000053  -0.000526   0.010871  -0.045193  -0.007561   0.013905
    36  H    0.000210  -0.002230  -0.050470  -0.005815   0.000283  -0.000021
               7          8          9         10         11         12
     1  C    0.006254   0.000059   0.000000   0.000000   0.000003   0.000007
     2  C   -0.059929  -0.004326   0.000000   0.000000   0.000132  -0.000171
     3  C    0.271119  -0.082104   0.000000   0.000015  -0.000319   0.009147
     4  C   -0.067519   0.008889   0.000000   0.000000   0.000050  -0.000473
     5  C   -0.006427  -0.000171   0.000000   0.000000   0.000004   0.000000
     6  O    0.000001   0.000002   0.000000   0.000000   0.000000   0.000000
     7  N    6.947817   0.288633   0.000052  -0.000300  -0.006981  -0.058751
     8  C    0.288633   5.277763  -0.001395   0.008823  -0.085986   0.290469
     9  C    0.000052  -0.001395   5.073887   0.439871  -0.009949  -0.055260
    10  C   -0.000300   0.008823   0.439871   5.166540   0.487205  -0.039868
    11  C   -0.006981  -0.085986  -0.009949   0.487205   4.806437   0.234826
    12  C   -0.058751   0.290469  -0.055260  -0.039868   0.234826   5.723073
    13  C    0.010943  -0.070043  -0.004450  -0.061292   0.043887   0.296495
    14  C   -0.000115   0.009604   0.435079  -0.043557  -0.057278  -0.032097
    15  H    0.000000   0.000029   0.402644  -0.040918   0.006293  -0.001638
    16  H    0.000014  -0.000251  -0.039991   0.393961  -0.050240   0.012065
    17  H    0.000008  -0.000225  -0.040668   0.006818  -0.001620   0.011913
    18  F   -0.002754   0.002505   0.005337  -0.053453   0.305825  -0.084072
    19  F   -0.000292  -0.006905   0.005564  -0.000448   0.005820  -0.072635
    20  H   -0.000274  -0.000028   0.000000   0.000000  -0.000001   0.000000
    21  H   -0.000062  -0.000024   0.000000   0.000000   0.000000   0.000000
    22  H   -0.000032  -0.000001   0.000000   0.000000   0.000000  -0.000004
    23  H   -0.000088   0.000210   0.000000   0.000001   0.000001  -0.000015
    24  H   -0.003394   0.003016   0.000000   0.000006   0.000316  -0.000207
    25  H    0.004859  -0.000186   0.000000   0.000000  -0.000002   0.000022
    26  H    0.000166  -0.000015   0.000000   0.000000  -0.000001  -0.000013
    27  H    0.024049  -0.000884  -0.000001  -0.000005  -0.000097  -0.000204
    28  H   -0.000046  -0.000003   0.000000   0.000000   0.000000   0.000000
    29  H   -0.049936   0.372997  -0.000052  -0.000486  -0.022081  -0.040687
    30  H   -0.038446   0.390485  -0.000311   0.000136   0.009235  -0.035485
    31  H   -0.039819  -0.007581   0.000001   0.000002  -0.000026   0.000371
    32  C   -0.009357  -0.000320   0.000000   0.000000   0.000001   0.000056
    33  H   -0.000114  -0.000127   0.000000   0.000000  -0.000002   0.000003
    34  H    0.011731  -0.000344   0.000000  -0.000008  -0.000058   0.000401
    35  H   -0.000281   0.000032   0.000000   0.000000   0.000001  -0.000003
    36  H    0.325532  -0.044253  -0.000108   0.000490   0.003485  -0.016144
              13         14         15         16         17         18
     1  C   -0.000001   0.000000   0.000000   0.000000   0.000000   0.000000
     2  C   -0.000006   0.000000   0.000000   0.000000   0.000000  -0.000065
     3  C   -0.000251   0.000006   0.000000  -0.000001   0.000000  -0.000115
     4  C   -0.000033   0.000000   0.000000   0.000000   0.000000   0.000010
     5  C   -0.000028   0.000000   0.000000   0.000000   0.000000   0.000000
     6  O    0.000000   0.000000   0.000000   0.000000   0.000000   0.000000
     7  N    0.010943  -0.000115   0.000000   0.000014   0.000008  -0.002754
     8  C   -0.070043   0.009604   0.000029  -0.000251  -0.000225   0.002505
     9  C   -0.004450   0.435079   0.402644  -0.039991  -0.040668   0.005337
    10  C   -0.061292  -0.043557  -0.040918   0.393961   0.006818  -0.053453
    11  C    0.043887  -0.057278   0.006293  -0.050240  -0.001620   0.305825
    12  C    0.296495  -0.032097  -0.001638   0.012065   0.011913  -0.084072
    13  C    4.743023   0.470943   0.005975  -0.001579  -0.048443   0.005205
    14  C    0.470943   5.179179  -0.039822   0.006700   0.393402  -0.000505
    15  H    0.005975  -0.039822   0.445702  -0.006375  -0.006351  -0.000081
    16  H   -0.001579   0.006700  -0.006375   0.445858  -0.000139   0.001510
    17  H   -0.048443   0.393402  -0.006351  -0.000139   0.445681   0.000004
    18  F    0.005205  -0.000505  -0.000081   0.001510   0.000004   9.056239
    19  F    0.308135  -0.052754  -0.000082   0.000004   0.001368  -0.000002
    20  H    0.000000   0.000000   0.000000   0.000000   0.000000   0.000000
    21  H    0.000000   0.000000   0.000000   0.000000   0.000000   0.000000
    22  H    0.000000   0.000000   0.000000   0.000000   0.000000   0.000000
    23  H    0.000003   0.000000   0.000000   0.000000   0.000000   0.000032
    24  H   -0.000072   0.000001   0.000000   0.000000   0.000000   0.000006
    25  H    0.000001   0.000000   0.000000   0.000000   0.000000   0.000000
    26  H    0.000002   0.000000   0.000000   0.000000   0.000000   0.000000
    27  H    0.000388  -0.000004   0.000000   0.000000   0.000000   0.000001
    28  H    0.000000   0.000000   0.000000   0.000000   0.000000   0.000000
    29  H    0.009568  -0.000214   0.000002  -0.000012   0.000015   0.004820
    30  H   -0.017304   0.001485   0.000005   0.000007  -0.000049   0.000198
    31  H    0.000029  -0.000003   0.000000   0.000000   0.000000  -0.000009
    32  C   -0.000003   0.000000   0.000000   0.000000   0.000000  -0.000014
    33  H    0.000000   0.000000   0.000000   0.000000   0.000000  -0.000004
    34  H    0.000044  -0.000003   0.000000   0.000000   0.000000  -0.000093
    35  H    0.000000   0.000000   0.000000   0.000000   0.000000   0.000000
    36  H   -0.000536   0.000076   0.000002   0.000015  -0.000002   0.012275
              19         20         21         22         23         24
     1  C    0.000000   0.387547   0.387421   0.386449  -0.038734  -0.040496
     2  C    0.000000  -0.033246  -0.036373  -0.042834   0.388202   0.404601
     3  C   -0.000016   0.007419  -0.008182  -0.003877  -0.041221  -0.046605
     4  C    0.000001  -0.000246   0.003071  -0.000441  -0.009207   0.006910
     5  C   -0.000002   0.000021   0.000231  -0.000173  -0.000249  -0.000192
     6  O    0.000000   0.000000  -0.000043   0.000002   0.000001   0.000003
     7  N   -0.000292  -0.000274  -0.000062  -0.000032  -0.000088  -0.003394
     8  C   -0.006905  -0.000028  -0.000024  -0.000001   0.000210   0.003016
     9  C    0.005564   0.000000   0.000000   0.000000   0.000000   0.000000
    10  C   -0.000448   0.000000   0.000000   0.000000   0.000001   0.000006
    11  C    0.005820  -0.000001   0.000000   0.000000   0.000001   0.000316
    12  C   -0.072635   0.000000   0.000000  -0.000004  -0.000015  -0.000207
    13  C    0.308135   0.000000   0.000000   0.000000   0.000003  -0.000072
    14  C   -0.052754   0.000000   0.000000   0.000000   0.000000   0.000001
    15  H   -0.000082   0.000000   0.000000   0.000000   0.000000   0.000000
    16  H    0.000004   0.000000   0.000000   0.000000   0.000000   0.000000
    17  H    0.001368   0.000000   0.000000   0.000000   0.000000   0.000000
    18  F   -0.000002   0.000000   0.000000   0.000000   0.000032   0.000006
    19  F    9.044540   0.000000   0.000000   0.000000   0.000000   0.000002
    20  H    0.000000   0.476035  -0.027769  -0.027773  -0.004604  -0.005671
    21  H    0.000000  -0.027769   0.477400  -0.028929  -0.005748   0.006672
    22  H    0.000000  -0.027773  -0.028929   0.485455   0.007407  -0.004397
    23  H    0.000000  -0.004604  -0.005748   0.007407   0.500966  -0.033016
    24  H    0.000002  -0.005671   0.006672  -0.004397  -0.033016   0.483686
    25  H    0.000000   0.000381   0.000129   0.000173  -0.000560   0.000159
    26  H    0.000006  -0.000007   0.000111  -0.000011  -0.000024   0.000003
    27  H    0.000102   0.000007  -0.000051   0.000009  -0.000048  -0.000010
    28  H    0.000000   0.000000   0.000004   0.000000  -0.000004  -0.000002
    29  H   -0.000025   0.000159  -0.000010   0.000041  -0.000513   0.001110
    30  H    0.014609  -0.000012   0.000008  -0.000021   0.000005   0.000844
    31  H   -0.000174  -0.000318  -0.000232   0.005448   0.007891  -0.005162
    32  C    0.000000  -0.000072   0.000648   0.000048   0.004057  -0.000291
    33  H    0.000000   0.000006   0.000615  -0.000058   0.002005   0.000047
    34  H   -0.000001   0.000019  -0.000060   0.000006  -0.000234  -0.000110
    35  H    0.000000  -0.000007  -0.000058   0.000009   0.000008   0.000044
    36  H   -0.000007  -0.000023   0.000009   0.000011   0.004224  -0.000236
              25         26         27         28         29         30
     1  C   -0.000213   0.000065  -0.000133   0.000001  -0.000895   0.000089
     2  C   -0.005006  -0.000305   0.000639   0.000031   0.003145  -0.000135
     3  C   -0.041334  -0.002220  -0.003810  -0.000825   0.001757  -0.007170
     4  C    0.397883  -0.049906  -0.055667  -0.003364  -0.000981   0.000424
     5  C   -0.042757   0.392083   0.381081  -0.048944   0.000018   0.000277
     6  O    0.008300  -0.027316  -0.030122   0.262039   0.000000  -0.000005
     7  N    0.004859   0.000166   0.024049  -0.000046  -0.049936  -0.038446
     8  C   -0.000186  -0.000015  -0.000884  -0.000003   0.372997   0.390485
     9  C    0.000000   0.000000  -0.000001   0.000000  -0.000052  -0.000311
    10  C    0.000000   0.000000  -0.000005   0.000000  -0.000486   0.000136
    11  C   -0.000002  -0.000001  -0.000097   0.000000  -0.022081   0.009235
    12  C    0.000022  -0.000013  -0.000204   0.000000  -0.040687  -0.035485
    13  C    0.000001   0.000002   0.000388   0.000000   0.009568  -0.017304
    14  C    0.000000   0.000000  -0.000004   0.000000  -0.000214   0.001485
    15  H    0.000000   0.000000   0.000000   0.000000   0.000002   0.000005
    16  H    0.000000   0.000000   0.000000   0.000000  -0.000012   0.000007
    17  H    0.000000   0.000000   0.000000   0.000000   0.000015  -0.000049
    18  F    0.000000   0.000000   0.000001   0.000000   0.004820   0.000198
    19  F    0.000000   0.000006   0.000102   0.000000  -0.000025   0.014609
    20  H    0.000381  -0.000007   0.000007   0.000000   0.000159  -0.000012
    21  H    0.000129   0.000111  -0.000051   0.000004  -0.000010   0.000008
    22  H    0.000173  -0.000011   0.000009   0.000000   0.000041  -0.000021
    23  H   -0.000560  -0.000024  -0.000048  -0.000004  -0.000513   0.000005
    24  H    0.000159   0.000003  -0.000010  -0.000002   0.001110   0.000844
    25  H    0.510020  -0.008692   0.011097  -0.001636   0.000059  -0.000025
    26  H   -0.008692   0.490091  -0.034995   0.006953   0.000016  -0.000072
    27  H    0.011097  -0.034995   0.509268  -0.008309   0.000396  -0.000539
    28  H   -0.001636   0.006953  -0.008309   0.379676   0.000000  -0.000002
    29  H    0.000059   0.000016   0.000396   0.000000   0.547981  -0.043343
    30  H   -0.000025  -0.000072  -0.000539  -0.000002  -0.043343   0.460915
    31  H   -0.004737   0.006740  -0.002296   0.000016  -0.002319   0.004881
    32  C   -0.057270   0.009080  -0.012865   0.008989  -0.000070   0.000019
    33  H   -0.004499  -0.000220  -0.000243   0.000060   0.000021  -0.000008
    34  H    0.007729  -0.000087   0.005447  -0.000077   0.000235  -0.000110
    35  H   -0.003439   0.000268   0.000943  -0.000050  -0.000004   0.000008
    36  H   -0.000158  -0.000054  -0.000452  -0.000013  -0.007240   0.006926
              31         32         33         34         35         36
     1  C   -0.000964   0.000404   0.000154  -0.000162  -0.000053   0.000210
     2  C   -0.054240  -0.007281   0.001416   0.001447  -0.000526  -0.002230
     3  C    0.406736  -0.060907  -0.004564  -0.010535   0.010871  -0.050470
     4  C   -0.051446   0.257247  -0.035233  -0.039695  -0.045193  -0.005815
     5  C   -0.007506  -0.071364   0.006476  -0.002953  -0.007561   0.000283
     6  O    0.000059   0.003227   0.000036  -0.000207   0.013905  -0.000021
     7  N   -0.039819  -0.009357  -0.000114   0.011731  -0.000281   0.325532
     8  C   -0.007581  -0.000320  -0.000127  -0.000344   0.000032  -0.044253
     9  C    0.000001   0.000000   0.000000   0.000000   0.000000  -0.000108
    10  C    0.000002   0.000000   0.000000  -0.000008   0.000000   0.000490
    11  C   -0.000026   0.000001  -0.000002  -0.000058   0.000001   0.003485
    12  C    0.000371   0.000056   0.000003   0.000401  -0.000003  -0.016144
    13  C    0.000029  -0.000003   0.000000   0.000044   0.000000  -0.000536
    14  C   -0.000003   0.000000   0.000000  -0.000003   0.000000   0.000076
    15  H    0.000000   0.000000   0.000000   0.000000   0.000000   0.000002
    16  H    0.000000   0.000000   0.000000   0.000000   0.000000   0.000015
    17  H    0.000000   0.000000   0.000000   0.000000   0.000000  -0.000002
    18  F   -0.000009  -0.000014  -0.000004  -0.000093   0.000000   0.012275
    19  F   -0.000174   0.000000   0.000000  -0.000001   0.000000  -0.000007
    20  H   -0.000318  -0.000072   0.000006   0.000019  -0.000007  -0.000023
    21  H   -0.000232   0.000648   0.000615  -0.000060  -0.000058   0.000009
    22  H    0.005448   0.000048  -0.000058   0.000006   0.000009   0.000011
    23  H    0.007891   0.004057   0.002005  -0.000234   0.000008   0.004224
    24  H   -0.005162  -0.000291   0.000047  -0.000110   0.000044  -0.000236
    25  H   -0.004737  -0.057270  -0.004499   0.007729  -0.003439  -0.000158
    26  H    0.006740   0.009080  -0.000220  -0.000087   0.000268  -0.000054
    27  H   -0.002296  -0.012865  -0.000243   0.005447   0.000943  -0.000452
    28  H    0.000016   0.008989   0.000060  -0.000077  -0.000050  -0.000013
    29  H   -0.002319  -0.000070   0.000021   0.000235  -0.000004  -0.007240
    30  H    0.004881   0.000019  -0.000008  -0.000110   0.000008   0.006926
    31  H    0.498152   0.009043  -0.000100  -0.000381  -0.000120   0.008163
    32  C    0.009043   5.489190   0.388049   0.375260   0.380517   0.003611
    33  H   -0.000100   0.388049   0.459168  -0.024936  -0.025003  -0.000542
    34  H   -0.000381   0.375260  -0.024936   0.479511  -0.029306  -0.002733
    35  H   -0.000120   0.380517  -0.025003  -0.029306   0.479052   0.000116
    36  H    0.008163   0.003611  -0.000542  -0.002733   0.000116   0.434493
 Mulliken charges:
               1
     1  C   -0.666112
     2  C   -0.443884
     3  C   -0.147563
     4  C   -0.242819
     5  C   -0.201563
     6  O   -0.600491
     7  N   -0.546260
     8  C   -0.348344
     9  C   -0.210250
    10  C   -0.263534
    11  C    0.331118
    12  C   -0.141123
    13  C    0.309398
    14  C   -0.270123
    15  H    0.234613
    16  H    0.238453
    17  H    0.238285
    18  F   -0.252804
    19  F   -0.246810
    20  H    0.228456
    21  H    0.231224
    22  H    0.223494
    23  H    0.219254
    24  H    0.232435
    25  H    0.229702
    26  H    0.218355
    27  H    0.217308
    28  H    0.405504
    29  H    0.226527
    30  H    0.252479
    31  H    0.229904
    32  C   -0.709633
    33  H    0.237596
    34  H    0.230263
    35  H    0.225831
    36  H    0.331115
 Sum of Mulliken charges =   0.00000
 Mulliken charges with hydrogens summed into heavy atoms:
               1
     1  C    0.017061
     2  C    0.007805
     3  C    0.082341
     4  C   -0.013117
     5  C    0.234100
     6  O   -0.194986
     7  N   -0.215144
     8  C    0.130662
     9  C    0.024363
    10  C   -0.025081
    11  C    0.331118
    12  C   -0.141123
    13  C    0.309398
    14  C   -0.031838
    18  F   -0.252804
    19  F   -0.246810
    32  C   -0.015944
 Electronic spatial extent (au):  <R**2>=           5440.8282
 Charge=              0.0000 electrons
 Dipole moment (field-independent basis, Debye):
    X=              2.7953    Y=             -1.9229    Z=              1.2863  Tot=              3.6285
 Quadrupole moment (field-independent basis, Debye-Ang):
   XX=            -97.5634   YY=           -107.7934   ZZ=            -97.6261
   XY=             10.1023   XZ=              2.4252   YZ=              3.2805
 Traceless Quadrupole moment (field-independent basis, Debye-Ang):
   XX=              3.4309   YY=             -6.7991   ZZ=              3.3683
   XY=             10.1023   XZ=              2.4252   YZ=              3.2805
 Octapole moment (field-independent basis, Debye-Ang**2):
  XXX=            134.8752  YYY=             -5.9403  ZZZ=              6.0401  XYY=             26.3990
  XXY=            -18.8616  XXZ=             31.7624  XZZ=            -10.1612  YZZ=              8.1992
  YYZ=              8.9872  XYZ=            -11.0515
 Hexadecapole moment (field-independent basis, Debye-Ang**3):
 XXXX=          -4876.5493 YYYY=          -1405.0672 ZZZZ=           -711.4960 XXXY=            217.2391
 XXXZ=             83.0614 YYYX=             64.1331 YYYZ=              4.4221 ZZZX=            -25.8328
 ZZZY=            -13.1012 XXYY=          -1144.6057 XXZZ=           -900.6150 YYZZ=           -315.5973
 XXYZ=            -17.5214 YYXZ=            -35.6068 ZZXY=            -71.2797
 N-N= 1.249784256201D+03 E-N=-4.457554865336D+03  KE= 8.332750045234D+02
 1\1\GINC-SWANNODE-0-13\SP\RmPW1PW91\6-311G(d)\C13H19F2N1O1\KE291\06-Ma
 r-2019\0\\# mPW1PW91/6-311g(d) geom=checkpoint nmr=giao scrf=(solvent=
 chloroform)\\AT3_2ginp011\\0,1\C,0,-0.9988938164,-1.8632519746,0.36385
 97014\C,0,-2.4406120721,-1.3411785346,0.3666091196\C,0,-3.0916364374,-
 1.2258679017,1.7645218049\C,0,-2.4180414047,-0.1700038186,2.6792413037
 \C,0,-2.8441866459,-0.3935747199,4.1402049531\O,0,-2.1728093782,0.4657
 07162,5.0643641923\N,0,-4.5467607872,-0.9753663264,1.7079151447\C,0,-5
 .3553581048,-2.1485749583,1.3522593301\C,0,-9.5807345337,-1.1566041127
 ,1.3258476377\C,0,-8.7469883391,-0.6824825267,0.3110068095\C,0,-7.4023
 466467,-1.0234461441,0.3559070366\C,0,-6.8295218721,-1.8133305482,1.35
 429309\C,0,-7.710251735,-2.2518802559,2.3441862599\C,0,-9.0673825137,-
 1.948004693,2.3534662761\H,0,-10.6363323118,-0.9063803694,1.3155097933
 \H,0,-9.1184157035,-0.0635893091,-0.4974697652\H,0,-9.6937970138,-2.32
 76147375,3.1523579924\F,0,-6.5798102781,-0.5600321527,-0.6203023877\F,
 0,-7.2192896475,-3.0230622713,3.3419072174\H,0,-0.6356153218,-1.995076
 0552,-0.660423183\H,0,-0.31017676,-1.1791913071,0.8690809565\H,0,-0.93
 02263183,-2.834688573,0.866891559\H,0,-2.4818390425,-0.3650484289,-0.1
 345012676\H,0,-3.0558078247,-2.0166272082,-0.2401762153\H,0,-1.3345775
 144,-0.3411092078,2.6419004108\H,0,-2.5819102039,-1.4141970095,4.44164
 39525\H,0,-3.9343047311,-0.2949932119,4.2243493739\H,0,-2.5870467055,1
 .3359210536,5.0071041408\H,0,-5.1006625563,-2.5785440197,0.3693945952\
 H,0,-5.1718756989,-2.9265397938,2.0973865077\H,0,-2.9711112937,-2.2004
 771893,2.2608797247\C,0,-2.684177513,1.2766561935,2.2379896877\H,0,-2.
 3523646786,1.4624367292,1.2118445653\H,0,-3.7510356769,1.5189985541,2.
 2998389978\H,0,-2.1409486967,1.9771930314,2.8796959546\H,0,-4.73021022
 22,-0.2443923645,1.0234837297\\Version=EM64L-G09RevD.01\State=1-A\HF=-
 836.4609553\RMSD=6.812e-09\Dipole=-1.0051925,0.237292,-0.9854855\Quadr
 upole=5.7546999,1.9737519,-7.7284518,-2.3222652,-5.5688276,0.0420354\P
 G=C01 [X(C13H19F2N1O1)]\\@


 Happiness is a conscious choice, not an automatic response.
 -- Mildred Barthel
 Job cpu time:       0 days  0 hours 25 minutes  4.7 seconds.
 File lengths (MBytes):  RWF=    185 Int=      0 D2E=      0 Chk=     15 Scr=      1
 Normal termination of Gaussian 09 at Wed Mar  6 12:23:20 2019.
