 Entering Gaussian System, Link 0=/usr/local/shared/gaussian/em64t/09-D01/g09/g09
 Initial command:
 /usr/local/shared/gaussian/em64t/09-D01/g09/l1.exe "/scratch/ke291/AT3_1ginp006/Gau-32454.inp" -scrdir="/scratch/ke291/AT3_1ginp006/"
 Entering Link 1 = /usr/local/shared/gaussian/em64t/09-D01/g09/l1.exe PID=     32457.
  
 Copyright (c) 1988,1990,1992,1993,1995,1998,2003,2009,2013,
            Gaussian, Inc.  All Rights Reserved.
  
 This is part of the Gaussian(R) 09 program.  It is based on
 the Gaussian(R) 03 system (copyright 2003, Gaussian, Inc.),
 the Gaussian(R) 98 system (copyright 1998, Gaussian, Inc.),
 the Gaussian(R) 94 system (copyright 1995, Gaussian, Inc.),
 the Gaussian 92(TM) system (copyright 1992, Gaussian, Inc.),
 the Gaussian 90(TM) system (copyright 1990, Gaussian, Inc.),
 the Gaussian 88(TM) system (copyright 1988, Gaussian, Inc.),
 the Gaussian 86(TM) system (copyright 1986, Carnegie Mellon
 University), and the Gaussian 82(TM) system (copyright 1983,
 Carnegie Mellon University). Gaussian is a federally registered
 trademark of Gaussian, Inc.
  
 This software contains proprietary and confidential information,
 including trade secrets, belonging to Gaussian, Inc.
  
 This software is provided under written license and may be
 used, copied, transmitted, or stored only in accord with that
 written license.
  
 The following legend is applicable only to US Government
 contracts under FAR:
  
                    RESTRICTED RIGHTS LEGEND
  
 Use, reproduction and disclosure by the US Government is
 subject to restrictions as set forth in subparagraphs (a)
 and (c) of the Commercial Computer Software - Restricted
 Rights clause in FAR 52.227-19.
  
 Gaussian, Inc.
 340 Quinnipiac St., Bldg. 40, Wallingford CT 06492
  
  
 ---------------------------------------------------------------
 Warning -- This program may not be used in any manner that
 competes with the business of Gaussian, Inc. or will provide
 assistance to any competitor of Gaussian, Inc.  The licensee
 of this program is prohibited from giving any competitor of
 Gaussian, Inc. access to this program.  By using this program,
 the user acknowledges that Gaussian, Inc. is engaged in the
 business of creating and licensing software in the field of
 computational chemistry and represents and warrants to the
 licensee that it is not a competitor of Gaussian, Inc. and that
 it will not use this program in any manner prohibited above.
 ---------------------------------------------------------------
  

 Cite this work as:
 Gaussian 09, Revision D.01,
 M. J. Frisch, G. W. Trucks, H. B. Schlegel, G. E. Scuseria, 
 M. A. Robb, J. R. Cheeseman, G. Scalmani, V. Barone, B. Mennucci, 
 G. A. Petersson, H. Nakatsuji, M. Caricato, X. Li, H. P. Hratchian, 
 A. F. Izmaylov, J. Bloino, G. Zheng, J. L. Sonnenberg, M. Hada, 
 M. Ehara, K. Toyota, R. Fukuda, J. Hasegawa, M. Ishida, T. Nakajima, 
 Y. Honda, O. Kitao, H. Nakai, T. Vreven, J. A. Montgomery, Jr., 
 J. E. Peralta, F. Ogliaro, M. Bearpark, J. J. Heyd, E. Brothers, 
 K. N. Kudin, V. N. Staroverov, T. Keith, R. Kobayashi, J. Normand, 
 K. Raghavachari, A. Rendell, J. C. Burant, S. S. Iyengar, J. Tomasi, 
 M. Cossi, N. Rega, J. M. Millam, M. Klene, J. E. Knox, J. B. Cross, 
 V. Bakken, C. Adamo, J. Jaramillo, R. Gomperts, R. E. Stratmann, 
 O. Yazyev, A. J. Austin, R. Cammi, C. Pomelli, J. W. Ochterski, 
 R. L. Martin, K. Morokuma, V. G. Zakrzewski, G. A. Voth, 
 P. Salvador, J. J. Dannenberg, S. Dapprich, A. D. Daniels, 
 O. Farkas, J. B. Foresman, J. V. Ortiz, J. Cioslowski, 
 and D. J. Fox, Gaussian, Inc., Wallingford CT, 2013.
 
 ******************************************
 Gaussian 09:  EM64L-G09RevD.01 24-Apr-2013
                 6-Mar-2019 
 ******************************************
 %nprocshared=2
 Will use up to    2 processors via shared memory.
 %mem=6000MB
 %chk=AT3_1ginp006.chk
 ----------------------------------------------------------------------
 # mPW1PW91/6-311g(d) geom=checkpoint nmr=giao scrf=(solvent=chloroform
 )
 ----------------------------------------------------------------------
 1/29=2,38=1/1;
 2/12=2,40=1/2;
 3/5=4,6=6,7=1,11=2,14=-4,16=1,25=1,30=1,70=2201,72=7,74=-7/1,2,8,3;
 4//1;
 5/5=2,38=5,53=7/2;
 8/6=1,10=90,11=11/1;
 10/13=100,45=16/2;
 6/7=2,8=2,9=2,10=2,28=1/1;
 99/9=1/99;
 ------------
 AT3_1ginp006
 ------------
 Structure from the checkpoint file:  "AT3_1ginp006.chk"
 Charge =  0 Multiplicity = 1
 Redundant internal coordinates found in file.
 C,0,-1.5474788152,-0.8662107454,2.2879515757
 C,0,-0.1333547583,-0.4127424566,2.6690283301
 C,0,0.1690850276,1.0875958359,2.4393136702
 C,0,-0.7133872541,2.0624757777,3.2644438592
 C,0,-0.2495713187,3.5252826068,3.091651558
 O,0,-0.4494501898,4.0523954292,1.7918626303
 N,0,0.1170601884,1.4894625375,1.0107505148
 C,0,1.1541007541,0.9270908982,0.1267699425
 C,0,5.0560605725,2.6586446464,0.8981073159
 C,0,4.7865387712,1.3573815293,1.322244304
 C,0,3.5269962723,0.8273153068,1.0668932578
 C,0,2.5152486054,1.5225096002,0.4030739386
 C,0,2.8430420556,2.8218950002,0.0066762317
 C,0,4.0815912643,3.4066036157,0.2341873468
 H,0,6.0314608092,3.0943903452,1.0871291037
 H,0,5.5242477926,0.7579536177,1.8428150475
 H,0,4.2662700381,4.4192563374,-0.1047921546
 F,0,3.261692583,-0.4328914245,1.4910525125
 F,0,1.8969124655,3.5377862281,-0.6422592085
 H,0,-1.7683771693,-0.6778195417,1.2310534462
 H,0,-1.6629311586,-1.9420977859,2.4515348139
 H,0,-2.3149680881,-0.358677762,2.8812161753
 H,0,0.0545104277,-0.6491987772,3.7219511423
 H,0,0.6023530254,-1.000279347,2.1081269238
 H,0,-1.7440270885,2.0100501667,2.8846991752
 H,0,0.8117594399,3.5930223931,3.3961796109
 H,0,-0.8156020408,4.1604102151,3.7841265945
 H,0,-0.1110446703,3.3475187223,1.1977879977
 H,0,1.2291578575,-0.1653542846,0.1843968412
 H,0,0.8636004872,1.1788973668,-0.8972132791
 H,0,1.2060068585,1.2565754163,2.7606772234
 C,0,-0.7245598337,1.7078416949,4.7594508847
 H,0,0.2918583138,1.6935863364,5.1712152892
 H,0,-1.2991942882,2.4495063674,5.3237436393
 H,0,-1.1749375859,0.7308462124,4.9507510244
 H,0,-0.7956403503,1.2495409213,0.6287957207
 Recover connectivity data from disk.
                          Input orientation:                          
 ---------------------------------------------------------------------
 Center     Atomic      Atomic             Coordinates (Angstroms)
 Number     Number       Type             X           Y           Z
 ---------------------------------------------------------------------
      1          6           0       -1.547479   -0.866211    2.287952
      2          6           0       -0.133355   -0.412742    2.669028
      3          6           0        0.169085    1.087596    2.439314
      4          6           0       -0.713387    2.062476    3.264444
      5          6           0       -0.249571    3.525283    3.091652
      6          8           0       -0.449450    4.052395    1.791863
      7          7           0        0.117060    1.489463    1.010751
      8          6           0        1.154101    0.927091    0.126770
      9          6           0        5.056061    2.658645    0.898107
     10          6           0        4.786539    1.357382    1.322244
     11          6           0        3.526996    0.827315    1.066893
     12          6           0        2.515249    1.522510    0.403074
     13          6           0        2.843042    2.821895    0.006676
     14          6           0        4.081591    3.406604    0.234187
     15          1           0        6.031461    3.094390    1.087129
     16          1           0        5.524248    0.757954    1.842815
     17          1           0        4.266270    4.419256   -0.104792
     18          9           0        3.261693   -0.432891    1.491053
     19          9           0        1.896912    3.537786   -0.642259
     20          1           0       -1.768377   -0.677820    1.231053
     21          1           0       -1.662931   -1.942098    2.451535
     22          1           0       -2.314968   -0.358678    2.881216
     23          1           0        0.054510   -0.649199    3.721951
     24          1           0        0.602353   -1.000279    2.108127
     25          1           0       -1.744027    2.010050    2.884699
     26          1           0        0.811759    3.593022    3.396180
     27          1           0       -0.815602    4.160410    3.784127
     28          1           0       -0.111045    3.347519    1.197788
     29          1           0        1.229158   -0.165354    0.184397
     30          1           0        0.863600    1.178897   -0.897213
     31          1           0        1.206007    1.256575    2.760677
     32          6           0       -0.724560    1.707842    4.759451
     33          1           0        0.291858    1.693586    5.171215
     34          1           0       -1.299194    2.449506    5.323744
     35          1           0       -1.174938    0.730846    4.950751
     36          1           0       -0.795640    1.249541    0.628796
 ---------------------------------------------------------------------
                    Distance matrix (angstroms):
                    1          2          3          4          5
     1  C    0.000000
     2  C    1.533167   0.000000
     3  C    2.605161   1.547661   0.000000
     4  C    3.197882   2.611065   1.552414   0.000000
     5  C    4.649270   3.962342   2.557955   1.544275   0.000000
     6  O    5.064036   4.561446   3.097066   2.489566   1.416775
     7  N    3.154541   2.535937   1.484923   2.469235   2.934132
     8  C    3.896815   3.148932   2.518705   3.823821   4.184665
     9  C    7.613344   6.284872   5.359668   6.264303   5.806240
    10  C    6.782089   5.399307   4.758309   5.875243   5.761337
    11  C    5.487195   4.183629   3.636874   4.933123   5.063708
    12  C    5.075875   3.986835   3.136862   4.347768   4.345547
    13  C    6.171144   5.139060   4.009434   4.882413   4.424487
    14  C    7.359437   6.187215   5.054511   5.829318   5.190198
    15  H    8.635315   7.266866   6.342167   7.162299   6.607204
    16  H    7.269482   5.836234   5.398356   6.529234   6.523396
    17  H    8.213468   7.099225   5.861686   6.457798   5.604397
    18  F    4.893970   3.593658   3.574255   5.017274   5.527932
    19  F    6.312302   5.540152   4.299408   4.924686   4.306929
    20  H    1.096048   2.193476   2.886234   3.571680   4.840936
    21  H    1.094359   2.173899   3.540547   4.195124   5.683272
    22  H    1.094802   2.192575   2.908179   2.928124   4.404009
    23  H    2.160976   1.095377   2.162115   2.855199   4.232734
    24  H    2.161501   1.095936   2.157922   3.528273   4.708907
    25  H    2.944081   2.917311   2.170089   1.099624   2.138260
    26  H    5.165166   4.179491   2.757859   2.164717   1.106232
    27  H    5.295385   4.756325   3.495757   2.163758   1.096950
    28  H    4.583374   4.037897   2.593667   2.507034   1.907225
    29  H    3.553288   2.844474   2.788958   4.268887   4.925401
    30  H    4.487878   4.030548   3.409267   4.537289   4.759802
    31  H    3.508757   2.142174   1.098652   2.141805   2.715747
    32  C    3.662137   3.035831   2.562488   1.536534   2.512023
    33  H    4.271877   3.298237   2.800997   2.186864   2.823622
    34  H    4.502406   4.074207   3.511493   2.175702   2.690955
    35  H    3.127280   2.756619   2.870712   2.197703   3.481584
    36  H    2.791857   2.713735   2.057886   2.759397   3.397477
                    6          7          8          9         10
     6  O    0.000000
     7  N    2.738557   0.000000
     8  C    3.887343   1.474156   0.000000
     9  C    5.749086   5.076751   4.338033   0.000000
    10  C    5.907556   4.681720   3.848235   1.394926   0.000000
    11  C    5.170962   3.474083   2.554294   2.391714   1.390188
    12  C    4.137450   2.474201   1.511155   2.826939   2.455789
    13  C    3.942274   3.196016   2.541108   2.391391   2.766351
    14  C    4.834639   4.471687   3.837932   1.396361   2.424898
    15  H    6.589130   6.128765   5.422925   1.084901   2.149956
    16  H    6.822097   5.519521   4.698043   2.173545   1.083754
    17  H    5.096067   5.200391   4.683422   2.174702   3.417922
    18  F    5.829311   3.716833   2.855304   3.623387   2.357696
    19  F    3.419823   3.177412   2.821153   3.622960   4.118662
    20  H    4.942571   2.881062   3.512272   7.603670   6.864203
    21  H    6.151557   4.125510   4.644615   8.290043   7.331952
    22  H    4.911661   3.581763   4.612441   8.207863   7.470385
    23  H    5.107270   3.453751   4.076655   6.628079   5.672482
    24  H    5.170671   2.763794   2.818680   5.889600   4.866579
    25  H    2.653563   2.691903   4.144649   7.113959   6.746520
    26  H    2.091771   3.255433   4.232426   5.012736   5.009807
    27  H    2.028509   3.961746   5.264061   6.712736   6.730662
    28  H    0.981985   1.881326   2.933623   5.221430   5.287954
    29  H    4.815712   2.158249   1.096536   4.809318   4.033408
    30  H    4.148762   2.072221   1.093773   4.794742   4.510797
    31  H    3.390538   2.074195   2.654943   4.500875   3.859982
    32  C    3.791991   3.848216   5.059710   7.016379   6.504569
    33  H    4.187307   4.169135   5.174689   6.472126   5.927037
    34  H    3.970580   4.639975   5.945161   7.747210   7.364841
    35  H    4.640862   4.215253   5.360385   7.678910   7.006983
    36  H    3.054270   1.018074   2.038993   6.024990   5.626120
                   11         12         13         14         15
    11  C    0.000000
    12  C    1.395559   0.000000
    13  C    2.360127   1.397491   0.000000
    14  C    2.766533   2.455965   1.388398   0.000000
    15  H    3.378222   3.911840   3.377521   2.151041   0.000000
    16  H    2.143800   3.422203   3.849691   3.418229   2.507441
    17  H    3.849859   3.422740   2.142327   1.083734   2.508355
    18  F    1.355883   2.358913   3.601705   4.122337   4.502942
    19  F    3.595139   2.352956   1.352323   2.357581   4.503540
    20  H    5.507573   4.886353   5.917118   7.204053   8.665319
    21  H    6.043362   5.801455   6.998339   8.156272   9.296853
    22  H    6.231123   5.745524   6.707018   7.880360   9.208979
    23  H    4.613847   4.667601   5.798937   6.695626   7.528657
    24  H    3.602472   3.595948   4.903652   5.919237   6.876334
    25  H    5.699734   4.953543   5.475702   6.550832   8.053897
    26  H    4.521860   4.018405   4.026100   4.552444   5.729366
    27  H    6.111550   5.429973   5.426457   6.095309   7.435890
    28  H    4.427629   3.295398   3.228259   4.302350   6.148715
    29  H    2.654101   2.133245   3.399980   4.571404   5.873923
    30  H    3.327912   2.129967   2.726655   4.074090   5.857773
    31  H    2.905195   2.709821   3.565758   4.390303   5.428014
    32  C    5.699652   5.432194   6.046302   6.816369   7.813596
    33  H    5.297358   5.263830   5.869760   6.455288   7.182273
    34  H    6.636595   6.294624   6.750407   7.468097   8.491365
    35  H    6.099331   5.909786   6.705261   7.552268   8.511527
    36  H    4.365248   3.329782   4.012398   5.347525   7.086808
                   16         17         18         19         20
    16  H    0.000000
    17  H    4.333684   0.000000
    18  F    2.580892   5.205692   0.000000
    19  F    5.201983   2.584515   4.709557   0.000000
    20  H    7.457753   8.011344   5.042736   5.891942   0.000000
    21  H    7.701711   9.064053   5.239480   7.230019   1.760424
    22  H    7.986141   8.663579   5.747800   6.733294   1.767385
    23  H    5.952248   7.620507   3.912763   6.322311   3.086796
    24  H    5.233242   6.905988   2.788332   5.462101   2.548254
    25  H    7.448563   7.131971   5.741728   5.294323   3.155912
    26  H    5.714727   4.987295   5.083273   4.182056   5.439206
    27  H    7.452456   6.404382   6.555985   5.228603   5.552876
    28  H    6.235257   4.691079   5.074728   2.730177   4.353298
    29  H    4.695812   5.506935   2.431074   3.852597   3.216104
    30  H    5.422784   4.765083   3.748669   2.587874   3.860599
    31  H    4.442781   5.251540   2.948235   4.154666   3.863754
    32  C    6.961081   7.478035   5.581700   6.276885   4.385262
    33  H    6.271488   7.145732   5.185115   6.306644   5.039148
    34  H    7.844589   8.020181   6.618114   6.855118   5.172080
    35  H    7.385058   8.292745   5.745214   6.971150   4.021525
    36  H    6.454184   6.017324   4.476161   3.755195   2.241350
                   21         22         23         24         25
    21  H    0.000000
    22  H    1.765502   0.000000
    23  H    2.497028   2.530942   0.000000
    24  H    2.477189   3.085463   1.740063   0.000000
    25  H    3.976642   2.436567   3.317730   3.894952   0.000000
    26  H    6.136286   5.065328   4.321573   4.775076   3.049501
    27  H    6.303521   4.846184   4.888077   5.608234   2.508982
    28  H    5.653342   4.628942   4.729964   4.499000   2.702059
    29  H    4.081778   4.457694   3.758749   2.188772   4.567696
    30  H    5.228584   5.171457   5.033214   3.721442   4.668340
    31  H    4.307886   3.875672   2.425277   2.425616   3.047262
    32  C    4.419171   3.213669   2.690538   4.015487   2.155304
    33  H    4.943285   4.031306   2.765021   4.090945   3.077846
    34  H    5.260045   3.857931   3.741688   5.084987   2.517923
    35  H    3.691727   2.601866   2.219463   3.773072   2.495756
    36  H    3.776391   3.157233   3.727677   3.033891   2.562599
                   26         27         28         29         30
    26  H    0.000000
    27  H    1.766561   0.000000
    28  H    2.396824   2.801132   0.000000
    29  H    4.961367   5.987599   3.894019   0.000000
    30  H    4.925841   5.798628   3.168893   1.763668   0.000000
    31  H    2.453218   3.683288   2.923917   2.942727   3.674703
    32  C    2.787955   2.640954   3.968675   5.315731   5.899143
    33  H    2.651208   3.039030   4.322725   5.403938   6.116994
    34  H    3.078840   2.351909   4.386529   6.296264   6.707640
    35  H    3.815195   3.640336   4.697188   5.413038   6.209273
    36  H    3.966617   4.292979   2.279020   2.509826   2.255388
                   31         32         33         34         35
    31  H    0.000000
    32  C    2.815284   0.000000
    33  H    2.614831   1.096749   0.000000
    34  H    3.777357   1.094850   1.768086   0.000000
    35  H    3.277455   1.092683   1.768322   1.763053   0.000000
    36  H    2.924305   4.156610   4.691845   4.871963   4.369463
                   36
    36  H    0.000000
 Stoichiometry    C13H19F2NO
 Framework group  C1[X(C13H19F2NO)]
 Deg. of freedom   102
 Full point group                 C1      NOp   1
 Largest Abelian subgroup         C1      NOp   1
 Largest concise Abelian subgroup C1      NOp   1
                         Standard orientation:                         
 ---------------------------------------------------------------------
 Center     Atomic      Atomic             Coordinates (Angstroms)
 Number     Number       Type             X           Y           Z
 ---------------------------------------------------------------------
      1          6           0       -3.328907   -1.780931   -1.106461
      2          6           0       -2.201680   -1.714335   -0.069386
      3          6           0       -1.538040   -0.327001    0.104219
      4          6           0       -2.493072    0.793529    0.596473
      5          6           0       -1.724689    2.101435    0.885883
      6          8           0       -1.182320    2.727513   -0.263514
      7          7           0       -0.832609    0.147690   -1.113169
      8          6           0        0.364319   -0.609421   -1.522172
      9          6           0        3.700842    0.053170    1.169875
     10          6           0        3.013405   -1.159792    1.214313
     11          6           0        1.945061   -1.345424    0.344369
     12          6           0        1.523128   -0.386983   -0.578099
     13          6           0        2.247311    0.808220   -0.572507
     14          6           0        3.321428    1.053354    0.272378
     15          1           0        4.537249    0.221798    1.839947
     16          1           0        3.285663   -1.949989    1.904230
     17          1           0        3.839013    2.003993    0.218807
     18          9           0        1.269329   -2.519733    0.397314
     19          9           0        1.878930    1.769562   -1.449375
     20          1           0       -2.985429   -1.489615   -2.105700
     21          1           0       -3.716980   -2.801004   -1.186906
     22          1           0       -4.168108   -1.129164   -0.842768
     23          1           0       -2.581183   -2.043699    0.903932
     24          1           0       -1.420787   -2.437208   -0.331563
     25          1           0       -3.211936    1.019131   -0.204471
     26          1           0       -0.941065    1.886842    1.636637
     27          1           0       -2.411999    2.821311    1.347058
     28          1           0       -0.750853    1.991882   -0.750317
     29          1           0        0.186701   -1.687569   -1.614039
     30          1           0        0.644927   -0.241113   -2.513104
     31          1           0       -0.763392   -0.438463    0.875278
     32          6           0       -3.274798    0.376869    1.851955
     33          1           0       -2.596345    0.088687    2.664058
     34          1           0       -3.888319    1.208478    2.213502
     35          1           0       -3.944639   -0.465509    1.663091
     36          1           0       -1.485866    0.162684   -1.893876
 ---------------------------------------------------------------------
 Rotational constants (GHZ):      0.6289271      0.3299608      0.2754601
 Standard basis: 6-311G(d) (5D, 7F)
 There are   380 symmetry adapted cartesian basis functions of A   symmetry.
 There are   363 symmetry adapted basis functions of A   symmetry.
   363 basis functions,   639 primitive gaussians,   380 cartesian basis functions
    65 alpha electrons       65 beta electrons
       nuclear repulsion energy      1310.4473519383 Hartrees.
 NAtoms=   36 NActive=   36 NUniq=   36 SFac= 1.00D+00 NAtFMM=   60 NAOKFM=F Big=F
 Integral buffers will be    131072 words long.
 Raffenetti 2 integral format.
 Two-electron integral symmetry is turned on.
 ------------------------------------------------------------------------------
 Polarizable Continuum Model (PCM)
 =================================
 Model                : PCM (using non-symmetric T matrix).
 Atomic radii         : UFF (Universal Force Field).
 Polarization charges : Total charges.
 Charge compensation  : None.
 Solution method      : On-the-fly selection.
 Cavity type          : Scaled VdW (van der Waals Surface) (Alpha=1.100).
 Cavity algorithm     : GePol (No added spheres)
                        Default sphere list used, NSphG=   36.
                        Lebedev-Laikov grids with approx.  5.0 points / Ang**2.
                        Smoothing algorithm: Karplus/York (Gamma=1.0000).
                        Polarization charges: spherical gaussians, with
                                              point-specific exponents (IZeta= 3).
                        Self-potential: point-specific (ISelfS= 7).
                        Self-field    : sphere-specific E.n sum rule (ISelfD= 2).
 Solvent              : Chloroform, Eps=   4.711300 Eps(inf)=   2.090627
 ------------------------------------------------------------------------------
 One-electron integrals computed using PRISM.
 NBasis=   363 RedAO= T EigKep=  2.29D-04  NBF=   363
 NBsUse=   363 1.00D-06 EigRej= -1.00D+00 NBFU=   363
 ExpMin= 1.03D-01 ExpMax= 1.14D+04 ExpMxC= 1.72D+03 IAcc=1 IRadAn=         1 AccDes= 0.00D+00
 Harris functional with IExCor=  908 and IRadAn=       1 diagonalized for initial guess.
 HarFok:  IExCor=  908 AccDes= 0.00D+00 IRadAn=         1 IDoV= 1 UseB2=F ITyADJ=14
 ICtDFT=  3500011 ScaDFX=  1.000000  1.000000  1.000000  1.000000
 FoFCou: FMM=F IPFlag=           0 FMFlag=      100000 FMFlg1=           0
         NFxFlg=           0 DoJE=T BraDBF=F KetDBF=T FulRan=T
         wScrn=  0.000000 ICntrl=     500 IOpCl=  0 I1Cent=   200000004 NGrid=           0
         NMat0=    1 NMatS0=      1 NMatT0=    0 NMatD0=    1 NMtDS0=    0 NMtDT0=    0
 Petite list used in FoFCou.
 Requested convergence on RMS density matrix=1.00D-08 within 128 cycles.
 Requested convergence on MAX density matrix=1.00D-06.
 Requested convergence on             energy=1.00D-06.
 No special actions if energy rises.
 Inv3:  Mode=1 IEnd=    17802288.
 Iteration    1 A*A^-1 deviation from unit magnitude is 6.88D-15 for   2328.
 Iteration    1 A*A^-1 deviation from orthogonality  is 6.43D-15 for   1711    909.
 Iteration    1 A^-1*A deviation from unit magnitude is 7.11D-15 for   2328.
 Iteration    1 A^-1*A deviation from orthogonality  is 4.63D-12 for   2137   2132.
 Error on total polarization charges =  0.00931
 SCF Done:  E(RmPW1PW91) =  -836.469418771     A.U. after   12 cycles
            NFock= 12  Conv=0.70D-08     -V/T= 2.0039
 DoSCS=F DFT=T ScalE2(SS,OS)=  1.000000  1.000000
 Range of M.O.s used for correlation:     1   363
 NBasis=   363 NAE=    65 NBE=    65 NFC=     0 NFV=     0
 NROrb=    363 NOA=    65 NOB=    65 NVA=   298 NVB=   298

 **** Warning!!: The largest alpha MO coefficient is  0.14689851D+02

 NEqPCM:  Using equilibrium solvation (IEInf=0, Eps=   4.7113, EpsInf=   2.0906)
          Differentiating once with respect to magnetic field using GIAOs.
          Electric field/nuclear overlap derivatives assumed to be zero.
 FoFJK:  IHMeth= 1 ICntrl=    6127 DoSepK=F KAlg= 0 I1Cent=   0 FoldK=F
 IRaf=         1 NMat=   1 IRICut=       1 DoRegI=T DoRafI=F ISym2E= 0.
          There are     3 degrees of freedom in the 1st order CPHF.  IDoFFX=0 NUNeed=     3.
      3 vectors produced by pass  0 Test12= 6.46D-13 3.33D-08 XBig12= 3.70D+01 1.76D+00.
 AX will form     3 AO Fock derivatives at one time.
      3 vectors produced by pass  1 Test12= 6.46D-13 3.33D-08 XBig12= 1.11D-01 1.53D-01.
      3 vectors produced by pass  2 Test12= 6.46D-13 3.33D-08 XBig12= 5.33D-04 6.66D-03.
      3 vectors produced by pass  3 Test12= 6.46D-13 3.33D-08 XBig12= 1.20D-06 2.10D-04.
      3 vectors produced by pass  4 Test12= 6.46D-13 3.33D-08 XBig12= 3.22D-09 1.63D-05.
      3 vectors produced by pass  5 Test12= 6.46D-13 3.33D-08 XBig12= 1.31D-11 8.39D-07.
      1 vectors produced by pass  6 Test12= 6.46D-13 3.33D-08 XBig12= 3.64D-14 5.00D-08.
 InvSVY:  IOpt=1 It=  1 EMax= 8.88D-16
 Solved reduced A of dimension    19 with     3 vectors.
 Calculating GIAO nuclear magnetic shielding tensors.
 SCF GIAO Magnetic shielding tensor (ppm):
      1  C    Isotropic =   182.1029   Anisotropy =    12.7580
   XX=   186.1290   YX=    -0.3586   ZX=     7.3873
   XY=    -0.7696   YY=   180.0094   ZY=     1.0688
   XZ=     6.2859   YZ=     0.2851   ZZ=   180.1702
   Eigenvalues:   175.5212   180.1792   190.6082
      2  C    Isotropic =   167.2119   Anisotropy =    21.5374
   XX=   165.4827   YX=    10.1777   ZX=    11.4717
   XY=     7.7672   YY=   168.9416   ZY=    -0.7518
   XZ=     9.6276   YZ=     4.0480   ZZ=   167.2113
   Eigenvalues:   153.4839   166.5816   181.5701
      3  C    Isotropic =   124.4248   Anisotropy =    29.1267
   XX=   119.3299   YX=    -4.5425   ZX=   -16.3485
   XY=    -2.2842   YY=   126.4037   ZY=     7.0962
   XZ=   -15.8651   YZ=     8.1163   ZZ=   127.5407
   Eigenvalues:   106.5957   122.8361   143.8426
      4  C    Isotropic =   148.9373   Anisotropy =    13.4062
   XX=   140.5446   YX=    -1.1965   ZX=     2.0948
   XY=     9.1562   YY=   152.0151   ZY=    -2.9338
   XZ=   -10.1612   YZ=    -2.5005   ZZ=   154.2522
   Eigenvalues:   138.6669   150.2702   157.8748
      5  C    Isotropic =   114.3161   Anisotropy =    54.6180
   XX=   104.7884   YX=    23.5530   ZX=   -22.3225
   XY=    19.9141   YY=   114.8537   ZY=   -14.5998
   XZ=   -14.8927   YZ=   -12.9120   ZZ=   123.3061
   Eigenvalues:    86.1410   106.0792   150.7281
      6  O    Isotropic =   288.3942   Anisotropy =    75.1508
   XX=   269.7432   YX=     8.8957   ZX=    -7.5396
   XY=    -3.5315   YY=   328.2773   ZY=    29.1711
   XZ=    -0.3087   YZ=    24.7674   ZZ=   267.1621
   Eigenvalues:   255.4668   271.2210   338.4948
      7  N    Isotropic =   205.2568   Anisotropy =    55.7719
   XX=   227.1392   YX=   -24.9054   ZX=     7.9362
   XY=   -30.1960   YY=   187.0979   ZY=    -1.7795
   XZ=     3.1935   YZ=    -8.0196   ZZ=   201.5333
   Eigenvalues:   172.9402   200.3922   242.4381
      8  C    Isotropic =   149.9616   Anisotropy =    47.8895
   XX=   170.7802   YX=   -16.4109   ZX=    -7.5338
   XY=   -16.6353   YY=   136.4888   ZY=    12.8299
   XZ=    -9.5939   YZ=    13.8533   ZZ=   142.6158
   Eigenvalues:   124.2861   143.7107   181.8879
      9  C    Isotropic =    53.1979   Anisotropy =   189.7409
   XX=    40.0584   YX=   -45.3864   ZX=  -103.1521
   XY=   -44.1795   YY=    50.9877   ZY=    30.6452
   XZ=  -102.7045   YZ=    30.3464   ZZ=    68.5477
   Eigenvalues:   -51.7116    31.6136   179.6919
     10  C    Isotropic =    73.1605   Anisotropy =   145.4176
   XX=    99.4769   YX=   -16.6368   ZX=   -56.0891
   XY=   -11.5890   YY=    37.9228   ZY=    63.2994
   XZ=   -59.3352   YZ=    59.0539   ZZ=    82.0817
   Eigenvalues:   -10.3921    59.7679   170.1055
     11  C    Isotropic =    17.7936   Anisotropy =    98.8957
   XX=    30.7903   YX=   -57.9019   ZX=   -16.5161
   XY=   -54.9297   YY=   -32.9901   ZY=    16.5565
   XZ=   -18.9092   YZ=    16.6011   ZZ=    55.5808
   Eigenvalues:   -66.1529    35.8098    83.7241
     12  C    Isotropic =    67.5101   Anisotropy =   138.4879
   XX=    73.3418   YX=   -34.6521   ZX=   -62.2722
   XY=   -35.2775   YY=    50.4197   ZY=    33.8601
   XZ=   -59.4518   YZ=    37.6578   ZZ=    78.7689
   Eigenvalues:    15.1122    27.5828   159.8354
     13  C    Isotropic =    17.1733   Anisotropy =    99.8873
   XX=    47.1441   YX=    11.1283   ZX=   -41.7821
   XY=     4.5478   YY=   -13.1047   ZY=    57.6563
   XZ=   -34.4324   YZ=    59.3534   ZZ=    17.4805
   Eigenvalues:   -66.3036    34.0586    83.7649
     14  C    Isotropic =    71.6034   Anisotropy =   147.8054
   XX=    88.4057   YX=   -52.2082   ZX=   -46.5790
   XY=   -57.8011   YY=    17.2695   ZY=    31.5385
   XZ=   -44.2297   YZ=    36.1231   ZZ=   109.1349
   Eigenvalues:   -13.3161    57.9859   170.1403
     15  H    Isotropic =    24.5691   Anisotropy =     3.0243
   XX=    24.5032   YX=     1.2262   ZX=     2.0943
   XY=     1.2274   YY=    25.7302   ZY=    -1.6012
   XZ=     2.0316   YZ=    -1.5813   ZZ=    23.4740
   Eigenvalues:    21.0076    26.1145    26.5853
     16  H    Isotropic =    25.1399   Anisotropy =     5.0194
   XX=    26.2337   YX=     1.1443   ZX=     3.2012
   XY=     1.2386   YY=    25.1301   ZY=    -0.9312
   XZ=     2.9804   YZ=    -0.9029   ZZ=    24.0559
   Eigenvalues:    21.3217    25.6119    28.4862
     17  H    Isotropic =    25.0304   Anisotropy =     5.0906
   XX=    26.2205   YX=     1.4094   ZX=     3.0123
   XY=     1.0807   YY=    24.5860   ZY=    -1.1904
   XZ=     2.9436   YZ=    -0.9731   ZZ=    24.2847
   Eigenvalues:    21.3247    25.3424    28.4241
     18  F    Isotropic =   296.8447   Anisotropy =   119.4688
   XX=   298.3791   YX=   -13.0652   ZX=   -70.7398
   XY=    -0.3349   YY=   304.3376   ZY=    38.0051
   XZ=   -67.8470   YZ=    38.3595   ZZ=   287.8174
   Eigenvalues:   216.8130   297.2306   376.4906
     19  F    Isotropic =   294.8041   Anisotropy =   136.8444
   XX=   272.2923   YX=   -36.9663   ZX=   -75.0431
   XY=   -53.9093   YY=   274.8945   ZY=     2.5624
   XZ=   -58.8962   YZ=     2.9890   ZZ=   337.2256
   Eigenvalues:   208.3668   290.0119   386.0337
     20  H    Isotropic =    31.3199   Anisotropy =     7.5793
   XX=    30.0881   YX=     2.1114   ZX=     1.2741
   XY=     2.3578   YY=    27.6397   ZY=    -0.0938
   XZ=     0.6011   YZ=    -0.3920   ZZ=    36.2318
   Eigenvalues:    26.2682    31.3187    36.3727
     21  H    Isotropic =    31.1951   Anisotropy =    11.7880
   XX=    30.6361   YX=     5.0075   ZX=     2.3970
   XY=     4.5653   YY=    35.1627   ZY=     1.9337
   XZ=     2.5077   YZ=     2.3033   ZZ=    27.7864
   Eigenvalues:    26.3017    28.2298    39.0537
     22  H    Isotropic =    31.3284   Anisotropy =     8.5331
   XX=    36.3399   YX=    -2.2415   ZX=     1.0161
   XY=    -2.1202   YY=    29.6537   ZY=     2.5168
   XZ=     1.3069   YZ=     1.8701   ZZ=    27.9916
   Eigenvalues:    25.9996    30.9685    37.0171
     23  H    Isotropic =    30.6756   Anisotropy =     7.0697
   XX=    28.0384   YX=     1.5951   ZX=    -0.9677
   XY=     1.7011   YY=    30.8654   ZY=    -2.5012
   XZ=    -1.8087   YZ=    -2.6459   ZZ=    33.1230
   Eigenvalues:    27.2717    29.3663    35.3887
     24  H    Isotropic =    29.9203   Anisotropy =     8.0194
   XX=    33.5296   YX=    -1.6687   ZX=     0.9477
   XY=    -2.8385   YY=    32.2991   ZY=     0.7103
   XZ=     0.6126   YZ=    -0.0698   ZZ=    23.9322
   Eigenvalues:    23.8377    30.6566    35.2666
     25  H    Isotropic =    30.4670   Anisotropy =     4.5526
   XX=    32.0066   YX=    -1.7544   ZX=     2.1661
   XY=    -1.7702   YY=    29.7327   ZY=     0.0258
   XZ=     0.8036   YZ=    -0.5286   ZZ=    29.6617
   Eigenvalues:    28.4555    29.4435    33.5021
     26  H    Isotropic =    28.8646   Anisotropy =     3.1783
   XX=    28.5022   YX=     1.8886   ZX=    -0.7038
   XY=     1.0573   YY=    27.1734   ZY=     0.1028
   XZ=     0.7923   YZ=     0.7152   ZZ=    30.9181
   Eigenvalues:    26.2002    29.4101    30.9834
     27  H    Isotropic =    28.7021   Anisotropy =     6.7582
   XX=    26.6225   YX=    -1.5180   ZX=    -3.4405
   XY=    -0.0605   YY=    31.3982   ZY=     1.0091
   XZ=    -4.8174   YZ=     2.1695   ZZ=    28.0856
   Eigenvalues:    23.1389    29.7598    33.2075
     28  H    Isotropic =    27.5377   Anisotropy =    23.4939
   XX=    22.7927   YX=    -6.0018   ZX=    -7.4258
   XY=    -5.1490   YY=    37.1271   ZY=     5.9566
   XZ=    -8.9165   YZ=     7.2897   ZZ=    22.6933
   Eigenvalues:    14.5391    24.8737    43.2003
     29  H    Isotropic =    28.0468   Anisotropy =     6.2585
   XX=    28.1249   YX=    -2.3079   ZX=     0.1601
   XY=    -0.3670   YY=    31.1301   ZY=     1.4963
   XZ=     1.1152   YZ=     3.2645   ZZ=    24.8855
   Eigenvalues:    23.8256    28.0958    32.2191
     30  H    Isotropic =    28.3991   Anisotropy =     8.0252
   XX=    28.2111   YX=     0.9449   ZX=    -3.2751
   XY=     0.4014   YY=    24.2761   ZY=     0.7276
   XZ=    -1.4494   YZ=    -1.2438   ZZ=    32.7100
   Eigenvalues:    24.1617    27.2863    33.7492
     31  H    Isotropic =    29.7119   Anisotropy =     5.9424
   XX=    33.6377   YX=     1.0401   ZX=     0.4489
   XY=    -1.6938   YY=    26.8588   ZY=     0.1080
   XZ=    -1.1081   YZ=    -0.5821   ZZ=    28.6392
   Eigenvalues:    26.8079    28.6543    33.6735
     32  C    Isotropic =   172.6508   Anisotropy =    27.0859
   XX=   168.9753   YX=    -0.4047   ZX=   -12.3237
   XY=     1.0574   YY=   169.0199   ZY=    -1.2921
   XZ=   -17.5208   YZ=    -4.8775   ZZ=   179.9571
   Eigenvalues:   158.3510   168.8933   190.7080
     33  H    Isotropic =    31.8700   Anisotropy =     8.1120
   XX=    30.3043   YX=    -0.5031   ZX=     0.4637
   XY=    -1.1447   YY=    28.4942   ZY=    -1.6970
   XZ=     0.6103   YZ=    -2.0193   ZZ=    36.8116
   Eigenvalues:    27.8939    30.4382    37.2780
     34  H    Isotropic =    31.5679   Anisotropy =    11.1742
   XX=    32.7764   YX=    -3.7109   ZX=    -4.3898
   XY=    -3.2346   YY=    31.2456   ZY=     2.0343
   XZ=    -5.3239   YZ=     2.8764   ZZ=    30.6816
   Eigenvalues:    26.7333    28.9529    39.0173
     35  H    Isotropic =    31.1540   Anisotropy =     8.1500
   XX=    32.5339   YX=     3.9546   ZX=    -2.7830
   XY=     3.9094   YY=    31.4926   ZY=     1.4328
   XZ=    -3.9111   YZ=     0.3198   ZZ=    29.4356
   Eigenvalues:    25.6487    31.2260    36.5874
     36  H    Isotropic =    30.9424   Anisotropy =    10.6178
   XX=    33.7558   YX=    -0.5798   ZX=     4.3801
   XY=    -0.8564   YY=    25.0023   ZY=    -2.5872
   XZ=     3.3076   YZ=    -1.1339   ZZ=    34.0691
   Eigenvalues:    24.6351    30.1711    38.0209
 End of Minotr F.D. properties file   721 does not exist.
 End of Minotr F.D. properties file   722 does not exist.
 End of Minotr F.D. properties file   788 does not exist.

 **********************************************************************

            Population analysis using the SCF density.

 **********************************************************************

 Orbital symmetries:
       Occupied  (A) (A) (A) (A) (A) (A) (A) (A) (A) (A) (A) (A)
                 (A) (A) (A) (A) (A) (A) (A) (A) (A) (A) (A) (A)
                 (A) (A) (A) (A) (A) (A) (A) (A) (A) (A) (A) (A)
                 (A) (A) (A) (A) (A) (A) (A) (A) (A) (A) (A) (A)
                 (A) (A) (A) (A) (A) (A) (A) (A) (A) (A) (A) (A)
                 (A) (A) (A) (A) (A)
       Virtual   (A) (A) (A) (A) (A) (A) (A) (A) (A) (A) (A) (A)
                 (A) (A) (A) (A) (A) (A) (A) (A) (A) (A) (A) (A)
                 (A) (A) (A) (A) (A) (A) (A) (A) (A) (A) (A) (A)
                 (A) (A) (A) (A) (A) (A) (A) (A) (A) (A) (A) (A)
                 (A) (A) (A) (A) (A) (A) (A) (A) (A) (A) (A) (A)
                 (A) (A) (A) (A) (A) (A) (A) (A) (A) (A) (A) (A)
                 (A) (A) (A) (A) (A) (A) (A) (A) (A) (A) (A) (A)
                 (A) (A) (A) (A) (A) (A) (A) (A) (A) (A) (A) (A)
                 (A) (A) (A) (A) (A) (A) (A) (A) (A) (A) (A) (A)
                 (A) (A) (A) (A) (A) (A) (A) (A) (A) (A) (A) (A)
                 (A) (A) (A) (A) (A) (A) (A) (A) (A) (A) (A) (A)
                 (A) (A) (A) (A) (A) (A) (A) (A) (A) (A) (A) (A)
                 (A) (A) (A) (A) (A) (A) (A) (A) (A) (A) (A) (A)
                 (A) (A) (A) (A) (A) (A) (A) (A) (A) (A) (A) (A)
                 (A) (A) (A) (A) (A) (A) (A) (A) (A) (A) (A) (A)
                 (A) (A) (A) (A) (A) (A) (A) (A) (A) (A) (A) (A)
                 (A) (A) (A) (A) (A) (A) (A) (A) (A) (A) (A) (A)
                 (A) (A) (A) (A) (A) (A) (A) (A) (A) (A) (A) (A)
                 (A) (A) (A) (A) (A) (A) (A) (A) (A) (A) (A) (A)
                 (A) (A) (A) (A) (A) (A) (A) (A) (A) (A) (A) (A)
                 (A) (A) (A) (A) (A) (A) (A) (A) (A) (A) (A) (A)
                 (A) (A) (A) (A) (A) (A) (A) (A) (A) (A) (A) (A)
                 (A) (A) (A) (A) (A) (A) (A) (A) (A) (A) (A) (A)
                 (A) (A) (A) (A) (A) (A) (A) (A) (A) (A) (A) (A)
                 (A) (A) (A) (A) (A) (A) (A) (A) (A) (A)
 The electronic state is 1-A.
 Alpha  occ. eigenvalues --  -24.80115 -24.79916 -19.17837 -14.39630 -10.33955
 Alpha  occ. eigenvalues --  -10.33841 -10.27739 -10.26729 -10.26713 -10.26301
 Alpha  occ. eigenvalues --  -10.26280 -10.25450 -10.25387 -10.23680 -10.22907
 Alpha  occ. eigenvalues --  -10.22264 -10.22151  -1.26990  -1.26843  -1.02596
 Alpha  occ. eigenvalues --   -0.94858  -0.90754  -0.83294  -0.80510  -0.78875
 Alpha  occ. eigenvalues --   -0.78115  -0.72433  -0.68763  -0.68249  -0.65922
 Alpha  occ. eigenvalues --   -0.64317  -0.61999  -0.58783  -0.58049  -0.55641
 Alpha  occ. eigenvalues --   -0.52404  -0.51836  -0.51585  -0.50970  -0.49773
 Alpha  occ. eigenvalues --   -0.49062  -0.48625  -0.46788  -0.46550  -0.45201
 Alpha  occ. eigenvalues --   -0.44179  -0.43674  -0.43052  -0.41783  -0.41751
 Alpha  occ. eigenvalues --   -0.41134  -0.39820  -0.39472  -0.38260  -0.38133
 Alpha  occ. eigenvalues --   -0.36988  -0.36690  -0.35969  -0.34929  -0.33418
 Alpha  occ. eigenvalues --   -0.32719  -0.27819  -0.27068  -0.26557  -0.24959
 Alpha virt. eigenvalues --   -0.02517  -0.00987   0.04764   0.05721   0.06190
 Alpha virt. eigenvalues --    0.07334   0.08303   0.10160   0.10244   0.10777
 Alpha virt. eigenvalues --    0.11329   0.11394   0.12492   0.12988   0.13190
 Alpha virt. eigenvalues --    0.14055   0.14273   0.14858   0.15838   0.16380
 Alpha virt. eigenvalues --    0.17337   0.18107   0.18317   0.19335   0.20769
 Alpha virt. eigenvalues --    0.21082   0.21301   0.24059   0.24216   0.24420
 Alpha virt. eigenvalues --    0.24615   0.25540   0.26264   0.27611   0.29111
 Alpha virt. eigenvalues --    0.32173   0.32821   0.33439   0.34813   0.35157
 Alpha virt. eigenvalues --    0.36540   0.37240   0.37564   0.38327   0.38939
 Alpha virt. eigenvalues --    0.39835   0.40837   0.41000   0.41599   0.42096
 Alpha virt. eigenvalues --    0.42724   0.43103   0.44996   0.45497   0.46012
 Alpha virt. eigenvalues --    0.47485   0.48044   0.49799   0.50683   0.51686
 Alpha virt. eigenvalues --    0.52673   0.53105   0.53973   0.54816   0.55917
 Alpha virt. eigenvalues --    0.56475   0.57427   0.57852   0.58903   0.59166
 Alpha virt. eigenvalues --    0.60028   0.60911   0.61132   0.61422   0.61537
 Alpha virt. eigenvalues --    0.61972   0.62807   0.63159   0.63901   0.64086
 Alpha virt. eigenvalues --    0.64868   0.65405   0.66026   0.66688   0.66945
 Alpha virt. eigenvalues --    0.67701   0.68858   0.70267   0.71233   0.71615
 Alpha virt. eigenvalues --    0.72362   0.73952   0.74429   0.76242   0.77605
 Alpha virt. eigenvalues --    0.79471   0.79580   0.82081   0.83440   0.85401
 Alpha virt. eigenvalues --    0.88451   0.89900   0.91662   0.93511   0.93864
 Alpha virt. eigenvalues --    0.95258   0.96232   0.97525   0.99369   1.00146
 Alpha virt. eigenvalues --    1.02910   1.03818   1.03877   1.07259   1.07839
 Alpha virt. eigenvalues --    1.09551   1.11294   1.13115   1.14036   1.15472
 Alpha virt. eigenvalues --    1.17909   1.18182   1.19133   1.19697   1.23882
 Alpha virt. eigenvalues --    1.25300   1.28139   1.28516   1.29572   1.31114
 Alpha virt. eigenvalues --    1.33614   1.34402   1.38294   1.39365   1.41260
 Alpha virt. eigenvalues --    1.44099   1.46494   1.47768   1.48794   1.49707
 Alpha virt. eigenvalues --    1.51858   1.52981   1.53837   1.54354   1.55017
 Alpha virt. eigenvalues --    1.56475   1.57091   1.58577   1.59303   1.60555
 Alpha virt. eigenvalues --    1.61663   1.62978   1.65119   1.65897   1.67148
 Alpha virt. eigenvalues --    1.67584   1.68745   1.69714   1.71290   1.73443
 Alpha virt. eigenvalues --    1.74437   1.76538   1.78837   1.79272   1.82245
 Alpha virt. eigenvalues --    1.83760   1.84972   1.85795   1.87815   1.89833
 Alpha virt. eigenvalues --    1.90385   1.91053   1.91380   1.95251   1.96048
 Alpha virt. eigenvalues --    1.97383   1.98114   1.98668   1.99273   2.03956
 Alpha virt. eigenvalues --    2.10027   2.12382   2.14029   2.16804   2.19324
 Alpha virt. eigenvalues --    2.24432   2.25314   2.26923   2.27082   2.27859
 Alpha virt. eigenvalues --    2.29900   2.31365   2.35446   2.38458   2.39908
 Alpha virt. eigenvalues --    2.41583   2.42699   2.43655   2.46040   2.47845
 Alpha virt. eigenvalues --    2.48578   2.50935   2.52414   2.52999   2.54736
 Alpha virt. eigenvalues --    2.56106   2.57148   2.57554   2.61830   2.65068
 Alpha virt. eigenvalues --    2.66874   2.68613   2.69307   2.70863   2.72842
 Alpha virt. eigenvalues --    2.76176   2.81843   2.84513   2.85717   2.91541
 Alpha virt. eigenvalues --    2.92343   2.93757   2.97395   2.99290   3.04903
 Alpha virt. eigenvalues --    3.05780   3.06896   3.08552   3.09582   3.12323
 Alpha virt. eigenvalues --    3.13585   3.15943   3.16229   3.21244   3.21793
 Alpha virt. eigenvalues --    3.23422   3.25468   3.28034   3.28801   3.29457
 Alpha virt. eigenvalues --    3.31405   3.32401   3.35660   3.37963   3.38766
 Alpha virt. eigenvalues --    3.44314   3.47162   3.50801   3.59111   3.63531
 Alpha virt. eigenvalues --    3.74908   3.78559   3.80195   3.80300   3.81439
 Alpha virt. eigenvalues --    3.86620   3.89061   3.95922   3.97466   3.98927
 Alpha virt. eigenvalues --    3.99441   4.05932   4.08993   4.11239   4.11500
 Alpha virt. eigenvalues --    4.18350   4.20245   4.46638   4.75026   4.76737
 Alpha virt. eigenvalues --    4.77963   4.78193   4.94925   5.08074   5.47683
 Alpha virt. eigenvalues --    6.14174   6.16460   6.30851   6.33780   6.55920
 Alpha virt. eigenvalues --    6.58122  23.28682  23.46950  23.58506  23.69246
 Alpha virt. eigenvalues --   23.72605  23.78202  23.82307  23.83078  23.86108
 Alpha virt. eigenvalues --   23.90789  24.09922  24.10430  24.19587  35.56962
 Alpha virt. eigenvalues --   50.00911  66.90140  66.90344
          Condensed to atoms (all electrons):
               1          2          3          4          5          6
     1  C    5.382213   0.274232  -0.072059  -0.002419  -0.000296  -0.000029
     2  C    0.274232   5.392895   0.321936  -0.072010   0.006759  -0.000128
     3  C   -0.072059   0.321936   5.351433   0.298255  -0.074689   0.001320
     4  C   -0.002419  -0.072010   0.298255   5.425649   0.334033  -0.050884
     5  C   -0.000296   0.006759  -0.074689   0.334033   5.068512   0.260719
     6  O   -0.000029  -0.000128   0.001320  -0.050884   0.260719   8.228127
     7  N   -0.001134  -0.070675   0.250319  -0.068684   0.010113  -0.037220
     8  C   -0.000703  -0.001397  -0.082653   0.009238  -0.000735   0.000621
     9  C    0.000000  -0.000001   0.000032   0.000004  -0.000013  -0.000007
    10  C    0.000000  -0.000008  -0.000327  -0.000002  -0.000004   0.000003
    11  C   -0.000022  -0.000188  -0.001841   0.000390  -0.000120  -0.000011
    12  C    0.000171  -0.001414  -0.010705  -0.000456   0.000789  -0.000112
    13  C    0.000002   0.000009   0.000783  -0.000387   0.001023   0.001710
    14  C    0.000000   0.000005  -0.000028  -0.000027   0.000082   0.000080
    15  H    0.000000   0.000000   0.000000   0.000000   0.000000   0.000000
    16  H    0.000000   0.000002  -0.000004  -0.000001   0.000000   0.000000
    17  H    0.000000   0.000000   0.000004  -0.000001   0.000008   0.000028
    18  F    0.000047  -0.001823   0.001473   0.000034  -0.000001   0.000000
    19  F    0.000000   0.000000  -0.000109   0.000015  -0.000305  -0.000527
    20  H    0.382726  -0.044678  -0.003674  -0.000736  -0.000107  -0.000018
    21  H    0.392879  -0.034236   0.007032  -0.000141   0.000010   0.000000
    22  H    0.385372  -0.035995  -0.006350   0.004390   0.000263  -0.000037
    23  H   -0.039295   0.391814  -0.036222  -0.007870  -0.000112   0.000020
    24  H   -0.042807   0.402339  -0.043248   0.007806  -0.000206   0.000014
    25  H    0.002941  -0.005281  -0.064085   0.390584  -0.051549   0.010900
    26  H   -0.000040   0.000097  -0.017920  -0.051684   0.368534  -0.038275
    27  H    0.000015  -0.000325   0.010095  -0.039352   0.393722  -0.030475
    28  H   -0.000077   0.001637   0.000044  -0.004813  -0.063801   0.258124
    29  H    0.000404   0.005415  -0.005882  -0.000688   0.000051  -0.000154
    30  H   -0.000104  -0.000211   0.006343  -0.000231   0.000041   0.000129
    31  H    0.008244  -0.057787   0.401901  -0.038684  -0.008100   0.000519
    32  C   -0.003856   0.000019  -0.078765   0.291271  -0.070909   0.004738
    33  H    0.000323  -0.001680  -0.005989  -0.039816  -0.004339  -0.000072
    34  H   -0.000051  -0.000058   0.008580  -0.038395  -0.005085   0.000019
    35  H    0.000493  -0.000101  -0.006133  -0.027530   0.005767  -0.000194
    36  H    0.005688  -0.007202  -0.050269  -0.004774   0.000089   0.003778
               7          8          9         10         11         12
     1  C   -0.001134  -0.000703   0.000000   0.000000  -0.000022   0.000171
     2  C   -0.070675  -0.001397  -0.000001  -0.000008  -0.000188  -0.001414
     3  C    0.250319  -0.082653   0.000032  -0.000327  -0.001841  -0.010705
     4  C   -0.068684   0.009238   0.000004  -0.000002   0.000390  -0.000456
     5  C    0.010113  -0.000735  -0.000013  -0.000004  -0.000120   0.000789
     6  O   -0.037220   0.000621  -0.000007   0.000003  -0.000011  -0.000112
     7  N    7.053662   0.274275   0.000035  -0.000167  -0.001386  -0.075404
     8  C    0.274275   5.295283  -0.001173   0.008140  -0.082565   0.264729
     9  C    0.000035  -0.001173   5.075028   0.431745  -0.001471  -0.056409
    10  C   -0.000167   0.008140   0.431745   5.182458   0.470205  -0.031936
    11  C   -0.001386  -0.082565  -0.001471   0.470205   4.772511   0.280898
    12  C   -0.075404   0.264729  -0.056409  -0.031936   0.280898   5.800581
    13  C    0.004067  -0.075253  -0.003954  -0.057422   0.052575   0.250432
    14  C   -0.000198   0.007494   0.429783  -0.038482  -0.064886  -0.035123
    15  H   -0.000001   0.000029   0.403469  -0.040503   0.006126  -0.001795
    16  H    0.000007  -0.000210  -0.040605   0.394542  -0.049615   0.012191
    17  H    0.000017  -0.000246  -0.040734   0.006924  -0.001757   0.012288
    18  F   -0.000272  -0.007180   0.005465  -0.053796   0.300508  -0.074952
    19  F   -0.001382   0.002533   0.005374  -0.000529   0.005525  -0.080426
    20  H    0.005258   0.000864   0.000000   0.000000   0.000021   0.000120
    21  H   -0.000059  -0.000073   0.000000   0.000000   0.000000   0.000005
    22  H    0.000046   0.000056   0.000000   0.000000   0.000000  -0.000008
    23  H    0.005488   0.000206   0.000000   0.000000   0.000126   0.000059
    24  H   -0.004212   0.003530  -0.000015   0.000151  -0.000044  -0.002227
    25  H    0.000107  -0.000606   0.000000  -0.000001   0.000001   0.000083
    26  H    0.000800  -0.000290   0.000104  -0.000054   0.000191   0.000607
    27  H   -0.000451   0.000049  -0.000001   0.000000   0.000001   0.000001
    28  H    0.055136  -0.000865  -0.000037   0.000039  -0.000355  -0.007533
    29  H   -0.039996   0.410163  -0.000198   0.000608  -0.015685  -0.067161
    30  H   -0.031731   0.398528  -0.000113  -0.000051   0.005099  -0.036838
    31  H   -0.037198  -0.013236  -0.000015  -0.000597  -0.002105   0.003556
    32  C    0.004900  -0.000292   0.000000  -0.000001   0.000002   0.000016
    33  H    0.000005  -0.000014   0.000000   0.000002   0.000003   0.000008
    34  H   -0.000211   0.000017   0.000000   0.000000   0.000000  -0.000002
    35  H   -0.000127  -0.000015   0.000000   0.000000   0.000000   0.000002
    36  H    0.329445  -0.048201   0.000003   0.000014  -0.000150   0.012224
              13         14         15         16         17         18
     1  C    0.000002   0.000000   0.000000   0.000000   0.000000   0.000047
     2  C    0.000009   0.000005   0.000000   0.000002   0.000000  -0.001823
     3  C    0.000783  -0.000028   0.000000  -0.000004   0.000004   0.001473
     4  C   -0.000387  -0.000027   0.000000  -0.000001  -0.000001   0.000034
     5  C    0.001023   0.000082   0.000000   0.000000   0.000008  -0.000001
     6  O    0.001710   0.000080   0.000000   0.000000   0.000028   0.000000
     7  N    0.004067  -0.000198  -0.000001   0.000007   0.000017  -0.000272
     8  C   -0.075253   0.007494   0.000029  -0.000210  -0.000246  -0.007180
     9  C   -0.003954   0.429783   0.403469  -0.040605  -0.040734   0.005465
    10  C   -0.057422  -0.038482  -0.040503   0.394542   0.006924  -0.053796
    11  C    0.052575  -0.064886   0.006126  -0.049615  -0.001757   0.300508
    12  C    0.250432  -0.035123  -0.001795   0.012191   0.012288  -0.074952
    13  C    4.743970   0.476938   0.006398  -0.001747  -0.050170   0.005359
    14  C    0.476938   5.183779  -0.041192   0.006948   0.394421  -0.000455
    15  H    0.006398  -0.041192   0.444797  -0.006386  -0.006463  -0.000081
    16  H   -0.001747   0.006948  -0.006386   0.444952  -0.000130   0.001222
    17  H   -0.050170   0.394421  -0.006463  -0.000130   0.444163   0.000004
    18  F    0.005359  -0.000455  -0.000081   0.001222   0.000004   9.057251
    19  F    0.304039  -0.054243  -0.000079   0.000004   0.001465  -0.000002
    20  H   -0.000002   0.000000   0.000000   0.000000   0.000000  -0.000007
    21  H    0.000000   0.000000   0.000000   0.000000   0.000000  -0.000004
    22  H    0.000000   0.000000   0.000000   0.000000   0.000000   0.000000
    23  H   -0.000001   0.000000   0.000000   0.000000   0.000000  -0.000114
    24  H   -0.000093   0.000006   0.000000   0.000003   0.000000   0.006817
    25  H   -0.000054  -0.000003   0.000000   0.000000   0.000000   0.000000
    26  H   -0.000210  -0.000079   0.000002  -0.000002  -0.000020  -0.000010
    27  H    0.000027   0.000003   0.000000   0.000000   0.000000   0.000000
    28  H   -0.000791  -0.000129   0.000002   0.000000   0.000003  -0.000003
    29  H    0.007585   0.000085   0.000002  -0.000034   0.000014   0.007662
    30  H   -0.010924   0.000521   0.000002   0.000010  -0.000023   0.000155
    31  H    0.000222  -0.000065   0.000003  -0.000013  -0.000005   0.003297
    32  C    0.000005   0.000000   0.000000   0.000000   0.000000  -0.000001
    33  H   -0.000004  -0.000001   0.000000   0.000000   0.000000  -0.000006
    34  H    0.000000   0.000000   0.000000   0.000000   0.000000   0.000000
    35  H    0.000000   0.000000   0.000000   0.000000   0.000000   0.000000
    36  H   -0.000176   0.000001   0.000000  -0.000001  -0.000002  -0.000031
              19         20         21         22         23         24
     1  C    0.000000   0.382726   0.392879   0.385372  -0.039295  -0.042807
     2  C    0.000000  -0.044678  -0.034236  -0.035995   0.391814   0.402339
     3  C   -0.000109  -0.003674   0.007032  -0.006350  -0.036222  -0.043248
     4  C    0.000015  -0.000736  -0.000141   0.004390  -0.007870   0.007806
     5  C   -0.000305  -0.000107   0.000010   0.000263  -0.000112  -0.000206
     6  O   -0.000527  -0.000018   0.000000  -0.000037   0.000020   0.000014
     7  N   -0.001382   0.005258  -0.000059   0.000046   0.005488  -0.004212
     8  C    0.002533   0.000864  -0.000073   0.000056   0.000206   0.003530
     9  C    0.005374   0.000000   0.000000   0.000000   0.000000  -0.000015
    10  C   -0.000529   0.000000   0.000000   0.000000   0.000000   0.000151
    11  C    0.005525   0.000021   0.000000   0.000000   0.000126  -0.000044
    12  C   -0.080426   0.000120   0.000005  -0.000008   0.000059  -0.002227
    13  C    0.304039  -0.000002   0.000000   0.000000  -0.000001  -0.000093
    14  C   -0.054243   0.000000   0.000000   0.000000   0.000000   0.000006
    15  H   -0.000079   0.000000   0.000000   0.000000   0.000000   0.000000
    16  H    0.000004   0.000000   0.000000   0.000000   0.000000   0.000003
    17  H    0.001465   0.000000   0.000000   0.000000   0.000000   0.000000
    18  F   -0.000002  -0.000007  -0.000004   0.000000  -0.000114   0.006817
    19  F    9.044633   0.000001   0.000000   0.000000   0.000000  -0.000001
    20  H    0.000001   0.494851  -0.027969  -0.028374   0.007758  -0.005012
    21  H    0.000000  -0.027969   0.465058  -0.027114  -0.004331  -0.004996
    22  H    0.000000  -0.028374  -0.027114   0.473680  -0.005289   0.006430
    23  H    0.000000   0.007758  -0.004331  -0.005289   0.483096  -0.031280
    24  H   -0.000001  -0.005012  -0.004996   0.006430  -0.031280   0.478940
    25  H    0.000003  -0.000757   0.000135  -0.001526  -0.000176  -0.000323
    26  H    0.000009  -0.000015   0.000002  -0.000049  -0.000040  -0.000024
    27  H   -0.000007   0.000010  -0.000001   0.000040   0.000013   0.000015
    28  H    0.010563  -0.000131   0.000004  -0.000013  -0.000104  -0.000046
    29  H    0.000156  -0.000909   0.000054  -0.000066  -0.000547  -0.000293
    30  H    0.006301   0.000101  -0.000002   0.000010   0.000021   0.000218
    31  H    0.000092  -0.000034  -0.000200  -0.000271  -0.002283  -0.005899
    32  C    0.000000   0.000094  -0.000026  -0.000363   0.001447   0.000095
    33  H    0.000000  -0.000016   0.000012  -0.000109   0.000210  -0.000221
    34  H    0.000000   0.000028  -0.000006   0.000039   0.000476   0.000010
    35  H    0.000000  -0.000060  -0.000020   0.002714  -0.001691   0.000385
    36  H   -0.000411   0.003520  -0.000009  -0.000434   0.000069  -0.000569
              25         26         27         28         29         30
     1  C    0.002941  -0.000040   0.000015  -0.000077   0.000404  -0.000104
     2  C   -0.005281   0.000097  -0.000325   0.001637   0.005415  -0.000211
     3  C   -0.064085  -0.017920   0.010095   0.000044  -0.005882   0.006343
     4  C    0.390584  -0.051684  -0.039352  -0.004813  -0.000688  -0.000231
     5  C   -0.051549   0.368534   0.393722  -0.063801   0.000051   0.000041
     6  O    0.010900  -0.038275  -0.030475   0.258124  -0.000154   0.000129
     7  N    0.000107   0.000800  -0.000451   0.055136  -0.039996  -0.031731
     8  C   -0.000606  -0.000290   0.000049  -0.000865   0.410163   0.398528
     9  C    0.000000   0.000104  -0.000001  -0.000037  -0.000198  -0.000113
    10  C   -0.000001  -0.000054   0.000000   0.000039   0.000608  -0.000051
    11  C    0.000001   0.000191   0.000001  -0.000355  -0.015685   0.005099
    12  C    0.000083   0.000607   0.000001  -0.007533  -0.067161  -0.036838
    13  C   -0.000054  -0.000210   0.000027  -0.000791   0.007585  -0.010924
    14  C   -0.000003  -0.000079   0.000003  -0.000129   0.000085   0.000521
    15  H    0.000000   0.000002   0.000000   0.000002   0.000002   0.000002
    16  H    0.000000  -0.000002   0.000000   0.000000  -0.000034   0.000010
    17  H    0.000000  -0.000020   0.000000   0.000003   0.000014  -0.000023
    18  F    0.000000  -0.000010   0.000000  -0.000003   0.007662   0.000155
    19  F    0.000003   0.000009  -0.000007   0.010563   0.000156   0.006301
    20  H   -0.000757  -0.000015   0.000010  -0.000131  -0.000909   0.000101
    21  H    0.000135   0.000002  -0.000001   0.000004   0.000054  -0.000002
    22  H   -0.001526  -0.000049   0.000040  -0.000013  -0.000066   0.000010
    23  H   -0.000176  -0.000040   0.000013  -0.000104  -0.000547   0.000021
    24  H   -0.000323  -0.000024   0.000015  -0.000046  -0.000293   0.000218
    25  H    0.524223   0.012657  -0.010831   0.000054   0.000027   0.000005
    26  H    0.012657   0.577180  -0.048125  -0.000824   0.000013   0.000016
    27  H   -0.010831  -0.048125   0.509333   0.005240  -0.000003   0.000000
    28  H    0.000054  -0.000824   0.005240   0.341956   0.001083  -0.001454
    29  H    0.000027   0.000013  -0.000003   0.001083   0.480059  -0.029245
    30  H    0.000005   0.000016   0.000000  -0.001454  -0.029245   0.442138
    31  H    0.007444   0.005371  -0.000209  -0.000484  -0.001087  -0.000112
    32  C   -0.034358   0.001365  -0.005351  -0.001027   0.000010   0.000011
    33  H    0.008198   0.005453  -0.001263   0.000036   0.000003   0.000000
    34  H   -0.005635  -0.001297   0.006928  -0.000084  -0.000002   0.000000
    35  H   -0.006970  -0.000608   0.000052   0.000066   0.000000   0.000000
    36  H    0.004150   0.000384  -0.000052  -0.004084  -0.001279  -0.005560
              31         32         33         34         35         36
     1  C    0.008244  -0.003856   0.000323  -0.000051   0.000493   0.005688
     2  C   -0.057787   0.000019  -0.001680  -0.000058  -0.000101  -0.007202
     3  C    0.401901  -0.078765  -0.005989   0.008580  -0.006133  -0.050269
     4  C   -0.038684   0.291271  -0.039816  -0.038395  -0.027530  -0.004774
     5  C   -0.008100  -0.070909  -0.004339  -0.005085   0.005767   0.000089
     6  O    0.000519   0.004738  -0.000072   0.000019  -0.000194   0.003778
     7  N   -0.037198   0.004900   0.000005  -0.000211  -0.000127   0.329445
     8  C   -0.013236  -0.000292  -0.000014   0.000017  -0.000015  -0.048201
     9  C   -0.000015   0.000000   0.000000   0.000000   0.000000   0.000003
    10  C   -0.000597  -0.000001   0.000002   0.000000   0.000000   0.000014
    11  C   -0.002105   0.000002   0.000003   0.000000   0.000000  -0.000150
    12  C    0.003556   0.000016   0.000008  -0.000002   0.000002   0.012224
    13  C    0.000222   0.000005  -0.000004   0.000000   0.000000  -0.000176
    14  C   -0.000065   0.000000  -0.000001   0.000000   0.000000   0.000001
    15  H    0.000003   0.000000   0.000000   0.000000   0.000000   0.000000
    16  H   -0.000013   0.000000   0.000000   0.000000   0.000000  -0.000001
    17  H   -0.000005   0.000000   0.000000   0.000000   0.000000  -0.000002
    18  F    0.003297  -0.000001  -0.000006   0.000000   0.000000  -0.000031
    19  F    0.000092   0.000000   0.000000   0.000000   0.000000  -0.000411
    20  H   -0.000034   0.000094  -0.000016   0.000028  -0.000060   0.003520
    21  H   -0.000200  -0.000026   0.000012  -0.000006  -0.000020  -0.000009
    22  H   -0.000271  -0.000363  -0.000109   0.000039   0.002714  -0.000434
    23  H   -0.002283   0.001447   0.000210   0.000476  -0.001691   0.000069
    24  H   -0.005899   0.000095  -0.000221   0.000010   0.000385  -0.000569
    25  H    0.007444  -0.034358   0.008198  -0.005635  -0.006970   0.004150
    26  H    0.005371   0.001365   0.005453  -0.001297  -0.000608   0.000384
    27  H   -0.000209  -0.005351  -0.001263   0.006928   0.000052  -0.000052
    28  H   -0.000484  -0.001027   0.000036  -0.000084   0.000066  -0.004084
    29  H   -0.001087   0.000010   0.000003  -0.000002   0.000000  -0.001279
    30  H   -0.000112   0.000011   0.000000   0.000000   0.000000  -0.005560
    31  H    0.477773  -0.002112   0.004869  -0.000300  -0.000438   0.007405
    32  C   -0.002112   5.412250   0.381738   0.390108   0.383170   0.000301
    33  H    0.004869   0.381738   0.482493  -0.027708  -0.027989   0.000027
    34  H   -0.000300   0.390108  -0.027708   0.466201  -0.025887   0.000005
    35  H   -0.000438   0.383170  -0.027989  -0.025887   0.464978  -0.000056
    36  H    0.007405   0.000301   0.000027   0.000005  -0.000056   0.411003
 Mulliken charges:
               1
     1  C   -0.672857
     2  C   -0.461963
     3  C   -0.098597
     4  C   -0.312084
     5  C   -0.170143
     6  O   -0.612705
     7  N   -0.623173
     8  C   -0.360048
     9  C   -0.206297
    10  C   -0.270953
    11  C    0.328019
    12  C   -0.156261
    13  C    0.346044
    14  C   -0.265236
    15  H    0.235670
    16  H    0.238865
    17  H    0.240209
    18  F   -0.250555
    19  F   -0.242692
    20  H    0.217148
    21  H    0.233995
    22  H    0.232958
    23  H    0.238550
    24  H    0.234758
    25  H    0.220644
    26  H    0.186784
    27  H    0.210903
    28  H    0.412667
    29  H    0.249835
    30  H    0.256951
    31  H    0.250539
    32  C   -0.674477
    33  H    0.225845
    34  H    0.232310
    35  H    0.240192
    36  H    0.345154
 Sum of Mulliken charges =   0.00000
 Mulliken charges with hydrogens summed into heavy atoms:
               1
     1  C    0.011244
     2  C    0.011345
     3  C    0.151942
     4  C   -0.091440
     5  C    0.227544
     6  O   -0.200038
     7  N   -0.278019
     8  C    0.146737
     9  C    0.029374
    10  C   -0.032087
    11  C    0.328019
    12  C   -0.156261
    13  C    0.346044
    14  C   -0.025026
    18  F   -0.250555
    19  F   -0.242692
    32  C    0.023869
 Electronic spatial extent (au):  <R**2>=           4367.2073
 Charge=              0.0000 electrons
 Dipole moment (field-independent basis, Debye):
    X=              0.9672    Y=             -3.6855    Z=              0.7490  Tot=              3.8832
 Quadrupole moment (field-independent basis, Debye-Ang):
   XX=            -89.1782   YY=           -116.0872   ZZ=            -96.1115
   XY=              5.3174   XZ=              5.5399   YZ=              3.5776
 Traceless Quadrupole moment (field-independent basis, Debye-Ang):
   XX=             11.2807   YY=            -15.6282   ZZ=              4.3475
   XY=              5.3174   XZ=              5.5399   YZ=              3.5776
 Octapole moment (field-independent basis, Debye-Ang**2):
  XXX=             42.3429  YYY=            -32.2412  ZZZ=            -19.1683  XYY=             16.9926
  XXY=              8.1984  XXZ=             26.6053  XZZ=              7.1962  YZZ=             -3.8558
  YYZ=              7.9787  XYZ=             -6.6653
 Hexadecapole moment (field-independent basis, Debye-Ang**3):
 XXXX=          -3381.9358 YYYY=          -1517.3641 ZZZZ=           -758.2101 XXXY=             36.4513
 XXXZ=             98.4130 YYYX=             52.8074 YYYZ=             -0.3953 ZZZX=             16.6900
 ZZZY=            -37.7369 XXYY=           -790.7162 XXZZ=           -687.2546 YYZZ=           -355.1740
 XXYZ=             -8.1102 YYXZ=             -4.7312 ZZXY=            -26.1868
 N-N= 1.310447351938D+03 E-N=-4.578782515459D+03  KE= 8.332524317709D+02
 1\1\GINC-SWANNODE-0-1\SP\RmPW1PW91\6-311G(d)\C13H19F2N1O1\KE291\06-Mar
 -2019\0\\# mPW1PW91/6-311g(d) geom=checkpoint nmr=giao scrf=(solvent=c
 hloroform)\\AT3_1ginp006\\0,1\C,0,-1.5474788152,-0.8662107454,2.287951
 5757\C,0,-0.1333547583,-0.4127424566,2.6690283301\C,0,0.1690850276,1.0
 875958359,2.4393136702\C,0,-0.7133872541,2.0624757777,3.2644438592\C,0
 ,-0.2495713187,3.5252826068,3.091651558\O,0,-0.4494501898,4.0523954292
 ,1.7918626303\N,0,0.1170601884,1.4894625375,1.0107505148\C,0,1.1541007
 541,0.9270908982,0.1267699425\C,0,5.0560605725,2.6586446464,0.89810731
 59\C,0,4.7865387712,1.3573815293,1.322244304\C,0,3.5269962723,0.827315
 3068,1.0668932578\C,0,2.5152486054,1.5225096002,0.4030739386\C,0,2.843
 0420556,2.8218950002,0.0066762317\C,0,4.0815912643,3.4066036157,0.2341
 873468\H,0,6.0314608092,3.0943903452,1.0871291037\H,0,5.5242477926,0.7
 579536177,1.8428150475\H,0,4.2662700381,4.4192563374,-0.1047921546\F,0
 ,3.261692583,-0.4328914245,1.4910525125\F,0,1.8969124655,3.5377862281,
 -0.6422592085\H,0,-1.7683771693,-0.6778195417,1.2310534462\H,0,-1.6629
 311586,-1.9420977859,2.4515348139\H,0,-2.3149680881,-0.358677762,2.881
 2161753\H,0,0.0545104277,-0.6491987772,3.7219511423\H,0,0.6023530254,-
 1.000279347,2.1081269238\H,0,-1.7440270885,2.0100501667,2.8846991752\H
 ,0,0.8117594399,3.5930223931,3.3961796109\H,0,-0.8156020408,4.16041021
 51,3.7841265945\H,0,-0.1110446703,3.3475187223,1.1977879977\H,0,1.2291
 578575,-0.1653542846,0.1843968412\H,0,0.8636004872,1.1788973668,-0.897
 2132791\H,0,1.2060068585,1.2565754163,2.7606772234\C,0,-0.7245598337,1
 .7078416949,4.7594508847\H,0,0.2918583138,1.6935863364,5.1712152892\H,
 0,-1.2991942882,2.4495063674,5.3237436393\H,0,-1.1749375859,0.73084621
 24,4.9507510244\H,0,-0.7956403503,1.2495409213,0.6287957207\\Version=E
 M64L-G09RevD.01\State=1-A\HF=-836.4694188\RMSD=7.007e-09\Dipole=0.8197
 641,-1.2798564,0.155141\Quadrupole=6.9911573,-7.8618555,0.8706981,9.51
 65477,-0.3646805,1.0703806\PG=C01 [X(C13H19F2N1O1)]\\@


 THE PROMISED LAND ALWAYS LIES ON THE OTHER SIDE OF A WILDERNESS.

                         -- HAVELOCK ELLIS
 Job cpu time:       0 days  0 hours 30 minutes 43.1 seconds.
 File lengths (MBytes):  RWF=    177 Int=      0 D2E=      0 Chk=     14 Scr=      1
 Normal termination of Gaussian 09 at Wed Mar  6 11:35:10 2019.
