 Entering Gaussian System, Link 0=/usr/local/shared/gaussian/em64t/09-D01/g09/g09
 Initial command:
 /usr/local/shared/gaussian/em64t/09-D01/g09/l1.exe "/scratch/ke291/AT3_2ginp009/Gau-724.inp" -scrdir="/scratch/ke291/AT3_2ginp009/"
 Entering Link 1 = /usr/local/shared/gaussian/em64t/09-D01/g09/l1.exe PID=       728.
  
 Copyright (c) 1988,1990,1992,1993,1995,1998,2003,2009,2013,
            Gaussian, Inc.  All Rights Reserved.
  
 This is part of the Gaussian(R) 09 program.  It is based on
 the Gaussian(R) 03 system (copyright 2003, Gaussian, Inc.),
 the Gaussian(R) 98 system (copyright 1998, Gaussian, Inc.),
 the Gaussian(R) 94 system (copyright 1995, Gaussian, Inc.),
 the Gaussian 92(TM) system (copyright 1992, Gaussian, Inc.),
 the Gaussian 90(TM) system (copyright 1990, Gaussian, Inc.),
 the Gaussian 88(TM) system (copyright 1988, Gaussian, Inc.),
 the Gaussian 86(TM) system (copyright 1986, Carnegie Mellon
 University), and the Gaussian 82(TM) system (copyright 1983,
 Carnegie Mellon University). Gaussian is a federally registered
 trademark of Gaussian, Inc.
  
 This software contains proprietary and confidential information,
 including trade secrets, belonging to Gaussian, Inc.
  
 This software is provided under written license and may be
 used, copied, transmitted, or stored only in accord with that
 written license.
  
 The following legend is applicable only to US Government
 contracts under FAR:
  
                    RESTRICTED RIGHTS LEGEND
  
 Use, reproduction and disclosure by the US Government is
 subject to restrictions as set forth in subparagraphs (a)
 and (c) of the Commercial Computer Software - Restricted
 Rights clause in FAR 52.227-19.
  
 Gaussian, Inc.
 340 Quinnipiac St., Bldg. 40, Wallingford CT 06492
  
  
 ---------------------------------------------------------------
 Warning -- This program may not be used in any manner that
 competes with the business of Gaussian, Inc. or will provide
 assistance to any competitor of Gaussian, Inc.  The licensee
 of this program is prohibited from giving any competitor of
 Gaussian, Inc. access to this program.  By using this program,
 the user acknowledges that Gaussian, Inc. is engaged in the
 business of creating and licensing software in the field of
 computational chemistry and represents and warrants to the
 licensee that it is not a competitor of Gaussian, Inc. and that
 it will not use this program in any manner prohibited above.
 ---------------------------------------------------------------
  

 Cite this work as:
 Gaussian 09, Revision D.01,
 M. J. Frisch, G. W. Trucks, H. B. Schlegel, G. E. Scuseria, 
 M. A. Robb, J. R. Cheeseman, G. Scalmani, V. Barone, B. Mennucci, 
 G. A. Petersson, H. Nakatsuji, M. Caricato, X. Li, H. P. Hratchian, 
 A. F. Izmaylov, J. Bloino, G. Zheng, J. L. Sonnenberg, M. Hada, 
 M. Ehara, K. Toyota, R. Fukuda, J. Hasegawa, M. Ishida, T. Nakajima, 
 Y. Honda, O. Kitao, H. Nakai, T. Vreven, J. A. Montgomery, Jr., 
 J. E. Peralta, F. Ogliaro, M. Bearpark, J. J. Heyd, E. Brothers, 
 K. N. Kudin, V. N. Staroverov, T. Keith, R. Kobayashi, J. Normand, 
 K. Raghavachari, A. Rendell, J. C. Burant, S. S. Iyengar, J. Tomasi, 
 M. Cossi, N. Rega, J. M. Millam, M. Klene, J. E. Knox, J. B. Cross, 
 V. Bakken, C. Adamo, J. Jaramillo, R. Gomperts, R. E. Stratmann, 
 O. Yazyev, A. J. Austin, R. Cammi, C. Pomelli, J. W. Ochterski, 
 R. L. Martin, K. Morokuma, V. G. Zakrzewski, G. A. Voth, 
 P. Salvador, J. J. Dannenberg, S. Dapprich, A. D. Daniels, 
 O. Farkas, J. B. Foresman, J. V. Ortiz, J. Cioslowski, 
 and D. J. Fox, Gaussian, Inc., Wallingford CT, 2013.
 
 ******************************************
 Gaussian 09:  EM64L-G09RevD.01 24-Apr-2013
                 6-Mar-2019 
 ******************************************
 %nprocshared=2
 Will use up to    2 processors via shared memory.
 %mem=6000MB
 %chk=AT3_2ginp009.chk
 ----------------------------------------------------------------------
 # mPW1PW91/6-311g(d) geom=checkpoint nmr=giao scrf=(solvent=chloroform
 )
 ----------------------------------------------------------------------
 1/29=2,38=1/1;
 2/12=2,40=1/2;
 3/5=4,6=6,7=1,11=2,14=-4,16=1,25=1,30=1,70=2201,72=7,74=-7/1,2,8,3;
 4//1;
 5/5=2,38=5,53=7/2;
 8/6=1,10=90,11=11/1;
 10/13=100,45=16/2;
 6/7=2,8=2,9=2,10=2,28=1/1;
 99/9=1/99;
 ------------
 AT3_2ginp009
 ------------
 Structure from the checkpoint file:  "AT3_2ginp009.chk"
 Charge =  0 Multiplicity = 1
 Redundant internal coordinates found in file.
 C,0,-0.7692959393,-1.7422435523,0.6664822792
 C,0,-2.2308355733,-1.3064947301,0.5037033169
 C,0,-2.9670061995,-1.0325502407,1.8319964978
 C,0,-2.3167655307,0.0788521082,2.6987146682
 C,0,-3.1784839864,0.3946219322,3.9421395963
 O,0,-3.7395041851,-0.7510937935,4.5673384264
 N,0,-4.4096731039,-0.7550677428,1.6818961804
 C,0,-5.2092116607,-1.8413835421,1.0993567451
 C,0,-9.4244831452,-1.0607946875,1.7645665736
 C,0,-8.6123730718,-1.4573084628,2.8296548247
 C,0,-7.2706592175,-1.7037365077,2.5758582898
 C,0,-6.6822608742,-1.5840523232,1.3146019312
 C,0,-7.5416600553,-1.1800123761,0.2921374496
 C,0,-8.8945195509,-0.9189266776,0.4825027565
 H,0,-10.4769539913,-0.861633344,1.9367561125
 H,0,-8.9998090847,-1.5764889806,3.8347620614
 H,0,-9.5034028026,-0.611658431,-0.3598062956
 F,0,-6.480001544,-2.0979987943,3.605859013
 F,0,-7.0292017162,-1.037340771,-0.9537099445
 H,0,-0.147070345,-0.9492704549,1.0926463088
 H,0,-0.6900567815,-2.6147759877,1.3252465771
 H,0,-0.3351284858,-2.0174282656,-0.299983449
 H,0,-2.2874719261,-0.4172624173,-0.1374458626
 H,0,-2.7689574243,-2.0982085314,-0.030880587
 H,0,-1.3606901631,-0.3289550727,3.0508802641
 H,0,-3.9699068952,1.1041114707,3.6589082767
 H,0,-2.5542123801,0.8918453139,4.6933957942
 H,0,-4.4404298431,-1.0413410115,3.9603088184
 H,0,-5.0319767973,-2.0058915999,0.0291185431
 H,0,-4.9306479844,-2.7652428222,1.6180813105
 H,0,-2.9138337236,-1.9512739092,2.4316828093
 C,0,-2.0259566458,1.3898346737,1.9508484088
 H,0,-1.2908973016,1.2592606305,1.1521158793
 H,0,-2.9331714646,1.8154324163,1.5053985386
 H,0,-1.6264273431,2.1403881515,2.642101031
 H,0,-4.5514612628,0.0921823325,1.1356608562
 Recover connectivity data from disk.
                          Input orientation:                          
 ---------------------------------------------------------------------
 Center     Atomic      Atomic             Coordinates (Angstroms)
 Number     Number       Type             X           Y           Z
 ---------------------------------------------------------------------
      1          6           0       -0.769296   -1.742244    0.666482
      2          6           0       -2.230836   -1.306495    0.503703
      3          6           0       -2.967006   -1.032550    1.831996
      4          6           0       -2.316766    0.078852    2.698715
      5          6           0       -3.178484    0.394622    3.942140
      6          8           0       -3.739504   -0.751094    4.567338
      7          7           0       -4.409673   -0.755068    1.681896
      8          6           0       -5.209212   -1.841384    1.099357
      9          6           0       -9.424483   -1.060795    1.764567
     10          6           0       -8.612373   -1.457308    2.829655
     11          6           0       -7.270659   -1.703737    2.575858
     12          6           0       -6.682261   -1.584052    1.314602
     13          6           0       -7.541660   -1.180012    0.292137
     14          6           0       -8.894520   -0.918927    0.482503
     15          1           0      -10.476954   -0.861633    1.936756
     16          1           0       -8.999809   -1.576489    3.834762
     17          1           0       -9.503403   -0.611658   -0.359806
     18          9           0       -6.480002   -2.097999    3.605859
     19          9           0       -7.029202   -1.037341   -0.953710
     20          1           0       -0.147070   -0.949270    1.092646
     21          1           0       -0.690057   -2.614776    1.325247
     22          1           0       -0.335128   -2.017428   -0.299983
     23          1           0       -2.287472   -0.417262   -0.137446
     24          1           0       -2.768957   -2.098209   -0.030881
     25          1           0       -1.360690   -0.328955    3.050880
     26          1           0       -3.969907    1.104111    3.658908
     27          1           0       -2.554212    0.891845    4.693396
     28          1           0       -4.440430   -1.041341    3.960309
     29          1           0       -5.031977   -2.005892    0.029119
     30          1           0       -4.930648   -2.765243    1.618081
     31          1           0       -2.913834   -1.951274    2.431683
     32          6           0       -2.025957    1.389835    1.950848
     33          1           0       -1.290897    1.259261    1.152116
     34          1           0       -2.933171    1.815432    1.505399
     35          1           0       -1.626427    2.140388    2.642101
     36          1           0       -4.551461    0.092182    1.135661
 ---------------------------------------------------------------------
                    Distance matrix (angstroms):
                    1          2          3          4          5
     1  C    0.000000
     2  C    1.533777   0.000000
     3  C    2.586894   1.543164   0.000000
     4  C    3.137040   2.597045   1.552169   0.000000
     5  C    4.593508   3.951541   2.556217   1.545437   0.000000
     6  O    5.002119   4.370089   2.856233   2.490934   1.420662
     7  N    3.906140   2.537625   1.476758   2.471761   2.818921
     8  C    4.462069   3.084094   2.493684   3.822499   4.147890
     9  C    8.751139   7.307442   6.457891   7.258862   6.772929
    10  C    8.140907   6.793881   5.748557   6.481636   5.847599
    11  C    6.776055   5.463648   4.418739   5.266287   4.797471
    12  C    5.950482   4.533187   3.791434   4.872224   4.805784
    13  C    6.805965   5.316542   4.829117   5.888623   5.902482
    14  C    8.168902   6.674979   6.080251   7.012418   6.809373
    15  H    9.829939   8.381528   7.512623   8.249471   7.672510
    16  H    8.820817   7.549030   6.379784   6.978096   6.146921
    17  H    8.866573   7.356540   6.906926   7.840862   7.715176
    18  F    6.432624   5.320269   4.077120   4.784781   4.150453
    19  F    6.504485   5.022033   4.925608   6.065735   6.391235
    20  H    1.094343   2.194662   2.916438   2.888610   4.372085
    21  H    1.096158   2.181864   2.818640   3.433399   4.700731
    22  H    1.094662   2.178312   3.527337   4.160945   5.647855
    23  H    2.169501   1.097731   2.172337   2.879374   4.253948
    24  H    2.147480   1.096433   2.155264   3.520619   4.708164
    25  H    2.834164   2.863712   2.135644   1.097455   2.149949
    26  H    5.224965   4.334825   2.984751   2.169333   1.099975
    27  H    5.132288   4.742446   3.472939   2.167047   1.096053
    28  H    4.981745   4.111050   2.588584   2.712269   1.911760
    29  H    4.318124   2.925881   2.908929   4.341114   4.950721
    30  H    4.389638   3.264777   2.627522   4.011113   4.296053
    31  H    2.785439   2.144605   1.098410   2.132887   2.802632
    32  C    3.610915   3.066985   2.601470   1.537059   2.506792
    33  H    3.084953   2.808384   2.919585   2.199486   3.477760
    34  H    4.247728   3.353073   2.866848   2.195375   2.831358
    35  H    4.439884   4.101104   3.538497   2.174788   2.673327
    36  H    4.229660   2.782260   2.064075   2.727119   3.138926
                    6          7          8          9         10
     6  O    0.000000
     7  N    2.962249   0.000000
     8  C    3.921182   1.469250   0.000000
     9  C    6.345899   5.024801   4.338241   0.000000
    10  C    5.221411   4.412843   3.837050   1.396839   0.000000
    11  C    4.164442   3.143944   2.539403   2.389671   1.387565
    12  C    4.464743   2.446789   1.510769   2.827729   2.456986
    13  C    5.737395   3.452731   2.555255   2.393174   2.768088
    14  C    6.579379   4.645346   3.848757   1.394516   2.424579
    15  H    7.233631   6.073566   5.423122   1.084901   2.151455
    16  H    5.374826   5.136041   4.682012   2.175316   1.083767
    17  H    7.584110   5.489553   4.699091   2.172766   3.417853
    18  F    3.201394   3.129114   2.821934   3.624379   2.357962
    19  F    6.433197   3.726664   2.859009   3.623113   4.122700
    20  H    5.001834   4.307518   5.140154   9.302382   8.656596
    21  H    4.825308   4.173878   4.590416   8.882458   8.146537
    22  H    6.073236   4.703543   5.074035   9.369839   8.866857
    23  H    4.935062   2.815645   3.477695   7.414089   7.063268
    24  H    4.888793   2.725725   2.701525   6.971075   6.537501
    25  H    2.852473   3.369271   4.572417   8.198472   7.342277
    26  H    2.078489   2.749276   4.094279   6.166665   5.366659
    27  H    2.029792   3.901818   5.238003   7.719551   6.759687
    28  H    0.971610   2.296533   3.068573   5.446324   4.342409
    29  H    4.882668   2.164139   1.097217   4.816544   4.578557
    30  H    3.764802   2.077569   1.095531   4.808446   4.090685
    31  H    2.585186   2.056848   2.656300   6.605040   5.733737
    32  C    3.790230   3.217926   4.615075   7.796055   7.229067
    33  H    4.658427   3.750326   4.996996   8.480152   7.987358
    34  H    4.075869   2.969626   4.326376   7.104715   6.687138
    35  H    4.065993   4.129421   5.574129   8.475100   7.860155
    36  H    3.625852   1.017993   2.042702   5.046902   4.664927
                   11         12         13         14         15
    11  C    0.000000
    12  C    1.396891   0.000000
    13  C    2.358624   1.395439   0.000000
    14  C    2.763148   2.455376   1.390911   0.000000
    15  H    3.376080   3.912628   3.379658   2.149938   0.000000
    16  H    2.142660   3.423784   3.851439   3.417765   2.509064
    17  H    3.846545   3.421701   2.143943   1.083807   2.506888
    18  F    1.357013   2.356885   3.598690   4.120129   4.504457
    19  F    3.600033   2.358919   1.354660   2.357146   4.502517
    20  H    7.315371   6.569698   7.441372   8.768755  10.364685
    21  H    6.760056   6.080215   7.076039   8.420174   9.961466
    22  H    7.514683   6.563596   7.279146   8.664997  10.449665
    23  H    5.818006   4.773260   5.326615   6.655004   8.459752
    24  H    5.216897   4.169967   4.870946   6.259136   8.050709
    25  H    6.086329   5.736641   6.821975   7.981429   9.199526
    26  H    4.466763   4.480944   5.413852   6.199520   7.012248
    27  H    5.784970   5.881080   6.966944   7.823683   8.569923
    28  H    3.219576   3.510001   4.805449   5.652348   6.369198
    29  H    3.404244   2.133976   2.655139   4.038104   5.881852
    30  H    2.742223   2.134352   3.329935   4.517820   5.872546
    31  H    4.366233   3.947628   5.156479   6.374453   7.657223
    32  C    6.121089   5.561473   6.307014   7.393482   8.745780
    33  H    6.823778   6.097346   6.764736   7.937755   9.460311
    34  H    5.687199   5.064442   5.628753   6.637824   8.016321
    35  H    6.829278   6.418346   7.178953   8.176089   9.372378
    36  H    3.562798   2.717000   3.357276   4.506785   6.054996
                   16         17         18         19         20
    16  H    0.000000
    17  H    4.333464   0.000000
    18  F    2.583370   5.203524   0.000000
    19  F    5.206096   2.579845   4.713415   0.000000
    20  H    9.288896   9.474416   6.909546   7.180464   0.000000
    21  H    8.742293   9.193854   6.244334   6.918577   1.767158
    22  H    9.610788   9.275614   7.281591   6.796951   1.765147
    23  H    7.885285   7.221973   5.866388   4.851266   2.525367
    24  H    7.351115   6.904403   5.195933   4.486283   3.075169
    25  H    7.779907   8.832693   5.444710   6.976430   2.385863
    26  H    5.702321   7.050781   4.069017   5.934758   5.041444
    27  H    6.955260   8.722765   5.053091   7.459028   4.706319
    28  H    4.592394   6.669462   2.324223   5.554218   5.163807
    29  H    5.514617   4.699872   3.859836   2.427540   5.109780
    30  H    4.783815   5.427711   2.607100   3.742150   5.143584
    31  H    6.256852   7.280756   3.757362   5.406701   3.232957
    32  C    7.809150   8.078199   5.894282   6.273763   3.120599
    33  H    8.640914   8.557540   6.649725   6.529703   2.487868
    34  H    7.330427   7.248289   5.683914   5.564440   3.946683
    35  H    8.342924   8.867466   6.515362   7.226188   3.759694
    36  H    5.464193   5.220492   3.823355   3.432272   4.526051
                   21         22         23         24         25
    21  H    0.000000
    22  H    1.767532   0.000000
    23  H    3.085494   2.529544   0.000000
    24  H    2.535301   2.449993   1.751789   0.000000
    25  H    2.941520   3.889859   3.321467   3.822398   0.000000
    26  H    5.480284   6.215179   4.422383   5.031071   3.038320
    27  H    5.207293   6.190480   5.012180   5.595116   2.369115
    28  H    4.846086   5.996360   4.670792   4.454254   3.289278
    29  H    4.571975   4.708378   3.175499   2.265696   5.041974
    30  H    4.253352   5.035573   3.947311   2.799449   4.553351
    31  H    2.570918   3.757140   3.057113   2.471194   2.329716
    32  C    4.267659   4.419795   2.773980   4.079920   2.146366
    33  H    3.924174   3.709282   2.338132   3.854444   2.476410
    34  H    4.968980   4.969915   2.846189   4.207577   3.075648
    35  H    5.022199   5.254593   3.834637   5.139641   2.517017
    36  H    4.719535   4.928387   2.646882   3.055479   3.745189
                   26         27         28         29         30
    26  H    0.000000
    27  H    1.766186   0.000000
    28  H    2.217025   2.798650   0.000000
    29  H    4.896477   6.024257   4.090788   0.000000
    30  H    4.478828   5.336600   2.949268   1.763997   0.000000
    31  H    3.457854   3.650753   2.344178   3.203409   2.322075
    32  C    2.603469   2.837008   3.972182   4.925460   5.080614
    33  H    3.672216   3.777780   4.806066   5.090974   5.446241
    34  H    2.493672   3.340651   4.057039   4.602923   4.998519
    35  H    2.756749   2.574384   4.447435   5.968005   6.002642
    36  H    2.780105   4.157637   3.045626   2.420175   2.922566
                   31         32         33         34         35
    31  H    0.000000
    32  C    3.490349   0.000000
    33  H    3.818212   1.093314   0.000000
    34  H    3.878976   1.096630   1.769520   0.000000
    35  H    4.294577   1.095803   1.763242   1.762177   0.000000
    36  H    2.921850   2.954083   3.463181   2.392730   3.875607
                   36
    36  H    0.000000
 Stoichiometry    C13H19F2NO
 Framework group  C1[X(C13H19F2NO)]
 Deg. of freedom   102
 Full point group                 C1      NOp   1
 Largest Abelian subgroup         C1      NOp   1
 Largest concise Abelian subgroup C1      NOp   1
                         Standard orientation:                         
 ---------------------------------------------------------------------
 Center     Atomic      Atomic             Coordinates (Angstroms)
 Number     Number       Type             X           Y           Z
 ---------------------------------------------------------------------
      1          6           0       -3.977728   -1.746672   -1.176480
      2          6           0       -2.585118   -1.680241   -0.537187
      3          6           0       -2.034721   -0.250357   -0.353204
      4          6           0       -2.922606    0.660214    0.536598
      5          6           0       -2.246016    2.026476    0.789440
      6          8           0       -1.592540    2.571436   -0.348220
      7          7           0       -0.639224   -0.192759    0.126469
      8          6           0        0.363162   -0.802436   -0.757960
      9          6           0        4.332849    0.450015    0.464041
     10          6           0        3.482252    1.355017   -0.175190
     11          6           0        2.222687    0.915157   -0.556442
     12          6           0        1.754359   -0.383589   -0.343762
     13          6           0        2.646096   -1.240037    0.303194
     14          6           0        3.920968   -0.859593    0.708900
     15          1           0        5.322770    0.769253    0.772510
     16          1           0        3.778697    2.377415   -0.378601
     17          1           0        4.561715   -1.580040    1.203912
     18          9           0        1.396448    1.788410   -1.185920
     19          9           0        2.247653   -2.511768    0.546190
     20          1           0       -4.747517   -1.305315   -0.535999
     21          1           0       -3.997197   -1.212072   -2.133238
     22          1           0       -4.267404   -2.784097   -1.371728
     23          1           0       -2.592087   -2.198165    0.430657
     24          1           0       -1.887289   -2.238328   -1.172593
     25          1           0       -3.840894    0.844086   -0.035543
     26          1           0       -1.540180    1.927265    1.627234
     27          1           0       -3.008317    2.752324    1.095009
     28          1           0       -0.799183    2.021817   -0.460153
     29          1           0        0.321034   -1.898143   -0.797147
     30          1           0        0.169080   -0.435809   -1.771915
     31          1           0       -2.015890    0.223562   -1.343936
     32          6           0       -3.321390    0.046513    1.888224
     33          1           0       -3.945085   -0.844066    1.773295
     34          1           0       -2.444284   -0.232975    2.484184
     35          1           0       -3.892783    0.770569    2.479864
     36          1           0       -0.565976   -0.612047    1.051208
 ---------------------------------------------------------------------
 Rotational constants (GHZ):      0.7180186      0.2664274      0.2231814
 Standard basis: 6-311G(d) (5D, 7F)
 There are   380 symmetry adapted cartesian basis functions of A   symmetry.
 There are   363 symmetry adapted basis functions of A   symmetry.
   363 basis functions,   639 primitive gaussians,   380 cartesian basis functions
    65 alpha electrons       65 beta electrons
       nuclear repulsion energy      1276.9208679391 Hartrees.
 NAtoms=   36 NActive=   36 NUniq=   36 SFac= 1.00D+00 NAtFMM=   60 NAOKFM=F Big=F
 Integral buffers will be    131072 words long.
 Raffenetti 2 integral format.
 Two-electron integral symmetry is turned on.
 ------------------------------------------------------------------------------
 Polarizable Continuum Model (PCM)
 =================================
 Model                : PCM (using non-symmetric T matrix).
 Atomic radii         : UFF (Universal Force Field).
 Polarization charges : Total charges.
 Charge compensation  : None.
 Solution method      : On-the-fly selection.
 Cavity type          : Scaled VdW (van der Waals Surface) (Alpha=1.100).
 Cavity algorithm     : GePol (No added spheres)
                        Default sphere list used, NSphG=   36.
                        Lebedev-Laikov grids with approx.  5.0 points / Ang**2.
                        Smoothing algorithm: Karplus/York (Gamma=1.0000).
                        Polarization charges: spherical gaussians, with
                                              point-specific exponents (IZeta= 3).
                        Self-potential: point-specific (ISelfS= 7).
                        Self-field    : sphere-specific E.n sum rule (ISelfD= 2).
 Solvent              : Chloroform, Eps=   4.711300 Eps(inf)=   2.090627
 ------------------------------------------------------------------------------
 One-electron integrals computed using PRISM.
 NBasis=   363 RedAO= T EigKep=  2.26D-04  NBF=   363
 NBsUse=   363 1.00D-06 EigRej= -1.00D+00 NBFU=   363
 ExpMin= 1.03D-01 ExpMax= 1.14D+04 ExpMxC= 1.72D+03 IAcc=1 IRadAn=         1 AccDes= 0.00D+00
 Harris functional with IExCor=  908 and IRadAn=       1 diagonalized for initial guess.
 HarFok:  IExCor=  908 AccDes= 0.00D+00 IRadAn=         1 IDoV= 1 UseB2=F ITyADJ=14
 ICtDFT=  3500011 ScaDFX=  1.000000  1.000000  1.000000  1.000000
 FoFCou: FMM=F IPFlag=           0 FMFlag=      100000 FMFlg1=           0
         NFxFlg=           0 DoJE=T BraDBF=F KetDBF=T FulRan=T
         wScrn=  0.000000 ICntrl=     500 IOpCl=  0 I1Cent=   200000004 NGrid=           0
         NMat0=    1 NMatS0=      1 NMatT0=    0 NMatD0=    1 NMtDS0=    0 NMtDT0=    0
 Petite list used in FoFCou.
 Requested convergence on RMS density matrix=1.00D-08 within 128 cycles.
 Requested convergence on MAX density matrix=1.00D-06.
 Requested convergence on             energy=1.00D-06.
 No special actions if energy rises.
 Inv3:  Mode=1 IEnd=    18525675.
 Iteration    1 A*A^-1 deviation from unit magnitude is 7.33D-15 for    352.
 Iteration    1 A*A^-1 deviation from orthogonality  is 5.88D-15 for   2336    360.
 Iteration    1 A^-1*A deviation from unit magnitude is 7.11D-15 for   1970.
 Iteration    1 A^-1*A deviation from orthogonality  is 2.31D-11 for   2353   2345.
 Error on total polarization charges =  0.00958
 SCF Done:  E(RmPW1PW91) =  -836.466116359     A.U. after   12 cycles
            NFock= 12  Conv=0.79D-08     -V/T= 2.0038
 DoSCS=F DFT=T ScalE2(SS,OS)=  1.000000  1.000000
 Range of M.O.s used for correlation:     1   363
 NBasis=   363 NAE=    65 NBE=    65 NFC=     0 NFV=     0
 NROrb=    363 NOA=    65 NOB=    65 NVA=   298 NVB=   298

 **** Warning!!: The largest alpha MO coefficient is  0.12065442D+02

 NEqPCM:  Using equilibrium solvation (IEInf=0, Eps=   4.7113, EpsInf=   2.0906)
          Differentiating once with respect to magnetic field using GIAOs.
          Electric field/nuclear overlap derivatives assumed to be zero.
 FoFJK:  IHMeth= 1 ICntrl=    6127 DoSepK=F KAlg= 0 I1Cent=   0 FoldK=F
 IRaf=         1 NMat=   1 IRICut=       1 DoRegI=T DoRafI=F ISym2E= 0.
          There are     3 degrees of freedom in the 1st order CPHF.  IDoFFX=0 NUNeed=     3.
      3 vectors produced by pass  0 Test12= 6.46D-13 3.33D-08 XBig12= 4.78D+01 1.87D+00.
 AX will form     3 AO Fock derivatives at one time.
      3 vectors produced by pass  1 Test12= 6.46D-13 3.33D-08 XBig12= 1.46D-01 1.63D-01.
      3 vectors produced by pass  2 Test12= 6.46D-13 3.33D-08 XBig12= 7.35D-04 7.04D-03.
      3 vectors produced by pass  3 Test12= 6.46D-13 3.33D-08 XBig12= 1.60D-06 2.36D-04.
      3 vectors produced by pass  4 Test12= 6.46D-13 3.33D-08 XBig12= 3.15D-09 1.61D-05.
      3 vectors produced by pass  5 Test12= 6.46D-13 3.33D-08 XBig12= 1.42D-11 8.01D-07.
      1 vectors produced by pass  6 Test12= 6.46D-13 3.33D-08 XBig12= 2.63D-14 4.35D-08.
 InvSVY:  IOpt=1 It=  1 EMax= 8.88D-16
 Solved reduced A of dimension    19 with     3 vectors.
 Calculating GIAO nuclear magnetic shielding tensors.
 SCF GIAO Magnetic shielding tensor (ppm):
      1  C    Isotropic =   176.4642   Anisotropy =    20.0572
   XX=   183.8294   YX=     4.7083   ZX=     9.9098
   XY=     2.4609   YY=   171.7562   ZY=    -0.9714
   XZ=     8.7973   YZ=    -0.5360   ZZ=   173.8071
   Eigenvalues:   166.8555   172.7015   189.8357
      2  C    Isotropic =   162.6340   Anisotropy =    20.7995
   XX=   161.9906   YX=     7.5629   ZX=     9.8304
   XY=     9.6508   YY=   168.8530   ZY=    -1.6409
   XZ=    14.6301   YZ=    -3.2316   ZZ=   157.0585
   Eigenvalues:   144.7248   166.6768   176.5004
      3  C    Isotropic =   126.2692   Anisotropy =    43.0310
   XX=   150.4099   YX=    -1.6588   ZX=    10.2891
   XY=     7.3278   YY=   116.3722   ZY=     4.0295
   XZ=    16.4427   YZ=     2.4567   ZZ=   112.0255
   Eigenvalues:   107.2589   116.5922   154.9566
      4  C    Isotropic =   150.5768   Anisotropy =    15.3511
   XX=   147.5862   YX=     0.3721   ZX=    -8.0957
   XY=     6.1598   YY=   159.2414   ZY=    -2.6149
   XZ=   -12.0786   YZ=     2.5905   ZZ=   144.9027
   Eigenvalues:   135.8695   155.0500   160.8109
      5  C    Isotropic =   120.0805   Anisotropy =    66.4266
   XX=   105.6026   YX=    22.6705   ZX=   -26.9541
   XY=    26.2031   YY=   117.6708   ZY=   -18.4038
   XZ=   -23.0073   YZ=   -10.3330   ZZ=   136.9681
   Eigenvalues:    83.5468   112.3298   164.3649
      6  O    Isotropic =   314.6698   Anisotropy =    46.1392
   XX=   332.6694   YX=    -5.4725   ZX=   -16.5178
   XY=   -30.3430   YY=   316.9867   ZY=     8.0335
   XZ=     1.4539   YZ=    -4.3267   ZZ=   294.3534
   Eigenvalues:   292.7864   305.7938   345.4293
      7  N    Isotropic =   203.4404   Anisotropy =    43.2437
   XX=   223.9239   YX=     7.3684   ZX=    19.8080
   XY=    13.3557   YY=   169.0514   ZY=     8.0209
   XZ=    -3.1438   YZ=     7.7623   ZZ=   217.3459
   Eigenvalues:   166.3652   211.6864   232.2696
      8  C    Isotropic =   147.1798   Anisotropy =    49.2821
   XX=   158.2986   YX=    -6.9261   ZX=   -18.8551
   XY=    -9.1342   YY=   128.9006   ZY=    11.2980
   XZ=   -19.8719   YZ=    14.7304   ZZ=   154.3402
   Eigenvalues:   123.4220   138.0829   180.0345
      9  C    Isotropic =    53.8695   Anisotropy =   188.7209
   XX=   -17.0087   YX=   -37.6924   ZX=   -69.8509
   XY=   -37.0424   YY=    37.4392   ZY=    29.7221
   XZ=   -69.8556   YZ=    29.7875   ZZ=   141.1779
   Eigenvalues:   -50.8406    32.7657   179.6834
     10  C    Isotropic =    72.0019   Anisotropy =   146.9171
   XX=    70.5867   YX=   -23.9820   ZX=   -34.0905
   XY=   -30.8424   YY=     2.8269   ZY=    40.3232
   XZ=   -32.3666   YZ=    43.1565   ZZ=   142.5920
   Eigenvalues:   -12.8588    58.9179   169.9467
     11  C    Isotropic =    16.8109   Anisotropy =    96.8361
   XX=     6.3793   YX=    38.4796   ZX=   -45.6657
   XY=    32.3207   YY=    -7.1068   ZY=    42.0087
   XZ=   -37.9988   YZ=    41.9020   ZZ=    51.1603
   Eigenvalues:   -66.1431    35.2075    81.3683
     12  C    Isotropic =    65.1737   Anisotropy =   138.7936
   XX=    37.6400   YX=   -17.7403   ZX=   -48.5064
   XY=   -19.0135   YY=    34.0208   ZY=    34.6196
   XZ=   -45.7476   YZ=    37.0852   ZZ=   123.8602
   Eigenvalues:    15.8780    21.9403   157.7028
     13  C    Isotropic =    19.3914   Anisotropy =    96.2265
   XX=    34.9601   YX=   -34.5308   ZX=    -9.7308
   XY=   -28.2048   YY=   -45.7826   ZY=    29.7108
   XZ=   -10.5538   YZ=    30.8287   ZZ=    68.9967
   Eigenvalues:   -61.5912    36.2230    83.5424
     14  C    Isotropic =    72.4216   Anisotropy =   145.8893
   XX=    50.5917   YX=    12.6512   ZX=   -53.9451
   XY=    19.4038   YY=    35.4964   ZY=    50.7391
   XZ=   -55.8669   YZ=    47.5014   ZZ=   131.1767
   Eigenvalues:   -11.3632    58.9469   169.6811
     15  H    Isotropic =    24.6139   Anisotropy =     3.1113
   XX=    25.6327   YX=     0.3431   ZX=     1.6191
   XY=     0.3381   YY=    26.1341   ZY=    -1.5251
   XZ=     1.5389   YZ=    -1.4936   ZZ=    22.0748
   Eigenvalues:    21.0158    26.1377    26.6881
     16  H    Isotropic =    25.0756   Anisotropy =     5.4409
   XX=    27.9223   YX=     1.2386   ZX=     1.9642
   XY=     0.9240   YY=    25.0539   ZY=    -1.0188
   XZ=     1.9766   YZ=    -0.8731   ZZ=    22.2506
   Eigenvalues:    21.2320    25.2920    28.7029
     17  H    Isotropic =    25.1677   Anisotropy =     4.7429
   XX=    27.4653   YX=     1.0440   ZX=     1.9247
   XY=     1.1827   YY=    25.6874   ZY=    -0.8299
   XZ=     1.8099   YZ=    -0.9134   ZZ=    22.3505
   Eigenvalues:    21.4118    25.7616    28.3297
     18  F    Isotropic =   302.2390   Anisotropy =   127.2050
   XX=   258.1760   YX=   -34.4435   ZX=   -33.0969
   XY=   -48.4803   YY=   270.6394   ZY=     7.6829
   XZ=   -22.2604   YZ=    10.8021   ZZ=   377.9018
   Eigenvalues:   220.9865   298.6882   387.0423
     19  F    Isotropic =   301.2001   Anisotropy =   117.3343
   XX=   247.8891   YX=     7.1212   ZX=   -60.8599
   XY=     5.5652   YY=   309.9621   ZY=    25.4257
   XZ=   -56.5882   YZ=    25.6532   ZZ=   345.7492
   Eigenvalues:   217.3268   306.8506   379.4230
     20  H    Isotropic =    31.1318   Anisotropy =     7.4525
   XX=    35.9194   YX=    -0.1681   ZX=    -1.2909
   XY=    -0.0667   YY=    28.2711   ZY=     2.8746
   XZ=    -0.6846   YZ=     2.6544   ZZ=    29.2050
   Eigenvalues:    25.9040    31.3913    36.1001
     21  H    Isotropic =    31.3180   Anisotropy =     9.2166
   XX=    30.0921   YX=     0.2849   ZX=     4.1252
   XY=     0.8147   YY=    28.5437   ZY=    -1.9437
   XZ=     3.1977   YZ=    -2.0014   ZZ=    35.3181
   Eigenvalues:    26.8730    29.6185    37.4624
     22  H    Isotropic =    30.9996   Anisotropy =    11.5479
   XX=    30.9287   YX=     4.8374   ZX=     2.5619
   XY=     3.7872   YY=    34.7128   ZY=     2.6061
   XZ=     2.4088   YZ=     2.8300   ZZ=    27.3573
   Eigenvalues:    26.0375    28.2630    38.6982
     23  H    Isotropic =    30.8428   Anisotropy =     5.0136
   XX=    29.3026   YX=     0.7149   ZX=     0.9935
   XY=     0.4836   YY=    32.0054   ZY=    -2.7425
   XZ=     0.3158   YZ=    -2.3415   ZZ=    31.2203
   Eigenvalues:    28.2749    30.0682    34.1852
     24  H    Isotropic =    29.9821   Anisotropy =     6.5523
   XX=    33.6606   YX=    -0.3667   ZX=    -1.0832
   XY=    -0.9783   YY=    30.4816   ZY=     4.3512
   XZ=    -0.5974   YZ=     3.8426   ZZ=    25.8040
   Eigenvalues:    23.4104    32.1855    34.3503
     25  H    Isotropic =    29.9958   Anisotropy =     6.6177
   XX=    32.9323   YX=    -2.1544   ZX=     2.9401
   XY=    -1.7258   YY=    29.4037   ZY=     0.8370
   XZ=     1.7893   YZ=    -0.0115   ZZ=    27.6514
   Eigenvalues:    26.3191    29.2607    34.4076
     26  H    Isotropic =    28.6465   Anisotropy =     4.1318
   XX=    27.1350   YX=     2.5364   ZX=    -0.9165
   XY=     1.8128   YY=    27.5489   ZY=     0.3756
   XZ=     0.0265   YZ=     1.1206   ZZ=    31.2556
   Eigenvalues:    25.0457    29.4928    31.4010
     27  H    Isotropic =    28.5854   Anisotropy =     6.9553
   XX=    27.4952   YX=    -2.4233   ZX=    -2.9916
   XY=    -0.3860   YY=    31.3552   ZY=     0.5420
   XZ=    -5.0201   YZ=     2.1194   ZZ=    26.9058
   Eigenvalues:    23.1838    29.3501    33.2223
     28  H    Isotropic =    29.6923   Anisotropy =    19.9031
   XX=    37.5377   YX=    -6.9069   ZX=    -5.0318
   XY=    -7.1584   YY=    31.4017   ZY=    -2.0360
   XZ=    -6.7482   YZ=    -0.5778   ZZ=    20.1376
   Eigenvalues:    17.4280    28.6879    42.9610
     29  H    Isotropic =    27.8545   Anisotropy =     8.0174
   XX=    30.5208   YX=    -2.7527   ZX=    -0.3954
   XY=    -1.5040   YY=    31.2045   ZY=     1.3763
   XZ=     1.4652   YZ=     3.1721   ZZ=    21.8381
   Eigenvalues:    21.2038    29.1601    33.1994
     30  H    Isotropic =    28.8110   Anisotropy =     4.6112
   XX=    29.2347   YX=     0.9545   ZX=    -2.1511
   XY=     1.3640   YY=    25.5880   ZY=     0.0940
   XZ=     0.8406   YZ=    -1.1373   ZZ=    31.6103
   Eigenvalues:    25.2345    29.3134    31.8851
     31  H    Isotropic =    28.9757   Anisotropy =     1.6523
   XX=    28.8417   YX=     1.1277   ZX=     1.7219
   XY=     0.7624   YY=    28.9075   ZY=    -1.0443
   XZ=     0.0952   YZ=    -0.9885   ZZ=    29.1779
   Eigenvalues:    27.0562    29.7936    30.0772
     32  C    Isotropic =   178.1315   Anisotropy =    17.7830
   XX=   174.8930   YX=     5.5871   ZX=    -2.0856
   XY=     3.1627   YY=   175.2961   ZY=    -4.4132
   XZ=    -4.5447   YZ=   -10.1368   ZZ=   184.2054
   Eigenvalues:   169.8902   174.5175   189.9869
     33  H    Isotropic =    31.2405   Anisotropy =     8.7095
   XX=    31.0610   YX=     5.0329   ZX=    -2.2611
   XY=     4.4570   YY=    32.2230   ZY=     0.2372
   XZ=    -3.0994   YZ=    -0.7827   ZZ=    30.4375
   Eigenvalues:    26.0333    30.6414    37.0468
     34  H    Isotropic =    31.9172   Anisotropy =     7.2236
   XX=    32.4132   YX=    -1.5076   ZX=     1.4929
   XY=    -2.1057   YY=    28.1775   ZY=    -1.9596
   XZ=     1.5969   YZ=    -2.3881   ZZ=    35.1610
   Eigenvalues:    27.1944    31.8244    36.7330
     35  H    Isotropic =    31.7209   Anisotropy =    10.8709
   XX=    31.3979   YX=    -2.3023   ZX=    -5.0885
   XY=    -2.3206   YY=    30.5594   ZY=     2.1431
   XZ=    -5.5989   YZ=     2.4256   ZZ=    33.2054
   Eigenvalues:    26.8512    29.3434    38.9682
     36  H    Isotropic =    31.8413   Anisotropy =     7.6856
   XX=    34.5225   YX=    -3.3250   ZX=     0.4290
   XY=    -3.5287   YY=    24.9382   ZY=    -2.2498
   XZ=    -2.0755   YZ=    -4.3061   ZZ=    36.0632
   Eigenvalues:    22.9699    35.5889    36.9650
 End of Minotr F.D. properties file   721 does not exist.
 End of Minotr F.D. properties file   722 does not exist.
 End of Minotr F.D. properties file   788 does not exist.

 **********************************************************************

            Population analysis using the SCF density.

 **********************************************************************

 Orbital symmetries:
       Occupied  (A) (A) (A) (A) (A) (A) (A) (A) (A) (A) (A) (A)
                 (A) (A) (A) (A) (A) (A) (A) (A) (A) (A) (A) (A)
                 (A) (A) (A) (A) (A) (A) (A) (A) (A) (A) (A) (A)
                 (A) (A) (A) (A) (A) (A) (A) (A) (A) (A) (A) (A)
                 (A) (A) (A) (A) (A) (A) (A) (A) (A) (A) (A) (A)
                 (A) (A) (A) (A) (A)
       Virtual   (A) (A) (A) (A) (A) (A) (A) (A) (A) (A) (A) (A)
                 (A) (A) (A) (A) (A) (A) (A) (A) (A) (A) (A) (A)
                 (A) (A) (A) (A) (A) (A) (A) (A) (A) (A) (A) (A)
                 (A) (A) (A) (A) (A) (A) (A) (A) (A) (A) (A) (A)
                 (A) (A) (A) (A) (A) (A) (A) (A) (A) (A) (A) (A)
                 (A) (A) (A) (A) (A) (A) (A) (A) (A) (A) (A) (A)
                 (A) (A) (A) (A) (A) (A) (A) (A) (A) (A) (A) (A)
                 (A) (A) (A) (A) (A) (A) (A) (A) (A) (A) (A) (A)
                 (A) (A) (A) (A) (A) (A) (A) (A) (A) (A) (A) (A)
                 (A) (A) (A) (A) (A) (A) (A) (A) (A) (A) (A) (A)
                 (A) (A) (A) (A) (A) (A) (A) (A) (A) (A) (A) (A)
                 (A) (A) (A) (A) (A) (A) (A) (A) (A) (A) (A) (A)
                 (A) (A) (A) (A) (A) (A) (A) (A) (A) (A) (A) (A)
                 (A) (A) (A) (A) (A) (A) (A) (A) (A) (A) (A) (A)
                 (A) (A) (A) (A) (A) (A) (A) (A) (A) (A) (A) (A)
                 (A) (A) (A) (A) (A) (A) (A) (A) (A) (A) (A) (A)
                 (A) (A) (A) (A) (A) (A) (A) (A) (A) (A) (A) (A)
                 (A) (A) (A) (A) (A) (A) (A) (A) (A) (A) (A) (A)
                 (A) (A) (A) (A) (A) (A) (A) (A) (A) (A) (A) (A)
                 (A) (A) (A) (A) (A) (A) (A) (A) (A) (A) (A) (A)
                 (A) (A) (A) (A) (A) (A) (A) (A) (A) (A) (A) (A)
                 (A) (A) (A) (A) (A) (A) (A) (A) (A) (A) (A) (A)
                 (A) (A) (A) (A) (A) (A) (A) (A) (A) (A) (A) (A)
                 (A) (A) (A) (A) (A) (A) (A) (A) (A) (A) (A) (A)
                 (A) (A) (A) (A) (A) (A) (A) (A) (A) (A)
 The electronic state is 1-A.
 Alpha  occ. eigenvalues --  -24.80224 -24.79991 -19.19339 -14.38649 -10.33903
 Alpha  occ. eigenvalues --  -10.33855 -10.27380 -10.26676 -10.26480 -10.26254
 Alpha  occ. eigenvalues --  -10.26220 -10.25441 -10.25425 -10.23399 -10.22789
 Alpha  occ. eigenvalues --  -10.22168 -10.22021  -1.26997  -1.26923  -1.03654
 Alpha  occ. eigenvalues --   -0.94435  -0.90736  -0.83228  -0.80160  -0.78896
 Alpha  occ. eigenvalues --   -0.78142  -0.72073  -0.68826  -0.67804  -0.65953
 Alpha  occ. eigenvalues --   -0.64163  -0.62829  -0.58813  -0.57281  -0.55680
 Alpha  occ. eigenvalues --   -0.52507  -0.52212  -0.51582  -0.51083  -0.49749
 Alpha  occ. eigenvalues --   -0.49100  -0.47698  -0.46846  -0.46722  -0.46288
 Alpha  occ. eigenvalues --   -0.43864  -0.43190  -0.42370  -0.42022  -0.41471
 Alpha  occ. eigenvalues --   -0.40844  -0.40028  -0.39368  -0.38381  -0.37985
 Alpha  occ. eigenvalues --   -0.37735  -0.36555  -0.35849  -0.34892  -0.33104
 Alpha  occ. eigenvalues --   -0.32029  -0.27760  -0.27371  -0.27092  -0.24619
 Alpha virt. eigenvalues --   -0.02410  -0.00974   0.04904   0.05594   0.06334
 Alpha virt. eigenvalues --    0.07076   0.07620   0.10151   0.10419   0.10930
 Alpha virt. eigenvalues --    0.11232   0.11631   0.12293   0.13156   0.13485
 Alpha virt. eigenvalues --    0.13590   0.14330   0.14477   0.16231   0.16292
 Alpha virt. eigenvalues --    0.17269   0.17303   0.18356   0.19508   0.20915
 Alpha virt. eigenvalues --    0.21318   0.21992   0.23251   0.23723   0.25208
 Alpha virt. eigenvalues --    0.25649   0.26357   0.27165   0.28569   0.29364
 Alpha virt. eigenvalues --    0.32707   0.33223   0.33531   0.34803   0.34886
 Alpha virt. eigenvalues --    0.35865   0.36820   0.37873   0.38742   0.39024
 Alpha virt. eigenvalues --    0.39743   0.40483   0.40823   0.41127   0.42548
 Alpha virt. eigenvalues --    0.42921   0.43471   0.44503   0.45497   0.46496
 Alpha virt. eigenvalues --    0.47239   0.47812   0.48961   0.50598   0.51125
 Alpha virt. eigenvalues --    0.52597   0.53171   0.54313   0.55095   0.55708
 Alpha virt. eigenvalues --    0.56167   0.57476   0.58415   0.58671   0.58966
 Alpha virt. eigenvalues --    0.59848   0.60320   0.60988   0.61198   0.62169
 Alpha virt. eigenvalues --    0.62572   0.62895   0.63239   0.63567   0.64290
 Alpha virt. eigenvalues --    0.64702   0.65065   0.65570   0.66518   0.67267
 Alpha virt. eigenvalues --    0.67606   0.68846   0.69308   0.70330   0.70685
 Alpha virt. eigenvalues --    0.72109   0.73158   0.73617   0.74460   0.76360
 Alpha virt. eigenvalues --    0.77651   0.78644   0.81634   0.82540   0.84957
 Alpha virt. eigenvalues --    0.88134   0.89868   0.90899   0.92871   0.93398
 Alpha virt. eigenvalues --    0.95179   0.97734   0.98139   0.99512   1.00243
 Alpha virt. eigenvalues --    1.01804   1.03868   1.04444   1.05794   1.08471
 Alpha virt. eigenvalues --    1.09537   1.11207   1.12021   1.13373   1.15334
 Alpha virt. eigenvalues --    1.15557   1.18900   1.19351   1.20943   1.25974
 Alpha virt. eigenvalues --    1.27103   1.27825   1.28491   1.29263   1.31241
 Alpha virt. eigenvalues --    1.31342   1.35899   1.36651   1.38876   1.43081
 Alpha virt. eigenvalues --    1.45115   1.46124   1.46351   1.47611   1.49140
 Alpha virt. eigenvalues --    1.52248   1.53543   1.54041   1.54408   1.56164
 Alpha virt. eigenvalues --    1.56794   1.57515   1.58221   1.59304   1.60528
 Alpha virt. eigenvalues --    1.62146   1.63717   1.64271   1.66490   1.67004
 Alpha virt. eigenvalues --    1.67943   1.68845   1.69173   1.71563   1.73528
 Alpha virt. eigenvalues --    1.75642   1.76220   1.77986   1.78358   1.81817
 Alpha virt. eigenvalues --    1.83588   1.84093   1.84655   1.88233   1.89933
 Alpha virt. eigenvalues --    1.90118   1.90970   1.92577   1.94142   1.95993
 Alpha virt. eigenvalues --    1.97039   1.98683   1.99648   2.02760   2.05125
 Alpha virt. eigenvalues --    2.07102   2.10680   2.14504   2.17141   2.19191
 Alpha virt. eigenvalues --    2.19953   2.24181   2.26304   2.26817   2.27705
 Alpha virt. eigenvalues --    2.30329   2.31216   2.35912   2.38060   2.40138
 Alpha virt. eigenvalues --    2.41274   2.42488   2.43639   2.45666   2.47633
 Alpha virt. eigenvalues --    2.48530   2.49817   2.50908   2.52374   2.53902
 Alpha virt. eigenvalues --    2.55167   2.56869   2.59108   2.60874   2.64545
 Alpha virt. eigenvalues --    2.66532   2.68278   2.69982   2.71283   2.74129
 Alpha virt. eigenvalues --    2.77081   2.82475   2.83841   2.85145   2.90508
 Alpha virt. eigenvalues --    2.91525   2.94682   2.98275   2.99106   3.04930
 Alpha virt. eigenvalues --    3.05441   3.06018   3.07271   3.08656   3.11716
 Alpha virt. eigenvalues --    3.12516   3.15314   3.18143   3.18759   3.21351
 Alpha virt. eigenvalues --    3.24746   3.25782   3.27855   3.28430   3.29083
 Alpha virt. eigenvalues --    3.29769   3.31507   3.32786   3.37289   3.40342
 Alpha virt. eigenvalues --    3.46073   3.47675   3.52055   3.59842   3.64097
 Alpha virt. eigenvalues --    3.75800   3.78290   3.79968   3.80045   3.81019
 Alpha virt. eigenvalues --    3.84725   3.87547   3.96359   3.97116   3.98716
 Alpha virt. eigenvalues --    3.99153   4.06514   4.09171   4.11558   4.12459
 Alpha virt. eigenvalues --    4.18577   4.20072   4.48281   4.75080   4.77445
 Alpha virt. eigenvalues --    4.78297   4.80515   4.96264   5.07717   5.46069
 Alpha virt. eigenvalues --    6.13170   6.16667   6.29916   6.34286   6.55969
 Alpha virt. eigenvalues --    6.58903  23.28734  23.47278  23.58423  23.68943
 Alpha virt. eigenvalues --   23.72350  23.77131  23.80739  23.84164  23.86040
 Alpha virt. eigenvalues --   23.90602  24.10004  24.10567  24.19672  35.57755
 Alpha virt. eigenvalues --   49.99851  66.89257  66.89636
          Condensed to atoms (all electrons):
               1          2          3          4          5          6
     1  C    5.351463   0.294205  -0.068415   0.000373  -0.000261  -0.000022
     2  C    0.294205   5.372689   0.305850  -0.074232   0.008709   0.000872
     3  C   -0.068415   0.305850   5.350498   0.281698  -0.060163   0.012048
     4  C    0.000373  -0.074232   0.281698   5.531523   0.270241  -0.070992
     5  C   -0.000261   0.008709  -0.060163   0.270241   5.105294   0.261208
     6  O   -0.000022   0.000872   0.012048  -0.070992   0.261208   8.185038
     7  N    0.005856  -0.065621   0.274851  -0.063844  -0.000121  -0.014455
     8  C    0.000026  -0.005084  -0.077032   0.008132  -0.000048   0.000393
     9  C    0.000000   0.000000  -0.000001   0.000000   0.000000   0.000000
    10  C    0.000000   0.000001   0.000011  -0.000004   0.000008  -0.000004
    11  C   -0.000001   0.000064   0.000056  -0.000374   0.000511   0.000121
    12  C    0.000018   0.000145   0.007026   0.000498  -0.000335   0.000025
    13  C    0.000001  -0.000049  -0.000123   0.000045  -0.000020  -0.000001
    14  C    0.000000  -0.000001   0.000013   0.000000   0.000000   0.000000
    15  H    0.000000   0.000000   0.000000   0.000000   0.000000   0.000000
    16  H    0.000000   0.000000   0.000000   0.000000   0.000001   0.000003
    17  H    0.000000   0.000000   0.000000   0.000000   0.000000   0.000000
    18  F    0.000000   0.000005  -0.000610   0.000078  -0.000413  -0.001446
    19  F    0.000000  -0.000028   0.000032   0.000000   0.000000   0.000000
    20  H    0.386333  -0.035728  -0.007833   0.003973   0.000225  -0.000016
    21  H    0.387135  -0.044899  -0.001273  -0.001746  -0.000169  -0.000085
    22  H    0.389845  -0.033858   0.007152  -0.000124   0.000022   0.000001
    23  H   -0.036590   0.383859  -0.039787  -0.009953  -0.000544  -0.000001
    24  H   -0.042327   0.407420  -0.045747   0.006802  -0.000188  -0.000011
    25  H    0.001283  -0.002281  -0.053389   0.398365  -0.034540   0.004600
    26  H   -0.000068   0.000652  -0.009053  -0.074667   0.399031  -0.035039
    27  H   -0.000008  -0.000082   0.008984  -0.042537   0.389809  -0.026546
    28  H   -0.000051   0.000407   0.001557   0.001088  -0.056359   0.259426
    29  H   -0.000350   0.003016   0.000905  -0.000772   0.000092  -0.000061
    30  H    0.000037  -0.002423  -0.005090   0.000684  -0.000179   0.000361
    31  H   -0.000034  -0.048816   0.393484  -0.050045  -0.008408   0.019214
    32  C   -0.002891  -0.006942  -0.070773   0.267772  -0.069876   0.004052
    33  H   -0.000116   0.001315  -0.008009  -0.027041   0.005694  -0.000171
    34  H    0.000338  -0.000892  -0.005826  -0.039322  -0.004457  -0.000178
    35  H   -0.000037  -0.000030   0.008267  -0.038327  -0.003753   0.000103
    36  H   -0.000025  -0.003775  -0.049446  -0.005329  -0.001937   0.000639
               7          8          9         10         11         12
     1  C    0.005856   0.000026   0.000000   0.000000  -0.000001   0.000018
     2  C   -0.065621  -0.005084   0.000000   0.000001   0.000064   0.000145
     3  C    0.274851  -0.077032  -0.000001   0.000011   0.000056   0.007026
     4  C   -0.063844   0.008132   0.000000  -0.000004  -0.000374   0.000498
     5  C   -0.000121  -0.000048   0.000000   0.000008   0.000511  -0.000335
     6  O   -0.014455   0.000393   0.000000  -0.000004   0.000121   0.000025
     7  N    7.002889   0.280965   0.000049   0.000078   0.020683  -0.091886
     8  C    0.280965   5.280696  -0.001097   0.006958  -0.085722   0.302632
     9  C    0.000049  -0.001097   5.063520   0.447011  -0.011915  -0.052798
    10  C    0.000078   0.006958   0.447011   5.148725   0.490936  -0.041814
    11  C    0.020683  -0.085722  -0.011915   0.490936   4.790338   0.228232
    12  C   -0.091886   0.302632  -0.052798  -0.041814   0.228232   5.755639
    13  C   -0.005728  -0.079800  -0.006667  -0.058835   0.044031   0.287835
    14  C   -0.000168   0.009109   0.439463  -0.044919  -0.058459  -0.035239
    15  H   -0.000001   0.000025   0.403480  -0.041608   0.006702  -0.001850
    16  H    0.000025  -0.000250  -0.039152   0.392763  -0.049126   0.011657
    17  H    0.000010  -0.000220  -0.040982   0.007001  -0.001778   0.012550
    18  F   -0.001360  -0.000301   0.004939  -0.049992   0.293641  -0.075862
    19  F   -0.000379  -0.005315   0.005505  -0.000490   0.005536  -0.077810
    20  H   -0.000076   0.000003   0.000000   0.000000   0.000000   0.000002
    21  H    0.000036  -0.000065   0.000000   0.000000   0.000000  -0.000004
    22  H   -0.000260  -0.000022   0.000000   0.000000   0.000000  -0.000002
    23  H    0.002429  -0.000244   0.000000   0.000000  -0.000008  -0.000097
    24  H   -0.005380   0.005647   0.000000  -0.000001  -0.000054   0.000619
    25  H    0.005483  -0.000321   0.000000   0.000000   0.000001   0.000018
    26  H    0.011191  -0.000548   0.000002  -0.000013   0.000264   0.000092
    27  H    0.000431   0.000035   0.000000   0.000000   0.000012  -0.000014
    28  H    0.024136  -0.000237  -0.000035   0.000226  -0.000649  -0.003305
    29  H   -0.037462   0.394099  -0.000341   0.000175   0.011228  -0.050970
    30  H   -0.044822   0.387214  -0.000089   0.000235  -0.015835  -0.030715
    31  H   -0.045475  -0.008864   0.000001  -0.000013  -0.000138   0.000281
    32  C   -0.002162  -0.000362   0.000000   0.000000   0.000003  -0.000009
    33  H    0.000254  -0.000054   0.000000   0.000000   0.000000   0.000003
    34  H    0.002212  -0.000172   0.000000   0.000000   0.000001   0.000080
    35  H   -0.000297   0.000028   0.000000   0.000000   0.000000  -0.000001
    36  H    0.321142  -0.044862  -0.000040  -0.000033  -0.000497  -0.006807
              13         14         15         16         17         18
     1  C    0.000001   0.000000   0.000000   0.000000   0.000000   0.000000
     2  C   -0.000049  -0.000001   0.000000   0.000000   0.000000   0.000005
     3  C   -0.000123   0.000013   0.000000   0.000000   0.000000  -0.000610
     4  C    0.000045   0.000000   0.000000   0.000000   0.000000   0.000078
     5  C   -0.000020   0.000000   0.000000   0.000001   0.000000  -0.000413
     6  O   -0.000001   0.000000   0.000000   0.000003   0.000000  -0.001446
     7  N   -0.005728  -0.000168  -0.000001   0.000025   0.000010  -0.001360
     8  C   -0.079800   0.009109   0.000025  -0.000250  -0.000220  -0.000301
     9  C   -0.006667   0.439463   0.403480  -0.039152  -0.040982   0.004939
    10  C   -0.058835  -0.044919  -0.041608   0.392763   0.007001  -0.049992
    11  C    0.044031  -0.058459   0.006702  -0.049126  -0.001778   0.293641
    12  C    0.287835  -0.035239  -0.001850   0.011657   0.012550  -0.075862
    13  C    4.773477   0.473013   0.006250  -0.001610  -0.049481   0.004973
    14  C    0.473013   5.178017  -0.040624   0.006687   0.393693  -0.000407
    15  H    0.006250  -0.040624   0.445621  -0.006421  -0.006446  -0.000083
    16  H   -0.001610   0.006687  -0.006421   0.443013  -0.000130   0.001619
    17  H   -0.049481   0.393693  -0.006446  -0.000130   0.446036   0.000004
    18  F    0.004973  -0.000407  -0.000083   0.001619   0.000004   9.050155
    19  F    0.310423  -0.053673  -0.000082   0.000004   0.001448  -0.000001
    20  H    0.000000   0.000000   0.000000   0.000000   0.000000   0.000000
    21  H    0.000000   0.000000   0.000000   0.000000   0.000000   0.000000
    22  H    0.000000   0.000000   0.000000   0.000000   0.000000   0.000000
    23  H    0.000021   0.000000   0.000000   0.000000   0.000000   0.000000
    24  H    0.000018  -0.000004   0.000000   0.000000   0.000000  -0.000006
    25  H    0.000000   0.000000   0.000000   0.000000   0.000000   0.000001
    26  H   -0.000021  -0.000002   0.000000   0.000000   0.000000  -0.000042
    27  H   -0.000001   0.000000   0.000000   0.000000   0.000000  -0.000014
    28  H   -0.000162   0.000014   0.000001   0.000027   0.000000   0.017484
    29  H   -0.021982   0.001150   0.000005   0.000012  -0.000018   0.000153
    30  H    0.006633  -0.000070   0.000002  -0.000033   0.000009   0.006427
    31  H    0.000076   0.000000   0.000000  -0.000001   0.000000  -0.000128
    32  C   -0.000002   0.000000   0.000000   0.000000   0.000000   0.000000
    33  H    0.000000   0.000000   0.000000   0.000000   0.000000   0.000000
    34  H   -0.000006   0.000000   0.000000   0.000000   0.000000   0.000000
    35  H    0.000000   0.000000   0.000000   0.000000   0.000000   0.000000
    36  H    0.003065  -0.000054   0.000000  -0.000002  -0.000001   0.000034
              19         20         21         22         23         24
     1  C    0.000000   0.386333   0.387135   0.389845  -0.036590  -0.042327
     2  C   -0.000028  -0.035728  -0.044899  -0.033858   0.383859   0.407420
     3  C    0.000032  -0.007833  -0.001273   0.007152  -0.039787  -0.045747
     4  C    0.000000   0.003973  -0.001746  -0.000124  -0.009953   0.006802
     5  C    0.000000   0.000225  -0.000169   0.000022  -0.000544  -0.000188
     6  O    0.000000  -0.000016  -0.000085   0.000001  -0.000001  -0.000011
     7  N   -0.000379  -0.000076   0.000036  -0.000260   0.002429  -0.005380
     8  C   -0.005315   0.000003  -0.000065  -0.000022  -0.000244   0.005647
     9  C    0.005505   0.000000   0.000000   0.000000   0.000000   0.000000
    10  C   -0.000490   0.000000   0.000000   0.000000   0.000000  -0.000001
    11  C    0.005536   0.000000   0.000000   0.000000  -0.000008  -0.000054
    12  C   -0.077810   0.000002  -0.000004  -0.000002  -0.000097   0.000619
    13  C    0.310423   0.000000   0.000000   0.000000   0.000021   0.000018
    14  C   -0.053673   0.000000   0.000000   0.000000   0.000000  -0.000004
    15  H   -0.000082   0.000000   0.000000   0.000000   0.000000   0.000000
    16  H    0.000004   0.000000   0.000000   0.000000   0.000000   0.000000
    17  H    0.001448   0.000000   0.000000   0.000000   0.000000   0.000000
    18  F   -0.000001   0.000000   0.000000   0.000000   0.000000  -0.000006
    19  F    9.049826   0.000000   0.000000   0.000000  -0.000003  -0.000120
    20  H    0.000000   0.477960  -0.028520  -0.028468  -0.006019   0.006713
    21  H    0.000000  -0.028520   0.483134  -0.027805   0.007429  -0.004130
    22  H    0.000000  -0.028468  -0.027805   0.475163  -0.004643  -0.005529
    23  H   -0.000003  -0.006019   0.007429  -0.004643   0.501612  -0.033185
    24  H   -0.000120   0.006713  -0.004130  -0.005529  -0.033185   0.481262
    25  H    0.000000  -0.001339  -0.000418   0.000351  -0.000581  -0.000302
    26  H    0.000000  -0.000027  -0.000015   0.000004  -0.000163  -0.000007
    27  H    0.000000   0.000025   0.000003  -0.000001  -0.000014   0.000017
    28  H    0.000001   0.000004   0.000004   0.000003  -0.000053   0.000028
    29  H    0.013467  -0.000017  -0.000008   0.000093  -0.000826   0.000141
    30  H    0.000125   0.000007   0.000055  -0.000021   0.000307   0.000276
    31  H    0.000001  -0.000482   0.004546  -0.000356   0.007372  -0.005533
    32  C    0.000000  -0.000257   0.000366  -0.000099   0.004605  -0.000148
    33  H    0.000000   0.003074  -0.000091   0.000018  -0.001638   0.000295
    34  H   -0.000004  -0.000097  -0.000019   0.000017  -0.000400  -0.000150
    35  H    0.000000   0.000043   0.000013  -0.000009   0.000259   0.000014
    36  H    0.001040   0.000006   0.000030  -0.000004   0.004524  -0.000517
              25         26         27         28         29         30
     1  C    0.001283  -0.000068  -0.000008  -0.000051  -0.000350   0.000037
     2  C   -0.002281   0.000652  -0.000082   0.000407   0.003016  -0.002423
     3  C   -0.053389  -0.009053   0.008984   0.001557   0.000905  -0.005090
     4  C    0.398365  -0.074667  -0.042537   0.001088  -0.000772   0.000684
     5  C   -0.034540   0.399031   0.389809  -0.056359   0.000092  -0.000179
     6  O    0.004600  -0.035039  -0.026546   0.259426  -0.000061   0.000361
     7  N    0.005483   0.011191   0.000431   0.024136  -0.037462  -0.044822
     8  C   -0.000321  -0.000548   0.000035  -0.000237   0.394099   0.387214
     9  C    0.000000   0.000002   0.000000  -0.000035  -0.000341  -0.000089
    10  C    0.000000  -0.000013   0.000000   0.000226   0.000175   0.000235
    11  C    0.000001   0.000264   0.000012  -0.000649   0.011228  -0.015835
    12  C    0.000018   0.000092  -0.000014  -0.003305  -0.050970  -0.030715
    13  C    0.000000  -0.000021  -0.000001  -0.000162  -0.021982   0.006633
    14  C    0.000000  -0.000002   0.000000   0.000014   0.001150  -0.000070
    15  H    0.000000   0.000000   0.000000   0.000001   0.000005   0.000002
    16  H    0.000000   0.000000   0.000000   0.000027   0.000012  -0.000033
    17  H    0.000000   0.000000   0.000000   0.000000  -0.000018   0.000009
    18  F    0.000001  -0.000042  -0.000014   0.017484   0.000153   0.006427
    19  F    0.000000   0.000000   0.000000   0.000001   0.013467   0.000125
    20  H   -0.001339  -0.000027   0.000025   0.000004  -0.000017   0.000007
    21  H   -0.000418  -0.000015   0.000003   0.000004  -0.000008   0.000055
    22  H    0.000351   0.000004  -0.000001   0.000003   0.000093  -0.000021
    23  H   -0.000581  -0.000163  -0.000014  -0.000053  -0.000826   0.000307
    24  H   -0.000302  -0.000007   0.000017   0.000028   0.000141   0.000276
    25  H    0.500527   0.009753  -0.010900  -0.000557   0.000048  -0.000141
    26  H    0.009753   0.538918  -0.039390  -0.006854   0.000107  -0.000186
    27  H   -0.010900  -0.039390   0.494279   0.006277   0.000004  -0.000001
    28  H   -0.000557  -0.006854   0.006277   0.355207   0.000449  -0.001514
    29  H    0.000048   0.000107   0.000004   0.000449   0.495855  -0.037918
    30  H   -0.000141  -0.000186  -0.000001  -0.001514  -0.037918   0.465160
    31  H   -0.003815   0.001153  -0.000227  -0.005963  -0.001424   0.007698
    32  C   -0.042252   0.003087  -0.002485  -0.001471  -0.000021   0.000019
    33  H   -0.004297   0.000250  -0.000568   0.000060   0.000000   0.000001
    34  H    0.007622   0.005843  -0.000634   0.000011   0.000044  -0.000034
    35  H   -0.005691  -0.002176   0.004456  -0.000033  -0.000004   0.000004
    36  H   -0.000187  -0.001393  -0.000100  -0.000887  -0.006634   0.008736
              31         32         33         34         35         36
     1  C   -0.000034  -0.002891  -0.000116   0.000338  -0.000037  -0.000025
     2  C   -0.048816  -0.006942   0.001315  -0.000892  -0.000030  -0.003775
     3  C    0.393484  -0.070773  -0.008009  -0.005826   0.008267  -0.049446
     4  C   -0.050045   0.267772  -0.027041  -0.039322  -0.038327  -0.005329
     5  C   -0.008408  -0.069876   0.005694  -0.004457  -0.003753  -0.001937
     6  O    0.019214   0.004052  -0.000171  -0.000178   0.000103   0.000639
     7  N   -0.045475  -0.002162   0.000254   0.002212  -0.000297   0.321142
     8  C   -0.008864  -0.000362  -0.000054  -0.000172   0.000028  -0.044862
     9  C    0.000001   0.000000   0.000000   0.000000   0.000000  -0.000040
    10  C   -0.000013   0.000000   0.000000   0.000000   0.000000  -0.000033
    11  C   -0.000138   0.000003   0.000000   0.000001   0.000000  -0.000497
    12  C    0.000281  -0.000009   0.000003   0.000080  -0.000001  -0.006807
    13  C    0.000076  -0.000002   0.000000  -0.000006   0.000000   0.003065
    14  C    0.000000   0.000000   0.000000   0.000000   0.000000  -0.000054
    15  H    0.000000   0.000000   0.000000   0.000000   0.000000   0.000000
    16  H   -0.000001   0.000000   0.000000   0.000000   0.000000  -0.000002
    17  H    0.000000   0.000000   0.000000   0.000000   0.000000  -0.000001
    18  F   -0.000128   0.000000   0.000000   0.000000   0.000000   0.000034
    19  F    0.000001   0.000000   0.000000  -0.000004   0.000000   0.001040
    20  H   -0.000482  -0.000257   0.003074  -0.000097   0.000043   0.000006
    21  H    0.004546   0.000366  -0.000091  -0.000019   0.000013   0.000030
    22  H   -0.000356  -0.000099   0.000018   0.000017  -0.000009  -0.000004
    23  H    0.007372   0.004605  -0.001638  -0.000400   0.000259   0.004524
    24  H   -0.005533  -0.000148   0.000295  -0.000150   0.000014  -0.000517
    25  H   -0.003815  -0.042252  -0.004297   0.007622  -0.005691  -0.000187
    26  H    0.001153   0.003087   0.000250   0.005843  -0.002176  -0.001393
    27  H   -0.000227  -0.002485  -0.000568  -0.000634   0.004456  -0.000100
    28  H   -0.005963  -0.001471   0.000060   0.000011  -0.000033  -0.000887
    29  H   -0.001424  -0.000021   0.000000   0.000044  -0.000004  -0.006634
    30  H    0.007698   0.000019   0.000001  -0.000034   0.000004   0.008736
    31  H    0.488490   0.009782  -0.000424  -0.000083  -0.000152   0.008284
    32  C    0.009782   5.429780   0.383185   0.381032   0.390903   0.005337
    33  H   -0.000424   0.383185   0.464181  -0.026482  -0.027851  -0.000157
    34  H   -0.000083   0.381032  -0.026482   0.487011  -0.028530   0.001486
    35  H   -0.000152   0.390903  -0.027851  -0.028530   0.468817  -0.000076
    36  H    0.008284   0.005337  -0.000157   0.001486  -0.000076   0.431828
 Mulliken charges:
               1
     1  C   -0.665718
     2  C   -0.454470
     3  C   -0.149862
     4  C   -0.271961
     5  C   -0.199077
     6  O   -0.599076
     7  N   -0.573222
     8  C   -0.365343
     9  C   -0.210853
    10  C   -0.256402
    11  C    0.332196
    12  C   -0.137834
    13  C    0.314628
    14  C   -0.267541
    15  H    0.235029
    16  H    0.240915
    17  H    0.238304
    18  F   -0.248849
    19  F   -0.249506
    20  H    0.230510
    21  H    0.226495
    22  H    0.228531
    23  H    0.222332
    24  H    0.234084
    25  H    0.232960
    26  H    0.199318
    27  H    0.219188
    28  H    0.411721
    29  H    0.237766
    30  H    0.255085
    31  H    0.239997
    32  C   -0.680174
    33  H    0.238569
    34  H    0.221588
    35  H    0.234059
    36  H    0.336612
 Sum of Mulliken charges =   0.00000
 Mulliken charges with hydrogens summed into heavy atoms:
               1
     1  C    0.019818
     2  C    0.001946
     3  C    0.090135
     4  C   -0.039001
     5  C    0.219429
     6  O   -0.187355
     7  N   -0.236610
     8  C    0.127508
     9  C    0.024176
    10  C   -0.015487
    11  C    0.332196
    12  C   -0.137834
    13  C    0.314628
    14  C   -0.029237
    18  F   -0.248849
    19  F   -0.249506
    32  C    0.014043
 Electronic spatial extent (au):  <R**2>=           5047.1250
 Charge=              0.0000 electrons
 Dipole moment (field-independent basis, Debye):
    X=              1.7772    Y=             -2.6806    Z=              1.3731  Tot=              3.4971
 Quadrupole moment (field-independent basis, Debye-Ang):
   XX=            -86.3700   YY=           -111.8147   ZZ=           -101.2203
   XY=              8.3307   XZ=              0.5419   YZ=              3.3441
 Traceless Quadrupole moment (field-independent basis, Debye-Ang):
   XX=             13.4317   YY=            -12.0131   ZZ=             -1.4186
   XY=              8.3307   XZ=              0.5419   YZ=              3.3441
 Octapole moment (field-independent basis, Debye-Ang**2):
  XXX=             79.3788  YYY=            -16.1872  ZZZ=             -7.0763  XYY=             20.3188
  XXY=             12.5035  XXZ=             25.3184  XZZ=             -0.3138  YZZ=             -2.4925
  YYZ=              5.8388  XYZ=            -10.1849
 Hexadecapole moment (field-independent basis, Debye-Ang**3):
 XXXX=          -4320.9746 YYYY=          -1434.1853 ZZZZ=           -577.8929 XXXY=              1.9970
 XXXZ=             89.5098 YYYX=             50.3794 YYYZ=              0.4157 ZZZX=              3.3462
 ZZZY=            -29.9247 XXYY=           -977.6677 XXZZ=           -900.2835 YYZZ=           -321.0358
 XXYZ=            -10.9406 YYXZ=            -18.9032 ZZXY=            -24.2919
 N-N= 1.276920867939D+03 E-N=-4.511718925311D+03  KE= 8.332581300997D+02
 1\1\GINC-SWANNODE-0-11\SP\RmPW1PW91\6-311G(d)\C13H19F2N1O1\KE291\06-Ma
 r-2019\0\\# mPW1PW91/6-311g(d) geom=checkpoint nmr=giao scrf=(solvent=
 chloroform)\\AT3_2ginp009\\0,1\C,0,-0.7692959393,-1.7422435523,0.66648
 22792\C,0,-2.2308355733,-1.3064947301,0.5037033169\C,0,-2.9670061995,-
 1.0325502407,1.8319964978\C,0,-2.3167655307,0.0788521082,2.6987146682\
 C,0,-3.1784839864,0.3946219322,3.9421395963\O,0,-3.7395041851,-0.75109
 37935,4.5673384264\N,0,-4.4096731039,-0.7550677428,1.6818961804\C,0,-5
 .2092116607,-1.8413835421,1.0993567451\C,0,-9.4244831452,-1.0607946875
 ,1.7645665736\C,0,-8.6123730718,-1.4573084628,2.8296548247\C,0,-7.2706
 592175,-1.7037365077,2.5758582898\C,0,-6.6822608742,-1.5840523232,1.31
 46019312\C,0,-7.5416600553,-1.1800123761,0.2921374496\C,0,-8.894519550
 9,-0.9189266776,0.4825027565\H,0,-10.4769539913,-0.861633344,1.9367561
 125\H,0,-8.9998090847,-1.5764889806,3.8347620614\H,0,-9.5034028026,-0.
 611658431,-0.3598062956\F,0,-6.480001544,-2.0979987943,3.605859013\F,0
 ,-7.0292017162,-1.037340771,-0.9537099445\H,0,-0.147070345,-0.94927045
 49,1.0926463088\H,0,-0.6900567815,-2.6147759877,1.3252465771\H,0,-0.33
 51284858,-2.0174282656,-0.299983449\H,0,-2.2874719261,-0.4172624173,-0
 .1374458626\H,0,-2.7689574243,-2.0982085314,-0.030880587\H,0,-1.360690
 1631,-0.3289550727,3.0508802641\H,0,-3.9699068952,1.1041114707,3.65890
 82767\H,0,-2.5542123801,0.8918453139,4.6933957942\H,0,-4.4404298431,-1
 .0413410115,3.9603088184\H,0,-5.0319767973,-2.0058915999,0.0291185431\
 H,0,-4.9306479844,-2.7652428222,1.6180813105\H,0,-2.9138337236,-1.9512
 739092,2.4316828093\C,0,-2.0259566458,1.3898346737,1.9508484088\H,0,-1
 .2908973016,1.2592606305,1.1521158793\H,0,-2.9331714646,1.8154324163,1
 .5053985386\H,0,-1.6264273431,2.1403881515,2.642101031\H,0,-4.55146126
 28,0.0921823325,1.1356608562\\Version=EM64L-G09RevD.01\State=1-A\HF=-8
 36.4661164\RMSD=7.850e-09\Dipole=-0.6324296,0.3029994,-1.1837237\Quadr
 upole=11.1659069,-0.6806738,-10.485233,0.3348376,-4.1216764,0.605897\P
 G=C01 [X(C13H19F2N1O1)]\\@


 NO MATTER HOW THIN YOU SLICE IT, IT'S STILL BALONEY

                                   -- ALFRED E. SMITH
 Job cpu time:       0 days  0 hours 26 minutes 46.8 seconds.
 File lengths (MBytes):  RWF=    181 Int=      0 D2E=      0 Chk=     14 Scr=      1
 Normal termination of Gaussian 09 at Wed Mar  6 12:27:25 2019.
