 Entering Gaussian System, Link 0=/usr/local/shared/gaussian/em64t/09-D01/g09/g09
 Initial command:
 /usr/local/shared/gaussian/em64t/09-D01/g09/l1.exe "/scratch/ke291/AT3_1ginp008/Gau-10766.inp" -scrdir="/scratch/ke291/AT3_1ginp008/"
 Entering Link 1 = /usr/local/shared/gaussian/em64t/09-D01/g09/l1.exe PID=     10770.
  
 Copyright (c) 1988,1990,1992,1993,1995,1998,2003,2009,2013,
            Gaussian, Inc.  All Rights Reserved.
  
 This is part of the Gaussian(R) 09 program.  It is based on
 the Gaussian(R) 03 system (copyright 2003, Gaussian, Inc.),
 the Gaussian(R) 98 system (copyright 1998, Gaussian, Inc.),
 the Gaussian(R) 94 system (copyright 1995, Gaussian, Inc.),
 the Gaussian 92(TM) system (copyright 1992, Gaussian, Inc.),
 the Gaussian 90(TM) system (copyright 1990, Gaussian, Inc.),
 the Gaussian 88(TM) system (copyright 1988, Gaussian, Inc.),
 the Gaussian 86(TM) system (copyright 1986, Carnegie Mellon
 University), and the Gaussian 82(TM) system (copyright 1983,
 Carnegie Mellon University). Gaussian is a federally registered
 trademark of Gaussian, Inc.
  
 This software contains proprietary and confidential information,
 including trade secrets, belonging to Gaussian, Inc.
  
 This software is provided under written license and may be
 used, copied, transmitted, or stored only in accord with that
 written license.
  
 The following legend is applicable only to US Government
 contracts under FAR:
  
                    RESTRICTED RIGHTS LEGEND
  
 Use, reproduction and disclosure by the US Government is
 subject to restrictions as set forth in subparagraphs (a)
 and (c) of the Commercial Computer Software - Restricted
 Rights clause in FAR 52.227-19.
  
 Gaussian, Inc.
 340 Quinnipiac St., Bldg. 40, Wallingford CT 06492
  
  
 ---------------------------------------------------------------
 Warning -- This program may not be used in any manner that
 competes with the business of Gaussian, Inc. or will provide
 assistance to any competitor of Gaussian, Inc.  The licensee
 of this program is prohibited from giving any competitor of
 Gaussian, Inc. access to this program.  By using this program,
 the user acknowledges that Gaussian, Inc. is engaged in the
 business of creating and licensing software in the field of
 computational chemistry and represents and warrants to the
 licensee that it is not a competitor of Gaussian, Inc. and that
 it will not use this program in any manner prohibited above.
 ---------------------------------------------------------------
  

 Cite this work as:
 Gaussian 09, Revision D.01,
 M. J. Frisch, G. W. Trucks, H. B. Schlegel, G. E. Scuseria, 
 M. A. Robb, J. R. Cheeseman, G. Scalmani, V. Barone, B. Mennucci, 
 G. A. Petersson, H. Nakatsuji, M. Caricato, X. Li, H. P. Hratchian, 
 A. F. Izmaylov, J. Bloino, G. Zheng, J. L. Sonnenberg, M. Hada, 
 M. Ehara, K. Toyota, R. Fukuda, J. Hasegawa, M. Ishida, T. Nakajima, 
 Y. Honda, O. Kitao, H. Nakai, T. Vreven, J. A. Montgomery, Jr., 
 J. E. Peralta, F. Ogliaro, M. Bearpark, J. J. Heyd, E. Brothers, 
 K. N. Kudin, V. N. Staroverov, T. Keith, R. Kobayashi, J. Normand, 
 K. Raghavachari, A. Rendell, J. C. Burant, S. S. Iyengar, J. Tomasi, 
 M. Cossi, N. Rega, J. M. Millam, M. Klene, J. E. Knox, J. B. Cross, 
 V. Bakken, C. Adamo, J. Jaramillo, R. Gomperts, R. E. Stratmann, 
 O. Yazyev, A. J. Austin, R. Cammi, C. Pomelli, J. W. Ochterski, 
 R. L. Martin, K. Morokuma, V. G. Zakrzewski, G. A. Voth, 
 P. Salvador, J. J. Dannenberg, S. Dapprich, A. D. Daniels, 
 O. Farkas, J. B. Foresman, J. V. Ortiz, J. Cioslowski, 
 and D. J. Fox, Gaussian, Inc., Wallingford CT, 2013.
 
 ******************************************
 Gaussian 09:  EM64L-G09RevD.01 24-Apr-2013
                 6-Mar-2019 
 ******************************************
 %nprocshared=2
 Will use up to    2 processors via shared memory.
 %mem=6000MB
 %chk=AT3_1ginp008.chk
 ----------------------------------------------------------------------
 # mPW1PW91/6-311g(d) geom=checkpoint nmr=giao scrf=(solvent=chloroform
 )
 ----------------------------------------------------------------------
 1/29=2,38=1/1;
 2/12=2,40=1/2;
 3/5=4,6=6,7=1,11=2,14=-4,16=1,25=1,30=1,70=2201,72=7,74=-7/1,2,8,3;
 4//1;
 5/5=2,38=5,53=7/2;
 8/6=1,10=90,11=11/1;
 10/13=100,45=16/2;
 6/7=2,8=2,9=2,10=2,28=1/1;
 99/9=1/99;
 ------------
 AT3_1ginp008
 ------------
 Structure from the checkpoint file:  "AT3_1ginp008.chk"
 Charge =  0 Multiplicity = 1
 Redundant internal coordinates found in file.
 C,0,-0.3140598833,0.1016829108,-0.1312700242
 C,0,-0.8817755394,0.4831534113,1.2417171884
 C,0,0.1265485905,1.1822120053,2.1751613993
 C,0,-0.3481238992,1.1808707353,3.656307241
 C,0,-1.6212118388,2.0227924192,3.8736258912
 O,0,-1.4062956011,3.4137468965,3.6694467468
 N,0,0.3762588329,2.5663423762,1.6808916598
 C,0,1.7635653276,3.0590425801,1.7428859591
 C,0,4.6804765781,0.8130866497,-0.5752940239
 C,0,4.7616230171,0.8096646011,0.8169672493
 C,0,3.8158497267,1.5303364981,1.5384822151
 C,0,2.7850523326,2.2624543701,0.9470258804
 C,0,2.7561471128,2.2207032599,-0.448511883
 C,0,3.6672772262,1.5212286849,-1.226042379
 H,0,5.407674655,0.2575356537,-1.1578779638
 H,0,5.5353496211,0.2647616185,1.3452724816
 H,0,3.5787091687,1.5374913962,-2.3060409218
 F,0,3.8995305346,1.5207096701,2.8915110928
 F,0,1.7548997535,2.8994193254,-1.0700150998
 H,0,0.5316985408,-0.5868315476,-0.029267587
 H,0,-1.0773952802,-0.3937921978,-0.739181004
 H,0,0.0365434073,0.9711536679,-0.6968523422
 H,0,-1.7601557235,1.1282650054,1.110091262
 H,0,-1.241892724,-0.4234892551,1.7410256602
 H,0,-0.6140840136,0.1377960781,3.8809718577
 H,0,-1.9656258103,1.8958062481,4.9078360283
 H,0,-2.4303534542,1.6484703099,3.2251612113
 H,0,-0.8398452606,3.4518670705,2.8680287636
 H,0,1.7531673262,4.0884584926,1.3709595007
 H,0,2.0841011142,3.0978070212,2.7829259859
 H,0,1.0616447551,0.6001450108,2.1361409229
 C,0,0.7502893715,1.6043197095,4.6443627273
 H,0,0.9054239365,2.6859734162,4.6139916001
 H,0,0.4594045345,1.348897221,5.6690995514
 H,0,1.7037575919,1.1114075979,4.4295641033
 H,0,0.0673389729,2.6387640889,0.7159570493
 Recover connectivity data from disk.
                          Input orientation:                          
 ---------------------------------------------------------------------
 Center     Atomic      Atomic             Coordinates (Angstroms)
 Number     Number       Type             X           Y           Z
 ---------------------------------------------------------------------
      1          6           0       -0.314060    0.101683   -0.131270
      2          6           0       -0.881776    0.483153    1.241717
      3          6           0        0.126549    1.182212    2.175161
      4          6           0       -0.348124    1.180871    3.656307
      5          6           0       -1.621212    2.022792    3.873626
      6          8           0       -1.406296    3.413747    3.669447
      7          7           0        0.376259    2.566342    1.680892
      8          6           0        1.763565    3.059043    1.742886
      9          6           0        4.680477    0.813087   -0.575294
     10          6           0        4.761623    0.809665    0.816967
     11          6           0        3.815850    1.530336    1.538482
     12          6           0        2.785052    2.262454    0.947026
     13          6           0        2.756147    2.220703   -0.448512
     14          6           0        3.667277    1.521229   -1.226042
     15          1           0        5.407675    0.257536   -1.157878
     16          1           0        5.535350    0.264762    1.345272
     17          1           0        3.578709    1.537491   -2.306041
     18          9           0        3.899531    1.520710    2.891511
     19          9           0        1.754900    2.899419   -1.070015
     20          1           0        0.531699   -0.586832   -0.029268
     21          1           0       -1.077395   -0.393792   -0.739181
     22          1           0        0.036543    0.971154   -0.696852
     23          1           0       -1.760156    1.128265    1.110091
     24          1           0       -1.241893   -0.423489    1.741026
     25          1           0       -0.614084    0.137796    3.880972
     26          1           0       -1.965626    1.895806    4.907836
     27          1           0       -2.430353    1.648470    3.225161
     28          1           0       -0.839845    3.451867    2.868029
     29          1           0        1.753167    4.088458    1.370960
     30          1           0        2.084101    3.097807    2.782926
     31          1           0        1.061645    0.600145    2.136141
     32          6           0        0.750289    1.604320    4.644363
     33          1           0        0.905424    2.685973    4.613992
     34          1           0        0.459405    1.348897    5.669100
     35          1           0        1.703758    1.111408    4.429564
     36          1           0        0.067339    2.638764    0.715957
 ---------------------------------------------------------------------
                    Distance matrix (angstroms):
                    1          2          3          4          5
     1  C    0.000000
     2  C    1.533921   0.000000
     3  C    2.584822   1.541661   0.000000
     4  C    3.938470   2.569404   1.555348   0.000000
     5  C    4.630173   3.137546   2.577988   1.541691   0.000000
     6  O    5.158313   3.841532   3.092288   2.470959   1.422193
     7  N    3.136083   2.472893   1.490797   2.519232   3.015530
     8  C    4.071236   3.726151   2.527683   3.412908   4.131656
     9  C    5.064449   5.860805   5.332872   6.582442   7.808172
    10  C    5.211809   5.668771   4.844316   5.857402   7.180210
    11  C    4.678170   4.822069   3.759986   4.684654   5.937765
    12  C    3.928887   4.086365   3.121359   4.280984   5.295053
    13  C    3.743937   4.371548   3.857060   5.250456   6.154780
    14  C    4.366312   5.278382   4.921370   6.330610   7.363851
    15  H    5.815192   6.735439   6.313040   7.560301   8.822551
    16  H    6.035094   6.421675   5.548474   6.387128   7.790996
    17  H    4.684530   5.796045   5.667875   7.148202   8.090919
    18  F    5.376354   5.163258   3.855273   4.329315   5.629852
    19  F    3.604048   4.258463   4.016404   5.451077   6.050305
    20  H    1.095337   2.181325   2.855375   4.181187   5.165050
    21  H    1.094410   2.175146   3.525147   4.725645   5.235800
    22  H    1.094891   2.199888   2.881165   4.375151   4.974271
    23  H    2.164727   1.097746   2.167242   2.912013   2.908025
    24  H    2.154570   1.095899   2.153922   2.653507   3.267439
    25  H    4.023606   2.675181   2.132869   1.099643   2.137188
    26  H    5.598137   4.075628   3.514815   2.166511   1.097423
    27  H    4.258742   2.773104   2.803149   2.177204   1.102422
    28  H    4.527248   3.385249   2.562287   2.453691   1.914161
    29  H    4.735452   4.467421   3.426208   4.253505   4.681533
    30  H    4.818763   4.243603   2.805511   3.217632   4.009317
    31  H    2.698551   2.142560   1.102148   2.153043   3.498642
    32  C    5.118342   3.936832   2.581508   1.536904   2.528472
    33  H    5.539242   4.406669   2.969148   2.180338   2.715113
    34  H    5.983150   4.706378   3.513713   2.175240   2.829633
    35  H    5.088452   4.152355   2.752260   2.193848   3.492150
    36  H    2.701859   2.413276   2.062602   3.308130   3.633386
                    6          7          8          9         10
     6  O    0.000000
     7  N    2.801776   0.000000
     8  C    3.726321   1.473505   0.000000
     9  C    7.863209   5.166292   4.350477   0.000000
    10  C    7.277438   4.802468   3.860748   1.394628   0.000000
    11  C    5.946347   3.595049   2.567215   2.393758   1.390841
    12  C    5.128786   2.536374   1.520323   2.830328   2.456490
    13  C    5.975522   3.212117   2.547598   2.387572   2.759420
    14  C    7.299903   4.513683   3.847535   1.396965   2.424418
    15  H    8.927201   6.221282   5.435293   1.084831   2.149940
    16  H    7.968961   5.659164   4.710887   2.172566   1.083826
    17  H    8.004815   5.216307   4.690807   2.175808   3.417923
    18  F    5.686877   3.869417   2.871960   3.623444   2.356379
    19  F    5.720156   3.095009   2.817440   3.627194   4.119243
    20  H    5.782814   3.590447   4.236794   4.412513   4.534157
    21  H    5.834512   4.090508   5.114077   5.885279   6.161497
    22  H    5.206977   2.883349   3.646122   4.648212   4.964283
    23  H    3.449485   2.637830   4.067547   6.664954   6.536132
    24  H    4.297699   3.400165   4.600088   6.478342   6.198125
    25  H    3.377010   3.423298   4.331086   6.953179   6.223966
    26  H    2.037303   4.043169   5.027613   8.683759   7.948005
    27  H    2.088609   3.332316   4.666456   8.105876   7.630696
    28  H    0.982135   1.916340   2.863216   7.020939   6.524150
    29  H    3.964907   2.075758   1.094593   4.804696   4.484217
    30  H    3.615053   2.100871   1.089004   4.820659   4.033573
    31  H    4.044516   2.131417   2.587184   4.526938   3.933695
    32  C    2.979152   3.138080   3.400223   6.581583   5.601003
    33  H    2.601128   2.982851   3.019741   6.684864   5.727844
    34  H    3.426814   4.170718   4.476671   7.556255   6.507153
    35  H    3.943473   3.381462   3.318900   5.830820   4.742620
    36  H    3.390472   1.015763   2.026919   5.126545   5.039059
                   11         12         13         14         15
    11  C    0.000000
    12  C    1.395837   0.000000
    13  C    2.355360   1.396461   0.000000
    14  C    2.768529   2.459667   1.387075   0.000000
    15  H    3.379983   3.915159   3.374585   2.151871   0.000000
    16  H    2.143756   3.422501   3.842829   3.417611   2.506415
    17  H    3.851837   3.426063   2.143315   1.083746   2.510315
    18  F    1.355648   2.360777   3.599037   4.124099   4.501962
    19  F    3.595297   2.352742   1.359933   2.362402   4.508884
    20  H    4.210212   3.761540   3.606409   3.963337   5.075614
    21  H    5.730084   4.981711   4.649314   5.139675   6.531131
    22  H    4.426349   3.453128   3.003214   3.710101   5.437908
    23  H    5.606872   4.687418   4.900985   5.921906   7.568332
    24  H    5.425792   4.905203   5.269739   6.056845   7.285889
    25  H    5.201033   4.967529   5.868679   6.806286   7.852765
    26  H    6.701610   6.196079   7.147808   8.336328   9.687227
    27  H    6.471004   5.724276   6.381466   7.550530   9.087377
    28  H    5.209172   4.271398   5.044439   6.387718   8.089696
    29  H    3.290397   2.139812   2.793735   4.122973   5.867403
    30  H    2.646612   2.135340   3.415135   4.589540   5.885849
    31  H    2.967844   2.673462   3.489696   4.352240   5.464057
    32  C    4.364588   4.271265   5.508245   6.555713   7.561155
    33  H    4.389172   4.142343   5.410231   6.564332   7.712461
    34  H    5.325471   5.342397   6.592438   7.606782   8.502004
    35  H    3.604829   3.823896   5.112112   6.000771   6.757781
    36  H    3.994558   2.753356   2.959806   4.240260   6.140089
                   16         17         18         19         20
    16  H    0.000000
    17  H    4.333633   0.000000
    18  F    2.577627   5.207471   0.000000
    19  F    5.202580   2.590152   4.711048   0.000000
    20  H    5.258431   4.356687   4.931021   3.838401   0.000000
    21  H    6.964699   5.278657   6.451126   4.356213   1.769300
    22  H    5.908141   3.931560   5.301041   2.609637   1.765833
    23  H    7.350194   6.351449   5.946387   4.499496   3.080956
    24  H    6.823586   6.592602   5.615849   5.284358   2.511224
    25  H    6.652926   7.603801   4.823298   6.144178   4.138584
    26  H    8.462671   9.105386   6.213399   7.112261   6.064249
    27  H    8.300666   8.167946   6.339959   6.126154   4.935751
    28  H    7.288315   7.068200   5.117773   4.748272   5.156214
    29  H    5.378310   4.833256   3.675906   2.715175   5.031000
    30  H    4.690854   5.528655   2.407241   3.872065   4.888246
    31  H    4.555435   5.191070   3.077600   4.005833   2.525619
    32  C    5.964496   7.504168   3.605163   5.944799   5.166406
    33  H    6.163035   7.506818   3.645470   5.751096   5.693047
    34  H    6.755446   8.565541   4.424815   7.035488   6.018610
    35  H    4.991068   7.004667   2.711928   5.783163   4.913137
    36  H    5.994253   4.761827   4.546292   2.470931   3.342971
                   21         22         23         24         25
    21  H    0.000000
    22  H    1.762308   0.000000
    23  H    2.490508   2.553009   0.000000
    24  H    2.485833   3.085884   1.753458   0.000000
    25  H    4.673656   4.698327   3.157893   2.299686   0.000000
    26  H    6.157923   6.022972   3.879975   3.991442   2.443709
    27  H    4.660187   4.682577   2.278881   2.812137   2.451746
    28  H    5.278019   4.430618   3.055559   4.055880   3.472764
    29  H    5.705729   4.115851   4.601547   5.428168   5.245167
    30  H    5.881459   4.563333   4.632039   4.954525   4.153020
    31  H    3.718989   3.035512   3.048647   2.551515   2.462980
    32  C    6.026228   5.425764   4.361197   4.063270   2.143589
    33  H    6.486369   5.648064   4.670020   4.746963   3.056048
    34  H    6.816508   6.391154   5.075400   4.633091   2.411751
    35  H    6.059403   5.392534   4.797695   4.273289   2.573181
    36  H    3.553061   2.185842   2.403474   3.484573   4.091026
                   26         27         28         29         30
    26  H    0.000000
    27  H    1.763106   0.000000
    28  H    2.801700   2.430946   0.000000
    29  H    5.580918   5.185890   3.061075   0.000000
    30  H    4.728672   4.761980   2.946534   1.756291   0.000000
    31  H    4.304114   3.805128   3.504803   3.637587   2.775259
    32  C    2.744190   3.483184   3.016177   4.229879   2.733954
    33  H    2.992263   3.759345   2.584752   3.633578   2.216233
    34  H    2.599885   3.796483   3.735844   5.258614   3.745440
    35  H    3.782645   4.339343   3.792896   4.268528   2.608038
    36  H    4.717709   3.676310   2.472960   2.317900   2.924109
                   31         32         33         34         35
    31  H    0.000000
    32  C    2.719648   0.000000
    33  H    3.242658   1.093144   0.000000
    34  H    3.661300   1.095418   1.760670   0.000000
    35  H    2.435875   1.094624   1.774995   1.772361   0.000000
    36  H    2.676104   4.119329   3.987391   5.133332   4.336077
                   36
    36  H    0.000000
 Stoichiometry    C13H19F2NO
 Framework group  C1[X(C13H19F2NO)]
 Deg. of freedom   102
 Full point group                 C1      NOp   1
 Largest Abelian subgroup         C1      NOp   1
 Largest concise Abelian subgroup C1      NOp   1
                         Standard orientation:                         
 ---------------------------------------------------------------------
 Center     Atomic      Atomic             Coordinates (Angstroms)
 Number     Number       Type             X           Y           Z
 ---------------------------------------------------------------------
      1          6           0       -0.257045   -2.511624    1.474527
      2          6           0       -1.562173   -1.739388    1.243858
      3          6           0       -1.372915   -0.341976    0.620849
      4          6           0       -2.639466    0.546657    0.779877
      5          6           0       -3.848254    0.006077   -0.009690
      6          8           0       -3.661351    0.067315   -1.418217
      7          7           0       -0.983732   -0.490424   -0.810575
      8          6           0        0.046009    0.430514   -1.323140
      9          6           0        3.932040    0.202975    0.619445
     10          6           0        3.161590    1.356917    0.760200
     11          6           0        1.920247    1.406274    0.134845
     12          6           0        1.398077    0.362819   -0.631250
     13          6           0        2.215559   -0.765177   -0.728472
     14          6           0        3.461297   -0.878515   -0.129082
     15          1           0        4.903299    0.142849    1.098923
     16          1           0        3.502571    2.207411    1.339053
     17          1           0        4.037499   -1.788221   -0.251276
     18          9           0        1.175831    2.530191    0.277802
     19          9           0        1.739046   -1.818203   -1.445053
     20          1           0        0.408091   -1.965609    2.152189
     21          1           0       -0.462150   -3.488873    1.922466
     22          1           0        0.294763   -2.690239    0.545878
     23          1           0       -2.232182   -2.331551    0.607088
     24          1           0       -2.078942   -1.621625    2.203064
     25          1           0       -2.906004    0.494178    1.845436
     26          1           0       -4.733281    0.610259    0.227012
     27          1           0       -4.074801   -1.022919    0.314623
     28          1           0       -2.732362   -0.223828   -1.547852
     29          1           0        0.181879    0.198122   -2.384115
     30          1           0       -0.325720    1.452426   -1.264462
     31          1           0       -0.560195    0.153254    1.176692
     32          6           0       -2.390083    2.023373    0.434635
     33          1           0       -2.331331    2.165668   -0.647615
     34          1           0       -3.216943    2.643772    0.797053
     35          1           0       -1.464111    2.396170    0.883857
     36          1           0       -0.656347   -1.438234   -0.972600
 ---------------------------------------------------------------------
 Rotational constants (GHZ):      0.7185995      0.3109867      0.2673338
 Standard basis: 6-311G(d) (5D, 7F)
 There are   380 symmetry adapted cartesian basis functions of A   symmetry.
 There are   363 symmetry adapted basis functions of A   symmetry.
   363 basis functions,   639 primitive gaussians,   380 cartesian basis functions
    65 alpha electrons       65 beta electrons
       nuclear repulsion energy      1314.3020679060 Hartrees.
 NAtoms=   36 NActive=   36 NUniq=   36 SFac= 1.00D+00 NAtFMM=   60 NAOKFM=F Big=F
 Integral buffers will be    131072 words long.
 Raffenetti 2 integral format.
 Two-electron integral symmetry is turned on.
 ------------------------------------------------------------------------------
 Polarizable Continuum Model (PCM)
 =================================
 Model                : PCM (using non-symmetric T matrix).
 Atomic radii         : UFF (Universal Force Field).
 Polarization charges : Total charges.
 Charge compensation  : None.
 Solution method      : On-the-fly selection.
 Cavity type          : Scaled VdW (van der Waals Surface) (Alpha=1.100).
 Cavity algorithm     : GePol (No added spheres)
                        Default sphere list used, NSphG=   36.
                        Lebedev-Laikov grids with approx.  5.0 points / Ang**2.
                        Smoothing algorithm: Karplus/York (Gamma=1.0000).
                        Polarization charges: spherical gaussians, with
                                              point-specific exponents (IZeta= 3).
                        Self-potential: point-specific (ISelfS= 7).
                        Self-field    : sphere-specific E.n sum rule (ISelfD= 2).
 Solvent              : Chloroform, Eps=   4.711300 Eps(inf)=   2.090627
 ------------------------------------------------------------------------------
 One-electron integrals computed using PRISM.
 NBasis=   363 RedAO= T EigKep=  2.24D-04  NBF=   363
 NBsUse=   363 1.00D-06 EigRej= -1.00D+00 NBFU=   363
 ExpMin= 1.03D-01 ExpMax= 1.14D+04 ExpMxC= 1.72D+03 IAcc=1 IRadAn=         1 AccDes= 0.00D+00
 Harris functional with IExCor=  908 and IRadAn=       1 diagonalized for initial guess.
 HarFok:  IExCor=  908 AccDes= 0.00D+00 IRadAn=         1 IDoV= 1 UseB2=F ITyADJ=14
 ICtDFT=  3500011 ScaDFX=  1.000000  1.000000  1.000000  1.000000
 FoFCou: FMM=F IPFlag=           0 FMFlag=      100000 FMFlg1=           0
         NFxFlg=           0 DoJE=T BraDBF=F KetDBF=T FulRan=T
         wScrn=  0.000000 ICntrl=     500 IOpCl=  0 I1Cent=   200000004 NGrid=           0
         NMat0=    1 NMatS0=      1 NMatT0=    0 NMatD0=    1 NMtDS0=    0 NMtDT0=    0
 Petite list used in FoFCou.
 Requested convergence on RMS density matrix=1.00D-08 within 128 cycles.
 Requested convergence on MAX density matrix=1.00D-06.
 Requested convergence on             energy=1.00D-06.
 No special actions if energy rises.
 Inv3:  Mode=1 IEnd=    17323227.
 Iteration    1 A*A^-1 deviation from unit magnitude is 7.33D-15 for   2052.
 Iteration    1 A*A^-1 deviation from orthogonality  is 7.11D-15 for   2206    193.
 Iteration    1 A^-1*A deviation from unit magnitude is 7.33D-15 for    186.
 Iteration    1 A^-1*A deviation from orthogonality  is 6.90D-12 for   2193   2159.
 Error on total polarization charges =  0.00908
 SCF Done:  E(RmPW1PW91) =  -836.468161968     A.U. after   12 cycles
            NFock= 12  Conv=0.70D-08     -V/T= 2.0039
 DoSCS=F DFT=T ScalE2(SS,OS)=  1.000000  1.000000
 Range of M.O.s used for correlation:     1   363
 NBasis=   363 NAE=    65 NBE=    65 NFC=     0 NFV=     0
 NROrb=    363 NOA=    65 NOB=    65 NVA=   298 NVB=   298

 **** Warning!!: The largest alpha MO coefficient is  0.12089570D+02

 NEqPCM:  Using equilibrium solvation (IEInf=0, Eps=   4.7113, EpsInf=   2.0906)
          Differentiating once with respect to magnetic field using GIAOs.
          Electric field/nuclear overlap derivatives assumed to be zero.
 FoFJK:  IHMeth= 1 ICntrl=    6127 DoSepK=F KAlg= 0 I1Cent=   0 FoldK=F
 IRaf=         1 NMat=   1 IRICut=       1 DoRegI=T DoRafI=F ISym2E= 0.
          There are     3 degrees of freedom in the 1st order CPHF.  IDoFFX=0 NUNeed=     3.
      3 vectors produced by pass  0 Test12= 6.46D-13 3.33D-08 XBig12= 3.83D+01 1.81D+00.
 AX will form     3 AO Fock derivatives at one time.
      3 vectors produced by pass  1 Test12= 6.46D-13 3.33D-08 XBig12= 1.19D-01 1.60D-01.
      3 vectors produced by pass  2 Test12= 6.46D-13 3.33D-08 XBig12= 5.86D-04 6.15D-03.
      3 vectors produced by pass  3 Test12= 6.46D-13 3.33D-08 XBig12= 1.38D-06 2.28D-04.
      3 vectors produced by pass  4 Test12= 6.46D-13 3.33D-08 XBig12= 3.27D-09 1.33D-05.
      3 vectors produced by pass  5 Test12= 6.46D-13 3.33D-08 XBig12= 1.42D-11 8.18D-07.
      1 vectors produced by pass  6 Test12= 6.46D-13 3.33D-08 XBig12= 3.95D-14 3.34D-08.
 InvSVY:  IOpt=1 It=  1 EMax= 4.44D-16
 Solved reduced A of dimension    19 with     3 vectors.
 Calculating GIAO nuclear magnetic shielding tensors.
 SCF GIAO Magnetic shielding tensor (ppm):
      1  C    Isotropic =   175.8913   Anisotropy =    21.2135
   XX=   185.5193   YX=    -7.6301   ZX=     7.3385
   XY=    -2.1179   YY=   178.6343   ZY=    -4.8525
   XZ=     4.5424   YZ=    -3.7434   ZZ=   163.5203
   Eigenvalues:   161.4619   176.1784   190.0337
      2  C    Isotropic =   156.9199   Anisotropy =    27.6237
   XX=   148.3746   YX=    -2.3888   ZX=    -9.0745
   XY=    -0.6081   YY=   166.2087   ZY=   -14.9410
   XZ=   -14.2327   YZ=    -8.9568   ZZ=   156.1765
   Eigenvalues:   137.3970   158.0271   175.3358
      3  C    Isotropic =   123.1727   Anisotropy =     9.8146
   XX=   124.7663   YX=    -4.8272   ZX=    -3.0547
   XY=    -8.3393   YY=   120.3266   ZY=    -0.4470
   XZ=    -0.0356   YZ=    -0.1745   ZZ=   124.4252
   Eigenvalues:   115.4494   124.3529   129.7158
      4  C    Isotropic =   143.8867   Anisotropy =    11.8364
   XX=   144.9364   YX=    -9.5963   ZX=    -4.0981
   XY=    -4.6049   YY=   139.9264   ZY=    -9.4932
   XZ=    -7.3831   YZ=    -4.1341   ZZ=   146.7972
   Eigenvalues:   130.1571   149.7253   151.7776
      5  C    Isotropic =   121.7468   Anisotropy =    56.0957
   XX=   109.2483   YX=     4.6717   ZX=    -7.0652
   XY=     4.5634   YY=    97.9234   ZY=     3.5283
   XZ=    -4.7275   YZ=     7.1561   ZZ=   158.0687
   Eigenvalues:    95.4824   110.6141   159.1440
      6  O    Isotropic =   311.7769   Anisotropy =    98.7061
   XX=   373.9203   YX=   -20.9993   ZX=    -2.7752
   XY=   -14.8908   YY=   288.3213   ZY=    26.3727
   XZ=    13.2035   YZ=     2.3704   ZZ=   273.0890
   Eigenvalues:   262.6735   295.0761   377.5809
      7  N    Isotropic =   201.2943   Anisotropy =    34.3051
   XX=   177.5968   YX=    16.6473   ZX=     3.7951
   XY=    20.6244   YY=   215.7217   ZY=     5.3288
   XZ=   -14.5192   YZ=     6.1139   ZZ=   210.5643
   Eigenvalues:   168.7802   210.9383   224.1643
      8  C    Isotropic =   144.6339   Anisotropy =    50.4978
   XX=   154.1897   YX=    19.5308   ZX=   -10.2905
   XY=    18.0456   YY=   136.5931   ZY=   -20.3453
   XZ=   -10.0237   YZ=   -21.6626   ZZ=   143.1188
   Eigenvalues:   116.5562   139.0463   178.2991
      9  C    Isotropic =    53.4376   Anisotropy =   189.3465
   XX=    -7.0799   YX=    28.4575   ZX=   -85.1551
   XY=    27.6330   YY=    53.3510   ZY=   -44.9605
   XZ=   -84.4211   YZ=   -44.6883   ZZ=   114.0416
   Eigenvalues:   -50.9296    31.5737   179.6686
     10  C    Isotropic =    72.3376   Anisotropy =   146.4264
   XX=    73.0114   YX=     4.6690   ZX=   -49.2534
   XY=    -1.1671   YY=    31.7430   ZY=   -66.2943
   XZ=   -52.6063   YZ=   -62.6388   ZZ=   112.2584
   Eigenvalues:   -11.4995    58.5571   169.9552
     11  C    Isotropic =    18.3687   Anisotropy =    98.6290
   XX=    15.0373   YX=    55.9904   ZX=    -9.6831
   XY=    54.3485   YY=   -24.8202   ZY=   -23.9714
   XZ=   -13.9060   YZ=   -24.0402   ZZ=    64.8890
   Eigenvalues:   -64.8739    35.8587    84.1214
     12  C    Isotropic =    66.4041   Anisotropy =   139.3522
   XX=    42.4394   YX=    23.4885   ZX=   -52.5521
   XY=    24.8256   YY=    49.6351   ZY=   -44.5389
   XZ=   -48.9277   YZ=   -46.8189   ZZ=   107.1378
   Eigenvalues:    14.5662    25.3405   159.3056
     13  C    Isotropic =    17.0161   Anisotropy =    95.3910
   XX=    34.0605   YX=   -22.1905   ZX=   -35.9917
   XY=   -17.6820   YY=   -20.9876   ZY=   -54.7218
   XZ=   -32.0000   YZ=   -55.8128   ZZ=    37.9755
   Eigenvalues:   -66.3711    36.8093    80.6101
     14  C    Isotropic =    71.9816   Anisotropy =   147.6864
   XX=    62.3776   YX=    44.9009   ZX=   -36.3749
   XY=    52.4661   YY=    21.7568   ZY=   -41.7796
   XZ=   -34.6390   YZ=   -43.1446   ZZ=   131.8104
   Eigenvalues:   -12.7517    58.2573   170.4392
     15  H    Isotropic =    24.6216   Anisotropy =     2.9795
   XX=    25.5532   YX=    -0.6558   ZX=     1.5497
   XY=    -0.7958   YY=    25.7899   ZY=     1.8329
   XZ=     1.4895   YZ=     1.8132   ZZ=    22.5218
   Eigenvalues:    21.0748    26.1822    26.6080
     16  H    Isotropic =    25.0997   Anisotropy =     4.8925
   XX=    27.4175   YX=    -0.5801   ZX=     2.4070
   XY=    -0.7788   YY=    25.1492   ZY=     1.2860
   XZ=     2.1823   YZ=     1.2781   ZZ=    22.7324
   Eigenvalues:    21.2595    25.6783    28.3613
     17  H    Isotropic =    25.1160   Anisotropy =     5.0144
   XX=    27.6734   YX=    -0.6810   ZX=     1.9948
   XY=    -0.4600   YY=    24.5896   ZY=     1.4920
   XZ=     2.1146   YZ=     1.4689   ZZ=    23.0851
   Eigenvalues:    21.4880    25.4011    28.4590
     18  F    Isotropic =   297.9022   Anisotropy =   118.0824
   XX=   270.4536   YX=    -9.0410   ZX=   -65.4899
   XY=   -12.0703   YY=   302.1832   ZY=   -43.2754
   XZ=   -61.0051   YZ=   -41.7431   ZZ=   321.0698
   Eigenvalues:   214.6651   302.4177   376.6238
     19  F    Isotropic =   295.9112   Anisotropy =   133.9223
   XX=   244.0989   YX=    27.7963   ZX=   -53.4527
   XY=    45.1807   YY=   278.9806   ZY=   -19.1033
   XZ=   -35.1852   YZ=    -8.5871   ZZ=   364.6541
   Eigenvalues:   214.4296   288.1113   385.1927
     20  H    Isotropic =    31.9612   Anisotropy =     6.7089
   XX=    33.6560   YX=     2.0286   ZX=     4.0028
   XY=     1.0211   YY=    29.9048   ZY=    -0.3858
   XZ=     2.6191   YZ=    -1.3131   ZZ=    32.3227
   Eigenvalues:    28.1057    31.3440    36.4338
     21  H    Isotropic =    31.2332   Anisotropy =    11.8151
   XX=    28.9088   YX=    -0.7496   ZX=     0.2423
   XY=    -0.0275   YY=    36.7260   ZY=    -5.0365
   XZ=    -0.5003   YZ=    -5.2035   ZZ=    28.0649
   Eigenvalues:    25.6653    28.9244    39.1100
     22  H    Isotropic =    31.2892   Anisotropy =     6.8587
   XX=    32.0240   YX=    -1.5071   ZX=    -4.1278
   XY=    -2.2737   YY=    30.9579   ZY=    -0.4590
   XZ=    -4.4386   YZ=    -1.9980   ZZ=    30.8857
   Eigenvalues:    26.1474    31.8585    35.8616
     23  H    Isotropic =    30.4747   Anisotropy =     6.5354
   XX=    32.8210   YX=     1.6417   ZX=     2.7061
   XY=     2.3521   YY=    32.3011   ZY=    -0.2046
   XZ=     2.0714   YZ=    -1.0107   ZZ=    26.3019
   Eigenvalues:    25.3042    31.2882    34.8316
     24  H    Isotropic =    30.9045   Anisotropy =     8.4121
   XX=    30.5318   YX=    -2.2517   ZX=    -4.1817
   XY=    -1.4840   YY=    28.8986   ZY=    -2.6219
   XZ=    -4.1699   YZ=    -2.9574   ZZ=    33.2833
   Eigenvalues:    24.9334    31.2676    36.5126
     25  H    Isotropic =    30.9095   Anisotropy =     7.1695
   XX=    28.3360   YX=    -1.5658   ZX=    -3.4993
   XY=    -1.3341   YY=    30.1224   ZY=    -0.4324
   XZ=    -2.8484   YZ=     0.2006   ZZ=    34.2700
   Eigenvalues:    26.4405    30.5987    35.6891
     26  H    Isotropic =    28.5968   Anisotropy =     8.7155
   XX=    33.2352   YX=    -1.5079   ZX=    -1.1114
   XY=    -1.3157   YY=    24.3175   ZY=     0.4913
   XZ=    -3.3907   YZ=     1.9546   ZZ=    28.2377
   Eigenvalues:    23.8988    27.4845    34.4071
     27  H    Isotropic =    27.8330   Anisotropy =     5.3826
   XX=    28.9485   YX=     2.8301   ZX=     0.2276
   XY=     2.2014   YY=    27.1428   ZY=    -1.3354
   XZ=    -0.7661   YZ=    -3.3514   ZZ=    27.4077
   Eigenvalues:    24.2538    27.8238    31.4214
     28  H    Isotropic =    27.7274   Anisotropy =    24.6979
   XX=    42.3901   YX=    -7.5132   ZX=     0.4800
   XY=    -6.6135   YY=    16.3487   ZY=     1.6000
   XZ=    -0.5211   YZ=     1.8471   ZZ=    24.4433
   Eigenvalues:    14.2830    24.7065    44.1926
     29  H    Isotropic =    28.2044   Anisotropy =     7.7486
   XX=    27.7649   YX=     0.5369   ZX=    -2.2599
   XY=     0.0714   YY=    23.7564   ZY=    -1.7671
   XZ=     0.0699   YZ=     0.3153   ZZ=    33.0920
   Eigenvalues:    23.6882    27.5550    33.3702
     30  H    Isotropic =    28.0179   Anisotropy =     5.1028
   XX=    29.4523   YX=     0.6928   ZX=    -0.3351
   XY=    -1.2333   YY=    31.1862   ZY=    -0.3243
   XZ=     0.8143   YZ=    -2.1135   ZZ=    23.4153
   Eigenvalues:    23.2224    29.4116    31.4198
     31  H    Isotropic =    29.6845   Anisotropy =     3.7593
   XX=    31.9774   YX=     0.5048   ZX=     0.6194
   XY=     1.2478   YY=    28.5838   ZY=     0.1105
   XZ=    -1.1017   YZ=     1.5418   ZZ=    28.4925
   Eigenvalues:    27.5697    29.2932    32.1907
     32  C    Isotropic =   169.4597   Anisotropy =    25.8822
   XX=   175.1952   YX=    -2.2354   ZX=     3.4489
   XY=    -0.7111   YY=   186.2236   ZY=    -0.7198
   XZ=     1.5182   YZ=    -5.5333   ZZ=   146.9602
   Eigenvalues:   146.5182   175.1463   186.7145
     33  H    Isotropic =    29.9795   Anisotropy =     3.9783
   XX=    28.1119   YX=    -0.2155   ZX=     0.0878
   XY=    -0.4434   YY=    30.9778   ZY=    -2.1566
   XZ=    -0.3300   YZ=    -1.2673   ZZ=    30.8489
   Eigenvalues:    28.0222    29.2847    32.6317
     34  H    Isotropic =    30.9798   Anisotropy =    11.5550
   XX=    31.7675   YX=    -4.5405   ZX=    -2.3016
   XY=    -4.9041   YY=    34.2971   ZY=     2.1141
   XZ=    -1.6857   YZ=     2.3870   ZZ=    26.8747
   Eigenvalues:    26.0925    28.1637    38.6831
     35  H    Isotropic =    30.8819   Anisotropy =     7.7514
   XX=    34.2195   YX=     1.3299   ZX=     1.9517
   XY=     2.6648   YY=    32.0760   ZY=     2.5392
   XZ=     0.5342   YZ=     2.7181   ZZ=    26.3501
   Eigenvalues:    25.3036    31.2925    36.0495
     36  H    Isotropic =    30.7292   Anisotropy =    10.1490
   XX=    29.0768   YX=    -1.0923   ZX=    -4.1154
   XY=    -2.3363   YY=    36.2734   ZY=     2.1169
   XZ=    -5.3877   YZ=     1.2245   ZZ=    26.8375
   Eigenvalues:    23.0707    31.6218    37.4952
 End of Minotr F.D. properties file   721 does not exist.
 End of Minotr F.D. properties file   722 does not exist.
 End of Minotr F.D. properties file   788 does not exist.

 **********************************************************************

            Population analysis using the SCF density.

 **********************************************************************

 Orbital symmetries:
       Occupied  (A) (A) (A) (A) (A) (A) (A) (A) (A) (A) (A) (A)
                 (A) (A) (A) (A) (A) (A) (A) (A) (A) (A) (A) (A)
                 (A) (A) (A) (A) (A) (A) (A) (A) (A) (A) (A) (A)
                 (A) (A) (A) (A) (A) (A) (A) (A) (A) (A) (A) (A)
                 (A) (A) (A) (A) (A) (A) (A) (A) (A) (A) (A) (A)
                 (A) (A) (A) (A) (A)
       Virtual   (A) (A) (A) (A) (A) (A) (A) (A) (A) (A) (A) (A)
                 (A) (A) (A) (A) (A) (A) (A) (A) (A) (A) (A) (A)
                 (A) (A) (A) (A) (A) (A) (A) (A) (A) (A) (A) (A)
                 (A) (A) (A) (A) (A) (A) (A) (A) (A) (A) (A) (A)
                 (A) (A) (A) (A) (A) (A) (A) (A) (A) (A) (A) (A)
                 (A) (A) (A) (A) (A) (A) (A) (A) (A) (A) (A) (A)
                 (A) (A) (A) (A) (A) (A) (A) (A) (A) (A) (A) (A)
                 (A) (A) (A) (A) (A) (A) (A) (A) (A) (A) (A) (A)
                 (A) (A) (A) (A) (A) (A) (A) (A) (A) (A) (A) (A)
                 (A) (A) (A) (A) (A) (A) (A) (A) (A) (A) (A) (A)
                 (A) (A) (A) (A) (A) (A) (A) (A) (A) (A) (A) (A)
                 (A) (A) (A) (A) (A) (A) (A) (A) (A) (A) (A) (A)
                 (A) (A) (A) (A) (A) (A) (A) (A) (A) (A) (A) (A)
                 (A) (A) (A) (A) (A) (A) (A) (A) (A) (A) (A) (A)
                 (A) (A) (A) (A) (A) (A) (A) (A) (A) (A) (A) (A)
                 (A) (A) (A) (A) (A) (A) (A) (A) (A) (A) (A) (A)
                 (A) (A) (A) (A) (A) (A) (A) (A) (A) (A) (A) (A)
                 (A) (A) (A) (A) (A) (A) (A) (A) (A) (A) (A) (A)
                 (A) (A) (A) (A) (A) (A) (A) (A) (A) (A) (A) (A)
                 (A) (A) (A) (A) (A) (A) (A) (A) (A) (A) (A) (A)
                 (A) (A) (A) (A) (A) (A) (A) (A) (A) (A) (A) (A)
                 (A) (A) (A) (A) (A) (A) (A) (A) (A) (A) (A) (A)
                 (A) (A) (A) (A) (A) (A) (A) (A) (A) (A) (A) (A)
                 (A) (A) (A) (A) (A) (A) (A) (A) (A) (A) (A) (A)
                 (A) (A) (A) (A) (A) (A) (A) (A) (A) (A)
 The electronic state is 1-A.
 Alpha  occ. eigenvalues --  -24.80593 -24.80202 -19.18117 -14.39720 -10.34118
 Alpha  occ. eigenvalues --  -10.34081 -10.27681 -10.26826 -10.26824 -10.26475
 Alpha  occ. eigenvalues --  -10.26318 -10.25700 -10.25652 -10.23498 -10.23442
 Alpha  occ. eigenvalues --  -10.22327 -10.21392  -1.27303  -1.27063  -1.02709
 Alpha  occ. eigenvalues --   -0.94871  -0.90948  -0.83151  -0.80378  -0.79116
 Alpha  occ. eigenvalues --   -0.78585  -0.72218  -0.69204  -0.68035  -0.66143
 Alpha  occ. eigenvalues --   -0.64327  -0.62056  -0.59046  -0.58207  -0.55624
 Alpha  occ. eigenvalues --   -0.52736  -0.52012  -0.51772  -0.50916  -0.49832
 Alpha  occ. eigenvalues --   -0.49208  -0.48004  -0.47045  -0.46825  -0.46164
 Alpha  occ. eigenvalues --   -0.45153  -0.43322  -0.42464  -0.42006  -0.41567
 Alpha  occ. eigenvalues --   -0.40918  -0.40414  -0.39538  -0.38504  -0.38382
 Alpha  occ. eigenvalues --   -0.37626  -0.36640  -0.35726  -0.34034  -0.33284
 Alpha  occ. eigenvalues --   -0.32776  -0.28111  -0.27354  -0.26674  -0.25301
 Alpha virt. eigenvalues --   -0.02700  -0.01298   0.04883   0.05569   0.07058
 Alpha virt. eigenvalues --    0.07464   0.08195   0.09958   0.10270   0.10409
 Alpha virt. eigenvalues --    0.10957   0.11579   0.12095   0.12975   0.13126
 Alpha virt. eigenvalues --    0.13602   0.14537   0.15255   0.15712   0.15985
 Alpha virt. eigenvalues --    0.16870   0.17163   0.19004   0.19422   0.20456
 Alpha virt. eigenvalues --    0.20875   0.21541   0.23265   0.24168   0.24609
 Alpha virt. eigenvalues --    0.25840   0.26461   0.26964   0.27928   0.28274
 Alpha virt. eigenvalues --    0.31318   0.31889   0.32722   0.33647   0.34218
 Alpha virt. eigenvalues --    0.35286   0.36646   0.37171   0.38487   0.39844
 Alpha virt. eigenvalues --    0.40166   0.40840   0.41719   0.42179   0.42973
 Alpha virt. eigenvalues --    0.43420   0.44251   0.44803   0.45776   0.46260
 Alpha virt. eigenvalues --    0.47928   0.49816   0.50271   0.50848   0.51617
 Alpha virt. eigenvalues --    0.52155   0.52940   0.53410   0.53673   0.55055
 Alpha virt. eigenvalues --    0.56002   0.57498   0.58047   0.58553   0.59330
 Alpha virt. eigenvalues --    0.59651   0.60298   0.61001   0.61713   0.62033
 Alpha virt. eigenvalues --    0.62445   0.63270   0.63636   0.64467   0.64546
 Alpha virt. eigenvalues --    0.65423   0.65611   0.65723   0.66673   0.67181
 Alpha virt. eigenvalues --    0.68570   0.69804   0.70865   0.71753   0.72279
 Alpha virt. eigenvalues --    0.73729   0.74754   0.75088   0.76739   0.78349
 Alpha virt. eigenvalues --    0.79067   0.80494   0.81644   0.82987   0.84079
 Alpha virt. eigenvalues --    0.88435   0.89691   0.90141   0.92365   0.94168
 Alpha virt. eigenvalues --    0.95652   0.96414   0.98638   0.99945   1.01116
 Alpha virt. eigenvalues --    1.02204   1.03749   1.04061   1.05242   1.08024
 Alpha virt. eigenvalues --    1.09269   1.10203   1.11198   1.13206   1.15720
 Alpha virt. eigenvalues --    1.17550   1.18170   1.18992   1.21091   1.25843
 Alpha virt. eigenvalues --    1.26299   1.28246   1.29397   1.31332   1.32080
 Alpha virt. eigenvalues --    1.34700   1.35830   1.36877   1.38720   1.42223
 Alpha virt. eigenvalues --    1.44643   1.46101   1.47402   1.48127   1.49394
 Alpha virt. eigenvalues --    1.50689   1.52976   1.54179   1.54572   1.55382
 Alpha virt. eigenvalues --    1.56420   1.57827   1.59314   1.59744   1.61228
 Alpha virt. eigenvalues --    1.62594   1.63861   1.65142   1.66527   1.67436
 Alpha virt. eigenvalues --    1.68106   1.69867   1.70939   1.71128   1.73192
 Alpha virt. eigenvalues --    1.74316   1.74988   1.78907   1.79807   1.81096
 Alpha virt. eigenvalues --    1.83275   1.84474   1.86418   1.87498   1.89911
 Alpha virt. eigenvalues --    1.90258   1.90580   1.91685   1.94144   1.97212
 Alpha virt. eigenvalues --    1.97585   1.98117   1.99469   2.00910   2.04207
 Alpha virt. eigenvalues --    2.07408   2.12501   2.16467   2.17336   2.19434
 Alpha virt. eigenvalues --    2.23578   2.24236   2.26871   2.27214   2.28401
 Alpha virt. eigenvalues --    2.30674   2.32765   2.34537   2.39065   2.40404
 Alpha virt. eigenvalues --    2.41522   2.43264   2.44094   2.45449   2.46378
 Alpha virt. eigenvalues --    2.48279   2.49129   2.51422   2.53219   2.55934
 Alpha virt. eigenvalues --    2.57176   2.58846   2.59529   2.61686   2.64285
 Alpha virt. eigenvalues --    2.66393   2.68350   2.69380   2.70868   2.74708
 Alpha virt. eigenvalues --    2.76538   2.84608   2.85357   2.85364   2.86696
 Alpha virt. eigenvalues --    2.91872   2.93254   2.99069   3.00332   3.05000
 Alpha virt. eigenvalues --    3.06137   3.08186   3.09111   3.11886   3.12749
 Alpha virt. eigenvalues --    3.13685   3.15370   3.15821   3.21049   3.22575
 Alpha virt. eigenvalues --    3.23923   3.25857   3.27752   3.28138   3.28852
 Alpha virt. eigenvalues --    3.31881   3.32282   3.35452   3.37513   3.39895
 Alpha virt. eigenvalues --    3.45860   3.48099   3.50801   3.59810   3.64117
 Alpha virt. eigenvalues --    3.74102   3.78349   3.79649   3.80013   3.80941
 Alpha virt. eigenvalues --    3.86099   3.87341   3.96352   3.98007   3.98380
 Alpha virt. eigenvalues --    3.98943   4.06534   4.07004   4.09585   4.10931
 Alpha virt. eigenvalues --    4.16598   4.23270   4.42318   4.74720   4.76528
 Alpha virt. eigenvalues --    4.77353   4.77761   4.95565   5.08175   5.44977
 Alpha virt. eigenvalues --    6.14670   6.16817   6.29998   6.32745   6.55190
 Alpha virt. eigenvalues --    6.57277  23.28371  23.46153  23.59747  23.70248
 Alpha virt. eigenvalues --   23.71076  23.78001  23.82101  23.85797  23.86082
 Alpha virt. eigenvalues --   23.90519  24.09794  24.10254  24.19497  35.57002
 Alpha virt. eigenvalues --   50.00224  66.89826  66.90338
          Condensed to atoms (all electrons):
               1          2          3          4          5          6
     1  C    5.360582   0.306282  -0.074683   0.007958  -0.000058   0.000005
     2  C    0.306282   5.346747   0.315808  -0.072883  -0.003942  -0.001603
     3  C   -0.074683   0.315808   5.410549   0.318106  -0.073163  -0.001106
     4  C    0.007958  -0.072883   0.318106   5.420752   0.303809  -0.045340
     5  C   -0.000058  -0.003942  -0.073163   0.303809   5.119748   0.245795
     6  O    0.000005  -0.001603  -0.001106  -0.045340   0.245795   8.230455
     7  N   -0.000697  -0.043629   0.188567  -0.062027   0.003806  -0.033528
     8  C   -0.000493   0.006312  -0.072277   0.000201   0.000372   0.001620
     9  C   -0.000100   0.000008   0.000036  -0.000001   0.000000   0.000000
    10  C   -0.000016  -0.000002  -0.000219   0.000014   0.000000   0.000000
    11  C   -0.000064   0.000120  -0.001301   0.000049  -0.000005   0.000001
    12  C    0.000929   0.000273  -0.014567   0.000007  -0.000011   0.000021
    13  C    0.000568   0.000292   0.000721   0.000033  -0.000003   0.000000
    14  C    0.000663  -0.000011  -0.000043   0.000004   0.000000   0.000000
    15  H   -0.000002   0.000000   0.000000   0.000000   0.000000   0.000000
    16  H    0.000002  -0.000001   0.000002   0.000001   0.000000   0.000000
    17  H    0.000052  -0.000002   0.000000   0.000000   0.000000   0.000000
    18  F   -0.000001   0.000006   0.000101  -0.000143  -0.000001   0.000000
    19  F   -0.003190  -0.000190  -0.000099  -0.000004   0.000000   0.000000
    20  H    0.388018  -0.041485  -0.004308  -0.000359   0.000000   0.000000
    21  H    0.393159  -0.036342   0.007501  -0.000243   0.000013   0.000001
    22  H    0.373042  -0.037476  -0.006053   0.000267  -0.000041  -0.000003
    23  H   -0.043456   0.393356  -0.042890  -0.009962   0.002882   0.000513
    24  H   -0.036059   0.398639  -0.050243   0.000998  -0.000663  -0.000001
    25  H    0.000066  -0.005834  -0.058853   0.389275  -0.037250   0.004882
    26  H    0.000010  -0.000623   0.010259  -0.035085   0.389480  -0.032424
    27  H    0.000352   0.006303  -0.017844  -0.047475   0.391761  -0.035966
    28  H   -0.000066   0.000085   0.001848  -0.009442  -0.061347   0.259829
    29  H    0.000053  -0.000309   0.006541  -0.000456   0.000033   0.000204
    30  H    0.000036  -0.000519  -0.003614   0.001832   0.000182   0.000321
    31  H   -0.009455  -0.035043   0.410397  -0.066345   0.007641  -0.000583
    32  C   -0.000238   0.008210  -0.083355   0.297319  -0.085996  -0.006306
    33  H    0.000010   0.000059  -0.014349  -0.038561  -0.013595   0.025391
    34  H    0.000014  -0.000349   0.008253  -0.032547  -0.002575  -0.000677
    35  H   -0.000052   0.000329  -0.002892  -0.043056   0.006997  -0.000028
    36  H    0.003889  -0.010564  -0.057665   0.005565   0.000303   0.000880
               7          8          9         10         11         12
     1  C   -0.000697  -0.000493  -0.000100  -0.000016  -0.000064   0.000929
     2  C   -0.043629   0.006312   0.000008  -0.000002   0.000120   0.000273
     3  C    0.188567  -0.072277   0.000036  -0.000219  -0.001301  -0.014567
     4  C   -0.062027   0.000201  -0.000001   0.000014   0.000049   0.000007
     5  C    0.003806   0.000372   0.000000   0.000000  -0.000005  -0.000011
     6  O   -0.033528   0.001620   0.000000   0.000000   0.000001   0.000021
     7  N    7.051751   0.282771  -0.000017  -0.000064   0.001097  -0.071715
     8  C    0.282771   5.318877  -0.001105   0.007783  -0.068496   0.241757
     9  C   -0.000017  -0.001105   5.067992   0.443070  -0.006615  -0.052440
    10  C   -0.000064   0.007783   0.443070   5.157311   0.479519  -0.037672
    11  C    0.001097  -0.068496  -0.006615   0.479519   4.732728   0.310645
    12  C   -0.071715   0.241757  -0.052440  -0.037672   0.310645   5.823509
    13  C    0.002288  -0.080687  -0.009600  -0.051078   0.049222   0.242878
    14  C    0.000480   0.007018   0.433648  -0.044558  -0.059928  -0.040896
    15  H   -0.000001   0.000025   0.403223  -0.040154   0.006203  -0.001738
    16  H    0.000011  -0.000174  -0.040449   0.393278  -0.048805   0.012109
    17  H    0.000029  -0.000230  -0.040106   0.006725  -0.001618   0.011931
    18  F   -0.000008  -0.009374   0.005217  -0.050469   0.291749  -0.070516
    19  F   -0.003610   0.006063   0.005352  -0.000491   0.004908  -0.083291
    20  H   -0.000145   0.000022   0.000127   0.000118  -0.000128   0.000484
    21  H    0.000029   0.000047  -0.000002  -0.000003   0.000003   0.000012
    22  H    0.003790  -0.001105   0.000115   0.000110  -0.000013  -0.002308
    23  H   -0.001772   0.000036   0.000001  -0.000001  -0.000011   0.000235
    24  H    0.005242  -0.000562  -0.000001   0.000000   0.000005   0.000039
    25  H    0.006257  -0.000311   0.000000  -0.000002   0.000027   0.000168
    26  H   -0.000648  -0.000010   0.000000   0.000000   0.000000  -0.000001
    27  H    0.000217  -0.000017   0.000000   0.000000   0.000001   0.000001
    28  H    0.053660  -0.003416   0.000000   0.000001  -0.000036   0.001482
    29  H   -0.032168   0.406879  -0.000061  -0.000067   0.002649  -0.049852
    30  H   -0.031549   0.398185  -0.000291   0.001415  -0.009963  -0.063455
    31  H   -0.047710  -0.009488   0.000067  -0.000652   0.000719   0.004384
    32  C    0.001950  -0.006747   0.000000  -0.000025   0.000092   0.000869
    33  H    0.004758  -0.002377   0.000001  -0.000014   0.000036   0.000980
    34  H   -0.000489   0.000379   0.000000   0.000001   0.000008  -0.000059
    35  H   -0.000054  -0.000313  -0.000017   0.000108  -0.001148  -0.000221
    36  H    0.339832  -0.047999  -0.000113   0.000078  -0.000663  -0.009087
              13         14         15         16         17         18
     1  C    0.000568   0.000663  -0.000002   0.000002   0.000052  -0.000001
     2  C    0.000292  -0.000011   0.000000  -0.000001  -0.000002   0.000006
     3  C    0.000721  -0.000043   0.000000   0.000002   0.000000   0.000101
     4  C    0.000033   0.000004   0.000000   0.000001   0.000000  -0.000143
     5  C   -0.000003   0.000000   0.000000   0.000000   0.000000  -0.000001
     6  O    0.000000   0.000000   0.000000   0.000000   0.000000   0.000000
     7  N    0.002288   0.000480  -0.000001   0.000011   0.000029  -0.000008
     8  C   -0.080687   0.007018   0.000025  -0.000174  -0.000230  -0.009374
     9  C   -0.009600   0.433648   0.403223  -0.040449  -0.040106   0.005217
    10  C   -0.051078  -0.044558  -0.040154   0.393278   0.006725  -0.050469
    11  C    0.049222  -0.059928   0.006203  -0.048805  -0.001618   0.291749
    12  C    0.242878  -0.040896  -0.001738   0.012109   0.011931  -0.070516
    13  C    4.777420   0.486333   0.006319  -0.001797  -0.050967   0.005648
    14  C    0.486333   5.170057  -0.041356   0.007036   0.396058  -0.000345
    15  H    0.006319  -0.041356   0.443780  -0.006372  -0.006373  -0.000083
    16  H   -0.001797   0.007036  -0.006372   0.443742  -0.000125   0.001355
    17  H   -0.050967   0.396058  -0.006373  -0.000125   0.443610   0.000005
    18  F    0.005648  -0.000345  -0.000083   0.001355   0.000005   9.052573
    19  F    0.293391  -0.052445  -0.000078   0.000004   0.000948  -0.000002
    20  H   -0.000077   0.000552   0.000003   0.000004   0.000008  -0.000020
    21  H    0.000158   0.000020   0.000000   0.000000  -0.000003   0.000000
    22  H   -0.005702  -0.001785  -0.000001   0.000000   0.000167   0.000005
    23  H   -0.000066  -0.000006   0.000000   0.000000   0.000000   0.000000
    24  H    0.000021   0.000001   0.000000   0.000000   0.000000   0.000000
    25  H   -0.000002  -0.000001   0.000000   0.000000   0.000000  -0.000023
    26  H    0.000000   0.000000   0.000000   0.000000   0.000000   0.000000
    27  H    0.000002   0.000000   0.000000   0.000000   0.000000   0.000000
    28  H   -0.000094  -0.000002   0.000000   0.000000   0.000000  -0.000004
    29  H   -0.007913   0.000241   0.000000   0.000013   0.000001   0.000086
    30  H    0.006851   0.000157   0.000004  -0.000037   0.000010   0.013060
    31  H   -0.000239  -0.000427   0.000002  -0.000071  -0.000012   0.002010
    32  C    0.000048   0.000000   0.000000   0.000001   0.000000  -0.001902
    33  H    0.000015   0.000000   0.000000   0.000001   0.000000  -0.000671
    34  H    0.000000   0.000000   0.000000   0.000000   0.000000   0.000004
    35  H   -0.000018   0.000007   0.000000   0.000016   0.000000   0.009270
    36  H    0.003810   0.000818   0.000002  -0.000001   0.000003  -0.000041
              19         20         21         22         23         24
     1  C   -0.003190   0.388018   0.393159   0.373042  -0.043456  -0.036059
     2  C   -0.000190  -0.041485  -0.036342  -0.037476   0.393356   0.398639
     3  C   -0.000099  -0.004308   0.007501  -0.006053  -0.042890  -0.050243
     4  C   -0.000004  -0.000359  -0.000243   0.000267  -0.009962   0.000998
     5  C    0.000000   0.000000   0.000013  -0.000041   0.002882  -0.000663
     6  O    0.000000   0.000000   0.000001  -0.000003   0.000513  -0.000001
     7  N   -0.003610  -0.000145   0.000029   0.003790  -0.001772   0.005242
     8  C    0.006063   0.000022   0.000047  -0.001105   0.000036  -0.000562
     9  C    0.005352   0.000127  -0.000002   0.000115   0.000001  -0.000001
    10  C   -0.000491   0.000118  -0.000003   0.000110  -0.000001   0.000000
    11  C    0.004908  -0.000128   0.000003  -0.000013  -0.000011   0.000005
    12  C   -0.083291   0.000484   0.000012  -0.002308   0.000235   0.000039
    13  C    0.293391  -0.000077   0.000158  -0.005702  -0.000066   0.000021
    14  C   -0.052445   0.000552   0.000020  -0.001785  -0.000006   0.000001
    15  H   -0.000078   0.000003   0.000000  -0.000001   0.000000   0.000000
    16  H    0.000004   0.000004   0.000000   0.000000   0.000000   0.000000
    17  H    0.000948   0.000008  -0.000003   0.000167   0.000000   0.000000
    18  F   -0.000002  -0.000020   0.000000   0.000005   0.000000   0.000000
    19  F    9.062236  -0.000298  -0.000016   0.013744  -0.000069  -0.000007
    20  H   -0.000298   0.478432  -0.026781  -0.029898   0.007256  -0.005211
    21  H   -0.000016  -0.026781   0.465062  -0.026630  -0.004344  -0.004451
    22  H    0.013744  -0.029898  -0.026630   0.488019  -0.005718   0.006618
    23  H   -0.000069   0.007256  -0.004344  -0.005718   0.488639  -0.030027
    24  H   -0.000007  -0.005211  -0.004451   0.006618  -0.030027   0.477595
    25  H    0.000000   0.000075  -0.000046  -0.000021   0.000439   0.003276
    26  H    0.000000   0.000002  -0.000001  -0.000002   0.000236  -0.000171
    27  H    0.000000  -0.000029  -0.000002   0.000060  -0.002166   0.000972
    28  H   -0.000019   0.000003  -0.000003  -0.000072   0.001425  -0.000182
    29  H    0.002871   0.000012  -0.000001  -0.000122   0.000013   0.000021
    30  H    0.000170   0.000015   0.000001  -0.000007  -0.000043   0.000023
    31  H    0.000069   0.005226  -0.000071  -0.000799   0.008174  -0.003170
    32  C    0.000000  -0.000040   0.000010   0.000001  -0.000447   0.000470
    33  H    0.000000   0.000001   0.000000  -0.000001  -0.000018   0.000003
    34  H    0.000000   0.000001   0.000000   0.000000   0.000006  -0.000034
    35  H    0.000000  -0.000026   0.000001   0.000006  -0.000020   0.000045
    36  H    0.008663  -0.000058  -0.000233   0.004409   0.000525   0.000769
              25         26         27         28         29         30
     1  C    0.000066   0.000010   0.000352  -0.000066   0.000053   0.000036
     2  C   -0.005834  -0.000623   0.006303   0.000085  -0.000309  -0.000519
     3  C   -0.058853   0.010259  -0.017844   0.001848   0.006541  -0.003614
     4  C    0.389275  -0.035085  -0.047475  -0.009442  -0.000456   0.001832
     5  C   -0.037250   0.389480   0.391761  -0.061347   0.000033   0.000182
     6  O    0.004882  -0.032424  -0.035966   0.259829   0.000204   0.000321
     7  N    0.006257  -0.000648   0.000217   0.053660  -0.032168  -0.031549
     8  C   -0.000311  -0.000010  -0.000017  -0.003416   0.406879   0.398185
     9  C    0.000000   0.000000   0.000000   0.000000  -0.000061  -0.000291
    10  C   -0.000002   0.000000   0.000000   0.000001  -0.000067   0.001415
    11  C    0.000027   0.000000   0.000001  -0.000036   0.002649  -0.009963
    12  C    0.000168  -0.000001   0.000001   0.001482  -0.049852  -0.063455
    13  C   -0.000002   0.000000   0.000002  -0.000094  -0.007913   0.006851
    14  C   -0.000001   0.000000   0.000000  -0.000002   0.000241   0.000157
    15  H    0.000000   0.000000   0.000000   0.000000   0.000000   0.000004
    16  H    0.000000   0.000000   0.000000   0.000000   0.000013  -0.000037
    17  H    0.000000   0.000000   0.000000   0.000000   0.000001   0.000010
    18  F   -0.000023   0.000000   0.000000  -0.000004   0.000086   0.013060
    19  F    0.000000   0.000000   0.000000  -0.000019   0.002871   0.000170
    20  H    0.000075   0.000002  -0.000029   0.000003   0.000012   0.000015
    21  H   -0.000046  -0.000001  -0.000002  -0.000003  -0.000001   0.000001
    22  H   -0.000021  -0.000002   0.000060  -0.000072  -0.000122  -0.000007
    23  H    0.000439   0.000236  -0.002166   0.001425   0.000013  -0.000043
    24  H    0.003276  -0.000171   0.000972  -0.000182   0.000021   0.000023
    25  H    0.518007  -0.004102   0.001084  -0.000617   0.000033  -0.000076
    26  H   -0.004102   0.507118  -0.045738   0.006092  -0.000004   0.000109
    27  H    0.001084  -0.045738   0.534157  -0.002427   0.000010  -0.000092
    28  H   -0.000617   0.006092  -0.002427   0.343548  -0.000759  -0.001581
    29  H    0.000033  -0.000004   0.000010  -0.000759   0.436222  -0.021645
    30  H   -0.000076   0.000109  -0.000092  -0.001581  -0.021645   0.429232
    31  H   -0.002199  -0.000283  -0.000299   0.001642   0.000179  -0.002346
    32  C   -0.035250  -0.009897   0.009135   0.001372   0.000160   0.001030
    33  H    0.008660  -0.003795   0.001899  -0.001988   0.000426   0.000127
    34  H   -0.008067   0.004437  -0.000337  -0.000115  -0.000015   0.000604
    35  H   -0.002902  -0.000088  -0.000262   0.000019   0.000014  -0.001804
    36  H   -0.000353   0.000095  -0.000479  -0.000865  -0.007478   0.006889
              31         32         33         34         35         36
     1  C   -0.009455  -0.000238   0.000010   0.000014  -0.000052   0.003889
     2  C   -0.035043   0.008210   0.000059  -0.000349   0.000329  -0.010564
     3  C    0.410397  -0.083355  -0.014349   0.008253  -0.002892  -0.057665
     4  C   -0.066345   0.297319  -0.038561  -0.032547  -0.043056   0.005565
     5  C    0.007641  -0.085996  -0.013595  -0.002575   0.006997   0.000303
     6  O   -0.000583  -0.006306   0.025391  -0.000677  -0.000028   0.000880
     7  N   -0.047710   0.001950   0.004758  -0.000489  -0.000054   0.339832
     8  C   -0.009488  -0.006747  -0.002377   0.000379  -0.000313  -0.047999
     9  C    0.000067   0.000000   0.000001   0.000000  -0.000017  -0.000113
    10  C   -0.000652  -0.000025  -0.000014   0.000001   0.000108   0.000078
    11  C    0.000719   0.000092   0.000036   0.000008  -0.001148  -0.000663
    12  C    0.004384   0.000869   0.000980  -0.000059  -0.000221  -0.009087
    13  C   -0.000239   0.000048   0.000015   0.000000  -0.000018   0.003810
    14  C   -0.000427   0.000000   0.000000   0.000000   0.000007   0.000818
    15  H    0.000002   0.000000   0.000000   0.000000   0.000000   0.000002
    16  H   -0.000071   0.000001   0.000001   0.000000   0.000016  -0.000001
    17  H   -0.000012   0.000000   0.000000   0.000000   0.000000   0.000003
    18  F    0.002010  -0.001902  -0.000671   0.000004   0.009270  -0.000041
    19  F    0.000069   0.000000   0.000000   0.000000   0.000000   0.008663
    20  H    0.005226  -0.000040   0.000001   0.000001  -0.000026  -0.000058
    21  H   -0.000071   0.000010   0.000000   0.000000   0.000001  -0.000233
    22  H   -0.000799   0.000001  -0.000001   0.000000   0.000006   0.004409
    23  H    0.008174  -0.000447  -0.000018   0.000006  -0.000020   0.000525
    24  H   -0.003170   0.000470   0.000003  -0.000034   0.000045   0.000769
    25  H   -0.002199  -0.035250   0.008660  -0.008067  -0.002902  -0.000353
    26  H   -0.000283  -0.009897  -0.003795   0.004437  -0.000088   0.000095
    27  H   -0.000299   0.009135   0.001899  -0.000337  -0.000262  -0.000479
    28  H    0.001642   0.001372  -0.001988  -0.000115   0.000019  -0.000865
    29  H    0.000179   0.000160   0.000426  -0.000015   0.000014  -0.007478
    30  H   -0.002346   0.001030   0.000127   0.000604  -0.001804   0.006889
    31  H    0.498745  -0.006500  -0.000429  -0.000117   0.004615   0.002838
    32  C   -0.006500   5.451331   0.377833   0.385225   0.383832  -0.000617
    33  H   -0.000429   0.377833   0.481521  -0.028081  -0.027740  -0.000207
    34  H   -0.000117   0.385225  -0.028081   0.470072  -0.024657   0.000051
    35  H    0.004615   0.383832  -0.027740  -0.024657   0.469091  -0.000118
    36  H    0.002838  -0.000617  -0.000207   0.000051  -0.000118   0.407396
 Mulliken charges:
               1
     1  C   -0.667060
     2  C   -0.492021
     3  C   -0.099165
     4  C   -0.282262
     5  C   -0.194174
     6  O   -0.612353
     7  N   -0.616704
     8  C   -0.373165
     9  C   -0.207938
    10  C   -0.264042
    11  C    0.319014
    12  C   -0.154882
    13  C    0.332225
    14  C   -0.261292
    15  H    0.236597
    16  H    0.240258
    17  H    0.239889
    18  F   -0.247485
    19  F   -0.254613
    20  H    0.228505
    21  H    0.233158
    22  H    0.227405
    23  H    0.237281
    24  H    0.236045
    25  H    0.223660
    26  H    0.215034
    27  H    0.207178
    28  H    0.412027
    29  H    0.264188
    30  H    0.276770
    31  H    0.239531
    32  C   -0.681568
    33  H    0.230105
    34  H    0.229064
    35  H    0.231068
    36  H    0.349726
 Sum of Mulliken charges =   0.00000
 Mulliken charges with hydrogens summed into heavy atoms:
               1
     1  C    0.022007
     2  C   -0.018695
     3  C    0.140366
     4  C   -0.058601
     5  C    0.228037
     6  O   -0.200326
     7  N   -0.266978
     8  C    0.167792
     9  C    0.028659
    10  C   -0.023784
    11  C    0.319014
    12  C   -0.154882
    13  C    0.332225
    14  C   -0.021403
    18  F   -0.247485
    19  F   -0.254613
    32  C    0.008668
 Electronic spatial extent (au):  <R**2>=           4383.9886
 Charge=              0.0000 electrons
 Dipole moment (field-independent basis, Debye):
    X=              4.9164    Y=             -1.1627    Z=              3.0041  Tot=              5.8777
 Quadrupole moment (field-independent basis, Debye-Ang):
   XX=           -104.0118   YY=           -102.1010   ZZ=           -103.6740
   XY=              1.3813   XZ=             -6.7281   YZ=              0.3912
 Traceless Quadrupole moment (field-independent basis, Debye-Ang):
   XX=             -0.7495   YY=              1.1613   ZZ=             -0.4118
   XY=              1.3813   XZ=             -6.7281   YZ=              0.3912
 Octapole moment (field-independent basis, Debye-Ang**2):
  XXX=            120.8686  YYY=             -8.2518  ZZZ=            -10.6464  XYY=              1.5924
  XXY=             -2.7001  XXZ=             61.9613  XZZ=             13.4408  YZZ=              3.8218
  YYZ=             -0.1033  XYZ=              3.6163
 Hexadecapole moment (field-independent basis, Debye-Ang**3):
 XXXX=          -3697.3012 YYYY=          -1287.8336 ZZZZ=           -662.9277 XXXY=            -37.5101
 XXXZ=            -77.4556 YYYX=              8.1539 YYYZ=             24.5135 ZZZX=            -21.4558
 ZZZY=             25.0108 XXYY=           -798.2111 XXZZ=           -802.7370 YYZZ=           -320.6258
 XXYZ=             44.6570 YYXZ=             12.0273 ZZXY=             17.6070
 N-N= 1.314302067906D+03 E-N=-4.586138220231D+03  KE= 8.332455135831D+02
 1\1\GINC-SWANNODE-0-7\SP\RmPW1PW91\6-311G(d)\C13H19F2N1O1\KE291\06-Mar
 -2019\0\\# mPW1PW91/6-311g(d) geom=checkpoint nmr=giao scrf=(solvent=c
 hloroform)\\AT3_1ginp008\\0,1\C,0,-0.3140598833,0.1016829108,-0.131270
 0242\C,0,-0.8817755394,0.4831534113,1.2417171884\C,0,0.1265485905,1.18
 22120053,2.1751613993\C,0,-0.3481238992,1.1808707353,3.656307241\C,0,-
 1.6212118388,2.0227924192,3.8736258912\O,0,-1.4062956011,3.4137468965,
 3.6694467468\N,0,0.3762588329,2.5663423762,1.6808916598\C,0,1.76356532
 76,3.0590425801,1.7428859591\C,0,4.6804765781,0.8130866497,-0.57529402
 39\C,0,4.7616230171,0.8096646011,0.8169672493\C,0,3.8158497267,1.53033
 64981,1.5384822151\C,0,2.7850523326,2.2624543701,0.9470258804\C,0,2.75
 61471128,2.2207032599,-0.448511883\C,0,3.6672772262,1.5212286849,-1.22
 6042379\H,0,5.407674655,0.2575356537,-1.1578779638\H,0,5.5353496211,0.
 2647616185,1.3452724816\H,0,3.5787091687,1.5374913962,-2.3060409218\F,
 0,3.8995305346,1.5207096701,2.8915110928\F,0,1.7548997535,2.8994193254
 ,-1.0700150998\H,0,0.5316985408,-0.5868315476,-0.029267587\H,0,-1.0773
 952802,-0.3937921978,-0.739181004\H,0,0.0365434073,0.9711536679,-0.696
 8523422\H,0,-1.7601557235,1.1282650054,1.110091262\H,0,-1.241892724,-0
 .4234892551,1.7410256602\H,0,-0.6140840136,0.1377960781,3.8809718577\H
 ,0,-1.9656258103,1.8958062481,4.9078360283\H,0,-2.4303534542,1.6484703
 099,3.2251612113\H,0,-0.8398452606,3.4518670705,2.8680287636\H,0,1.753
 1673262,4.0884584926,1.3709595007\H,0,2.0841011142,3.0978070212,2.7829
 259859\H,0,1.0616447551,0.6001450108,2.1361409229\C,0,0.7502893715,1.6
 043197095,4.6443627273\H,0,0.9054239365,2.6859734162,4.6139916001\H,0,
 0.4594045345,1.348897221,5.6690995514\H,0,1.7037575919,1.1114075979,4.
 4295641033\H,0,0.0673389729,2.6387640889,0.7159570493\\Version=EM64L-G
 09RevD.01\State=1-A\HF=-836.468162\RMSD=7.032e-09\Dipole=1.2393906,-1.
 3548946,-1.4055894\Quadrupole=1.107895,-1.1155192,0.0076242,3.8494392,
 0.5109372,-3.228112\PG=C01 [X(C13H19F2N1O1)]\\@


 WE HAVE LEARNED THAT NOTHING IS SIMPLE AND
 RATIONAL EXCEPT WHAT WE OURSELVES HAVE INVENTED;
 THAT GOD THINKS IN TERMS NEITHER OF EUCLID OR RIEMANN; THAT SCIENCE HAS "EXPLAINED" NOTHING;
 THAT THE MORE WE KNOW THE MORE FANTASTIC THE WORLD BECOMES
 AND THE PROFOUNDER THE SURROUNDING DARKNESS.
   --  ALDOUS HUXLEY
 Job cpu time:       0 days  0 hours 29 minutes 12.4 seconds.
 File lengths (MBytes):  RWF=    174 Int=      0 D2E=      0 Chk=     14 Scr=      1
 Normal termination of Gaussian 09 at Wed Mar  6 11:53:20 2019.
