 Entering Gaussian System, Link 0=/usr/local/shared/gaussian/em64t/09-D01/g09/g09
 Initial command:
 /usr/local/shared/gaussian/em64t/09-D01/g09/l1.exe "/scratch/ke291/AT3_1ginp004/Gau-8371.inp" -scrdir="/scratch/ke291/AT3_1ginp004/"
 Entering Link 1 = /usr/local/shared/gaussian/em64t/09-D01/g09/l1.exe PID=      8374.
  
 Copyright (c) 1988,1990,1992,1993,1995,1998,2003,2009,2013,
            Gaussian, Inc.  All Rights Reserved.
  
 This is part of the Gaussian(R) 09 program.  It is based on
 the Gaussian(R) 03 system (copyright 2003, Gaussian, Inc.),
 the Gaussian(R) 98 system (copyright 1998, Gaussian, Inc.),
 the Gaussian(R) 94 system (copyright 1995, Gaussian, Inc.),
 the Gaussian 92(TM) system (copyright 1992, Gaussian, Inc.),
 the Gaussian 90(TM) system (copyright 1990, Gaussian, Inc.),
 the Gaussian 88(TM) system (copyright 1988, Gaussian, Inc.),
 the Gaussian 86(TM) system (copyright 1986, Carnegie Mellon
 University), and the Gaussian 82(TM) system (copyright 1983,
 Carnegie Mellon University). Gaussian is a federally registered
 trademark of Gaussian, Inc.
  
 This software contains proprietary and confidential information,
 including trade secrets, belonging to Gaussian, Inc.
  
 This software is provided under written license and may be
 used, copied, transmitted, or stored only in accord with that
 written license.
  
 The following legend is applicable only to US Government
 contracts under FAR:
  
                    RESTRICTED RIGHTS LEGEND
  
 Use, reproduction and disclosure by the US Government is
 subject to restrictions as set forth in subparagraphs (a)
 and (c) of the Commercial Computer Software - Restricted
 Rights clause in FAR 52.227-19.
  
 Gaussian, Inc.
 340 Quinnipiac St., Bldg. 40, Wallingford CT 06492
  
  
 ---------------------------------------------------------------
 Warning -- This program may not be used in any manner that
 competes with the business of Gaussian, Inc. or will provide
 assistance to any competitor of Gaussian, Inc.  The licensee
 of this program is prohibited from giving any competitor of
 Gaussian, Inc. access to this program.  By using this program,
 the user acknowledges that Gaussian, Inc. is engaged in the
 business of creating and licensing software in the field of
 computational chemistry and represents and warrants to the
 licensee that it is not a competitor of Gaussian, Inc. and that
 it will not use this program in any manner prohibited above.
 ---------------------------------------------------------------
  

 Cite this work as:
 Gaussian 09, Revision D.01,
 M. J. Frisch, G. W. Trucks, H. B. Schlegel, G. E. Scuseria, 
 M. A. Robb, J. R. Cheeseman, G. Scalmani, V. Barone, B. Mennucci, 
 G. A. Petersson, H. Nakatsuji, M. Caricato, X. Li, H. P. Hratchian, 
 A. F. Izmaylov, J. Bloino, G. Zheng, J. L. Sonnenberg, M. Hada, 
 M. Ehara, K. Toyota, R. Fukuda, J. Hasegawa, M. Ishida, T. Nakajima, 
 Y. Honda, O. Kitao, H. Nakai, T. Vreven, J. A. Montgomery, Jr., 
 J. E. Peralta, F. Ogliaro, M. Bearpark, J. J. Heyd, E. Brothers, 
 K. N. Kudin, V. N. Staroverov, T. Keith, R. Kobayashi, J. Normand, 
 K. Raghavachari, A. Rendell, J. C. Burant, S. S. Iyengar, J. Tomasi, 
 M. Cossi, N. Rega, J. M. Millam, M. Klene, J. E. Knox, J. B. Cross, 
 V. Bakken, C. Adamo, J. Jaramillo, R. Gomperts, R. E. Stratmann, 
 O. Yazyev, A. J. Austin, R. Cammi, C. Pomelli, J. W. Ochterski, 
 R. L. Martin, K. Morokuma, V. G. Zakrzewski, G. A. Voth, 
 P. Salvador, J. J. Dannenberg, S. Dapprich, A. D. Daniels, 
 O. Farkas, J. B. Foresman, J. V. Ortiz, J. Cioslowski, 
 and D. J. Fox, Gaussian, Inc., Wallingford CT, 2013.
 
 ******************************************
 Gaussian 09:  EM64L-G09RevD.01 24-Apr-2013
                 6-Mar-2019 
 ******************************************
 %nprocshared=2
 Will use up to    2 processors via shared memory.
 %mem=6000MB
 %chk=AT3_1ginp004.chk
 ----------------------------------------------------------------------
 # mPW1PW91/6-311g(d) geom=checkpoint nmr=giao scrf=(solvent=chloroform
 )
 ----------------------------------------------------------------------
 1/29=2,38=1/1;
 2/12=2,40=1/2;
 3/5=4,6=6,7=1,11=2,14=-4,16=1,25=1,30=1,70=2201,72=7,74=-7/1,2,8,3;
 4//1;
 5/5=2,38=5,53=7/2;
 8/6=1,10=90,11=11/1;
 10/13=100,45=16/2;
 6/7=2,8=2,9=2,10=2,28=1/1;
 99/9=1/99;
 ------------
 AT3_1ginp004
 ------------
 Structure from the checkpoint file:  "AT3_1ginp004.chk"
 Charge =  0 Multiplicity = 1
 Redundant internal coordinates found in file.
 C,0,-1.6343351227,0.2003273695,0.6214867908
 C,0,-0.823656397,1.478325362,0.8680336081
 C,0,0.1786512957,1.380995139,2.0340226295
 C,0,-0.4680068332,0.9687866912,3.3861492894
 C,0,-1.5662709514,1.9457062195,3.8491032553
 O,0,-1.0802257935,3.2524419605,4.1323842292
 N,0,0.8771033515,2.6781245092,2.2243504283
 C,0,1.6339223545,3.2219203542,1.0835858691
 C,0,4.7756852802,0.6595776631,-0.4963366916
 C,0,3.6869849433,0.9862134901,-1.3046436549
 C,0,2.6930760366,1.8041131655,-0.778568615
 C,0,2.7195090627,2.3200278757,0.5178197386
 C,0,3.8346550526,1.9552130641,1.2761122198
 C,0,4.8594985029,1.1437021475,0.8111838415
 H,0,5.5632497875,0.0230984872,-0.8855143532
 H,0,3.598185205,0.623592424,-2.3221567532
 H,0,5.6940798566,0.9060731042,1.4605010264
 F,0,1.6379141921,2.119383905,-1.5713315718
 F,0,3.905875347,2.4308063526,2.5464730525
 H,0,-2.33969505,-0.0095603967,1.4310058275
 H,0,-2.2145194303,0.2896221627,-0.3020991217
 H,0,-0.9787032987,-0.6717615992,0.5160840069
 H,0,-0.2684641987,1.7051063161,-0.047133199
 H,0,-1.4982594454,2.327163444,1.0347284641
 H,0,-0.9581891493,0.0032710573,3.2092408635
 H,0,-2.0171879328,1.5650992861,4.7739990025
 H,0,-2.3716018188,1.9802994225,3.0978546437
 H,0,-0.472503622,3.4600822139,3.3922596112
 H,0,0.9455106427,3.4938293424,0.2838487481
 H,0,2.096294503,4.1504746819,1.4330853228
 H,0,0.9013983426,0.5870548175,1.770597969
 C,0,0.5787162996,0.7533067388,4.4926315647
 H,0,1.4142977836,0.1363677616,4.1439171777
 H,0,0.9768423342,1.7036582323,4.8610926769
 H,0,0.1253450117,0.2466548416,5.3507916728
 H,0,1.5380508581,2.5650243931,2.9890244303
 Recover connectivity data from disk.
                          Input orientation:                          
 ---------------------------------------------------------------------
 Center     Atomic      Atomic             Coordinates (Angstroms)
 Number     Number       Type             X           Y           Z
 ---------------------------------------------------------------------
      1          6           0       -1.634335    0.200327    0.621487
      2          6           0       -0.823656    1.478325    0.868034
      3          6           0        0.178651    1.380995    2.034023
      4          6           0       -0.468007    0.968787    3.386149
      5          6           0       -1.566271    1.945706    3.849103
      6          8           0       -1.080226    3.252442    4.132384
      7          7           0        0.877103    2.678125    2.224350
      8          6           0        1.633922    3.221920    1.083586
      9          6           0        4.775685    0.659578   -0.496337
     10          6           0        3.686985    0.986213   -1.304644
     11          6           0        2.693076    1.804113   -0.778569
     12          6           0        2.719509    2.320028    0.517820
     13          6           0        3.834655    1.955213    1.276112
     14          6           0        4.859499    1.143702    0.811184
     15          1           0        5.563250    0.023098   -0.885514
     16          1           0        3.598185    0.623592   -2.322157
     17          1           0        5.694080    0.906073    1.460501
     18          9           0        1.637914    2.119384   -1.571332
     19          9           0        3.905875    2.430806    2.546473
     20          1           0       -2.339695   -0.009560    1.431006
     21          1           0       -2.214519    0.289622   -0.302099
     22          1           0       -0.978703   -0.671762    0.516084
     23          1           0       -0.268464    1.705106   -0.047133
     24          1           0       -1.498259    2.327163    1.034728
     25          1           0       -0.958189    0.003271    3.209241
     26          1           0       -2.017188    1.565099    4.773999
     27          1           0       -2.371602    1.980299    3.097855
     28          1           0       -0.472504    3.460082    3.392260
     29          1           0        0.945511    3.493829    0.283849
     30          1           0        2.096295    4.150475    1.433085
     31          1           0        0.901398    0.587055    1.770598
     32          6           0        0.578716    0.753307    4.492632
     33          1           0        1.414298    0.136368    4.143917
     34          1           0        0.976842    1.703658    4.861093
     35          1           0        0.125345    0.246655    5.350792
     36          1           0        1.538051    2.565024    2.989024
 ---------------------------------------------------------------------
                    Distance matrix (angstroms):
                    1          2          3          4          5
     1  C    0.000000
     2  C    1.533383   0.000000
     3  C    2.583825   1.540657   0.000000
     4  C    3.097452   2.593650   1.554455   0.000000
     5  C    3.669944   3.107523   2.580343   1.541065   0.000000
     6  O    4.684959   3.724151   3.080618   2.479266   1.422690
     7  N    3.875045   2.484290   1.485464   2.465955   3.024291
     8  C    4.474938   3.020973   2.531827   3.846624   4.417923
     9  C    6.522944   5.821038   5.296780   6.531892   7.794702
    10  C    5.713497   5.030764   4.859110   6.266402   7.421484
    11  C    4.822735   3.896773   3.796318   5.294817   6.291060
    12  C    4.843536   3.658570   3.104289   4.495934   5.441092
    13  C    5.780831   4.700406   3.777634   4.892667   5.982506
    14  C    6.564740   5.693281   4.843756   5.919743   7.152809
    15  H    7.355793   6.781238   6.273873   7.451006   8.771721
    16  H    6.018593   5.519109   5.589559   7.016968   8.155001
    17  H    7.409972   6.569580   5.565468   6.456266   7.713556
    18  F    4.381649   3.524314   3.958945   5.507758   6.299054
    19  F    6.274914   5.108116   3.906009   4.687580   5.645932
    20  H    1.094032   2.197525   2.939276   2.878014   3.204442
    21  H    1.094348   2.171802   3.517929   4.136997   4.516118
    22  H    1.096130   2.184212   2.803109   3.345069   4.278480
    23  H    2.139396   1.094166   2.153177   3.517018   4.113739
    24  H    2.170879   1.096997   2.169298   2.904443   2.840922
    25  H    2.681879   2.770404   2.138146   1.097176   2.133598
    26  H    4.387771   4.085170   3.516116   2.163718   1.097096
    27  H    3.137556   2.760474   2.827489   2.174844   1.101875
    28  H    4.433174   3.228372   2.567375   2.491307   1.923114
    29  H    4.197232   2.744719   2.848728   4.242422   4.627826
    30  H    5.493628   3.998222   3.421768   4.529154   4.910451
    31  H    2.810687   2.141214   1.105485   2.151975   3.500787
    32  C    4.493233   3.953481   2.568813   1.538299   2.537108
    33  H    4.658945   4.188162   2.743643   2.193218   3.499201
    34  H    5.201203   4.386011   2.955257   2.191594   2.747751
    35  H    5.046280   4.744759   3.505785   2.175629   2.829030
    36  H    4.610972   3.355172   2.040079   2.594215   3.280260
                    6          7          8          9         10
     6  O    0.000000
     7  N    2.793129   0.000000
     8  C    4.081997   1.473035   0.000000
     9  C    7.901879   5.164844   4.351141   0.000000
    10  C    7.577820   4.817862   3.862265   1.394747   0.000000
    11  C    6.360261   3.616514   2.568969   2.393090   1.390529
    12  C    5.326580   2.536718   1.520526   2.830807   2.456917
    13  C    5.830707   3.188866   2.546535   2.388678   2.760628
    14  C    7.124428   4.495660   3.846756   1.396786   2.424112
    15  H    8.929935   6.219356   5.435939   1.084815   2.150263
    16  H    8.394014   5.682967   4.712613   2.172883   1.083841
    17  H    7.650858   5.189113   4.689359   2.175643   3.417730
    18  F    6.419072   3.911295   2.874750   3.623845   2.356669
    19  F    5.296358   3.055878   2.815612   3.626639   4.118964
    20  H    4.418639   4.266244   5.133498   7.402096   6.692997
    21  H    5.452483   4.652529   5.032792   7.002682   6.026449
    22  H    5.337350   4.193320   4.723201   5.992533   5.275659
    23  H    4.530074   2.723734   2.682969   5.170915   4.212329
    24  H    3.259810   2.679687   3.257843   6.669886   5.844448
    25  H    3.379970   3.390155   4.647274   6.858525   6.551257
    26  H    2.033886   4.014530   5.449295   8.645203   8.355991
    27  H    2.087163   3.435703   4.652217   8.108405   7.554910
    28  H    0.979911   1.948566   3.134282   7.106862   6.744055
    29  H    4.355812   2.106087   1.089690   4.828241   4.040684
    30  H    4.264148   2.068899   1.094601   4.805015   4.476383
    31  H    4.075433   2.139872   2.819768   4.489360   4.168445
    32  C    3.021183   2.989826   4.339252   6.520210   6.582095
    33  H    3.991579   3.230146   4.351379   5.753662   5.964408
    34  H    2.676056   2.812817   4.123886   6.650065   6.773175
    35  H    3.460155   4.031355   5.416369   7.482318   7.584659
    36  H    2.938569   1.017040   2.017771   5.124524   5.054320
                   11         12         13         14         15
    11  C    0.000000
    12  C    1.395525   0.000000
    13  C    2.355366   1.397014   0.000000
    14  C    2.767100   2.459545   1.387448   0.000000
    15  H    3.379548   3.915622   3.375461   2.151698   0.000000
    16  H    2.143716   3.422781   3.844044   3.417492   2.507192
    17  H    3.850446   3.425783   2.142931   1.083793   2.510089
    18  F    1.356921   2.361072   3.600078   4.123947   4.502557
    19  F    3.594375   2.352694   1.358336   2.361623   4.508047
    20  H    5.787954   5.644151   6.481275   7.317280   8.235525
    21  H    5.158023   5.398097   6.469734   7.211836   7.804172
    22  H    4.613897   4.756846   5.535978   6.121078   6.726400
    23  H    3.052134   3.102464   4.318463   5.229520   6.127065
    24  H    4.596621   4.249331   5.351317   6.470830   7.672090
    25  H    5.698894   5.112394   5.524348   6.395057   7.700427
    26  H    7.285240   6.412587   6.828724   7.947974   9.584931
    27  H    6.380334   5.717640   6.468153   7.630044   9.091740
    28  H    5.491715   4.444218   5.029347   6.360646   8.157360
    29  H    2.652896   2.140005   3.420392   4.595702   5.893802
    30  H    3.279173   2.139309   2.804588   4.130707   5.867786
    31  H    3.345084   2.806809   3.274197   4.110583   5.394983
    32  C    5.775834   4.778780   4.731988   5.659555   7.369073
    33  H    5.352337   4.429507   4.170208   4.898086   6.520875
    34  H    5.895874   4.720256   4.591564   5.638292   7.542076
    35  H    6.825539   5.863973   5.768983   6.620041   8.277216
    36  H    4.013456   2.750040   2.929220   4.218431   6.138051
                   16         17         18         19         20
    16  H    0.000000
    17  H    4.333713   0.000000
    18  F    2.577556   5.207361   0.000000
    19  F    5.202331   2.588788   4.711364   0.000000
    20  H    7.053051   8.085839   5.419207   6.797559   0.000000
    21  H    6.162768   8.126052   4.449744   7.082250   1.763188
    22  H    5.539085   6.921526   4.358266   6.132497   1.768584
    23  H    4.614800   6.201883   2.475699   4.967750   3.068383
    24  H    6.335975   7.343741   4.082929   5.612556   2.515020
    25  H    7.193171   6.937278   5.837085   5.476432   2.251853
    26  H    9.098037   8.418862   7.343720   6.387018   3.709335
    27  H    8.176523   8.300007   6.156043   6.317729   2.595948
    28  H    7.567743   6.948482   5.557749   4.576567   4.401288
    29  H    4.697468   5.534429   2.410439   3.874693   4.937842
    30  H    5.366229   4.844683   3.655402   2.733400   6.081439
    31  H    4.901493   4.813287   3.749531   3.609471   3.312998
    32  C    7.454888   5.948453   6.305531   4.203751   4.297981
    33  H    6.842285   5.109765   6.053629   3.744895   4.633966
    34  H    7.722503   5.869625   6.479655   3.803346   5.069520
    35  H    8.430708   6.824954   7.328763   5.189136   4.637541
    36  H    6.018468   4.728750   4.583166   2.412563   4.908444
                   21         22         23         24         25
    21  H    0.000000
    22  H    1.766614   0.000000
    23  H    2.419862   2.543846   0.000000
    24  H    2.540022   3.087472   1.752078   0.000000
    25  H    3.740304   2.776542   3.738440   3.228104   0.000000
    26  H    5.237610   4.920553   5.130395   3.851256   2.451378
    27  H    3.800362   3.954634   3.793398   2.267053   2.432855
    28  H    5.170563   5.059719   3.866652   2.809561   3.495559
    29  H    4.538289   4.594418   2.186965   2.810150   4.936192
    30  H    6.041537   5.792276   3.709846   4.050181   5.448293
    31  H    3.754129   2.587123   2.433673   3.054151   2.422512
    32  C    5.568358   4.502145   4.715199   4.329890   2.138159
    33  H    5.740981   4.420486   4.780955   4.790577   2.553435
    34  H    6.232402   5.324085   5.063741   4.599560   3.060111
    35  H    6.118169   5.043492   5.605333   5.058953   2.412369
    36  H    5.485502   4.788138   3.636098   3.618706   3.583614
                   26         27         28         29         30
    26  H    0.000000
    27  H    1.762799   0.000000
    28  H    2.808240   2.425491   0.000000
    29  H    5.714808   4.605718   3.416741   0.000000
    30  H    5.896322   5.238627   3.303593   1.753919   0.000000
    31  H    4.300597   3.796745   3.573749   3.265227   3.773546
    32  C    2.734391   3.486444   3.105240   5.035758   4.817117
    33  H    3.770062   4.339051   3.895136   5.137357   4.891501
    34  H    2.998500   3.794419   2.709815   4.914962   4.357903
    35  H    2.580975   3.783648   3.810431   6.073773   5.871361
    36  H    4.101915   3.954634   2.237422   2.920917   2.290466
                   31         32         33         34         35
    31  H    0.000000
    32  C    2.746130   0.000000
    33  H    2.469581   1.095633   0.000000
    34  H    3.286891   1.094274   1.778232   0.000000
    35  H    3.679119   1.094843   1.769211   1.757189   0.000000
    36  H    2.408787   2.542337   2.692112   2.135778   3.598405
                   36
    36  H    0.000000
 Stoichiometry    C13H19F2NO
 Framework group  C1[X(C13H19F2NO)]
 Deg. of freedom   102
 Full point group                 C1      NOp   1
 Largest Abelian subgroup         C1      NOp   1
 Largest concise Abelian subgroup C1      NOp   1
                         Standard orientation:                         
 ---------------------------------------------------------------------
 Center     Atomic      Atomic             Coordinates (Angstroms)
 Number     Number       Type             X           Y           Z
 ---------------------------------------------------------------------
      1          6           0        1.879676    2.717636    1.110429
      2          6           0        1.414298    1.816545   -0.039667
      3          6           0        1.290748    0.325974    0.329872
      4          6           0        2.596465   -0.288882    0.907267
      5          6           0        3.788370   -0.188415   -0.064407
      6          8           0        3.607476   -0.933611   -1.262743
      7          7           0        0.883351   -0.468441   -0.857368
      8          6           0       -0.382050   -0.108927   -1.520198
      9          6           0       -3.934709   -0.236499    0.988739
     10          6           0       -3.522667    0.980538    0.446188
     11          6           0       -2.383026    0.998828   -0.350337
     12          6           0       -1.621885   -0.134334   -0.640333
     13          6           0       -2.086059   -1.320429   -0.066425
     14          6           0       -3.214348   -1.406302    0.736445
     15          1           0       -4.821024   -0.274965    1.613070
     16          1           0       -4.063762    1.902128    0.626746
     17          1           0       -3.512266   -2.365027    1.144732
     18          9           0       -1.989244    2.186001   -0.876445
     19          9           0       -1.377759   -2.451953   -0.317507
     20          1           0        2.919304    2.529196    1.394278
     21          1           0        1.805548    3.770931    0.822901
     22          1           0        1.259330    2.574924    2.002789
     23          1           0        0.434006    2.173339   -0.369704
     24          1           0        2.085337    1.926155   -0.900535
     25          1           0        2.854950    0.312880    1.787530
     26          1           0        4.685126   -0.586098    0.426813
     27          1           0        3.995709    0.870493   -0.287686
     28          1           0        2.687480   -0.742406   -1.540721
     29          1           0       -0.289650    0.876822   -1.975374
     30          1           0       -0.517486   -0.824062   -2.337749
     31          1           0        0.525635    0.254644    1.124612
     32          6           0        2.397998   -1.737047    1.386634
     33          1           0        1.497492   -1.839142    2.002327
     34          1           0        2.326304   -2.433485    0.545640
     35          1           0        3.253108   -2.057733    1.990478
     36          1           0        0.797750   -1.439174   -0.566302
 ---------------------------------------------------------------------
 Rotational constants (GHZ):      0.7061869      0.2996610      0.2506978
 Standard basis: 6-311G(d) (5D, 7F)
 There are   380 symmetry adapted cartesian basis functions of A   symmetry.
 There are   363 symmetry adapted basis functions of A   symmetry.
   363 basis functions,   639 primitive gaussians,   380 cartesian basis functions
    65 alpha electrons       65 beta electrons
       nuclear repulsion energy      1302.0945060463 Hartrees.
 NAtoms=   36 NActive=   36 NUniq=   36 SFac= 1.00D+00 NAtFMM=   60 NAOKFM=F Big=F
 Integral buffers will be    131072 words long.
 Raffenetti 2 integral format.
 Two-electron integral symmetry is turned on.
 ------------------------------------------------------------------------------
 Polarizable Continuum Model (PCM)
 =================================
 Model                : PCM (using non-symmetric T matrix).
 Atomic radii         : UFF (Universal Force Field).
 Polarization charges : Total charges.
 Charge compensation  : None.
 Solution method      : On-the-fly selection.
 Cavity type          : Scaled VdW (van der Waals Surface) (Alpha=1.100).
 Cavity algorithm     : GePol (No added spheres)
                        Default sphere list used, NSphG=   36.
                        Lebedev-Laikov grids with approx.  5.0 points / Ang**2.
                        Smoothing algorithm: Karplus/York (Gamma=1.0000).
                        Polarization charges: spherical gaussians, with
                                              point-specific exponents (IZeta= 3).
                        Self-potential: point-specific (ISelfS= 7).
                        Self-field    : sphere-specific E.n sum rule (ISelfD= 2).
 Solvent              : Chloroform, Eps=   4.711300 Eps(inf)=   2.090627
 ------------------------------------------------------------------------------
 One-electron integrals computed using PRISM.
 NBasis=   363 RedAO= T EigKep=  2.27D-04  NBF=   363
 NBsUse=   363 1.00D-06 EigRej= -1.00D+00 NBFU=   363
 ExpMin= 1.03D-01 ExpMax= 1.14D+04 ExpMxC= 1.72D+03 IAcc=1 IRadAn=         1 AccDes= 0.00D+00
 Harris functional with IExCor=  908 and IRadAn=       1 diagonalized for initial guess.
 HarFok:  IExCor=  908 AccDes= 0.00D+00 IRadAn=         1 IDoV= 1 UseB2=F ITyADJ=14
 ICtDFT=  3500011 ScaDFX=  1.000000  1.000000  1.000000  1.000000
 FoFCou: FMM=F IPFlag=           0 FMFlag=      100000 FMFlg1=           0
         NFxFlg=           0 DoJE=T BraDBF=F KetDBF=T FulRan=T
         wScrn=  0.000000 ICntrl=     500 IOpCl=  0 I1Cent=   200000004 NGrid=           0
         NMat0=    1 NMatS0=      1 NMatT0=    0 NMatD0=    1 NMtDS0=    0 NMtDT0=    0
 Petite list used in FoFCou.
 Requested convergence on RMS density matrix=1.00D-08 within 128 cycles.
 Requested convergence on MAX density matrix=1.00D-06.
 Requested convergence on             energy=1.00D-06.
 No special actions if energy rises.
 Inv3:  Mode=1 IEnd=    17963427.
 Iteration    1 A*A^-1 deviation from unit magnitude is 9.77D-15 for   1021.
 Iteration    1 A*A^-1 deviation from orthogonality  is 6.33D-15 for   1039    902.
 Iteration    1 A^-1*A deviation from unit magnitude is 7.99D-15 for   1294.
 Iteration    1 A^-1*A deviation from orthogonality  is 2.88D-12 for   2148   2123.
 Error on total polarization charges =  0.00918
 SCF Done:  E(RmPW1PW91) =  -836.468638335     A.U. after   12 cycles
            NFock= 12  Conv=0.72D-08     -V/T= 2.0039
 DoSCS=F DFT=T ScalE2(SS,OS)=  1.000000  1.000000
 Range of M.O.s used for correlation:     1   363
 NBasis=   363 NAE=    65 NBE=    65 NFC=     0 NFV=     0
 NROrb=    363 NOA=    65 NOB=    65 NVA=   298 NVB=   298

 **** Warning!!: The largest alpha MO coefficient is  0.11223460D+02

 NEqPCM:  Using equilibrium solvation (IEInf=0, Eps=   4.7113, EpsInf=   2.0906)
          Differentiating once with respect to magnetic field using GIAOs.
          Electric field/nuclear overlap derivatives assumed to be zero.
 FoFJK:  IHMeth= 1 ICntrl=    6127 DoSepK=F KAlg= 0 I1Cent=   0 FoldK=F
 IRaf=         1 NMat=   1 IRICut=       1 DoRegI=T DoRafI=F ISym2E= 0.
          There are     3 degrees of freedom in the 1st order CPHF.  IDoFFX=0 NUNeed=     3.
      3 vectors produced by pass  0 Test12= 6.46D-13 3.33D-08 XBig12= 4.31D+01 2.21D+00.
 AX will form     3 AO Fock derivatives at one time.
      3 vectors produced by pass  1 Test12= 6.46D-13 3.33D-08 XBig12= 1.41D-01 2.08D-01.
      3 vectors produced by pass  2 Test12= 6.46D-13 3.33D-08 XBig12= 6.46D-04 7.95D-03.
      3 vectors produced by pass  3 Test12= 6.46D-13 3.33D-08 XBig12= 1.47D-06 2.39D-04.
      3 vectors produced by pass  4 Test12= 6.46D-13 3.33D-08 XBig12= 3.60D-09 1.39D-05.
      3 vectors produced by pass  5 Test12= 6.46D-13 3.33D-08 XBig12= 1.49D-11 7.57D-07.
      1 vectors produced by pass  6 Test12= 6.46D-13 3.33D-08 XBig12= 3.69D-14 4.02D-08.
 InvSVY:  IOpt=1 It=  1 EMax= 8.88D-16
 Solved reduced A of dimension    19 with     3 vectors.
 Calculating GIAO nuclear magnetic shielding tensors.
 SCF GIAO Magnetic shielding tensor (ppm):
      1  C    Isotropic =   177.2111   Anisotropy =    17.4040
   XX=   170.6859   YX=     3.5654   ZX=     1.5053
   XY=     3.3763   YY=   179.6888   ZY=     6.8420
   XZ=     1.4211   YZ=     8.4622   ZZ=   181.2586
   Eigenvalues:   169.3299   173.4897   188.8138
      2  C    Isotropic =   163.4718   Anisotropy =    18.0649
   XX=   151.2953   YX=     4.9991   ZX=    -5.7838
   XY=     6.6561   YY=   174.1128   ZY=     0.7917
   XZ=    -0.0966   YZ=     0.6201   ZZ=   165.0072
   Eigenvalues:   149.3106   165.5897   175.5151
      3  C    Isotropic =   124.8391   Anisotropy =    14.4503
   XX=   120.3275   YX=    -2.3603   ZX=     2.7907
   XY=     5.2084   YY=   128.7393   ZY=    12.0708
   XZ=     9.1078   YZ=    -1.1945   ZZ=   125.4504
   Eigenvalues:   116.1030   123.9416   134.4726
      4  C    Isotropic =   151.0082   Anisotropy =    10.8800
   XX=   157.3143   YX=    -0.2908   ZX=    -2.9270
   XY=     0.6033   YY=   147.5704   ZY=     5.1224
   XZ=    -3.2617   YZ=    -3.3392   ZZ=   148.1399
   Eigenvalues:   146.4639   148.2993   158.2615
      5  C    Isotropic =   123.1321   Anisotropy =    57.7586
   XX=   110.5615   YX=     8.9527   ZX=     4.2154
   XY=     7.6973   YY=   109.2369   ZY=    26.1866
   XZ=     2.1902   YZ=    21.9350   ZZ=   149.5980
   Eigenvalues:    95.3801   112.3784   161.6379
      6  O    Isotropic =   305.7201   Anisotropy =   111.9318
   XX=   375.8696   YX=   -16.1630   ZX=    15.1785
   XY=   -26.6468   YY=   253.2644   ZY=   -24.6459
   XZ=    -1.6081   YZ=    -0.2681   ZZ=   288.0264
   Eigenvalues:   246.5932   290.2258   380.3413
      7  N    Isotropic =   197.7384   Anisotropy =    34.4511
   XX=   199.5269   YX=   -12.9048   ZX=    -2.8542
   XY=   -14.6354   YY=   209.6659   ZY=    -1.1579
   XZ=    -1.0962   YZ=    16.0443   ZZ=   184.0224
   Eigenvalues:   181.7726   190.7368   220.7057
      8  C    Isotropic =   148.5801   Anisotropy =    44.4997
   XX=   172.0965   YX=    -7.9880   ZX=     9.6304
   XY=    -3.4620   YY=   118.6167   ZY=    -4.7991
   XZ=    11.9336   YZ=    -5.7482   ZZ=   155.0271
   Eigenvalues:   117.5308   149.9629   178.2465
      9  C    Isotropic =    53.5814   Anisotropy =   189.0631
   XX=    23.4588   YX=    11.9971   ZX=   106.6146
   XY=    12.3204   YY=    36.1027   ZY=    21.6822
   XZ=   105.7746   YZ=    21.3719   ZZ=   101.1827
   Eigenvalues:   -50.8277    31.9485   179.6235
     10  C    Isotropic =    72.1675   Anisotropy =   146.7721
   XX=    77.5633   YX=    38.0055   ZX=    57.0475
   XY=    43.4736   YY=    10.2172   ZY=     3.3965
   XZ=    56.2564   YZ=     7.7716   ZZ=   128.7221
   Eigenvalues:   -12.1451    58.6321   170.0156
     11  C    Isotropic =    18.5819   Anisotropy =    97.2908
   XX=    44.2257   YX=   -23.3949   ZX=    33.2512
   XY=   -19.6321   YY=   -39.4911   ZY=    39.6883
   XZ=    33.3081   YZ=    39.9823   ZZ=    51.0109
   Eigenvalues:   -64.2757    36.5789    83.4424
     12  C    Isotropic =    67.3665   Anisotropy =   135.9463
   XX=    64.1826   YX=    11.7873   ZX=    66.7430
   XY=     9.7315   YY=    30.9724   ZY=    15.0521
   XZ=    66.6273   YZ=    12.5178   ZZ=   106.9445
   Eigenvalues:    15.5103    28.5919   157.9974
     13  C    Isotropic =    16.7629   Anisotropy =    95.1931
   XX=    24.3319   YX=    51.9171   ZX=    29.5136
   XY=    46.5894   YY=   -34.9283   ZY=    -7.7090
   XZ=    28.5128   YZ=    -8.3782   ZZ=    60.8853
   Eigenvalues:   -66.4443    36.5082    80.2250
     14  C    Isotropic =    72.1576   Anisotropy =   146.8370
   XX=    90.5737   YX=    -1.4920   ZX=    56.1232
   XY=    -7.6480   YY=     4.3497   ZY=    40.1449
   XZ=    58.0894   YZ=    36.7128   ZZ=   121.5495
   Eigenvalues:   -12.2855    58.7095   170.0490
     15  H    Isotropic =    24.6271   Anisotropy =     3.0266
   XX=    24.8899   YX=    -0.5144   ZX=    -2.1531
   XY=    -0.4591   YY=    26.4836   ZY=    -0.7980
   XZ=    -2.1596   YZ=    -0.7930   ZZ=    22.5079
   Eigenvalues:    21.0747    26.1618    26.6449
     16  H    Isotropic =    25.1198   Anisotropy =     4.9172
   XX=    26.6459   YX=    -0.3045   ZX=    -2.9880
   XY=    -0.1085   YY=    25.4414   ZY=    -0.9123
   XZ=    -2.9524   YZ=    -0.8178   ZZ=    23.2722
   Eigenvalues:    21.3650    25.5966    28.3980
     17  H    Isotropic =    25.1128   Anisotropy =     5.0321
   XX=    26.7224   YX=    -0.0698   ZX=    -3.0958
   XY=    -0.2990   YY=    25.3895   ZY=    -0.4206
   XZ=    -2.9494   YZ=    -0.4891   ZZ=    23.2266
   Eigenvalues:    21.4233    25.4476    28.4676
     18  F    Isotropic =   296.8839   Anisotropy =   118.9948
   XX=   275.2641   YX=    36.0947   ZX=    68.7374
   XY=    36.7093   YY=   286.2137   ZY=   -10.1019
   XZ=    62.6477   YZ=    -0.9521   ZZ=   329.1740
   Eigenvalues:   215.2284   299.2096   376.2138
     19  F    Isotropic =   297.6143   Anisotropy =   131.3055
   XX=   274.6584   YX=    -2.7968   ZX=    68.8010
   XY=   -21.8732   YY=   284.7142   ZY=    43.9989
   XZ=    64.3954   YZ=    38.4907   ZZ=   333.4705
   Eigenvalues:   214.7167   292.9750   385.1513
     20  H    Isotropic =    31.3224   Anisotropy =     8.3241
   XX=    34.6071   YX=     0.7482   ZX=     3.4140
   XY=     0.8762   YY=    31.1088   ZY=     2.2512
   XZ=     3.9978   YZ=     2.5702   ZZ=    28.2512
   Eigenvalues:    25.8567    31.2387    36.8718
     21  H    Isotropic =    31.0669   Anisotropy =    11.3758
   XX=    27.0652   YX=     1.0544   ZX=     0.9011
   XY=     0.5269   YY=    38.5566   ZY=    -0.0505
   XZ=     1.2045   YZ=     1.2348   ZZ=    27.5789
   Eigenvalues:    26.2329    28.3171    38.6508
     22  H    Isotropic =    31.6677   Anisotropy =     8.5774
   XX=    29.8189   YX=     0.4373   ZX=    -2.7267
   XY=     0.1332   YY=    30.0183   ZY=     2.8830
   XZ=    -2.8954   YZ=     3.2114   ZZ=    35.1658
   Eigenvalues:    27.4184    30.1986    37.3859
     23  H    Isotropic =    30.0292   Anisotropy =     9.5045
   XX=    34.0051   YX=    -0.7973   ZX=     4.1386
   XY=    -0.8906   YY=    31.1107   ZY=     0.2225
   XZ=     6.1319   YZ=     1.3535   ZZ=    24.9718
   Eigenvalues:    22.5171    31.2049    36.3655
     24  H    Isotropic =    30.6760   Anisotropy =     6.0047
   XX=    29.8044   YX=     1.3742   ZX=    -2.7588
   XY=     1.4702   YY=    30.3778   ZY=    -1.5475
   XZ=    -2.8666   YZ=    -1.1490   ZZ=    31.8459
   Eigenvalues:    27.7571    29.5919    34.6791
     25  H    Isotropic =    30.5994   Anisotropy =     6.5781
   XX=    27.2574   YX=     0.0257   ZX=     3.4484
   XY=    -0.5975   YY=    32.6392   ZY=     2.2625
   XZ=     3.4312   YZ=     1.7993   ZZ=    31.9015
   Eigenvalues:    25.2243    31.5891    34.9848
     26  H    Isotropic =    28.7846   Anisotropy =     8.4317
   XX=    33.5148   YX=    -0.7068   ZX=     1.4376
   XY=     0.3373   YY=    24.5821   ZY=     1.8842
   XZ=     3.2259   YZ=     0.4223   ZZ=    28.2568
   Eigenvalues:    24.1683    27.7797    34.4057
     27  H    Isotropic =    27.9800   Anisotropy =     5.1941
   XX=    28.8376   YX=     2.5050   ZX=    -2.0933
   XY=     1.9163   YY=    29.5566   ZY=     0.4045
   XZ=    -1.1231   YZ=     2.7740   ZZ=    25.5458
   Eigenvalues:    23.8866    28.6106    31.4428
     28  H    Isotropic =    28.9087   Anisotropy =    22.8365
   XX=    42.6979   YX=    -5.1356   ZX=     2.5710
   XY=    -5.2078   YY=    18.5449   ZY=     2.9437
   XZ=     3.8627   YZ=     2.4073   ZZ=    25.4834
   Eigenvalues:    16.2906    26.3026    44.1331
     29  H    Isotropic =    28.0703   Anisotropy =     6.0817
   XX=    28.3785   YX=    -2.0923   ZX=     0.8193
   XY=    -0.9577   YY=    28.3506   ZY=    -2.7625
   XZ=     0.2773   YZ=    -4.3775   ZZ=    27.4820
   Eigenvalues:    24.2260    27.8602    32.1248
     30  H    Isotropic =    28.1785   Anisotropy =     7.9006
   XX=    27.6876   YX=     0.8847   ZX=     2.2613
   XY=     0.1833   YY=    25.1396   ZY=     2.6681
   XZ=    -0.0215   YZ=     4.2079   ZZ=    31.7083
   Eigenvalues:    23.6686    27.4213    33.4455
     31  H    Isotropic =    29.6421   Anisotropy =     4.5124
   XX=    32.5773   YX=     1.0699   ZX=    -1.1239
   XY=     0.0514   YY=    27.1904   ZY=     0.3646
   XZ=     0.5438   YZ=     0.7905   ZZ=    29.1587
   Eigenvalues:    26.9655    29.3105    32.6504
     32  C    Isotropic =   172.3079   Anisotropy =    27.4625
   XX=   177.4394   YX=    -2.2059   ZX=    -6.3863
   XY=    -1.4265   YY=   181.1046   ZY=   -19.7345
   XZ=    -3.9402   YZ=   -15.1441   ZZ=   158.3795
   Eigenvalues:   147.9370   178.3704   190.6162
     33  H    Isotropic =    31.6103   Anisotropy =     8.1829
   XX=    33.3656   YX=     0.6050   ZX=    -3.1234
   XY=     1.8092   YY=    29.8980   ZY=    -3.8520
   XZ=    -2.2048   YZ=    -4.2586   ZZ=    31.5672
   Eigenvalues:    26.4978    31.2675    37.0655
     34  H    Isotropic =    30.4499   Anisotropy =     5.6127
   XX=    27.8835   YX=    -0.6270   ZX=     0.3098
   XY=    -0.2960   YY=    34.0238   ZY=     1.2874
   XZ=     0.9831   YZ=     0.3926   ZZ=    29.4425
   Eigenvalues:    27.5678    29.5902    34.1917
     35  H    Isotropic =    31.0569   Anisotropy =    11.6114
   XX=    31.9239   YX=    -2.6097   ZX=     4.2946
   XY=    -3.6133   YY=    30.6853   ZY=    -4.0898
   XZ=     4.1596   YZ=    -4.3783   ZZ=    30.5613
   Eigenvalues:    26.1363    28.2365    38.7978
     36  H    Isotropic =    30.1164   Anisotropy =     9.6994
   XX=    30.6863   YX=     0.3300   ZX=     4.9523
   XY=     1.2897   YY=    36.2692   ZY=    -2.2629
   XZ=     6.0364   YZ=    -1.8011   ZZ=    23.3936
   Eigenvalues:    20.1526    33.6140    36.5826
 End of Minotr F.D. properties file   721 does not exist.
 End of Minotr F.D. properties file   722 does not exist.
 End of Minotr F.D. properties file   788 does not exist.

 **********************************************************************

            Population analysis using the SCF density.

 **********************************************************************

 Orbital symmetries:
       Occupied  (A) (A) (A) (A) (A) (A) (A) (A) (A) (A) (A) (A)
                 (A) (A) (A) (A) (A) (A) (A) (A) (A) (A) (A) (A)
                 (A) (A) (A) (A) (A) (A) (A) (A) (A) (A) (A) (A)
                 (A) (A) (A) (A) (A) (A) (A) (A) (A) (A) (A) (A)
                 (A) (A) (A) (A) (A) (A) (A) (A) (A) (A) (A) (A)
                 (A) (A) (A) (A) (A)
       Virtual   (A) (A) (A) (A) (A) (A) (A) (A) (A) (A) (A) (A)
                 (A) (A) (A) (A) (A) (A) (A) (A) (A) (A) (A) (A)
                 (A) (A) (A) (A) (A) (A) (A) (A) (A) (A) (A) (A)
                 (A) (A) (A) (A) (A) (A) (A) (A) (A) (A) (A) (A)
                 (A) (A) (A) (A) (A) (A) (A) (A) (A) (A) (A) (A)
                 (A) (A) (A) (A) (A) (A) (A) (A) (A) (A) (A) (A)
                 (A) (A) (A) (A) (A) (A) (A) (A) (A) (A) (A) (A)
                 (A) (A) (A) (A) (A) (A) (A) (A) (A) (A) (A) (A)
                 (A) (A) (A) (A) (A) (A) (A) (A) (A) (A) (A) (A)
                 (A) (A) (A) (A) (A) (A) (A) (A) (A) (A) (A) (A)
                 (A) (A) (A) (A) (A) (A) (A) (A) (A) (A) (A) (A)
                 (A) (A) (A) (A) (A) (A) (A) (A) (A) (A) (A) (A)
                 (A) (A) (A) (A) (A) (A) (A) (A) (A) (A) (A) (A)
                 (A) (A) (A) (A) (A) (A) (A) (A) (A) (A) (A) (A)
                 (A) (A) (A) (A) (A) (A) (A) (A) (A) (A) (A) (A)
                 (A) (A) (A) (A) (A) (A) (A) (A) (A) (A) (A) (A)
                 (A) (A) (A) (A) (A) (A) (A) (A) (A) (A) (A) (A)
                 (A) (A) (A) (A) (A) (A) (A) (A) (A) (A) (A) (A)
                 (A) (A) (A) (A) (A) (A) (A) (A) (A) (A) (A) (A)
                 (A) (A) (A) (A) (A) (A) (A) (A) (A) (A) (A) (A)
                 (A) (A) (A) (A) (A) (A) (A) (A) (A) (A) (A) (A)
                 (A) (A) (A) (A) (A) (A) (A) (A) (A) (A) (A) (A)
                 (A) (A) (A) (A) (A) (A) (A) (A) (A) (A) (A) (A)
                 (A) (A) (A) (A) (A) (A) (A) (A) (A) (A) (A) (A)
                 (A) (A) (A) (A) (A) (A) (A) (A) (A) (A)
 The electronic state is 1-A.
 Alpha  occ. eigenvalues --  -24.80454 -24.80287 -19.18525 -14.39590 -10.34112
 Alpha  occ. eigenvalues --  -10.34078 -10.27687 -10.26840 -10.26777 -10.26562
 Alpha  occ. eigenvalues --  -10.26454 -10.25685 -10.25653 -10.23856 -10.22923
 Alpha  occ. eigenvalues --  -10.22146 -10.21971  -1.27254  -1.27109  -1.03047
 Alpha  occ. eigenvalues --   -0.94913  -0.90947  -0.83269  -0.80425  -0.79107
 Alpha  occ. eigenvalues --   -0.78412  -0.72340  -0.69594  -0.67917  -0.66119
 Alpha  occ. eigenvalues --   -0.64588  -0.62282  -0.59022  -0.57171  -0.55805
 Alpha  occ. eigenvalues --   -0.52535  -0.51852  -0.51742  -0.51071  -0.49793
 Alpha  occ. eigenvalues --   -0.49389  -0.48966  -0.47257  -0.46683  -0.46169
 Alpha  occ. eigenvalues --   -0.45209  -0.43854  -0.42486  -0.42116  -0.41653
 Alpha  occ. eigenvalues --   -0.40507  -0.39757  -0.38817  -0.38638  -0.38397
 Alpha  occ. eigenvalues --   -0.37940  -0.37448  -0.35767  -0.34145  -0.33277
 Alpha  occ. eigenvalues --   -0.32393  -0.28100  -0.27346  -0.27121  -0.25351
 Alpha virt. eigenvalues --   -0.02646  -0.01256   0.04979   0.05467   0.06504
 Alpha virt. eigenvalues --    0.07294   0.08339   0.10014   0.10493   0.10678
 Alpha virt. eigenvalues --    0.11560   0.11676   0.12340   0.13017   0.13081
 Alpha virt. eigenvalues --    0.13687   0.14296   0.14638   0.15269   0.15735
 Alpha virt. eigenvalues --    0.16911   0.17484   0.19012   0.19176   0.20159
 Alpha virt. eigenvalues --    0.21413   0.22469   0.22970   0.23882   0.24640
 Alpha virt. eigenvalues --    0.24978   0.26314   0.26431   0.27265   0.29324
 Alpha virt. eigenvalues --    0.31308   0.32636   0.32857   0.34341   0.35011
 Alpha virt. eigenvalues --    0.35573   0.36610   0.37185   0.38422   0.39152
 Alpha virt. eigenvalues --    0.39859   0.40118   0.40660   0.41209   0.42301
 Alpha virt. eigenvalues --    0.43596   0.43689   0.44964   0.45503   0.46094
 Alpha virt. eigenvalues --    0.47208   0.49420   0.50220   0.50388   0.51006
 Alpha virt. eigenvalues --    0.51462   0.52755   0.53833   0.54290   0.54881
 Alpha virt. eigenvalues --    0.55909   0.56841   0.58477   0.58805   0.59313
 Alpha virt. eigenvalues --    0.59591   0.59793   0.60557   0.61689   0.62441
 Alpha virt. eigenvalues --    0.62632   0.62973   0.63589   0.64248   0.64372
 Alpha virt. eigenvalues --    0.65335   0.65654   0.66341   0.66578   0.67432
 Alpha virt. eigenvalues --    0.68343   0.69226   0.69866   0.70628   0.71575
 Alpha virt. eigenvalues --    0.72788   0.74086   0.74380   0.76775   0.78505
 Alpha virt. eigenvalues --    0.78849   0.80306   0.81994   0.82676   0.85456
 Alpha virt. eigenvalues --    0.87022   0.90202   0.91433   0.92469   0.94911
 Alpha virt. eigenvalues --    0.95231   0.96855   0.97928   0.99194   1.00298
 Alpha virt. eigenvalues --    1.02941   1.03695   1.05470   1.06607   1.08251
 Alpha virt. eigenvalues --    1.08813   1.09414   1.11227   1.12337   1.14642
 Alpha virt. eigenvalues --    1.16351   1.18594   1.19157   1.20693   1.24772
 Alpha virt. eigenvalues --    1.26471   1.26854   1.28075   1.29613   1.33424
 Alpha virt. eigenvalues --    1.34382   1.36096   1.36910   1.38910   1.39742
 Alpha virt. eigenvalues --    1.43394   1.44905   1.47522   1.48542   1.49531
 Alpha virt. eigenvalues --    1.50906   1.52293   1.53957   1.54292   1.55221
 Alpha virt. eigenvalues --    1.55448   1.57021   1.58162   1.59740   1.61181
 Alpha virt. eigenvalues --    1.61678   1.63744   1.64922   1.65550   1.66849
 Alpha virt. eigenvalues --    1.67292   1.68869   1.71138   1.72297   1.73670
 Alpha virt. eigenvalues --    1.74276   1.77520   1.78322   1.80506   1.81340
 Alpha virt. eigenvalues --    1.83486   1.84173   1.84295   1.86549   1.87380
 Alpha virt. eigenvalues --    1.89910   1.90385   1.90888   1.94392   1.95811
 Alpha virt. eigenvalues --    1.96936   1.98458   1.99319   2.00127   2.03137
 Alpha virt. eigenvalues --    2.09884   2.12081   2.16361   2.17319   2.19465
 Alpha virt. eigenvalues --    2.20561   2.22626   2.25878   2.27424   2.28200
 Alpha virt. eigenvalues --    2.30939   2.31873   2.34555   2.37501   2.40704
 Alpha virt. eigenvalues --    2.41361   2.41879   2.44751   2.45304   2.47327
 Alpha virt. eigenvalues --    2.49045   2.50102   2.51244   2.53501   2.55563
 Alpha virt. eigenvalues --    2.56052   2.58735   2.59934   2.62742   2.65555
 Alpha virt. eigenvalues --    2.65946   2.67679   2.68880   2.71301   2.75649
 Alpha virt. eigenvalues --    2.76840   2.82996   2.84208   2.85993   2.86928
 Alpha virt. eigenvalues --    2.90049   2.94893   2.99572   3.01206   3.04861
 Alpha virt. eigenvalues --    3.05719   3.06937   3.08400   3.09803   3.12644
 Alpha virt. eigenvalues --    3.14603   3.16373   3.17643   3.20100   3.22211
 Alpha virt. eigenvalues --    3.23983   3.26875   3.27610   3.28420   3.29472
 Alpha virt. eigenvalues --    3.30457   3.33229   3.37004   3.38525   3.42980
 Alpha virt. eigenvalues --    3.44151   3.47449   3.51564   3.57492   3.63822
 Alpha virt. eigenvalues --    3.75798   3.78415   3.79809   3.80161   3.80856
 Alpha virt. eigenvalues --    3.86244   3.87082   3.94555   3.97477   3.98314
 Alpha virt. eigenvalues --    3.98716   4.05802   4.06708   4.09958   4.11660
 Alpha virt. eigenvalues --    4.16013   4.18547   4.44397   4.74995   4.76511
 Alpha virt. eigenvalues --    4.77489   4.79582   4.95284   5.07904   5.43738
 Alpha virt. eigenvalues --    6.14141   6.16300   6.30193   6.33264   6.55482
 Alpha virt. eigenvalues --    6.57092  23.28565  23.47240  23.58163  23.69208
 Alpha virt. eigenvalues --   23.72846  23.77703  23.80802  23.84234  23.85667
 Alpha virt. eigenvalues --   23.90739  24.09817  24.10331  24.19452  35.56887
 Alpha virt. eigenvalues --   49.99402  66.89153  66.89482
          Condensed to atoms (all electrons):
               1          2          3          4          5          6
     1  C    5.347877   0.301500  -0.061381  -0.005050  -0.002435   0.000106
     2  C    0.301500   5.376582   0.311321  -0.060646  -0.003684  -0.002155
     3  C   -0.061381   0.311321   5.364875   0.308491  -0.075888   0.003788
     4  C   -0.005050  -0.060646   0.308491   5.478178   0.289039  -0.056931
     5  C   -0.002435  -0.003684  -0.075888   0.289039   5.120394   0.250335
     6  O    0.000106  -0.002155   0.003788  -0.056931   0.250335   8.234215
     7  N    0.004669  -0.067133   0.226145  -0.061438   0.003703  -0.027600
     8  C    0.000002  -0.003751  -0.074454   0.010015  -0.000317  -0.000018
     9  C    0.000000   0.000002   0.000022   0.000001   0.000000   0.000000
    10  C    0.000001  -0.000063   0.000038  -0.000003   0.000000   0.000000
    11  C    0.000117   0.001012   0.000958   0.000062   0.000000   0.000001
    12  C    0.000087  -0.002553  -0.014502  -0.000799   0.000042  -0.000010
    13  C   -0.000003   0.000307  -0.000432  -0.000295  -0.000007  -0.000006
    14  C    0.000000   0.000022  -0.000137  -0.000008   0.000000   0.000000
    15  H    0.000000   0.000000   0.000000   0.000000   0.000000   0.000000
    16  H    0.000001   0.000007  -0.000001   0.000000   0.000000   0.000000
    17  H    0.000000   0.000000   0.000006  -0.000001   0.000000   0.000000
    18  F   -0.000057  -0.005266   0.000132  -0.000002   0.000000   0.000000
    19  F    0.000000   0.000000  -0.000139  -0.000002   0.000001   0.000000
    20  H    0.386414  -0.036372  -0.009231   0.003344   0.000262  -0.000107
    21  H    0.392622  -0.035236   0.007245   0.000140  -0.000091   0.000004
    22  H    0.385465  -0.043500  -0.002482  -0.002083   0.000399  -0.000008
    23  H   -0.040678   0.387631  -0.040968   0.007684  -0.000236  -0.000059
    24  H   -0.036581   0.385724  -0.039290  -0.013732   0.005276   0.001792
    25  H    0.002048  -0.009454  -0.048758   0.392067  -0.034052   0.004347
    26  H    0.000152  -0.000551   0.010746  -0.037146   0.390682  -0.032104
    27  H   -0.001855   0.007291  -0.019860  -0.043586   0.391302  -0.036199
    28  H    0.000165  -0.003253   0.002088  -0.007343  -0.055992   0.252740
    29  H    0.000041   0.002801  -0.007728  -0.000256   0.000029   0.000083
    30  H    0.000008   0.000262   0.006722  -0.000172  -0.000010   0.000092
    31  H    0.000733  -0.056405   0.402095  -0.054244   0.008281  -0.000631
    32  C   -0.000315   0.008374  -0.088804   0.299053  -0.088759  -0.001438
    33  H    0.000020   0.000119  -0.000965  -0.043089   0.007427  -0.000156
    34  H   -0.000035  -0.000205  -0.014473  -0.036345  -0.011405   0.018843
    35  H    0.000000  -0.000184   0.008133  -0.032554  -0.003198  -0.000683
    36  H   -0.000418   0.008516  -0.051297  -0.011704   0.000438   0.004370
               7          8          9         10         11         12
     1  C    0.004669   0.000002   0.000000   0.000001   0.000117   0.000087
     2  C   -0.067133  -0.003751   0.000002  -0.000063   0.001012  -0.002553
     3  C    0.226145  -0.074454   0.000022   0.000038   0.000958  -0.014502
     4  C   -0.061438   0.010015   0.000001  -0.000003   0.000062  -0.000799
     5  C    0.003703  -0.000317   0.000000   0.000000   0.000000   0.000042
     6  O   -0.027600  -0.000018   0.000000   0.000000   0.000001  -0.000010
     7  N    7.013618   0.304271  -0.000033  -0.000052   0.001010  -0.077886
     8  C    0.304271   5.308183  -0.001073   0.007505  -0.065639   0.211593
     9  C   -0.000033  -0.001073   5.064694   0.444249  -0.006383  -0.054043
    10  C   -0.000052   0.007505   0.444249   5.151976   0.479228  -0.037705
    11  C    0.001010  -0.065639  -0.006383   0.479228   4.739546   0.299510
    12  C   -0.077886   0.211593  -0.054043  -0.037705   0.299510   5.895247
    13  C    0.002991  -0.075134  -0.009531  -0.051657   0.051314   0.232570
    14  C    0.000517   0.007019   0.440188  -0.045321  -0.059668  -0.039407
    15  H   -0.000001   0.000022   0.403541  -0.040471   0.006339  -0.001819
    16  H    0.000009  -0.000163  -0.040486   0.393192  -0.048893   0.012226
    17  H    0.000036  -0.000210  -0.040187   0.006816  -0.001705   0.012434
    18  F    0.000066  -0.007965   0.005205  -0.049689   0.288396  -0.070344
    19  F   -0.004732   0.005609   0.005132  -0.000468   0.004863  -0.085003
    20  H   -0.000045   0.000012   0.000000   0.000000   0.000000  -0.000003
    21  H   -0.000153   0.000004   0.000000   0.000002   0.000010  -0.000007
    22  H    0.000025  -0.000100  -0.000001   0.000021   0.000114   0.000118
    23  H   -0.004642   0.006545  -0.000062  -0.000009  -0.004308  -0.007171
    24  H    0.003900  -0.002391   0.000001  -0.000005  -0.000048   0.001402
    25  H    0.005205  -0.000217   0.000000   0.000000   0.000019   0.000050
    26  H   -0.000676   0.000026   0.000000   0.000000   0.000000   0.000001
    27  H    0.000358   0.000054   0.000000   0.000000   0.000003  -0.000021
    28  H    0.057593  -0.001570   0.000000   0.000000  -0.000037   0.001459
    29  H   -0.029966   0.409444  -0.000276   0.001335  -0.009856  -0.063698
    30  H   -0.033667   0.410627  -0.000033  -0.000082   0.002545  -0.053273
    31  H   -0.042118  -0.011806   0.000093  -0.000112   0.000011   0.012475
    32  C   -0.002129  -0.000568  -0.000001   0.000001   0.000002  -0.000011
    33  H   -0.000826  -0.000180  -0.000002   0.000001  -0.000016  -0.000055
    34  H    0.003876   0.000151   0.000001   0.000000   0.000014   0.000233
    35  H    0.000016   0.000013   0.000000   0.000000   0.000000  -0.000004
    36  H    0.325559  -0.042192  -0.000117   0.000091  -0.000274  -0.013998
              13         14         15         16         17         18
     1  C   -0.000003   0.000000   0.000000   0.000001   0.000000  -0.000057
     2  C    0.000307   0.000022   0.000000   0.000007   0.000000  -0.005266
     3  C   -0.000432  -0.000137   0.000000  -0.000001   0.000006   0.000132
     4  C   -0.000295  -0.000008   0.000000   0.000000  -0.000001  -0.000002
     5  C   -0.000007   0.000000   0.000000   0.000000   0.000000   0.000000
     6  O   -0.000006   0.000000   0.000000   0.000000   0.000000   0.000000
     7  N    0.002991   0.000517  -0.000001   0.000009   0.000036   0.000066
     8  C   -0.075134   0.007019   0.000022  -0.000163  -0.000210  -0.007965
     9  C   -0.009531   0.440188   0.403541  -0.040486  -0.040187   0.005205
    10  C   -0.051657  -0.045321  -0.040471   0.393192   0.006816  -0.049689
    11  C    0.051314  -0.059668   0.006339  -0.048893  -0.001705   0.288396
    12  C    0.232570  -0.039407  -0.001819   0.012226   0.012434  -0.070344
    13  C    4.771853   0.487385   0.006464  -0.001806  -0.051755   0.005399
    14  C    0.487385   5.159697  -0.041485   0.006999   0.395016  -0.000345
    15  H    0.006464  -0.041485   0.443978  -0.006399  -0.006430  -0.000083
    16  H   -0.001806   0.006999  -0.006399   0.443962  -0.000125   0.001348
    17  H   -0.051755   0.395016  -0.006430  -0.000125   0.444079   0.000005
    18  F    0.005399  -0.000345  -0.000083   0.001348   0.000005   9.052974
    19  F    0.305845  -0.051654  -0.000081   0.000004   0.001549  -0.000002
    20  H    0.000000   0.000000   0.000000   0.000000   0.000000  -0.000004
    21  H    0.000000   0.000000   0.000000   0.000000   0.000000  -0.000032
    22  H   -0.000002  -0.000002   0.000000   0.000001   0.000000   0.000011
    23  H    0.000003   0.000060   0.000003   0.000002  -0.000001   0.018468
    24  H   -0.000003  -0.000001   0.000000   0.000000   0.000000  -0.000067
    25  H   -0.000015  -0.000002   0.000000   0.000000   0.000000   0.000000
    26  H    0.000000   0.000000   0.000000   0.000000   0.000000   0.000000
    27  H   -0.000001   0.000000   0.000000   0.000000   0.000000   0.000000
    28  H   -0.000040  -0.000002   0.000000   0.000000   0.000000  -0.000001
    29  H    0.006727   0.000194   0.000003  -0.000027   0.000010   0.010108
    30  H   -0.007953   0.000124   0.000000   0.000012  -0.000004   0.000143
    31  H    0.000712  -0.000615   0.000003  -0.000025  -0.000032  -0.000027
    32  C    0.000238   0.000000   0.000000   0.000000   0.000004   0.000000
    33  H    0.000201   0.000016   0.000000   0.000000   0.000010   0.000000
    34  H   -0.000160  -0.000019   0.000000   0.000000   0.000000   0.000000
    35  H    0.000004   0.000000   0.000000   0.000000   0.000000   0.000000
    36  H    0.002292   0.000813   0.000002  -0.000001   0.000011  -0.000017
              19         20         21         22         23         24
     1  C    0.000000   0.386414   0.392622   0.385465  -0.040678  -0.036581
     2  C    0.000000  -0.036372  -0.035236  -0.043500   0.387631   0.385724
     3  C   -0.000139  -0.009231   0.007245  -0.002482  -0.040968  -0.039290
     4  C   -0.000002   0.003344   0.000140  -0.002083   0.007684  -0.013732
     5  C    0.000001   0.000262  -0.000091   0.000399  -0.000236   0.005276
     6  O    0.000000  -0.000107   0.000004  -0.000008  -0.000059   0.001792
     7  N   -0.004732  -0.000045  -0.000153   0.000025  -0.004642   0.003900
     8  C    0.005609   0.000012   0.000004  -0.000100   0.006545  -0.002391
     9  C    0.005132   0.000000   0.000000  -0.000001  -0.000062   0.000001
    10  C   -0.000468   0.000000   0.000002   0.000021  -0.000009  -0.000005
    11  C    0.004863   0.000000   0.000010   0.000114  -0.004308  -0.000048
    12  C   -0.085003  -0.000003  -0.000007   0.000118  -0.007171   0.001402
    13  C    0.305845   0.000000   0.000000  -0.000002   0.000003  -0.000003
    14  C   -0.051654   0.000000   0.000000  -0.000002   0.000060  -0.000001
    15  H   -0.000081   0.000000   0.000000   0.000000   0.000003   0.000000
    16  H    0.000004   0.000000   0.000000   0.000001   0.000002   0.000000
    17  H    0.001549   0.000000   0.000000   0.000000  -0.000001   0.000000
    18  F   -0.000002  -0.000004  -0.000032   0.000011   0.018468  -0.000067
    19  F    9.052102   0.000000   0.000000   0.000000  -0.000002   0.000000
    20  H    0.000000   0.478531  -0.028104  -0.029105   0.006677  -0.006955
    21  H    0.000000  -0.028104   0.468628  -0.026941  -0.006354  -0.003472
    22  H    0.000000  -0.029105  -0.026941   0.483860  -0.004016   0.007129
    23  H   -0.000002   0.006677  -0.006354  -0.004016   0.481065  -0.032611
    24  H    0.000000  -0.006955  -0.003472   0.007129  -0.032611   0.491193
    25  H   -0.000002   0.000272   0.000360   0.000054  -0.000094  -0.000114
    26  H    0.000000  -0.000277  -0.000001   0.000006   0.000000   0.000431
    27  H    0.000000   0.004565  -0.000033  -0.000107   0.000606  -0.005773
    28  H   -0.000050   0.000015  -0.000014   0.000015  -0.000163   0.003221
    29  H    0.000228  -0.000034   0.000029   0.000014  -0.002908   0.000590
    30  H    0.002719   0.000003  -0.000001  -0.000002   0.000237  -0.000202
    31  H    0.000190  -0.000253  -0.000398   0.005361  -0.007782   0.008581
    32  C   -0.000188   0.000519   0.000011  -0.000218  -0.000186  -0.000599
    33  H    0.000599  -0.000006  -0.000002   0.000003  -0.000026   0.000008
    34  H   -0.000187   0.000025   0.000001   0.000001   0.000020  -0.000101
    35  H   -0.000005   0.000012  -0.000001   0.000007   0.000015   0.000002
    36  H    0.014195  -0.000021   0.000029  -0.000020  -0.000453  -0.000250
              25         26         27         28         29         30
     1  C    0.002048   0.000152  -0.001855   0.000165   0.000041   0.000008
     2  C   -0.009454  -0.000551   0.007291  -0.003253   0.002801   0.000262
     3  C   -0.048758   0.010746  -0.019860   0.002088  -0.007728   0.006722
     4  C    0.392067  -0.037146  -0.043586  -0.007343  -0.000256  -0.000172
     5  C   -0.034052   0.390682   0.391302  -0.055992   0.000029  -0.000010
     6  O    0.004347  -0.032104  -0.036199   0.252740   0.000083   0.000092
     7  N    0.005205  -0.000676   0.000358   0.057593  -0.029966  -0.033667
     8  C   -0.000217   0.000026   0.000054  -0.001570   0.409444   0.410627
     9  C    0.000000   0.000000   0.000000   0.000000  -0.000276  -0.000033
    10  C    0.000000   0.000000   0.000000   0.000000   0.001335  -0.000082
    11  C    0.000019   0.000000   0.000003  -0.000037  -0.009856   0.002545
    12  C    0.000050   0.000001  -0.000021   0.001459  -0.063698  -0.053273
    13  C   -0.000015   0.000000  -0.000001  -0.000040   0.006727  -0.007953
    14  C   -0.000002   0.000000   0.000000  -0.000002   0.000194   0.000124
    15  H    0.000000   0.000000   0.000000   0.000000   0.000003   0.000000
    16  H    0.000000   0.000000   0.000000   0.000000  -0.000027   0.000012
    17  H    0.000000   0.000000   0.000000   0.000000   0.000010  -0.000004
    18  F    0.000000   0.000000   0.000000  -0.000001   0.010108   0.000143
    19  F   -0.000002   0.000000   0.000000  -0.000050   0.000228   0.002719
    20  H    0.000272  -0.000277   0.004565   0.000015  -0.000034   0.000003
    21  H    0.000360  -0.000001  -0.000033  -0.000014   0.000029  -0.000001
    22  H    0.000054   0.000006  -0.000107   0.000015   0.000014  -0.000002
    23  H   -0.000094   0.000000   0.000606  -0.000163  -0.002908   0.000237
    24  H   -0.000114   0.000431  -0.005773   0.003221   0.000590  -0.000202
    25  H    0.490857  -0.003395  -0.000028  -0.000898  -0.000027   0.000022
    26  H   -0.003395   0.502688  -0.044815   0.006202   0.000003  -0.000002
    27  H   -0.000028  -0.044815   0.531740  -0.004144  -0.000072   0.000009
    28  H   -0.000898   0.006202  -0.004144   0.350970  -0.000792  -0.000487
    29  H   -0.000027   0.000003  -0.000072  -0.000792   0.427256  -0.021643
    30  H    0.000022  -0.000002   0.000009  -0.000487  -0.021643   0.436121
    31  H   -0.003650  -0.000261  -0.000524   0.002397  -0.000641  -0.000263
    32  C   -0.034804  -0.010136   0.009349  -0.000162  -0.000022   0.000048
    33  H   -0.003041  -0.000010  -0.000310   0.000032  -0.000001  -0.000002
    34  H    0.007705  -0.002955   0.001420  -0.001550  -0.000061   0.000096
    35  H   -0.007115   0.004402  -0.000285  -0.000123   0.000004  -0.000003
    36  H    0.000474  -0.000043   0.000103  -0.005330   0.006482  -0.008933
              31         32         33         34         35         36
     1  C    0.000733  -0.000315   0.000020  -0.000035   0.000000  -0.000418
     2  C   -0.056405   0.008374   0.000119  -0.000205  -0.000184   0.008516
     3  C    0.402095  -0.088804  -0.000965  -0.014473   0.008133  -0.051297
     4  C   -0.054244   0.299053  -0.043089  -0.036345  -0.032554  -0.011704
     5  C    0.008281  -0.088759   0.007427  -0.011405  -0.003198   0.000438
     6  O   -0.000631  -0.001438  -0.000156   0.018843  -0.000683   0.004370
     7  N   -0.042118  -0.002129  -0.000826   0.003876   0.000016   0.325559
     8  C   -0.011806  -0.000568  -0.000180   0.000151   0.000013  -0.042192
     9  C    0.000093  -0.000001  -0.000002   0.000001   0.000000  -0.000117
    10  C   -0.000112   0.000001   0.000001   0.000000   0.000000   0.000091
    11  C    0.000011   0.000002  -0.000016   0.000014   0.000000  -0.000274
    12  C    0.012475  -0.000011  -0.000055   0.000233  -0.000004  -0.013998
    13  C    0.000712   0.000238   0.000201  -0.000160   0.000004   0.002292
    14  C   -0.000615   0.000000   0.000016  -0.000019   0.000000   0.000813
    15  H    0.000003   0.000000   0.000000   0.000000   0.000000   0.000002
    16  H   -0.000025   0.000000   0.000000   0.000000   0.000000  -0.000001
    17  H   -0.000032   0.000004   0.000010   0.000000   0.000000   0.000011
    18  F   -0.000027   0.000000   0.000000   0.000000   0.000000  -0.000017
    19  F    0.000190  -0.000188   0.000599  -0.000187  -0.000005   0.014195
    20  H   -0.000253   0.000519  -0.000006   0.000025   0.000012  -0.000021
    21  H   -0.000398   0.000011  -0.000002   0.000001  -0.000001   0.000029
    22  H    0.005361  -0.000218   0.000003   0.000001   0.000007  -0.000020
    23  H   -0.007782  -0.000186  -0.000026   0.000020   0.000015  -0.000453
    24  H    0.008581  -0.000599   0.000008  -0.000101   0.000002  -0.000250
    25  H   -0.003650  -0.034804  -0.003041   0.007705  -0.007115   0.000474
    26  H   -0.000261  -0.010136  -0.000010  -0.002955   0.004402  -0.000043
    27  H   -0.000524   0.009349  -0.000310   0.001420  -0.000285   0.000103
    28  H    0.002397  -0.000162   0.000032  -0.001550  -0.000123  -0.005330
    29  H   -0.000641  -0.000022  -0.000001  -0.000061   0.000004   0.006482
    30  H   -0.000263   0.000048  -0.000002   0.000096  -0.000003  -0.008933
    31  H    0.525733  -0.009120   0.004740  -0.000331  -0.000318  -0.005131
    32  C   -0.009120   5.435284   0.387310   0.381587   0.387327   0.005330
    33  H    0.004740   0.387310   0.470302  -0.027510  -0.024515  -0.000660
    34  H   -0.000331   0.381587  -0.027510   0.475764  -0.027089   0.000684
    35  H   -0.000318   0.387327  -0.024515  -0.027089   0.460869   0.000212
    36  H   -0.005131   0.005330  -0.000660   0.000684   0.000212   0.417437
 Mulliken charges:
               1
     1  C   -0.673218
     2  C   -0.461058
     3  C   -0.102015
     4  C   -0.320645
     5  C   -0.191537
     6  O   -0.612612
     7  N   -0.600470
     8  C   -0.393347
     9  C   -0.210899
    10  C   -0.258818
    11  C    0.321756
    12  C   -0.157133
    13  C    0.324495
    14  C   -0.259384
    15  H    0.236413
    16  H    0.240164
    17  H    0.240475
    18  F   -0.248353
    19  F   -0.250523
    20  H    0.229867
    21  H    0.231757
    22  H    0.225985
    23  H    0.243713
    24  H    0.232949
    25  H    0.242187
    26  H    0.217034
    27  H    0.210812
    28  H    0.405053
    29  H    0.272627
    30  H    0.266944
    31  H    0.223282
    32  C   -0.676976
    33  H    0.230583
    34  H    0.232007
    35  H    0.235063
    36  H    0.353823
 Sum of Mulliken charges =   0.00000
 Mulliken charges with hydrogens summed into heavy atoms:
               1
     1  C    0.014391
     2  C    0.015605
     3  C    0.121267
     4  C   -0.078458
     5  C    0.236309
     6  O   -0.207559
     7  N   -0.246647
     8  C    0.146224
     9  C    0.025514
    10  C   -0.018654
    11  C    0.321756
    12  C   -0.157133
    13  C    0.324495
    14  C   -0.018910
    18  F   -0.248353
    19  F   -0.250523
    32  C    0.020676
 Electronic spatial extent (au):  <R**2>=           4578.6414
 Charge=              0.0000 electrons
 Dipole moment (field-independent basis, Debye):
    X=             -4.4747    Y=              1.0478    Z=              2.8507  Tot=              5.4081
 Quadrupole moment (field-independent basis, Debye-Ang):
   XX=           -103.2589   YY=           -103.7779   ZZ=           -102.2578
   XY=              6.7594   XZ=              3.4740   YZ=             -2.2610
 Traceless Quadrupole moment (field-independent basis, Debye-Ang):
   XX=             -0.1607   YY=             -0.6797   ZZ=              0.8404
   XY=              6.7594   XZ=              3.4740   YZ=             -2.2610
 Octapole moment (field-independent basis, Debye-Ang**2):
  XXX=           -106.5494  YYY=             -2.7607  ZZZ=            -16.8111  XYY=            -11.6403
  XXY=             20.4115  XXZ=             64.1046  XZZ=            -15.5217  YZZ=             -3.2845
  YYZ=              2.6728  XYZ=             -8.5197
 Hexadecapole moment (field-independent basis, Debye-Ang**3):
 XXXX=          -3924.9374 YYYY=          -1359.1843 ZZZZ=           -631.0243 XXXY=             53.5031
 XXXZ=             16.5394 YYYX=              0.2289 YYYZ=            -10.9900 ZZZX=             13.5570
 ZZZY=             -6.6096 XXYY=           -873.4958 XXZZ=           -790.6131 YYZZ=           -332.9662
 XXYZ=            -55.7282 YYXZ=            -18.6577 ZZXY=             11.9509
 N-N= 1.302094506046D+03 E-N=-4.561695152549D+03  KE= 8.332478041913D+02
 1\1\GINC-SWANNODE-0-2\SP\RmPW1PW91\6-311G(d)\C13H19F2N1O1\KE291\06-Mar
 -2019\0\\# mPW1PW91/6-311g(d) geom=checkpoint nmr=giao scrf=(solvent=c
 hloroform)\\AT3_1ginp004\\0,1\C,0,-1.6343351227,0.2003273695,0.6214867
 908\C,0,-0.823656397,1.478325362,0.8680336081\C,0,0.1786512957,1.38099
 5139,2.0340226295\C,0,-0.4680068332,0.9687866912,3.3861492894\C,0,-1.5
 662709514,1.9457062195,3.8491032553\O,0,-1.0802257935,3.2524419605,4.1
 323842292\N,0,0.8771033515,2.6781245092,2.2243504283\C,0,1.6339223545,
 3.2219203542,1.0835858691\C,0,4.7756852802,0.6595776631,-0.4963366916\
 C,0,3.6869849433,0.9862134901,-1.3046436549\C,0,2.6930760366,1.8041131
 655,-0.778568615\C,0,2.7195090627,2.3200278757,0.5178197386\C,0,3.8346
 550526,1.9552130641,1.2761122198\C,0,4.8594985029,1.1437021475,0.81118
 38415\H,0,5.5632497875,0.0230984872,-0.8855143532\H,0,3.598185205,0.62
 3592424,-2.3221567532\H,0,5.6940798566,0.9060731042,1.4605010264\F,0,1
 .6379141921,2.119383905,-1.5713315718\F,0,3.905875347,2.4308063526,2.5
 464730525\H,0,-2.33969505,-0.0095603967,1.4310058275\H,0,-2.2145194303
 ,0.2896221627,-0.3020991217\H,0,-0.9787032987,-0.6717615992,0.51608400
 69\H,0,-0.2684641987,1.7051063161,-0.047133199\H,0,-1.4982594454,2.327
 163444,1.0347284641\H,0,-0.9581891493,0.0032710573,3.2092408635\H,0,-2
 .0171879328,1.5650992861,4.7739990025\H,0,-2.3716018188,1.9802994225,3
 .0978546437\H,0,-0.472503622,3.4600822139,3.3922596112\H,0,0.945510642
 7,3.4938293424,0.2838487481\H,0,2.096294503,4.1504746819,1.4330853228\
 H,0,0.9013983426,0.5870548175,1.770597969\C,0,0.5787162996,0.753306738
 8,4.4926315647\H,0,1.4142977836,0.1363677616,4.1439171777\H,0,0.976842
 3342,1.7036582323,4.8610926769\H,0,0.1253450117,0.2466548416,5.3507916
 728\H,0,1.5380508581,2.5650243931,2.9890244303\\Version=EM64L-G09RevD.
 01\State=1-A\HF=-836.4686383\RMSD=7.191e-09\Dipole=1.268616,-1.2362461
 ,-1.1787404\Quadrupole=4.3241807,-0.2437416,-4.0804392,1.6470191,1.343
 7417,-3.5860865\PG=C01 [X(C13H19F2N1O1)]\\@


 ALL THINGS ARE POSSIBLE EXCEPT SKIING THROUGH A REVOLVING DOOR.
 Job cpu time:       0 days  0 hours 30 minutes 11.1 seconds.
 File lengths (MBytes):  RWF=    177 Int=      0 D2E=      0 Chk=     15 Scr=      1
 Normal termination of Gaussian 09 at Wed Mar  6 12:21:41 2019.
