 Entering Gaussian System, Link 0=/usr/local/shared/gaussian/em64t/09-D01/g09/g09
 Initial command:
 /usr/local/shared/gaussian/em64t/09-D01/g09/l1.exe "/scratch/ke291/AT3_1ginp001/Gau-31730.inp" -scrdir="/scratch/ke291/AT3_1ginp001/"
 Entering Link 1 = /usr/local/shared/gaussian/em64t/09-D01/g09/l1.exe PID=     31734.
  
 Copyright (c) 1988,1990,1992,1993,1995,1998,2003,2009,2013,
            Gaussian, Inc.  All Rights Reserved.
  
 This is part of the Gaussian(R) 09 program.  It is based on
 the Gaussian(R) 03 system (copyright 2003, Gaussian, Inc.),
 the Gaussian(R) 98 system (copyright 1998, Gaussian, Inc.),
 the Gaussian(R) 94 system (copyright 1995, Gaussian, Inc.),
 the Gaussian 92(TM) system (copyright 1992, Gaussian, Inc.),
 the Gaussian 90(TM) system (copyright 1990, Gaussian, Inc.),
 the Gaussian 88(TM) system (copyright 1988, Gaussian, Inc.),
 the Gaussian 86(TM) system (copyright 1986, Carnegie Mellon
 University), and the Gaussian 82(TM) system (copyright 1983,
 Carnegie Mellon University). Gaussian is a federally registered
 trademark of Gaussian, Inc.
  
 This software contains proprietary and confidential information,
 including trade secrets, belonging to Gaussian, Inc.
  
 This software is provided under written license and may be
 used, copied, transmitted, or stored only in accord with that
 written license.
  
 The following legend is applicable only to US Government
 contracts under FAR:
  
                    RESTRICTED RIGHTS LEGEND
  
 Use, reproduction and disclosure by the US Government is
 subject to restrictions as set forth in subparagraphs (a)
 and (c) of the Commercial Computer Software - Restricted
 Rights clause in FAR 52.227-19.
  
 Gaussian, Inc.
 340 Quinnipiac St., Bldg. 40, Wallingford CT 06492
  
  
 ---------------------------------------------------------------
 Warning -- This program may not be used in any manner that
 competes with the business of Gaussian, Inc. or will provide
 assistance to any competitor of Gaussian, Inc.  The licensee
 of this program is prohibited from giving any competitor of
 Gaussian, Inc. access to this program.  By using this program,
 the user acknowledges that Gaussian, Inc. is engaged in the
 business of creating and licensing software in the field of
 computational chemistry and represents and warrants to the
 licensee that it is not a competitor of Gaussian, Inc. and that
 it will not use this program in any manner prohibited above.
 ---------------------------------------------------------------
  

 Cite this work as:
 Gaussian 09, Revision D.01,
 M. J. Frisch, G. W. Trucks, H. B. Schlegel, G. E. Scuseria, 
 M. A. Robb, J. R. Cheeseman, G. Scalmani, V. Barone, B. Mennucci, 
 G. A. Petersson, H. Nakatsuji, M. Caricato, X. Li, H. P. Hratchian, 
 A. F. Izmaylov, J. Bloino, G. Zheng, J. L. Sonnenberg, M. Hada, 
 M. Ehara, K. Toyota, R. Fukuda, J. Hasegawa, M. Ishida, T. Nakajima, 
 Y. Honda, O. Kitao, H. Nakai, T. Vreven, J. A. Montgomery, Jr., 
 J. E. Peralta, F. Ogliaro, M. Bearpark, J. J. Heyd, E. Brothers, 
 K. N. Kudin, V. N. Staroverov, T. Keith, R. Kobayashi, J. Normand, 
 K. Raghavachari, A. Rendell, J. C. Burant, S. S. Iyengar, J. Tomasi, 
 M. Cossi, N. Rega, J. M. Millam, M. Klene, J. E. Knox, J. B. Cross, 
 V. Bakken, C. Adamo, J. Jaramillo, R. Gomperts, R. E. Stratmann, 
 O. Yazyev, A. J. Austin, R. Cammi, C. Pomelli, J. W. Ochterski, 
 R. L. Martin, K. Morokuma, V. G. Zakrzewski, G. A. Voth, 
 P. Salvador, J. J. Dannenberg, S. Dapprich, A. D. Daniels, 
 O. Farkas, J. B. Foresman, J. V. Ortiz, J. Cioslowski, 
 and D. J. Fox, Gaussian, Inc., Wallingford CT, 2013.
 
 ******************************************
 Gaussian 09:  EM64L-G09RevD.01 24-Apr-2013
                 6-Mar-2019 
 ******************************************
 %nprocshared=2
 Will use up to    2 processors via shared memory.
 %mem=6000MB
 %chk=AT3_1ginp001.chk
 ----------------------------------------------------------------------
 # mPW1PW91/6-311g(d) geom=checkpoint nmr=giao scrf=(solvent=chloroform
 )
 ----------------------------------------------------------------------
 1/29=2,38=1/1;
 2/12=2,40=1/2;
 3/5=4,6=6,7=1,11=2,14=-4,16=1,25=1,30=1,70=2201,72=7,74=-7/1,2,8,3;
 4//1;
 5/5=2,38=5,53=7/2;
 8/6=1,10=90,11=11/1;
 10/13=100,45=16/2;
 6/7=2,8=2,9=2,10=2,28=1/1;
 99/9=1/99;
 ------------
 AT3_1ginp001
 ------------
 Structure from the checkpoint file:  "AT3_1ginp001.chk"
 Charge =  0 Multiplicity = 1
 Redundant internal coordinates found in file.
 C,0,-1.8736557818,0.572302361,0.4594011386
 C,0,-1.2078195831,-0.0651066109,1.6850954319
 C,0,-0.4047833224,0.9058432833,2.5841388364
 C,0,-1.2570086701,2.0000705562,3.2830873677
 C,0,-0.4131930893,2.811167041,4.290463781
 O,0,0.6015571767,3.6015064688,3.6970795146
 N,0,0.7247724679,1.565396034,1.8798299953
 C,0,1.7986775988,0.6636864782,1.428206705
 C,0,4.8716585236,2.907393283,-0.6489462802
 C,0,5.1144764435,2.4510317718,0.6467550608
 C,0,4.1158955481,1.734464932,1.2968639777
 C,0,2.8814360259,1.438203352,0.7166302028
 C,0,2.6964961252,1.9252170406,-0.5786602205
 C,0,3.6521785504,2.6482627217,-1.278146728
 H,0,5.6366794425,3.4710385016,-1.1723312336
 H,0,6.0521929843,2.6420947798,1.155404943
 H,0,3.4370743983,2.9948525546,-2.2821483312
 F,0,4.3534247799,1.2919435797,2.5523886585
 F,0,1.5010350384,1.6754263937,-1.1739886581
 H,0,-1.1365969292,1.0156933443,-0.2192454488
 H,0,-2.4218209806,-0.1824615421,-0.1128286168
 H,0,-2.5866061304,1.3556037368,0.7375567316
 H,0,-1.9642088052,-0.565484627,2.2986167514
 H,0,-0.5361614449,-0.8643065124,1.3498343739
 H,0,-1.607493848,2.7095171322,2.519295789
 H,0,0.0047938226,2.1106819925,5.0379222553
 H,0,-1.0748082141,3.4945632787,4.837072594
 H,0,1.0075894391,3.0001749202,3.0335376098
 H,0,2.2229509419,0.1747230014,2.3081979295
 H,0,1.4361325983,-0.1263779866,0.7557092504
 H,0,0.0531212672,0.302387477,3.3821892678
 C,0,-2.4816603423,1.4149885012,4.003320287
 H,0,-3.0123264478,2.2003203143,4.5512525882
 H,0,-3.1944501929,0.9632965957,3.3091010699
 H,0,-2.1881550862,0.6462624171,4.7283895424
 H,0,0.3609786959,2.0651384345,1.0699948636
 Recover connectivity data from disk.
                          Input orientation:                          
 ---------------------------------------------------------------------
 Center     Atomic      Atomic             Coordinates (Angstroms)
 Number     Number       Type             X           Y           Z
 ---------------------------------------------------------------------
      1          6           0       -1.873656    0.572302    0.459401
      2          6           0       -1.207820   -0.065107    1.685095
      3          6           0       -0.404783    0.905843    2.584139
      4          6           0       -1.257009    2.000071    3.283087
      5          6           0       -0.413193    2.811167    4.290464
      6          8           0        0.601557    3.601506    3.697080
      7          7           0        0.724772    1.565396    1.879830
      8          6           0        1.798678    0.663686    1.428207
      9          6           0        4.871659    2.907393   -0.648946
     10          6           0        5.114476    2.451032    0.646755
     11          6           0        4.115896    1.734465    1.296864
     12          6           0        2.881436    1.438203    0.716630
     13          6           0        2.696496    1.925217   -0.578660
     14          6           0        3.652179    2.648263   -1.278147
     15          1           0        5.636679    3.471039   -1.172331
     16          1           0        6.052193    2.642095    1.155405
     17          1           0        3.437074    2.994853   -2.282148
     18          9           0        4.353425    1.291944    2.552389
     19          9           0        1.501035    1.675426   -1.173989
     20          1           0       -1.136597    1.015693   -0.219245
     21          1           0       -2.421821   -0.182462   -0.112829
     22          1           0       -2.586606    1.355604    0.737557
     23          1           0       -1.964209   -0.565485    2.298617
     24          1           0       -0.536161   -0.864307    1.349834
     25          1           0       -1.607494    2.709517    2.519296
     26          1           0        0.004794    2.110682    5.037922
     27          1           0       -1.074808    3.494563    4.837073
     28          1           0        1.007589    3.000175    3.033538
     29          1           0        2.222951    0.174723    2.308198
     30          1           0        1.436133   -0.126378    0.755709
     31          1           0        0.053121    0.302387    3.382189
     32          6           0       -2.481660    1.414989    4.003320
     33          1           0       -3.012326    2.200320    4.551253
     34          1           0       -3.194450    0.963297    3.309101
     35          1           0       -2.188155    0.646262    4.728390
     36          1           0        0.360979    2.065138    1.069995
 ---------------------------------------------------------------------
                    Distance matrix (angstroms):
                    1          2          3          4          5
     1  C    0.000000
     2  C    1.533608   0.000000
     3  C    2.604486   1.547866   0.000000
     4  C    3.223659   2.611696   1.553110   0.000000
     5  C    4.671457   3.961354   2.557709   1.544250   0.000000
     6  O    5.077925   4.556970   3.085119   2.488022   1.416495
     7  N    3.123409   2.536015   1.485583   2.466887   2.942459
     8  C    3.799075   3.104216   2.500012   3.816245   4.206728
     9  C    7.223597   7.158461   6.503836   7.337894   7.234410
    10  C    7.238696   6.883352   6.050065   6.910097   6.630342
    11  C    6.158465   5.633039   4.772864   5.734434   5.534760
    12  C    4.840129   4.463169   3.817098   4.901951   5.050930
    13  C    4.877934   4.932510   4.545366   5.527106   5.844950
    14  C    6.153335   6.305772   5.866193   6.732394   6.896608
    15  H    8.214034   8.216835   7.562444   8.338911   8.177929
    16  H    8.221164   7.766421   6.837280   7.639611   7.187378
    17  H    6.448930   6.832087   6.542521   7.348187   7.619549
    18  F    6.608707   5.789751   4.773953   5.701958   5.296186
    19  F    3.908118   4.306009   4.283448   5.251450   5.900374
    20  H    1.095633   2.190825   2.899411   3.640032   4.907598
    21  H    1.094349   2.172580   3.539277   4.201485   5.690816
    22  H    1.095094   2.194835   2.893527   2.943279   4.411977
    23  H    2.164595   1.094948   2.162900   2.837497   4.216027
    24  H    2.155367   1.096469   2.161989   3.530120   4.708665
    25  H    2.980217   2.924751   2.168861   1.099787   2.138626
    26  H    5.182474   4.176833   2.764135   2.164215   1.106384
    27  H    5.323699   4.756459   3.496586   2.163695   1.097063
    28  H    4.563148   4.015256   2.565732   2.488150   1.906361
    29  H    4.512018   3.495134   2.741472   4.048756   4.222496
    30  H    3.395681   2.803212   2.792420   4.261741   4.954156
    31  H    3.511127   2.145962   1.100327   2.146716   2.708576
    32  C    3.693122   3.031092   2.566461   1.536499   2.512036
    33  H    4.548655   4.074710   3.513472   2.174738   2.682655
    34  H    3.165148   2.764364   2.882900   2.197557   3.480386
    35  H    4.281196   3.275476   2.801001   2.188316   2.833563
    36  H    2.755898   2.716141   2.054991   2.742243   3.395191
                    6          7          8          9         10
     6  O    0.000000
     7  N    2.731908   0.000000
     8  C    3.900214   1.473199   0.000000
     9  C    6.132169   5.039080   4.334974   0.000000
    10  C    5.567271   4.644817   3.847050   1.395016   0.000000
    11  C    4.647306   3.445018   2.556035   2.394393   1.390422
    12  C    4.331375   2.453652   1.509498   2.825651   2.452993
    13  C    5.047838   3.171961   2.534769   2.387664   2.761295
    14  C    5.913361   4.440172   3.833844   1.396486   2.425379
    15  H    7.005758   6.088842   5.419805   1.084843   2.149927
    16  H    6.090157   5.483200   4.699033   2.172494   1.083763
    17  H    6.645250   5.169332   4.678185   2.175553   3.418756
    18  F    4.552022   3.700571   2.860983   3.623091   2.356719
    19  F    5.314711   3.152856   2.807780   3.626915   4.119907
    20  H    5.004519   2.858844   3.384353   6.313660   6.471945
    21  H    6.162356   4.114213   4.572020   7.939110   8.019229
    22  H    4.895635   3.509135   4.492934   7.743136   7.779131
    23  H    5.089466   3.456393   4.053121   8.214505   7.869930
    24  H    5.171794   2.788244   2.791483   6.889511   6.589044
    25  H    2.657579   2.675331   4.120425   7.215007   6.982701
    26  H    2.092019   3.284700   4.282740   7.527390   6.745891
    27  H    2.030079   3.963012   5.281207   8.111821   7.546851
    28  H    0.983234   1.862691   2.943142   5.338570   4.781716
    29  H    4.037419   2.088542   1.092464   4.819527   4.037684
    30  H    4.821338   2.152157   1.099042   4.793711   4.492786
    31  H    3.359185   2.074461   2.644911   6.801060   6.141383
    32  C    3.792212   3.848772   5.051431   8.828485   8.369063
    33  H    3.969016   4.637406   5.938048   9.470968   9.019583
    34  H    4.639003   4.214931   5.344049   9.192810   8.850972
    35  H    4.192799   4.176631   5.175553   9.158025   8.558350
    36  H    3.052848   1.018784   2.039451   4.900039   4.787879
                   11         12         13         14         15
    11  C    0.000000
    12  C    1.395827   0.000000
    13  C    2.359803   1.396124   0.000000
    14  C    2.771415   2.457117   1.387590   0.000000
    15  H    3.380147   3.910494   3.374417   2.150907   0.000000
    16  H    2.143140   3.419880   3.844684   3.417935   2.505625
    17  H    3.854699   3.424115   2.143466   1.083704   2.509324
    18  F    1.352253   2.357573   3.598599   4.123633   4.502081
    19  F    3.598068   2.352918   1.358653   2.363192   4.508634
    20  H    5.513973   4.147164   3.955884   5.169035   7.267349
    21  H    6.957268   5.607057   5.554861   6.801797   8.911231
    22  H    6.736460   5.468706   5.474309   6.682549   8.703170
    23  H    6.577305   5.477018   6.017017   7.393593   9.279790
    24  H    5.328982   4.169229   4.685148   6.065197   7.953647
    25  H    5.933149   5.001633   5.360670   6.487563   8.166154
    26  H    5.571195   5.234583   6.231024   7.313353   8.493289
    27  H    6.524908   6.071123   6.783491   7.775380   9.008749
    28  H    3.778839   3.364389   4.129881   5.070337   6.272122
    29  H    2.653079   2.136135   3.409168   4.585080   5.885008
    30  H    3.307070   2.130339   2.752835   4.092195   5.856905
    31  H    4.785976   4.049030   5.030838   6.338381   7.871476
    32  C    7.138257   6.290125   6.933122   8.187725   9.844905
    33  H    7.849816   7.072594   7.679996   8.865561  10.448897
    34  H    7.621349   6.622902   7.123428   8.411794  10.215716
    35  H    7.259518   6.513228   7.325320   8.613709  10.199309
    36  H    3.776270   2.621187   2.862216   4.084825   5.902338
                   16         17         18         19         20
    16  H    0.000000
    17  H    4.333596   0.000000
    18  F    2.580753   5.206952   0.000000
    19  F    5.203226   2.591747   4.708405   0.000000
    20  H    7.497569   5.393617   6.156185   2.881646   0.000000
    21  H    9.021943   7.009132   7.428406   4.468401   1.760313
    22  H    8.744055   6.934730   7.173681   4.523837   1.770180
    23  H    8.709661   7.926744   6.589912   5.393383   3.086211
    24  H    7.465860   6.623519   5.477555   4.119478   2.521296
    25  H    7.780459   6.970147   6.127247   4.936866   3.254288
    26  H    7.206065   8.133003   5.075313   6.404375   5.489953
    27  H    8.066940   8.443347   6.287848   6.788010   5.631604
    28  H    5.394778   5.844565   3.787370   4.438662   4.372219
    29  H    4.698931   5.522545   2.418001   3.859909   4.287396
    30  H    5.397426   4.793165   3.708138   2.640918   2.978893
    31  H    6.813344   7.126375   4.490033   4.973977   3.859348
    32  C    9.079816   8.776930   6.988471   6.537141   4.449572
    33  H    9.689812   9.429816   7.686020   7.309195   5.261117
    34  H    9.641430   8.908783   7.592828   6.530911   4.084940
    35  H    9.200701   9.290141   6.924172   7.036147   5.071622
    36  H    5.721022   4.643662   4.328389   2.546972   2.237456
                   21         22         23         24         25
    21  H    0.000000
    22  H    1.765207   0.000000
    23  H    2.484187   2.552424   0.000000
    24  H    2.481936   3.083376   1.740345   0.000000
    25  H    3.994340   2.442609   3.301754   3.909937   0.000000
    26  H    6.138176   5.077267   4.306116   4.769191   3.049845
    27  H    6.311614   4.864844   4.870193   5.608094   2.504424
    28  H    5.638231   4.571038   4.699534   4.489125   2.680968
    29  H    5.250034   5.195501   4.252094   3.100120   4.598049
    30  H    3.954910   4.287077   3.759747   2.188028   4.518429
    31  H    4.309938   3.882204   2.448867   2.416381   3.049016
    32  C    4.415666   3.267989   2.663840   4.002642   2.154600
    33  H    5.270674   3.929257   3.717875   5.076653   2.522238
    34  H    3.690436   2.671370   2.207203   3.774302   2.488274
    35  H    4.917192   4.072920   2.724386   4.052843   3.078032
    36  H    3.767592   3.049953   3.719702   3.076494   2.527960
                   26         27         28         29         30
    26  H    0.000000
    27  H    1.766638   0.000000
    28  H    2.411297   2.798846   0.000000
    29  H    4.014916   5.319000   3.160127   0.000000
    30  H    5.038900   6.006127   3.891977   1.766343   0.000000
    31  H    2.452288   3.684955   2.882815   2.424441   2.999159
    32  C    2.781518   2.645564   3.953247   5.152190   5.317132
    33  H    3.057433   2.347495   4.370692   6.045037   6.293525
    34  H    3.813198   3.637979   4.677814   5.565239   5.399027
    35  H    2.655063   3.060093   4.315809   5.053467   5.432736
    36  H    3.984142   4.277337   2.268898   2.928098   2.461194
                   31         32         33         34         35
    31  H    0.000000
    32  C    2.837041   0.000000
    33  H    3.790228   1.094798   0.000000
    34  H    3.314945   1.092719   1.762480   0.000000
    35  H    2.637011   1.096727   1.767974   1.768480   0.000000
    36  H    2.923749   4.136144   4.849393   4.343815   4.679225
                   36
    36  H    0.000000
 Stoichiometry    C13H19F2NO
 Framework group  C1[X(C13H19F2NO)]
 Deg. of freedom   102
 Full point group                 C1      NOp   1
 Largest Abelian subgroup         C1      NOp   1
 Largest concise Abelian subgroup C1      NOp   1
                         Standard orientation:                         
 ---------------------------------------------------------------------
 Center     Atomic      Atomic             Coordinates (Angstroms)
 Number     Number       Type             X           Y           Z
 ---------------------------------------------------------------------
      1          6           0        2.388743    2.602337   -0.036321
      2          6           0        2.457719    1.515366    1.043350
      3          6           0        2.069699    0.091307    0.577101
      4          6           0        3.020255   -0.526975   -0.484182
      5          6           0        2.665898   -2.003879   -0.763278
      6          8           0        1.408831   -2.193270   -1.388075
      7          7           0        0.674775   -0.006396    0.075506
      8          6           0       -0.374714    0.245616    1.078191
      9          6           0       -4.296758   -0.039746   -0.746128
     10          6           0       -3.845512   -1.074727    0.073177
     11          6           0       -2.584190   -0.965349    0.647962
     12          6           0       -1.745229    0.133491    0.455535
     13          6           0       -2.250364    1.133758   -0.377211
     14          6           0       -3.498228    1.081411   -0.981776
     15          1           0       -5.276693   -0.107247   -1.206623
     16          1           0       -4.446888   -1.954950    0.268360
     17          1           0       -3.823525    1.896885   -1.617070
     18          9           0       -2.148860   -1.969050    1.442733
     19          9           0       -1.457904    2.213246   -0.606671
     20          1           0        1.373633    2.718903   -0.431767
     21          1           0        2.683645    3.571250    0.378217
     22          1           0        3.054258    2.389434   -0.879524
     23          1           0        3.465464    1.481393    1.470208
     24          1           0        1.803152    1.798900    1.876054
     25          1           0        2.885446    0.015911   -1.431089
     26          1           0        2.732967   -2.563799    0.188603
     27          1           0        3.424618   -2.429786   -1.431480
     28          1           0        0.809016   -1.592161   -0.892455
     29          1           0       -0.274628   -0.501866    1.868591
     30          1           0       -0.285401    1.235121    1.548080
     31          1           0        2.114722   -0.561248    1.461897
     32          6           0        4.497363   -0.429422   -0.072522
     33          1           0        5.130641   -0.945470   -0.801381
     34          1           0        4.844140    0.605165   -0.014118
     35          1           0        4.670445   -0.895739    0.904924
     36          1           0        0.553708    0.653337   -0.691317
 ---------------------------------------------------------------------
 Rotational constants (GHZ):      0.7300788      0.2671759      0.2255565
 Standard basis: 6-311G(d) (5D, 7F)
 There are   380 symmetry adapted cartesian basis functions of A   symmetry.
 There are   363 symmetry adapted basis functions of A   symmetry.
   363 basis functions,   639 primitive gaussians,   380 cartesian basis functions
    65 alpha electrons       65 beta electrons
       nuclear repulsion energy      1277.3906073032 Hartrees.
 NAtoms=   36 NActive=   36 NUniq=   36 SFac= 1.00D+00 NAtFMM=   60 NAOKFM=F Big=F
 Integral buffers will be    131072 words long.
 Raffenetti 2 integral format.
 Two-electron integral symmetry is turned on.
 ------------------------------------------------------------------------------
 Polarizable Continuum Model (PCM)
 =================================
 Model                : PCM (using non-symmetric T matrix).
 Atomic radii         : UFF (Universal Force Field).
 Polarization charges : Total charges.
 Charge compensation  : None.
 Solution method      : On-the-fly selection.
 Cavity type          : Scaled VdW (van der Waals Surface) (Alpha=1.100).
 Cavity algorithm     : GePol (No added spheres)
                        Default sphere list used, NSphG=   36.
                        Lebedev-Laikov grids with approx.  5.0 points / Ang**2.
                        Smoothing algorithm: Karplus/York (Gamma=1.0000).
                        Polarization charges: spherical gaussians, with
                                              point-specific exponents (IZeta= 3).
                        Self-potential: point-specific (ISelfS= 7).
                        Self-field    : sphere-specific E.n sum rule (ISelfD= 2).
 Solvent              : Chloroform, Eps=   4.711300 Eps(inf)=   2.090627
 ------------------------------------------------------------------------------
 One-electron integrals computed using PRISM.
 NBasis=   363 RedAO= T EigKep=  2.32D-04  NBF=   363
 NBsUse=   363 1.00D-06 EigRej= -1.00D+00 NBFU=   363
 ExpMin= 1.03D-01 ExpMax= 1.14D+04 ExpMxC= 1.72D+03 IAcc=1 IRadAn=         1 AccDes= 0.00D+00
 Harris functional with IExCor=  908 and IRadAn=       1 diagonalized for initial guess.
 HarFok:  IExCor=  908 AccDes= 0.00D+00 IRadAn=         1 IDoV= 1 UseB2=F ITyADJ=14
 ICtDFT=  3500011 ScaDFX=  1.000000  1.000000  1.000000  1.000000
 FoFCou: FMM=F IPFlag=           0 FMFlag=      100000 FMFlg1=           0
         NFxFlg=           0 DoJE=T BraDBF=F KetDBF=T FulRan=T
         wScrn=  0.000000 ICntrl=     500 IOpCl=  0 I1Cent=   200000004 NGrid=           0
         NMat0=    1 NMatS0=      1 NMatT0=    0 NMatD0=    1 NMtDS0=    0 NMtDT0=    0
 Petite list used in FoFCou.
 Requested convergence on RMS density matrix=1.00D-08 within 128 cycles.
 Requested convergence on MAX density matrix=1.00D-06.
 Requested convergence on             energy=1.00D-06.
 No special actions if energy rises.
 Inv3:  Mode=1 IEnd=    18570432.
 Iteration    1 A*A^-1 deviation from unit magnitude is 7.44D-15 for    819.
 Iteration    1 A*A^-1 deviation from orthogonality  is 7.33D-15 for   1884    605.
 Iteration    1 A^-1*A deviation from unit magnitude is 7.55D-15 for   2361.
 Iteration    1 A^-1*A deviation from orthogonality  is 1.09D-12 for   1665   1658.
 Error on total polarization charges =  0.00960
 SCF Done:  E(RmPW1PW91) =  -836.469258947     A.U. after   12 cycles
            NFock= 12  Conv=0.70D-08     -V/T= 2.0038
 DoSCS=F DFT=T ScalE2(SS,OS)=  1.000000  1.000000
 Range of M.O.s used for correlation:     1   363
 NBasis=   363 NAE=    65 NBE=    65 NFC=     0 NFV=     0
 NROrb=    363 NOA=    65 NOB=    65 NVA=   298 NVB=   298

 **** Warning!!: The largest alpha MO coefficient is  0.14896040D+02

 NEqPCM:  Using equilibrium solvation (IEInf=0, Eps=   4.7113, EpsInf=   2.0906)
          Differentiating once with respect to magnetic field using GIAOs.
          Electric field/nuclear overlap derivatives assumed to be zero.
 FoFJK:  IHMeth= 1 ICntrl=    6127 DoSepK=F KAlg= 0 I1Cent=   0 FoldK=F
 IRaf=         1 NMat=   1 IRICut=       1 DoRegI=T DoRafI=F ISym2E= 0.
          There are     3 degrees of freedom in the 1st order CPHF.  IDoFFX=0 NUNeed=     3.
      3 vectors produced by pass  0 Test12= 6.46D-13 3.33D-08 XBig12= 4.45D+01 1.89D+00.
 AX will form     3 AO Fock derivatives at one time.
      3 vectors produced by pass  1 Test12= 6.46D-13 3.33D-08 XBig12= 1.15D-01 1.59D-01.
      3 vectors produced by pass  2 Test12= 6.46D-13 3.33D-08 XBig12= 5.94D-04 7.57D-03.
      3 vectors produced by pass  3 Test12= 6.46D-13 3.33D-08 XBig12= 1.43D-06 2.55D-04.
      3 vectors produced by pass  4 Test12= 6.46D-13 3.33D-08 XBig12= 3.21D-09 1.39D-05.
      3 vectors produced by pass  5 Test12= 6.46D-13 3.33D-08 XBig12= 1.32D-11 7.14D-07.
 InvSVY:  IOpt=1 It=  1 EMax= 1.78D-15
 Solved reduced A of dimension    18 with     3 vectors.
 Calculating GIAO nuclear magnetic shielding tensors.
 SCF GIAO Magnetic shielding tensor (ppm):
      1  C    Isotropic =   182.2595   Anisotropy =    11.6309
   XX=   176.9524   YX=     0.9329   ZX=    -1.6044
   XY=    -0.2099   YY=   184.8448   ZY=    -4.9349
   XZ=    -1.5179   YZ=    -4.9781   ZZ=   184.9812
   Eigenvalues:   176.6021   180.1629   190.0134
      2  C    Isotropic =   166.6015   Anisotropy =    22.3748
   XX=   155.9376   YX=     2.0408   ZX=     3.7559
   XY=     2.0322   YY=   179.8098   ZY=    -3.3256
   XZ=     7.9428   YZ=    -7.5914   ZZ=   164.0571
   Eigenvalues:   152.1715   166.1151   181.5180
      3  C    Isotropic =   119.6076   Anisotropy =    32.2799
   XX=   137.9243   YX=   -10.9748   ZX=    -1.2560
   XY=    -7.3909   YY=   113.3435   ZY=     2.6866
   XZ=    -1.1367   YZ=     4.3552   ZZ=   107.5549
   Eigenvalues:   105.5570   112.1382   141.1275
      4  C    Isotropic =   148.1852   Anisotropy =    14.4268
   XX=   153.0284   YX=    -0.4689   ZX=     1.8027
   XY=    -3.1490   YY=   147.7640   ZY=     0.8021
   XZ=    14.4973   YZ=     7.5662   ZZ=   143.7632
   Eigenvalues:   137.0978   149.6547   157.8031
      5  C    Isotropic =   113.8044   Anisotropy =    54.9268
   XX=   136.1468   YX=    10.8538   ZX=    24.9679
   XY=    15.3277   YY=   111.6286   ZY=     9.2494
   XZ=    16.3913   YZ=     6.4411   ZZ=    93.6379
   Eigenvalues:    84.9973   105.9937   150.4223
      6  O    Isotropic =   289.2747   Anisotropy =    77.9102
   XX=   272.3716   YX=    -6.4293   ZX=    -3.2757
   XY=   -14.3382   YY=   323.5013   ZY=    33.0072
   XZ=   -17.7339   YZ=    29.9311   ZZ=   271.9513
   Eigenvalues:   255.3181   271.2912   341.2149
      7  N    Isotropic =   203.8878   Anisotropy =    43.3777
   XX=   230.2235   YX=    -8.8986   ZX=     9.4791
   XY=    -6.8410   YY=   158.3069   ZY=    -4.5319
   XZ=   -18.4091   YZ=    -2.8068   ZZ=   223.1331
   Eigenvalues:   157.1964   221.6608   232.8063
      8  C    Isotropic =   148.1265   Anisotropy =    47.9903
   XX=   161.0404   YX=    -3.0752   ZX=   -17.9543
   XY=    -8.8191   YY=   126.2295   ZY=     4.3004
   XZ=   -22.0615   YZ=     3.7783   ZZ=   157.1096
   Eigenvalues:   125.2173   139.0421   180.1201
      9  C    Isotropic =    53.4472   Anisotropy =   189.0998
   XX=   -11.7165   YX=   -31.9997   ZX=   -79.6630
   XY=   -31.2809   YY=    61.5565   ZY=    51.1790
   XZ=   -78.8459   YZ=    50.2918   ZZ=   110.5017
   Eigenvalues:   -51.0653    31.8932   179.5138
     10  C    Isotropic =    71.7895   Anisotropy =   147.5467
   XX=    56.4062   YX=   -47.9162   ZX=   -31.1752
   XY=   -54.7342   YY=    33.1731   ZY=    50.0457
   XZ=   -27.0889   YZ=    53.2863   ZZ=   125.7893
   Eigenvalues:   -12.2864    57.5010   170.1540
     11  C    Isotropic =    19.1257   Anisotropy =    98.3549
   XX=    33.4139   YX=    17.3758   ZX=   -37.1353
   XY=    10.4123   YY=   -11.2337   ZY=    59.8680
   XZ=   -30.1981   YZ=    58.8734   ZZ=    35.1969
   Eigenvalues:   -61.8140    34.4954    84.6956
     12  C    Isotropic =    66.8065   Anisotropy =   137.0682
   XX=    41.3604   YX=   -24.8930   ZX=   -49.0205
   XY=   -23.7863   YY=    52.5690   ZY=    46.4936
   XZ=   -46.7555   YZ=    47.1130   ZZ=   106.4900
   Eigenvalues:    16.0021    26.2320   158.1853
     13  C    Isotropic =    17.9413   Anisotropy =    94.7621
   XX=    12.7620   YX=   -57.7046   ZX=    -2.5951
   XY=   -51.3495   YY=   -18.3497   ZY=    31.6100
   XZ=    -4.0639   YZ=    32.5241   ZZ=    59.4116
   Eigenvalues:   -64.1547    36.8626    81.1160
     14  C    Isotropic =    72.5891   Anisotropy =   146.3966
   XX=    72.7427   YX=    -9.6073   ZX=   -44.6638
   XY=    -3.1667   YY=    40.6084   ZY=    72.6547
   XZ=   -49.1608   YZ=    70.5657   ZZ=   104.4162
   Eigenvalues:   -11.4726    59.0531   170.1868
     15  H    Isotropic =    24.6163   Anisotropy =     3.1332
   XX=    25.4700   YX=     1.0402   ZX=     1.4580
   XY=     1.0220   YY=    25.4872   ZY=    -2.0617
   XZ=     1.4922   YZ=    -2.1130   ZZ=    22.8916
   Eigenvalues:    21.0116    26.1321    26.7050
     16  H    Isotropic =    25.1013   Anisotropy =     4.8434
   XX=    27.3619   YX=     0.9895   ZX=     2.1652
   XY=     0.6527   YY=    24.6688   ZY=    -1.7038
   XZ=     2.2541   YZ=    -1.6211   ZZ=    23.2734
   Eigenvalues:    21.2914    25.6824    28.3303
     17  H    Isotropic =    25.1201   Anisotropy =     5.2469
   XX=    27.6478   YX=     0.8291   ZX=     2.3936
   XY=     1.0027   YY=    24.6984   ZY=    -1.4247
   XZ=     2.1962   YZ=    -1.4428   ZZ=    23.0140
   Eigenvalues:    21.2531    25.4891    28.6180
     18  F    Isotropic =   295.2517   Anisotropy =   120.5454
   XX=   245.5610   YX=   -48.4863   ZX=   -38.4252
   XY=   -48.6036   YY=   292.7829   ZY=    21.1626
   XZ=   -35.1643   YZ=    19.2363   ZZ=   347.4113
   Eigenvalues:   211.7953   298.3446   375.6153
     19  F    Isotropic =   300.8278   Anisotropy =   115.9498
   XX=   264.8416   YX=    -4.0460   ZX=   -51.5225
   XY=    16.9242   YY=   320.8431   ZY=    41.3771
   XZ=   -49.0137   YZ=    58.5959   ZZ=   316.7987
   Eigenvalues:   222.6698   301.6859   378.1277
     20  H    Isotropic =    31.0518   Anisotropy =     8.5978
   XX=    34.9153   YX=    -0.6025   ZX=     3.1136
   XY=    -1.1314   YY=    31.0180   ZY=    -3.2904
   XZ=     3.3182   YZ=    -3.0188   ZZ=    27.2220
   Eigenvalues:    24.8389    31.5328    36.7836
     21  H    Isotropic =    31.1832   Anisotropy =    11.5505
   XX=    27.5827   YX=     2.5465   ZX=     0.8625
   XY=     2.7889   YY=    38.0814   ZY=     1.4282
   XZ=     0.6963   YZ=     0.9502   ZZ=    27.8855
   Eigenvalues:    26.7168    27.9493    38.8835
     22  H    Isotropic =    31.3226   Anisotropy =     8.0595
   XX=    30.3559   YX=     0.1918   ZX=    -4.4033
   XY=     0.0797   YY=    31.0758   ZY=    -2.0865
   XZ=    -5.0502   YZ=    -1.4894   ZZ=    32.5361
   Eigenvalues:    26.3691    30.9031    36.6956
     23  H    Isotropic =    30.6061   Anisotropy =     7.6547
   XX=    32.7214   YX=    -0.2441   ZX=     4.0165
   XY=    -0.2658   YY=    29.5877   ZY=     0.9361
   XZ=     4.5284   YZ=     1.2805   ZZ=    29.5094
   Eigenvalues:    26.2181    29.8911    35.7093
     24  H    Isotropic =    30.0057   Anisotropy =     6.6238
   XX=    28.4085   YX=     1.2045   ZX=    -2.3884
   XY=     0.6653   YY=    29.0714   ZY=     2.2839
   XZ=    -3.0936   YZ=     2.2042   ZZ=    32.5372
   Eigenvalues:    25.8706    29.7250    34.4216
     25  H    Isotropic =    30.4071   Anisotropy =     3.3668
   XX=    29.7759   YX=    -0.0939   ZX=    -1.0777
   XY=    -1.2643   YY=    29.3802   ZY=    -1.2849
   XZ=    -1.0734   YZ=    -0.7366   ZZ=    32.0653
   Eigenvalues:    28.3038    30.2659    32.6516
     26  H    Isotropic =    28.3496   Anisotropy =     5.0401
   XX=    28.8952   YX=    -0.9849   ZX=     3.9750
   XY=     0.2281   YY=    29.9914   ZY=    -1.6567
   XZ=     1.4391   YZ=    -2.0463   ZZ=    26.1621
   Eigenvalues:    24.1554    29.1837    31.7096
     27  H    Isotropic =    28.5495   Anisotropy =     6.6574
   XX=    31.3193   YX=    -1.8504   ZX=    -1.2969
   XY=    -1.3451   YY=    28.4453   ZY=     3.7122
   XZ=     0.1480   YZ=     4.3096   ZZ=    25.8838
   Eigenvalues:    22.9258    29.7349    32.9877
     28  H    Isotropic =    27.5794   Anisotropy =    25.8322
   XX=    31.3378   YX=    -7.5768   ZX=    -4.8637
   XY=    -7.6254   YY=    29.6215   ZY=    11.7016
   XZ=    -5.6723   YZ=    12.5636   ZZ=    21.7790
   Eigenvalues:    12.9466    24.9907    44.8009
     29  H    Isotropic =    28.6052   Anisotropy =     8.3133
   XX=    29.5330   YX=     2.6147   ZX=    -2.0866
   XY=     2.5308   YY=    26.7283   ZY=    -3.3504
   XZ=    -0.4614   YZ=    -5.3053   ZZ=    29.5542
   Eigenvalues:    23.2694    28.3988    34.1474
     30  H    Isotropic =    28.1348   Anisotropy =     4.7459
   XX=    29.4525   YX=    -0.8578   ZX=    -1.9130
   XY=     0.9284   YY=    28.2697   ZY=     2.9636
   XZ=     0.6735   YZ=     4.3678   ZZ=    26.6822
   Eigenvalues:    23.6811    29.4246    31.2988
     31  H    Isotropic =    29.2971   Anisotropy =     3.1099
   XX=    29.5784   YX=    -0.1366   ZX=     1.5956
   XY=    -0.1476   YY=    29.7428   ZY=    -1.7092
   XZ=    -0.2455   YZ=    -2.2408   ZZ=    28.5702
   Eigenvalues:    27.0132    29.5078    31.3704
     32  C    Isotropic =   172.6634   Anisotropy =    26.5531
   XX=   189.5905   YX=     0.8079   ZX=     3.2635
   XY=    -4.3307   YY=   163.7095   ZY=     3.7501
   XZ=     5.4816   YZ=     6.5853   ZZ=   164.6902
   Eigenvalues:   158.4235   169.2012   190.3654
     33  H    Isotropic =    31.4673   Anisotropy =    10.7986
   XX=    35.8126   YX=    -2.5665   ZX=    -4.1545
   XY=    -2.3564   YY=    28.8215   ZY=     2.5475
   XZ=    -3.2172   YZ=     2.3995   ZZ=    29.7679
   Eigenvalues:    26.7374    28.9982    38.6664
     34  H    Isotropic =    31.0713   Anisotropy =     7.9431
   XX=    34.1979   YX=     3.1143   ZX=    -0.1222
   XY=     1.9506   YY=    33.3020   ZY=     0.7998
   XZ=    -0.1136   YZ=     1.6151   ZZ=    25.7139
   Eigenvalues:    25.4942    31.3529    36.3667
     35  H    Isotropic =    31.6777   Anisotropy =     8.8628
   XX=    32.8093   YX=    -2.0253   ZX=     3.9700
   XY=    -1.9547   YY=    29.2734   ZY=    -2.3540
   XZ=     3.1593   YZ=    -2.3666   ZZ=    32.9505
   Eigenvalues:    28.0945    29.3524    37.5863
     36  H    Isotropic =    31.0285   Anisotropy =     7.9610
   XX=    33.9671   YX=    -2.1600   ZX=     1.4968
   XY=    -1.6092   YY=    28.0355   ZY=    -4.3663
   XZ=    -0.4250   YZ=    -6.5961   ZZ=    31.0829
   Eigenvalues:    23.7321    33.0176    36.3358
 End of Minotr F.D. properties file   721 does not exist.
 End of Minotr F.D. properties file   722 does not exist.
 End of Minotr F.D. properties file   788 does not exist.

 **********************************************************************

            Population analysis using the SCF density.

 **********************************************************************

 Orbital symmetries:
       Occupied  (A) (A) (A) (A) (A) (A) (A) (A) (A) (A) (A) (A)
                 (A) (A) (A) (A) (A) (A) (A) (A) (A) (A) (A) (A)
                 (A) (A) (A) (A) (A) (A) (A) (A) (A) (A) (A) (A)
                 (A) (A) (A) (A) (A) (A) (A) (A) (A) (A) (A) (A)
                 (A) (A) (A) (A) (A) (A) (A) (A) (A) (A) (A) (A)
                 (A) (A) (A) (A) (A)
       Virtual   (A) (A) (A) (A) (A) (A) (A) (A) (A) (A) (A) (A)
                 (A) (A) (A) (A) (A) (A) (A) (A) (A) (A) (A) (A)
                 (A) (A) (A) (A) (A) (A) (A) (A) (A) (A) (A) (A)
                 (A) (A) (A) (A) (A) (A) (A) (A) (A) (A) (A) (A)
                 (A) (A) (A) (A) (A) (A) (A) (A) (A) (A) (A) (A)
                 (A) (A) (A) (A) (A) (A) (A) (A) (A) (A) (A) (A)
                 (A) (A) (A) (A) (A) (A) (A) (A) (A) (A) (A) (A)
                 (A) (A) (A) (A) (A) (A) (A) (A) (A) (A) (A) (A)
                 (A) (A) (A) (A) (A) (A) (A) (A) (A) (A) (A) (A)
                 (A) (A) (A) (A) (A) (A) (A) (A) (A) (A) (A) (A)
                 (A) (A) (A) (A) (A) (A) (A) (A) (A) (A) (A) (A)
                 (A) (A) (A) (A) (A) (A) (A) (A) (A) (A) (A) (A)
                 (A) (A) (A) (A) (A) (A) (A) (A) (A) (A) (A) (A)
                 (A) (A) (A) (A) (A) (A) (A) (A) (A) (A) (A) (A)
                 (A) (A) (A) (A) (A) (A) (A) (A) (A) (A) (A) (A)
                 (A) (A) (A) (A) (A) (A) (A) (A) (A) (A) (A) (A)
                 (A) (A) (A) (A) (A) (A) (A) (A) (A) (A) (A) (A)
                 (A) (A) (A) (A) (A) (A) (A) (A) (A) (A) (A) (A)
                 (A) (A) (A) (A) (A) (A) (A) (A) (A) (A) (A) (A)
                 (A) (A) (A) (A) (A) (A) (A) (A) (A) (A) (A) (A)
                 (A) (A) (A) (A) (A) (A) (A) (A) (A) (A) (A) (A)
                 (A) (A) (A) (A) (A) (A) (A) (A) (A) (A) (A) (A)
                 (A) (A) (A) (A) (A) (A) (A) (A) (A) (A) (A) (A)
                 (A) (A) (A) (A) (A) (A) (A) (A) (A) (A) (A) (A)
                 (A) (A) (A) (A) (A) (A) (A) (A) (A) (A)
 The electronic state is 1-A.
 Alpha  occ. eigenvalues --  -24.80460 -24.80010 -19.17834 -14.39762 -10.34038
 Alpha  occ. eigenvalues --  -10.34029 -10.27740 -10.26990 -10.26924 -10.26383
 Alpha  occ. eigenvalues --  -10.26358 -10.25585 -10.25505 -10.23826 -10.23089
 Alpha  occ. eigenvalues --  -10.22244 -10.22240  -1.27229  -1.26998  -1.02646
 Alpha  occ. eigenvalues --   -0.95089  -0.90923  -0.83542  -0.80489  -0.79024
 Alpha  occ. eigenvalues --   -0.78187  -0.72430  -0.68709  -0.68248  -0.66116
 Alpha  occ. eigenvalues --   -0.64716  -0.62215  -0.59052  -0.58150  -0.55664
 Alpha  occ. eigenvalues --   -0.52523  -0.52229  -0.51742  -0.50876  -0.49642
 Alpha  occ. eigenvalues --   -0.49222  -0.48836  -0.46849  -0.46635  -0.45190
 Alpha  occ. eigenvalues --   -0.44770  -0.43651  -0.42772  -0.41917  -0.41747
 Alpha  occ. eigenvalues --   -0.41551  -0.39923  -0.39452  -0.38647  -0.38202
 Alpha  occ. eigenvalues --   -0.37055  -0.36751  -0.35988  -0.35182  -0.33464
 Alpha  occ. eigenvalues --   -0.32868  -0.27905  -0.27206  -0.26564  -0.25157
 Alpha virt. eigenvalues --   -0.02507  -0.01115   0.04590   0.05747   0.06431
 Alpha virt. eigenvalues --    0.07128   0.08363   0.09748   0.10365   0.10803
 Alpha virt. eigenvalues --    0.11334   0.11585   0.12464   0.12905   0.13210
 Alpha virt. eigenvalues --    0.13458   0.14531   0.14978   0.15632   0.16284
 Alpha virt. eigenvalues --    0.17204   0.17915   0.18111   0.19123   0.20901
 Alpha virt. eigenvalues --    0.21216   0.22422   0.22557   0.23889   0.24142
 Alpha virt. eigenvalues --    0.24788   0.25458   0.25741   0.27899   0.29340
 Alpha virt. eigenvalues --    0.32548   0.32934   0.33301   0.33993   0.34884
 Alpha virt. eigenvalues --    0.35889   0.36702   0.37647   0.38322   0.39076
 Alpha virt. eigenvalues --    0.39659   0.39684   0.40998   0.41320   0.42343
 Alpha virt. eigenvalues --    0.42799   0.42902   0.44188   0.45229   0.46112
 Alpha virt. eigenvalues --    0.48154   0.48511   0.48907   0.51177   0.51624
 Alpha virt. eigenvalues --    0.52841   0.52958   0.54615   0.55199   0.56299
 Alpha virt. eigenvalues --    0.56547   0.56993   0.57411   0.58159   0.58835
 Alpha virt. eigenvalues --    0.59317   0.60364   0.60999   0.61362   0.61911
 Alpha virt. eigenvalues --    0.62527   0.62876   0.62992   0.63415   0.64292
 Alpha virt. eigenvalues --    0.64585   0.64852   0.65375   0.66104   0.66602
 Alpha virt. eigenvalues --    0.67711   0.68342   0.68618   0.70497   0.71534
 Alpha virt. eigenvalues --    0.72200   0.73257   0.73841   0.75517   0.77289
 Alpha virt. eigenvalues --    0.78791   0.79274   0.82165   0.83011   0.85982
 Alpha virt. eigenvalues --    0.88053   0.89881   0.91440   0.91954   0.95545
 Alpha virt. eigenvalues --    0.95959   0.97499   0.97929   0.99076   1.00244
 Alpha virt. eigenvalues --    1.00885   1.04648   1.05192   1.07069   1.08708
 Alpha virt. eigenvalues --    1.09336   1.09957   1.13079   1.13918   1.14776
 Alpha virt. eigenvalues --    1.16260   1.18920   1.18979   1.21479   1.23621
 Alpha virt. eigenvalues --    1.25007   1.27447   1.28469   1.29633   1.30405
 Alpha virt. eigenvalues --    1.32384   1.34040   1.35924   1.37810   1.41789
 Alpha virt. eigenvalues --    1.43310   1.45612   1.47687   1.48744   1.48943
 Alpha virt. eigenvalues --    1.51338   1.52925   1.53541   1.53735   1.54116
 Alpha virt. eigenvalues --    1.55877   1.57412   1.57913   1.58793   1.60389
 Alpha virt. eigenvalues --    1.61432   1.62951   1.63389   1.65108   1.66682
 Alpha virt. eigenvalues --    1.67221   1.67885   1.69794   1.70700   1.73219
 Alpha virt. eigenvalues --    1.73399   1.76446   1.78493   1.80500   1.81590
 Alpha virt. eigenvalues --    1.83336   1.84168   1.84907   1.87430   1.89347
 Alpha virt. eigenvalues --    1.89745   1.90229   1.91115   1.94438   1.95126
 Alpha virt. eigenvalues --    1.96214   1.97772   1.98870   2.02402   2.03025
 Alpha virt. eigenvalues --    2.08367   2.11453   2.12318   2.17315   2.19851
 Alpha virt. eigenvalues --    2.21796   2.25337   2.25887   2.27432   2.27954
 Alpha virt. eigenvalues --    2.28787   2.31183   2.37384   2.38320   2.40199
 Alpha virt. eigenvalues --    2.41350   2.42974   2.43448   2.45887   2.47447
 Alpha virt. eigenvalues --    2.48576   2.50884   2.51788   2.52158   2.54320
 Alpha virt. eigenvalues --    2.54744   2.56987   2.57930   2.60079   2.65195
 Alpha virt. eigenvalues --    2.66221   2.67555   2.68522   2.70745   2.73292
 Alpha virt. eigenvalues --    2.76505   2.82642   2.84262   2.85471   2.89930
 Alpha virt. eigenvalues --    2.91703   2.93646   2.97053   2.98979   3.05110
 Alpha virt. eigenvalues --    3.05459   3.05968   3.08259   3.09507   3.11050
 Alpha virt. eigenvalues --    3.14002   3.14570   3.15607   3.21130   3.21269
 Alpha virt. eigenvalues --    3.23222   3.25321   3.26239   3.28527   3.29367
 Alpha virt. eigenvalues --    3.29980   3.32308   3.33028   3.37390   3.38588
 Alpha virt. eigenvalues --    3.46575   3.47045   3.51610   3.58864   3.64016
 Alpha virt. eigenvalues --    3.74598   3.78056   3.79727   3.80037   3.80956
 Alpha virt. eigenvalues --    3.86183   3.87833   3.95435   3.97059   3.98375
 Alpha virt. eigenvalues --    3.99337   4.07366   4.09804   4.10271   4.12039
 Alpha virt. eigenvalues --    4.18203   4.20843   4.47325   4.74886   4.77194
 Alpha virt. eigenvalues --    4.78118   4.78546   4.94548   5.07919   5.46630
 Alpha virt. eigenvalues --    6.12883   6.14340   6.29993   6.32877   6.55576
 Alpha virt. eigenvalues --    6.57510  23.28679  23.47250  23.58325  23.69118
 Alpha virt. eigenvalues --   23.71675  23.77843  23.79259  23.82814  23.85936
 Alpha virt. eigenvalues --   23.90498  24.09889  24.10454  24.19524  35.56924
 Alpha virt. eigenvalues --   50.00587  66.89160  66.89403
          Condensed to atoms (all electrons):
               1          2          3          4          5          6
     1  C    5.391511   0.275703  -0.072839  -0.002388  -0.000253  -0.000026
     2  C    0.275703   5.398129   0.319126  -0.069820   0.006529  -0.000149
     3  C   -0.072839   0.319126   5.321950   0.300196  -0.075924   0.001257
     4  C   -0.002388  -0.069820   0.300196   5.420006   0.337065  -0.050131
     5  C   -0.000253   0.006529  -0.075924   0.337065   5.055697   0.261044
     6  O   -0.000026  -0.000149   0.001257  -0.050131   0.261044   8.234415
     7  N    0.000188  -0.069160   0.247746  -0.066268   0.007925  -0.039625
     8  C   -0.000751  -0.007628  -0.076911   0.008528  -0.000317   0.001090
     9  C    0.000000   0.000000  -0.000001   0.000000   0.000000   0.000000
    10  C    0.000000   0.000000   0.000005   0.000000   0.000001   0.000001
    11  C   -0.000001   0.000048  -0.000403  -0.000015   0.000018  -0.000141
    12  C   -0.000069   0.000272   0.008626  -0.000190  -0.000047   0.000131
    13  C   -0.000006  -0.000163   0.000026   0.000013  -0.000006   0.000030
    14  C   -0.000008  -0.000002   0.000022   0.000000   0.000000   0.000000
    15  H    0.000000   0.000000   0.000000   0.000000   0.000000   0.000000
    16  H    0.000000   0.000000   0.000000   0.000000   0.000000   0.000000
    17  H   -0.000001   0.000000  -0.000001   0.000000   0.000000   0.000000
    18  F    0.000000   0.000001  -0.000024   0.000000  -0.000004  -0.000003
    19  F   -0.001118  -0.000093   0.000031   0.000000   0.000000   0.000000
    20  H    0.378993  -0.042787  -0.003028  -0.000698  -0.000075  -0.000018
    21  H    0.392375  -0.034389   0.006990  -0.000156   0.000009   0.000000
    22  H    0.386128  -0.038045  -0.005445   0.004055   0.000235  -0.000042
    23  H   -0.037915   0.391247  -0.035644  -0.008620  -0.000092   0.000021
    24  H   -0.044970   0.407284  -0.044255   0.007629  -0.000200   0.000010
    25  H    0.002815  -0.004951  -0.065161   0.390289  -0.050310   0.010410
    26  H   -0.000045   0.000124  -0.019023  -0.052223   0.372285  -0.038999
    27  H    0.000020  -0.000357   0.010327  -0.038383   0.391909  -0.030233
    28  H   -0.000108   0.002083   0.001437  -0.006088  -0.061641   0.255816
    29  H    0.000147  -0.001696  -0.001938   0.000047   0.000134   0.000577
    30  H    0.000405   0.005350  -0.003455  -0.000614   0.000016  -0.000162
    31  H    0.007969  -0.056796   0.404739  -0.039579  -0.007607   0.000522
    32  C   -0.003203  -0.001353  -0.077436   0.293105  -0.070950   0.004723
    33  H   -0.000071   0.000049   0.008606  -0.038410  -0.005111   0.000023
    34  H    0.000620  -0.000621  -0.005910  -0.027765   0.005749  -0.000191
    35  H    0.000305  -0.001750  -0.006199  -0.040193  -0.004236  -0.000077
    36  H    0.005388  -0.007639  -0.047909  -0.003939  -0.000113   0.004683
               7          8          9         10         11         12
     1  C    0.000188  -0.000751   0.000000   0.000000  -0.000001  -0.000069
     2  C   -0.069160  -0.007628   0.000000   0.000000   0.000048   0.000272
     3  C    0.247746  -0.076911  -0.000001   0.000005  -0.000403   0.008626
     4  C   -0.066268   0.008528   0.000000   0.000000  -0.000015  -0.000190
     5  C    0.007925  -0.000317   0.000000   0.000001   0.000018  -0.000047
     6  O   -0.039625   0.001090   0.000000   0.000001  -0.000141   0.000131
     7  N    7.065389   0.261428   0.000039  -0.000028   0.009338  -0.062935
     8  C    0.261428   5.265667  -0.001331   0.009537  -0.070864   0.300320
     9  C    0.000039  -0.001331   5.069546   0.434265  -0.004535  -0.053730
    10  C   -0.000028   0.009537   0.434265   5.178264   0.472295  -0.033489
    11  C    0.009338  -0.070864  -0.004535   0.472295   4.724282   0.300470
    12  C   -0.062935   0.300320  -0.053730  -0.033489   0.300470   5.725058
    13  C   -0.005100  -0.089548  -0.008461  -0.058214   0.047480   0.242078
    14  C   -0.000163   0.008238   0.439460  -0.042605  -0.059655  -0.040766
    15  H    0.000000   0.000029   0.402548  -0.039642   0.005938  -0.001650
    16  H    0.000009  -0.000236  -0.040401   0.393257  -0.048314   0.011953
    17  H    0.000013  -0.000261  -0.039541   0.006609  -0.001501   0.011912
    18  F   -0.000360  -0.004806   0.005547  -0.053237   0.311263  -0.075659
    19  F   -0.002280   0.002878   0.005210  -0.000484   0.004847  -0.085348
    20  H    0.003725   0.001889  -0.000008   0.000002  -0.000056  -0.000568
    21  H    0.000042  -0.000110   0.000000   0.000000   0.000000   0.000001
    22  H   -0.000078   0.000074   0.000000   0.000000   0.000000  -0.000001
    23  H    0.005268   0.000402   0.000000   0.000000  -0.000002   0.000012
    24  H   -0.003504   0.002544   0.000000   0.000000  -0.000031   0.000327
    25  H    0.000496  -0.000584   0.000000   0.000000   0.000009   0.000133
    26  H    0.001184  -0.000038   0.000000   0.000000   0.000011  -0.000004
    27  H   -0.000580   0.000044   0.000000   0.000000  -0.000001  -0.000002
    28  H    0.063775  -0.004286  -0.000022  -0.000028   0.001483  -0.001719
    29  H   -0.037498   0.391935  -0.000283   0.001311  -0.015514  -0.035654
    30  H   -0.045303   0.388273  -0.000068  -0.000117   0.007807  -0.043308
    31  H   -0.039088  -0.006289   0.000001  -0.000003   0.000033   0.000047
    32  C    0.004890  -0.000234   0.000000   0.000000   0.000000   0.000005
    33  H   -0.000211   0.000017   0.000000   0.000000   0.000000   0.000000
    34  H   -0.000150  -0.000016   0.000000   0.000000   0.000000   0.000000
    35  H    0.000034  -0.000019   0.000000   0.000000   0.000000   0.000001
    36  H    0.322591  -0.042670   0.000008  -0.000002  -0.000054  -0.014305
              13         14         15         16         17         18
     1  C   -0.000006  -0.000008   0.000000   0.000000  -0.000001   0.000000
     2  C   -0.000163  -0.000002   0.000000   0.000000   0.000000   0.000001
     3  C    0.000026   0.000022   0.000000   0.000000  -0.000001  -0.000024
     4  C    0.000013   0.000000   0.000000   0.000000   0.000000   0.000000
     5  C   -0.000006   0.000000   0.000000   0.000000   0.000000  -0.000004
     6  O    0.000030   0.000000   0.000000   0.000000   0.000000  -0.000003
     7  N   -0.005100  -0.000163   0.000000   0.000009   0.000013  -0.000360
     8  C   -0.089548   0.008238   0.000029  -0.000236  -0.000261  -0.004806
     9  C   -0.008461   0.439460   0.402548  -0.040401  -0.039541   0.005547
    10  C   -0.058214  -0.042605  -0.039642   0.393257   0.006609  -0.053237
    11  C    0.047480  -0.059655   0.005938  -0.048314  -0.001501   0.311263
    12  C    0.242078  -0.040766  -0.001650   0.011953   0.011912  -0.075659
    13  C    4.788852   0.486010   0.006184  -0.001572  -0.050228   0.005696
    14  C    0.486010   5.164457  -0.040690   0.006739   0.394074  -0.000451
    15  H    0.006184  -0.040690   0.443728  -0.006310  -0.006313  -0.000080
    16  H   -0.001572   0.006739  -0.006310   0.443621  -0.000137   0.001324
    17  H   -0.050228   0.394074  -0.006313  -0.000137   0.443609   0.000004
    18  F    0.005696  -0.000451  -0.000080   0.001324   0.000004   9.042319
    19  F    0.308654  -0.053867  -0.000080   0.000004   0.001479  -0.000002
    20  H   -0.000003   0.000137   0.000000   0.000000   0.000008   0.000000
    21  H    0.000001   0.000000   0.000000   0.000000   0.000000   0.000000
    22  H    0.000014   0.000000   0.000000   0.000000   0.000000   0.000000
    23  H    0.000005   0.000000   0.000000   0.000000   0.000000   0.000000
    24  H    0.000099  -0.000001   0.000000   0.000000   0.000000   0.000001
    25  H   -0.000045  -0.000001   0.000000   0.000000   0.000000   0.000000
    26  H   -0.000005   0.000000   0.000000   0.000000   0.000000   0.000005
    27  H    0.000001   0.000000   0.000000   0.000000   0.000000   0.000000
    28  H   -0.000525  -0.000006   0.000000   0.000002   0.000001   0.000648
    29  H    0.008347   0.000130   0.000005  -0.000045   0.000006   0.013106
    30  H   -0.017171  -0.000222   0.000002   0.000016  -0.000025  -0.000003
    31  H   -0.000018   0.000001   0.000000   0.000000   0.000000  -0.000126
    32  C    0.000000   0.000000   0.000000   0.000000   0.000000   0.000000
    33  H    0.000000   0.000000   0.000000   0.000000   0.000000   0.000000
    34  H    0.000000   0.000000   0.000000   0.000000   0.000000   0.000000
    35  H    0.000000   0.000000   0.000000   0.000000   0.000000   0.000000
    36  H    0.004097  -0.000161   0.000000   0.000000  -0.000001  -0.000067
              19         20         21         22         23         24
     1  C   -0.001118   0.378993   0.392375   0.386128  -0.037915  -0.044970
     2  C   -0.000093  -0.042787  -0.034389  -0.038045   0.391247   0.407284
     3  C    0.000031  -0.003028   0.006990  -0.005445  -0.035644  -0.044255
     4  C    0.000000  -0.000698  -0.000156   0.004055  -0.008620   0.007629
     5  C    0.000000  -0.000075   0.000009   0.000235  -0.000092  -0.000200
     6  O    0.000000  -0.000018   0.000000  -0.000042   0.000021   0.000010
     7  N   -0.002280   0.003725   0.000042  -0.000078   0.005268  -0.003504
     8  C    0.002878   0.001889  -0.000110   0.000074   0.000402   0.002544
     9  C    0.005210  -0.000008   0.000000   0.000000   0.000000   0.000000
    10  C   -0.000484   0.000002   0.000000   0.000000   0.000000   0.000000
    11  C    0.004847  -0.000056   0.000000   0.000000  -0.000002  -0.000031
    12  C   -0.085348  -0.000568   0.000001  -0.000001   0.000012   0.000327
    13  C    0.308654  -0.000003   0.000001   0.000014   0.000005   0.000099
    14  C   -0.053867   0.000137   0.000000   0.000000   0.000000  -0.000001
    15  H   -0.000080   0.000000   0.000000   0.000000   0.000000   0.000000
    16  H    0.000004   0.000000   0.000000   0.000000   0.000000   0.000000
    17  H    0.001479   0.000008   0.000000   0.000000   0.000000   0.000000
    18  F   -0.000002   0.000000   0.000000   0.000000   0.000000   0.000001
    19  F    9.050273   0.006833  -0.000025  -0.000014  -0.000003  -0.000154
    20  H    0.006833   0.483837  -0.026883  -0.027328   0.007176  -0.005440
    21  H   -0.000025  -0.026883   0.464363  -0.027013  -0.004606  -0.004589
    22  H   -0.000014  -0.027328  -0.027013   0.473149  -0.004811   0.006576
    23  H   -0.000003   0.007176  -0.004606  -0.004811   0.479245  -0.031536
    24  H   -0.000154  -0.005440  -0.004589   0.006576  -0.031536   0.484166
    25  H   -0.000029  -0.000726   0.000101  -0.001227  -0.000077  -0.000297
    26  H    0.000000  -0.000012   0.000002  -0.000052  -0.000040  -0.000016
    27  H    0.000000   0.000008  -0.000001   0.000044   0.000012   0.000015
    28  H   -0.000060  -0.000132   0.000003  -0.000004  -0.000109  -0.000042
    29  H    0.000251   0.000171   0.000001   0.000006   0.000086   0.000290
    30  H    0.005582  -0.001198   0.000025  -0.000084  -0.000427  -0.000592
    31  H   -0.000006  -0.000091  -0.000178  -0.000225  -0.001518  -0.006401
    32  C    0.000000   0.000067  -0.000020  -0.000349   0.001589   0.000131
    33  H    0.000000   0.000021  -0.000005   0.000037   0.000480   0.000006
    34  H    0.000000  -0.000044  -0.000018   0.002347  -0.001742   0.000402
    35  H    0.000000  -0.000012   0.000011  -0.000108   0.000282  -0.000219
    36  H    0.007209   0.002800   0.000047  -0.000565   0.000028  -0.000330
              25         26         27         28         29         30
     1  C    0.002815  -0.000045   0.000020  -0.000108   0.000147   0.000405
     2  C   -0.004951   0.000124  -0.000357   0.002083  -0.001696   0.005350
     3  C   -0.065161  -0.019023   0.010327   0.001437  -0.001938  -0.003455
     4  C    0.390289  -0.052223  -0.038383  -0.006088   0.000047  -0.000614
     5  C   -0.050310   0.372285   0.391909  -0.061641   0.000134   0.000016
     6  O    0.010410  -0.038999  -0.030233   0.255816   0.000577  -0.000162
     7  N    0.000496   0.001184  -0.000580   0.063775  -0.037498  -0.045303
     8  C   -0.000584  -0.000038   0.000044  -0.004286   0.391935   0.388273
     9  C    0.000000   0.000000   0.000000  -0.000022  -0.000283  -0.000068
    10  C    0.000000   0.000000   0.000000  -0.000028   0.001311  -0.000117
    11  C    0.000009   0.000011  -0.000001   0.001483  -0.015514   0.007807
    12  C    0.000133  -0.000004  -0.000002  -0.001719  -0.035654  -0.043308
    13  C   -0.000045  -0.000005   0.000001  -0.000525   0.008347  -0.017171
    14  C   -0.000001   0.000000   0.000000  -0.000006   0.000130  -0.000222
    15  H    0.000000   0.000000   0.000000   0.000000   0.000005   0.000002
    16  H    0.000000   0.000000   0.000000   0.000002  -0.000045   0.000016
    17  H    0.000000   0.000000   0.000000   0.000001   0.000006  -0.000025
    18  F    0.000000   0.000005   0.000000   0.000648   0.013106  -0.000003
    19  F   -0.000029   0.000000   0.000000  -0.000060   0.000251   0.005582
    20  H   -0.000726  -0.000012   0.000008  -0.000132   0.000171  -0.001198
    21  H    0.000101   0.000002  -0.000001   0.000003   0.000001   0.000025
    22  H   -0.001227  -0.000052   0.000044  -0.000004   0.000006  -0.000084
    23  H   -0.000077  -0.000040   0.000012  -0.000109   0.000086  -0.000427
    24  H   -0.000297  -0.000016   0.000015  -0.000042   0.000290  -0.000592
    25  H    0.522884   0.012644  -0.010908  -0.001145  -0.000105   0.000050
    26  H    0.012644   0.578198  -0.048353  -0.002682  -0.000328   0.000012
    27  H   -0.010908  -0.048353   0.509568   0.006112   0.000015  -0.000004
    28  H   -0.001145  -0.002682   0.006112   0.347369  -0.001747   0.001569
    29  H   -0.000105  -0.000328   0.000015  -0.001747   0.448037  -0.037409
    30  H    0.000050   0.000012  -0.000004   0.001569  -0.037409   0.504636
    31  H    0.007428   0.005599  -0.000174  -0.001462   0.004488  -0.001334
    32  C   -0.033920   0.001814  -0.005985  -0.001085  -0.000014   0.000011
    33  H   -0.005619  -0.001349   0.007056  -0.000084   0.000003  -0.000002
    34  H   -0.006938  -0.000584   0.000027   0.000077   0.000002  -0.000003
    35  H    0.008158   0.005376  -0.001197   0.000004  -0.000019   0.000003
    36  H    0.004496   0.000476  -0.000108  -0.005695   0.006343  -0.006302
              31         32         33         34         35         36
     1  C    0.007969  -0.003203  -0.000071   0.000620   0.000305   0.005388
     2  C   -0.056796  -0.001353   0.000049  -0.000621  -0.001750  -0.007639
     3  C    0.404739  -0.077436   0.008606  -0.005910  -0.006199  -0.047909
     4  C   -0.039579   0.293105  -0.038410  -0.027765  -0.040193  -0.003939
     5  C   -0.007607  -0.070950  -0.005111   0.005749  -0.004236  -0.000113
     6  O    0.000522   0.004723   0.000023  -0.000191  -0.000077   0.004683
     7  N   -0.039088   0.004890  -0.000211  -0.000150   0.000034   0.322591
     8  C   -0.006289  -0.000234   0.000017  -0.000016  -0.000019  -0.042670
     9  C    0.000001   0.000000   0.000000   0.000000   0.000000   0.000008
    10  C   -0.000003   0.000000   0.000000   0.000000   0.000000  -0.000002
    11  C    0.000033   0.000000   0.000000   0.000000   0.000000  -0.000054
    12  C    0.000047   0.000005   0.000000   0.000000   0.000001  -0.014305
    13  C   -0.000018   0.000000   0.000000   0.000000   0.000000   0.004097
    14  C    0.000001   0.000000   0.000000   0.000000   0.000000  -0.000161
    15  H    0.000000   0.000000   0.000000   0.000000   0.000000   0.000000
    16  H    0.000000   0.000000   0.000000   0.000000   0.000000   0.000000
    17  H    0.000000   0.000000   0.000000   0.000000   0.000000  -0.000001
    18  F   -0.000126   0.000000   0.000000   0.000000   0.000000  -0.000067
    19  F   -0.000006   0.000000   0.000000   0.000000   0.000000   0.007209
    20  H   -0.000091   0.000067   0.000021  -0.000044  -0.000012   0.002800
    21  H   -0.000178  -0.000020  -0.000005  -0.000018   0.000011   0.000047
    22  H   -0.000225  -0.000349   0.000037   0.002347  -0.000108  -0.000565
    23  H   -0.001518   0.001589   0.000480  -0.001742   0.000282   0.000028
    24  H   -0.006401   0.000131   0.000006   0.000402  -0.000219  -0.000330
    25  H    0.007428  -0.033920  -0.005619  -0.006938   0.008158   0.004496
    26  H    0.005599   0.001814  -0.001349  -0.000584   0.005376   0.000476
    27  H   -0.000174  -0.005985   0.007056   0.000027  -0.001197  -0.000108
    28  H   -0.001462  -0.001085  -0.000084   0.000077   0.000004  -0.005695
    29  H    0.004488  -0.000014   0.000003   0.000002  -0.000019   0.006343
    30  H   -0.001334   0.000011  -0.000002  -0.000003   0.000003  -0.006302
    31  H    0.482168  -0.001945  -0.000302  -0.000373   0.004690   0.007737
    32  C   -0.001945   5.410108   0.390159   0.383624   0.382191   0.000453
    33  H   -0.000302   0.390159   0.464893  -0.025757  -0.027652   0.000003
    34  H   -0.000373   0.383624  -0.025757   0.464319  -0.028021  -0.000067
    35  H    0.004690   0.382191  -0.027652  -0.028021   0.482177   0.000031
    36  H    0.007737   0.000453   0.000003  -0.000067   0.000031   0.414818
 Mulliken charges:
               1
     1  C   -0.678796
     2  C   -0.468548
     3  C   -0.089578
     4  C   -0.315449
     5  C   -0.161728
     6  O   -0.614956
     7  N   -0.621750
     8  C   -0.335993
     9  C   -0.208245
    10  C   -0.267699
    11  C    0.315766
    12  C   -0.151903
    13  C    0.333478
    14  C   -0.260672
    15  H    0.236331
    16  H    0.240091
    17  H    0.240291
    18  F   -0.245094
    19  F   -0.249689
    20  H    0.223440
    21  H    0.234022
    22  H    0.232729
    23  H    0.241291
    24  H    0.233097
    25  H    0.222129
    26  H    0.186026
    27  H    0.211128
    28  H    0.408289
    29  H    0.256812
    30  H    0.244044
    31  H    0.238095
    32  C   -0.676376
    33  H    0.233222
    34  H    0.241035
    35  H    0.226443
    36  H    0.348718
 Sum of Mulliken charges =   0.00000
 Mulliken charges with hydrogens summed into heavy atoms:
               1
     1  C    0.011395
     2  C    0.005839
     3  C    0.148517
     4  C   -0.093320
     5  C    0.235425
     6  O   -0.206666
     7  N   -0.273032
     8  C    0.164863
     9  C    0.028086
    10  C   -0.027608
    11  C    0.315766
    12  C   -0.151903
    13  C    0.333478
    14  C   -0.020381
    18  F   -0.245094
    19  F   -0.249689
    32  C    0.024324
 Electronic spatial extent (au):  <R**2>=           5007.1335
 Charge=              0.0000 electrons
 Dipole moment (field-independent basis, Debye):
    X=             -1.2096    Y=              3.2380    Z=              1.6317  Tot=              3.8223
 Quadrupole moment (field-independent basis, Debye-Ang):
   XX=            -82.4299   YY=           -110.7442   ZZ=           -104.5040
   XY=              3.4527   XZ=              7.5827   YZ=             -5.2590
 Traceless Quadrupole moment (field-independent basis, Debye-Ang):
   XX=             16.7962   YY=            -11.5182   ZZ=             -5.2780
   XY=              3.4527   XZ=              7.5827   YZ=             -5.2590
 Octapole moment (field-independent basis, Debye-Ang**2):
  XXX=            -70.1626  YYY=             14.0186  ZZZ=              9.3212  XYY=            -11.8368
  XXY=            -10.2864  XXZ=            -26.3099  XZZ=             -6.2093  YZZ=             12.9964
  YYZ=             12.4504  XYZ=             -0.3667
 Hexadecapole moment (field-independent basis, Debye-Ang**3):
 XXXX=          -4295.7272 YYYY=          -1410.0478 ZZZZ=           -541.2643 XXXY=             36.3800
 XXXZ=             89.4033 YYYX=             29.6496 YYYZ=            -45.7791 ZZZX=             -5.5465
 ZZZY=            -42.6573 XXYY=           -966.3701 XXZZ=           -863.0865 YYZZ=           -333.5908
 XXYZ=            -29.1454 YYXZ=             23.8044 ZZXY=            -12.5812
 N-N= 1.277390607303D+03 E-N=-4.512447211093D+03  KE= 8.332638360781D+02
 1\1\GINC-SWANNODE-0-11\SP\RmPW1PW91\6-311G(d)\C13H19F2N1O1\KE291\06-Ma
 r-2019\0\\# mPW1PW91/6-311g(d) geom=checkpoint nmr=giao scrf=(solvent=
 chloroform)\\AT3_1ginp001\\0,1\C,0,-1.8736557818,0.572302361,0.4594011
 386\C,0,-1.2078195831,-0.0651066109,1.6850954319\C,0,-0.4047833224,0.9
 058432833,2.5841388364\C,0,-1.2570086701,2.0000705562,3.2830873677\C,0
 ,-0.4131930893,2.811167041,4.290463781\O,0,0.6015571767,3.6015064688,3
 .6970795146\N,0,0.7247724679,1.565396034,1.8798299953\C,0,1.7986775988
 ,0.6636864782,1.428206705\C,0,4.8716585236,2.907393283,-0.6489462802\C
 ,0,5.1144764435,2.4510317718,0.6467550608\C,0,4.1158955481,1.734464932
 ,1.2968639777\C,0,2.8814360259,1.438203352,0.7166302028\C,0,2.69649612
 52,1.9252170406,-0.5786602205\C,0,3.6521785504,2.6482627217,-1.2781467
 28\H,0,5.6366794425,3.4710385016,-1.1723312336\H,0,6.0521929843,2.6420
 947798,1.155404943\H,0,3.4370743983,2.9948525546,-2.2821483312\F,0,4.3
 534247799,1.2919435797,2.5523886585\F,0,1.5010350384,1.6754263937,-1.1
 739886581\H,0,-1.1365969292,1.0156933443,-0.2192454488\H,0,-2.42182098
 06,-0.1824615421,-0.1128286168\H,0,-2.5866061304,1.3556037368,0.737556
 7316\H,0,-1.9642088052,-0.565484627,2.2986167514\H,0,-0.5361614449,-0.
 8643065124,1.3498343739\H,0,-1.607493848,2.7095171322,2.519295789\H,0,
 0.0047938226,2.1106819925,5.0379222553\H,0,-1.0748082141,3.4945632787,
 4.837072594\H,0,1.0075894391,3.0001749202,3.0335376098\H,0,2.222950941
 9,0.1747230014,2.3081979295\H,0,1.4361325983,-0.1263779866,0.755709250
 4\H,0,0.0531212672,0.302387477,3.3821892678\C,0,-2.4816603423,1.414988
 5012,4.003320287\H,0,-3.0123264478,2.2003203143,4.5512525882\H,0,-3.19
 44501929,0.9632965957,3.3091010699\H,0,-2.1881550862,0.6462624171,4.72
 83895424\H,0,0.3609786959,2.0651384345,1.0699948636\\Version=EM64L-G09
 RevD.01\State=1-A\HF=-836.4692589\RMSD=6.980e-09\Dipole=0.0593831,-0.9
 844369,-1.1352408\Quadrupole=7.9563144,-5.3904862,-2.5658283,5.1477556
 ,-6.2888124,-7.7764914\PG=C01 [X(C13H19F2N1O1)]\\@


 THE LENGTH OF A MEETING IS PROPORTIONAL TO THE
 SQUARE OF THE PARTICIPANTS.
 Job cpu time:       0 days  0 hours 25 minutes 50.6 seconds.
 File lengths (MBytes):  RWF=    181 Int=      0 D2E=      0 Chk=     14 Scr=      1
 Normal termination of Gaussian 09 at Wed Mar  6 11:57:41 2019.
