 Entering Gaussian System, Link 0=/usr/local/shared/gaussian/em64t/09-D01/g09/g09
 Initial command:
 /usr/local/shared/gaussian/em64t/09-D01/g09/l1.exe "/scratch/ke291/AT3_1ginp010/Gau-10987.inp" -scrdir="/scratch/ke291/AT3_1ginp010/"
 Entering Link 1 = /usr/local/shared/gaussian/em64t/09-D01/g09/l1.exe PID=     10991.
  
 Copyright (c) 1988,1990,1992,1993,1995,1998,2003,2009,2013,
            Gaussian, Inc.  All Rights Reserved.
  
 This is part of the Gaussian(R) 09 program.  It is based on
 the Gaussian(R) 03 system (copyright 2003, Gaussian, Inc.),
 the Gaussian(R) 98 system (copyright 1998, Gaussian, Inc.),
 the Gaussian(R) 94 system (copyright 1995, Gaussian, Inc.),
 the Gaussian 92(TM) system (copyright 1992, Gaussian, Inc.),
 the Gaussian 90(TM) system (copyright 1990, Gaussian, Inc.),
 the Gaussian 88(TM) system (copyright 1988, Gaussian, Inc.),
 the Gaussian 86(TM) system (copyright 1986, Carnegie Mellon
 University), and the Gaussian 82(TM) system (copyright 1983,
 Carnegie Mellon University). Gaussian is a federally registered
 trademark of Gaussian, Inc.
  
 This software contains proprietary and confidential information,
 including trade secrets, belonging to Gaussian, Inc.
  
 This software is provided under written license and may be
 used, copied, transmitted, or stored only in accord with that
 written license.
  
 The following legend is applicable only to US Government
 contracts under FAR:
  
                    RESTRICTED RIGHTS LEGEND
  
 Use, reproduction and disclosure by the US Government is
 subject to restrictions as set forth in subparagraphs (a)
 and (c) of the Commercial Computer Software - Restricted
 Rights clause in FAR 52.227-19.
  
 Gaussian, Inc.
 340 Quinnipiac St., Bldg. 40, Wallingford CT 06492
  
  
 ---------------------------------------------------------------
 Warning -- This program may not be used in any manner that
 competes with the business of Gaussian, Inc. or will provide
 assistance to any competitor of Gaussian, Inc.  The licensee
 of this program is prohibited from giving any competitor of
 Gaussian, Inc. access to this program.  By using this program,
 the user acknowledges that Gaussian, Inc. is engaged in the
 business of creating and licensing software in the field of
 computational chemistry and represents and warrants to the
 licensee that it is not a competitor of Gaussian, Inc. and that
 it will not use this program in any manner prohibited above.
 ---------------------------------------------------------------
  

 Cite this work as:
 Gaussian 09, Revision D.01,
 M. J. Frisch, G. W. Trucks, H. B. Schlegel, G. E. Scuseria, 
 M. A. Robb, J. R. Cheeseman, G. Scalmani, V. Barone, B. Mennucci, 
 G. A. Petersson, H. Nakatsuji, M. Caricato, X. Li, H. P. Hratchian, 
 A. F. Izmaylov, J. Bloino, G. Zheng, J. L. Sonnenberg, M. Hada, 
 M. Ehara, K. Toyota, R. Fukuda, J. Hasegawa, M. Ishida, T. Nakajima, 
 Y. Honda, O. Kitao, H. Nakai, T. Vreven, J. A. Montgomery, Jr., 
 J. E. Peralta, F. Ogliaro, M. Bearpark, J. J. Heyd, E. Brothers, 
 K. N. Kudin, V. N. Staroverov, T. Keith, R. Kobayashi, J. Normand, 
 K. Raghavachari, A. Rendell, J. C. Burant, S. S. Iyengar, J. Tomasi, 
 M. Cossi, N. Rega, J. M. Millam, M. Klene, J. E. Knox, J. B. Cross, 
 V. Bakken, C. Adamo, J. Jaramillo, R. Gomperts, R. E. Stratmann, 
 O. Yazyev, A. J. Austin, R. Cammi, C. Pomelli, J. W. Ochterski, 
 R. L. Martin, K. Morokuma, V. G. Zakrzewski, G. A. Voth, 
 P. Salvador, J. J. Dannenberg, S. Dapprich, A. D. Daniels, 
 O. Farkas, J. B. Foresman, J. V. Ortiz, J. Cioslowski, 
 and D. J. Fox, Gaussian, Inc., Wallingford CT, 2013.
 
 ******************************************
 Gaussian 09:  EM64L-G09RevD.01 24-Apr-2013
                 6-Mar-2019 
 ******************************************
 %nprocshared=2
 Will use up to    2 processors via shared memory.
 %mem=6000MB
 %chk=AT3_1ginp010.chk
 ----------------------------------------------------------------------
 # mPW1PW91/6-311g(d) geom=checkpoint nmr=giao scrf=(solvent=chloroform
 )
 ----------------------------------------------------------------------
 1/29=2,38=1/1;
 2/12=2,40=1/2;
 3/5=4,6=6,7=1,11=2,14=-4,16=1,25=1,30=1,70=2201,72=7,74=-7/1,2,8,3;
 4//1;
 5/5=2,38=5,53=7/2;
 8/6=1,10=90,11=11/1;
 10/13=100,45=16/2;
 6/7=2,8=2,9=2,10=2,28=1/1;
 99/9=1/99;
 ------------
 AT3_1ginp010
 ------------
 Structure from the checkpoint file:  "AT3_1ginp010.chk"
 Charge =  0 Multiplicity = 1
 Redundant internal coordinates found in file.
 C,0,-0.4414762526,-0.984829995,1.0315928282
 C,0,-1.0173700954,0.1431807045,1.8983886043
 C,0,-0.1394505674,1.4068131085,1.9416416533
 C,0,-0.4855021971,2.3648585023,3.1118272921
 C,0,0.0653067433,1.8633723031,4.4558569972
 O,0,1.4702349839,1.6162305848,4.4450902557
 N,0,-0.2627837687,2.1232865059,0.6554211079
 C,0,0.8204001204,3.0585893519,0.3273440346
 C,0,4.8219647513,1.3466891852,0.2321518809
 C,0,4.4406928448,2.1364218276,1.3172093932
 C,0,3.1593040484,2.6727366231,1.320986619
 C,0,2.2261337098,2.4750905127,0.3042826811
 C,0,2.6647117089,1.6658450758,-0.7464165002
 C,0,3.9311265522,1.1019153639,-0.8153510112
 H,0,5.8171636858,0.9159263143,0.2039054655
 H,0,5.1105468391,2.3362143078,2.1454408434
 H,0,4.2013031,0.4892658891,-1.6676476963
 F,0,2.7903082492,3.4420532301,2.3872045179
 F,0,1.7875954392,1.4234196252,-1.7525207058
 H,0,0.5387019169,-1.3032489205,1.4025610096
 H,0,-1.1019305022,-1.857710769,1.0388033969
 H,0,-0.3151346147,-0.6872899287,-0.0155784323
 H,0,-2.0172979254,0.4143277503,1.5386687567
 H,0,-1.1455030474,-0.2345474917,2.9189386794
 H,0,0.0403439463,3.3091099984,2.9110073586
 H,0,-0.4016754816,0.9128633225,4.7394038128
 H,0,-0.196855885,2.5927915698,5.2390169428
 H,0,1.9020308856,2.3911552811,4.0574676595
 H,0,0.5997619328,3.4729040433,-0.6606500268
 H,0,0.8039861295,3.8937820206,1.0301537183
 H,0,0.8967555824,1.072880385,2.1105576931
 C,0,-1.9797100088,2.6964563381,3.2169222088
 H,0,-2.5687928481,1.8302764494,3.5371652663
 H,0,-2.1525608394,3.4986321464,3.9421825334
 H,0,-2.360829655,3.0254454678,2.2467005786
 H,0,-0.3225904813,1.4435953168,-0.0976884165
 Recover connectivity data from disk.
                          Input orientation:                          
 ---------------------------------------------------------------------
 Center     Atomic      Atomic             Coordinates (Angstroms)
 Number     Number       Type             X           Y           Z
 ---------------------------------------------------------------------
      1          6           0       -0.441476   -0.984830    1.031593
      2          6           0       -1.017370    0.143181    1.898389
      3          6           0       -0.139451    1.406813    1.941642
      4          6           0       -0.485502    2.364859    3.111827
      5          6           0        0.065307    1.863372    4.455857
      6          8           0        1.470235    1.616231    4.445090
      7          7           0       -0.262784    2.123287    0.655421
      8          6           0        0.820400    3.058589    0.327344
      9          6           0        4.821965    1.346689    0.232152
     10          6           0        4.440693    2.136422    1.317209
     11          6           0        3.159304    2.672737    1.320987
     12          6           0        2.226134    2.475091    0.304283
     13          6           0        2.664712    1.665845   -0.746417
     14          6           0        3.931127    1.101915   -0.815351
     15          1           0        5.817164    0.915926    0.203905
     16          1           0        5.110547    2.336214    2.145441
     17          1           0        4.201303    0.489266   -1.667648
     18          9           0        2.790308    3.442053    2.387205
     19          9           0        1.787595    1.423420   -1.752521
     20          1           0        0.538702   -1.303249    1.402561
     21          1           0       -1.101931   -1.857711    1.038803
     22          1           0       -0.315135   -0.687290   -0.015578
     23          1           0       -2.017298    0.414328    1.538669
     24          1           0       -1.145503   -0.234547    2.918939
     25          1           0        0.040344    3.309110    2.911007
     26          1           0       -0.401675    0.912863    4.739404
     27          1           0       -0.196856    2.592792    5.239017
     28          1           0        1.902031    2.391155    4.057468
     29          1           0        0.599762    3.472904   -0.660650
     30          1           0        0.803986    3.893782    1.030154
     31          1           0        0.896756    1.072880    2.110558
     32          6           0       -1.979710    2.696456    3.216922
     33          1           0       -2.568793    1.830276    3.537165
     34          1           0       -2.152561    3.498632    3.942183
     35          1           0       -2.360830    3.025445    2.246701
     36          1           0       -0.322590    1.443595   -0.097688
 ---------------------------------------------------------------------
                    Distance matrix (angstroms):
                    1          2          3          4          5
     1  C    0.000000
     2  C    1.534730   0.000000
     3  C    2.576697   1.539279   0.000000
     4  C    3.943314   2.586729   1.551431   0.000000
     5  C    4.482708   3.266786   2.563523   1.536650   0.000000
     6  O    4.698098   3.852758   2.983655   2.482527   1.426541
     7  N    3.135893   2.456662   1.477467   2.478284   3.823416
     8  C    4.293895   3.787504   2.501127   3.152775   4.363866
     9  C    5.811962   6.190526   5.248010   6.123594   6.382197
    10  C    5.801669   5.839626   4.679739   5.247879   5.391629
    11  C    5.140735   4.916976   3.587416   4.072654   4.478315
    12  C    4.429015   4.301081   3.068900   3.904795   4.720057
    13  C    4.453740   4.782387   3.893081   5.029763   5.818898
    14  C    5.185110   5.724611   4.925806   6.043539   6.581034
    15  H    6.593066   7.083732   6.224303   7.090769   7.215303
    16  H    6.564675   6.513202   5.335522   5.678951   5.569206
    17  H    5.569045   6.330161   5.719354   6.951789   7.516112
    18  F    5.646185   5.061612   3.595026   3.523686   3.767916
    19  F    4.303454   4.778701   4.166607   5.451161   6.457847
    20  H    1.095334   2.181597   2.845160   4.174398   4.424275
    21  H    1.094611   2.179359   3.521165   4.744207   5.185090
    22  H    1.095929   2.201383   2.871732   4.373248   5.161816
    23  H    2.167483   1.096711   2.161880   2.936971   3.866130
    24  H    2.149570   1.095728   2.159008   2.688814   2.868701
    25  H    4.711929   3.488161   2.142599   1.099297   2.115973
    26  H    4.165416   3.007135   2.853107   2.182733   1.096330
    27  H    5.528258   4.222989   3.504643   2.158751   1.101872
    28  H    5.103452   4.270587   3.100532   2.568120   1.952133
    29  H    4.880497   4.500095   3.403981   4.078866   5.390258
    30  H    5.035080   4.258894   2.811743   2.886824   4.050142
    31  H    2.681269   2.138512   1.101711   2.140651   2.610865
    32  C    4.549032   3.030486   2.583810   1.534164   2.532011
    33  H    4.327608   2.817586   2.937128   2.192439   2.789905
    34  H    5.612555   4.089597   3.525689   2.180371   2.803011
    35  H    4.608982   3.199008   2.765422   2.168334   3.480937
    36  H    2.680795   2.481556   2.047867   3.343091   4.589276
                    6          7          8          9         10
     6  O    0.000000
     7  N    4.197863   0.000000
     8  C    4.411181   1.468235   0.000000
     9  C    5.390324   5.161098   4.353411   0.000000
    10  C    4.344866   4.749824   3.864809   1.395133   0.000000
    11  C    3.705291   3.529243   2.570346   2.389227   1.389102
    12  C    4.295964   2.538065   1.522199   2.831401   2.458656
    13  C    5.327380   3.277900   2.548369   2.390230   2.762988
    14  C    5.830330   4.560181   3.848499   1.396699   2.424392
    15  H    6.113417   6.215090   5.438188   1.084793   2.150285
    16  H    4.365620   5.580159   4.715152   2.173273   1.083784
    17  H    6.789282   5.291006   4.691686   2.174772   3.417573
    18  F    3.051412   3.749612   2.875866   3.628006   2.360791
    19  F    6.208726   3.239144   2.816928   3.626598   4.119532
    20  H    4.318344   3.597463   4.501231   5.170916   5.202322
    21  H    5.503371   4.086501   5.326494   6.783170   6.837491
    22  H    5.328350   2.890038   3.929204   5.530663   5.689250
    23  H    4.696248   2.603649   4.063491   7.025083   6.687324
    24  H    3.549169   3.385570   4.628811   6.732741   6.276354
    25  H    2.695151   2.566268   2.710455   5.821620   4.824776
    26  H    2.021236   4.261846   5.056074   6.913027   6.054506
    27  H    2.088823   4.608051   5.037490   7.197918   6.090624
    28  H    0.968095   4.041299   3.940713   4.924425   3.744157
    29  H    5.502140   2.073040   1.093833   4.810913   4.522263
    30  H    4.158476   2.100732   1.091677   4.823758   4.049241
    31  H    2.464579   2.136658   2.669967   4.360120   3.784179
    32  C    3.818037   3.136502   4.039978   7.549404   6.718937
    33  H    4.145345   3.702429   4.826835   8.110504   7.358996
    34  H    4.113514   4.033068   4.700978   8.187747   7.226140
    35  H    4.636363   2.783497   3.715542   7.646513   6.922068
    36  H    4.886805   1.016234   2.023681   5.156029   5.017052
                   11         12         13         14         15
    11  C    0.000000
    12  C    1.394115   0.000000
    13  C    2.352150   1.396853   0.000000
    14  C    2.761726   2.458900   1.388011   0.000000
    15  H    3.376162   3.916193   3.376898   2.151886   0.000000
    16  H    2.144836   3.424761   3.846342   3.417721   2.507207
    17  H    3.845158   3.425391   2.143390   1.083856   2.509134
    18  F    1.365587   2.364714   3.604202   4.127236   4.506658
    19  F    3.590101   2.351333   1.356595   2.361436   4.508056
    20  H    4.762633   4.281295   4.237162   4.713013   5.850100
    21  H    6.225970   5.512595   5.458026   6.126087   7.500932
    22  H    5.014769   4.069522   3.866633   4.676711   6.342205
    23  H    5.651991   4.876183   5.358090   6.434123   7.963164
    24  H    5.434806   5.054354   5.618190   6.442299   7.561331
    25  H    3.558237   3.502610   4.792116   5.821997   6.813764
    26  H    5.240544   5.386672   6.329608   7.047284   7.697059
    27  H    5.159570   5.498758   6.698747   7.477855   8.020764
    28  H    3.024624   3.768088   4.917831   5.433574   5.688102
    29  H    3.334428   2.138180   2.745330   4.091883   5.874255
    30  H    2.668906   2.135902   3.403264   4.580329   5.889165
    31  H    2.881334   2.645008   3.411683   4.215352   5.279240
    32  C    5.477645   5.120702   6.192000   7.330742   8.546332
    33  H    6.199377   5.818817   6.765034   7.856453   9.070332
    34  H    5.980692   5.784023   6.967653   8.086385   9.173963
    35  H    5.608318   5.011598   6.005275   7.257055   8.689227
    36  H    3.955631   2.778769   3.064999   4.327343   6.169763
                   16         17         18         19         20
    16  H    0.000000
    17  H    4.333311   0.000000
    18  F    2.581634   5.210728   0.000000
    19  F    5.202817   2.589562   4.713559   0.000000
    20  H    5.890614   5.104306   5.343889   4.353045   0.000000
    21  H    7.576842   6.399802   6.712318   5.187164   1.769583
    22  H    6.576443   4.950942   5.698124   3.448701   1.766228
    23  H    7.407293   6.996934   5.744581   5.131024   3.082488
    24  H    6.807736   7.081597   5.412092   5.759727   2.505608
    25  H    5.219155   6.799205   2.802561   5.325149   4.878281
    26  H    6.256130   7.900453   4.703021   6.870128   4.114606
    27  H    6.148542   8.454031   4.216305   7.361187   5.517116
    28  H    3.735430   6.456066   2.164071   5.891144   4.749297
    29  H    5.432623   4.784061   3.753513   2.608355   5.203096
    30  H    4.713422   5.514583   2.447677   3.848825   5.217106
    31  H    4.399235   5.053264   3.045498   3.979931   2.505085
    32  C    7.179804   8.181420   4.898716   6.364635   5.062800
    33  H    7.820814   8.644223   5.713160   6.864724   4.902248
    34  H    7.571805   8.994335   5.181999   7.229176   6.062230
    35  H    7.503783   8.050833   5.169867   5.980777   5.278016
    36  H    5.945366   4.882738   4.456306   2.681746   3.246186
                   21         22         23         24         25
    21  H    0.000000
    22  H    1.760867   0.000000
    23  H    2.499984   2.554722   0.000000
    24  H    2.484244   3.083160   1.756761   0.000000
    25  H    5.613018   4.966133   3.807488   3.736817   0.000000
    26  H    4.675562   5.017752   3.619873   2.276823   3.046377
    27  H    6.186107   6.195458   4.663935   3.778431   2.447244
    28  H    6.015728   5.566179   5.060962   4.180673   2.371263
    29  H    5.848021   4.308174   4.587035   5.441011   3.618911
    30  H    6.059064   4.830342   4.508307   4.940761   2.112487
    31  H    3.705640   3.014520   3.041785   2.556104   2.524853
    32  C    5.123977   4.966851   2.833030   3.061940   2.132967
    33  H    4.689856   4.902969   2.510587   2.582916   3.063759
    34  H    6.182543   6.046648   3.912558   3.999728   2.430653
    35  H    5.185466   4.804912   2.727134   3.543512   2.507470
    36  H    3.577374   2.132480   2.570815   3.548716   3.558668
                   26         27         28         29         30
    26  H    0.000000
    27  H    1.764575   0.000000
    28  H    2.820895   2.417032   0.000000
    29  H    6.059477   6.017912   5.012656   0.000000
    30  H    4.908975   4.517609   3.553621   1.754327   0.000000
    31  H    2.936386   3.646008   2.557124   3.678031   3.022146
    32  C    2.826543   2.697811   3.983420   4.721452   3.736912
    33  H    2.642617   3.017253   4.535809   5.509956   4.681752
    34  H    3.222943   2.515374   4.204701   5.363022   4.168600
    35  H    3.809837   3.718054   4.674739   4.173489   3.500008
    36  H    4.866764   5.460484   4.807508   2.299077   2.923118
                   31         32         33         34         35
    31  H    0.000000
    32  C    3.483403   0.000000
    33  H    3.823465   1.095373   0.000000
    34  H    4.305514   1.095156   1.766550   0.000000
    35  H    3.800382   1.093076   1.771151   1.772552   0.000000
    36  H    2.549625   3.911822   4.290351   4.887998   3.486091
                   36
    36  H    0.000000
 Stoichiometry    C13H19F2NO
 Framework group  C1[X(C13H19F2NO)]
 Deg. of freedom   102
 Full point group                 C1      NOp   1
 Largest Abelian subgroup         C1      NOp   1
 Largest concise Abelian subgroup C1      NOp   1
                         Standard orientation:                         
 ---------------------------------------------------------------------
 Center     Atomic      Atomic             Coordinates (Angstroms)
 Number     Number       Type             X           Y           Z
 ---------------------------------------------------------------------
      1          6           0        1.168763    2.467278    1.819922
      2          6           0        2.132373    1.644519    0.953943
      3          6           0        1.438244    0.572671    0.094463
      4          6           0        2.405595   -0.512397   -0.447568
      5          6           0        2.789736   -1.538947    0.629430
      6          8           0        1.669599   -2.168978    1.248601
      7          7           0        0.745265    1.232431   -1.031328
      8          6           0       -0.331361    0.464984   -1.669775
      9          6           0       -3.543473   -0.826743    0.969536
     10          6           0       -2.596740   -1.755968    0.537525
     11          6           0       -1.584116   -1.317878   -0.306438
     12          6           0       -1.453787   -0.004310   -0.754891
     13          6           0       -2.424978    0.878640   -0.276994
     14          6           0       -3.464662    0.507583    0.564403
     15          1           0       -4.345015   -1.142464    1.628798
     16          1           0       -2.631705   -2.795404    0.842386
     17          1           0       -4.185120    1.249638    0.888501
     18          9           0       -0.658206   -2.230951   -0.723351
     19          9           0       -2.332061    2.175015   -0.665744
     20          1           0        0.618949    1.823578    2.514984
     21          1           0        1.713681    3.210016    2.411174
     22          1           0        0.429078    3.012891    1.223069
     23          1           0        2.705527    2.312142    0.299306
     24          1           0        2.858747    1.155203    1.612404
     25          1           0        1.849328   -1.077375   -1.209028
     26          1           0        3.349362   -1.061624    1.442399
     27          1           0        3.459945   -2.288808    0.179262
     28          1           0        1.077981   -2.473652    0.545487
     29          1           0       -0.761142    1.100584   -2.449372
     30          1           0        0.092838   -0.406550   -2.172012
     31          1           0        0.721781    0.050396    0.748433
     32          6           0        3.652427    0.059648   -1.134469
     33          1           0        4.329972    0.537714   -0.418768
     34          1           0        4.215263   -0.729484   -1.644227
     35          1           0        3.362569    0.806848   -1.877767
     36          1           0        0.348579    2.110108   -0.707209
 ---------------------------------------------------------------------
 Rotational constants (GHZ):      0.6324032      0.3463586      0.2825510
 Standard basis: 6-311G(d) (5D, 7F)
 There are   380 symmetry adapted cartesian basis functions of A   symmetry.
 There are   363 symmetry adapted basis functions of A   symmetry.
   363 basis functions,   639 primitive gaussians,   380 cartesian basis functions
    65 alpha electrons       65 beta electrons
       nuclear repulsion energy      1316.3497646798 Hartrees.
 NAtoms=   36 NActive=   36 NUniq=   36 SFac= 1.00D+00 NAtFMM=   60 NAOKFM=F Big=F
 Integral buffers will be    131072 words long.
 Raffenetti 2 integral format.
 Two-electron integral symmetry is turned on.
 ------------------------------------------------------------------------------
 Polarizable Continuum Model (PCM)
 =================================
 Model                : PCM (using non-symmetric T matrix).
 Atomic radii         : UFF (Universal Force Field).
 Polarization charges : Total charges.
 Charge compensation  : None.
 Solution method      : On-the-fly selection.
 Cavity type          : Scaled VdW (van der Waals Surface) (Alpha=1.100).
 Cavity algorithm     : GePol (No added spheres)
                        Default sphere list used, NSphG=   36.
                        Lebedev-Laikov grids with approx.  5.0 points / Ang**2.
                        Smoothing algorithm: Karplus/York (Gamma=1.0000).
                        Polarization charges: spherical gaussians, with
                                              point-specific exponents (IZeta= 3).
                        Self-potential: point-specific (ISelfS= 7).
                        Self-field    : sphere-specific E.n sum rule (ISelfD= 2).
 Solvent              : Chloroform, Eps=   4.711300 Eps(inf)=   2.090627
 ------------------------------------------------------------------------------
 One-electron integrals computed using PRISM.
 NBasis=   363 RedAO= T EigKep=  2.24D-04  NBF=   363
 NBsUse=   363 1.00D-06 EigRej= -1.00D+00 NBFU=   363
 ExpMin= 1.03D-01 ExpMax= 1.14D+04 ExpMxC= 1.72D+03 IAcc=1 IRadAn=         1 AccDes= 0.00D+00
 Harris functional with IExCor=  908 and IRadAn=       1 diagonalized for initial guess.
 HarFok:  IExCor=  908 AccDes= 0.00D+00 IRadAn=         1 IDoV= 1 UseB2=F ITyADJ=14
 ICtDFT=  3500011 ScaDFX=  1.000000  1.000000  1.000000  1.000000
 FoFCou: FMM=F IPFlag=           0 FMFlag=      100000 FMFlg1=           0
         NFxFlg=           0 DoJE=T BraDBF=F KetDBF=T FulRan=T
         wScrn=  0.000000 ICntrl=     500 IOpCl=  0 I1Cent=   200000004 NGrid=           0
         NMat0=    1 NMatS0=      1 NMatT0=    0 NMatD0=    1 NMtDS0=    0 NMtDT0=    0
 Petite list used in FoFCou.
 Requested convergence on RMS density matrix=1.00D-08 within 128 cycles.
 Requested convergence on MAX density matrix=1.00D-06.
 Requested convergence on             energy=1.00D-06.
 No special actions if energy rises.
 Inv3:  Mode=1 IEnd=    17875443.
 Iteration    1 A*A^-1 deviation from unit magnitude is 7.33D-15 for   1678.
 Iteration    1 A*A^-1 deviation from orthogonality  is 7.33D-15 for   2051    778.
 Iteration    1 A^-1*A deviation from unit magnitude is 8.44D-15 for   1360.
 Iteration    1 A^-1*A deviation from orthogonality  is 1.15D-11 for   2328   2311.
 Error on total polarization charges =  0.00934
 SCF Done:  E(RmPW1PW91) =  -836.464416474     A.U. after   12 cycles
            NFock= 12  Conv=0.74D-08     -V/T= 2.0039
 DoSCS=F DFT=T ScalE2(SS,OS)=  1.000000  1.000000
 Range of M.O.s used for correlation:     1   363
 NBasis=   363 NAE=    65 NBE=    65 NFC=     0 NFV=     0
 NROrb=    363 NOA=    65 NOB=    65 NVA=   298 NVB=   298

 **** Warning!!: The largest alpha MO coefficient is  0.11598998D+02

 NEqPCM:  Using equilibrium solvation (IEInf=0, Eps=   4.7113, EpsInf=   2.0906)
          Differentiating once with respect to magnetic field using GIAOs.
          Electric field/nuclear overlap derivatives assumed to be zero.
 FoFJK:  IHMeth= 1 ICntrl=    6127 DoSepK=F KAlg= 0 I1Cent=   0 FoldK=F
 IRaf=         1 NMat=   1 IRICut=       1 DoRegI=T DoRafI=F ISym2E= 0.
          There are     3 degrees of freedom in the 1st order CPHF.  IDoFFX=0 NUNeed=     3.
      3 vectors produced by pass  0 Test12= 6.46D-13 3.33D-08 XBig12= 4.05D+01 1.97D+00.
 AX will form     3 AO Fock derivatives at one time.
      3 vectors produced by pass  1 Test12= 6.46D-13 3.33D-08 XBig12= 1.24D-01 1.94D-01.
      3 vectors produced by pass  2 Test12= 6.46D-13 3.33D-08 XBig12= 6.15D-04 8.12D-03.
      3 vectors produced by pass  3 Test12= 6.46D-13 3.33D-08 XBig12= 1.29D-06 2.07D-04.
      3 vectors produced by pass  4 Test12= 6.46D-13 3.33D-08 XBig12= 3.18D-09 1.18D-05.
      3 vectors produced by pass  5 Test12= 6.46D-13 3.33D-08 XBig12= 1.35D-11 7.45D-07.
      2 vectors produced by pass  6 Test12= 6.46D-13 3.33D-08 XBig12= 3.88D-14 4.33D-08.
 InvSVY:  IOpt=1 It=  1 EMax= 8.88D-16
 Solved reduced A of dimension    20 with     3 vectors.
 Calculating GIAO nuclear magnetic shielding tensors.
 SCF GIAO Magnetic shielding tensor (ppm):
      1  C    Isotropic =   175.5364   Anisotropy =    22.2918
   XX=   177.1842   YX=    -2.6688   ZX=   -13.3437
   XY=     0.9891   YY=   175.4931   ZY=     9.6063
   XZ=    -9.4462   YZ=     8.8043   ZZ=   173.9318
   Eigenvalues:   160.8745   175.3371   190.3976
      2  C    Isotropic =   164.5245   Anisotropy =    16.1229
   XX=   165.8281   YX=     1.6735   ZX=     0.0295
   XY=     8.0503   YY=   163.0118   ZY=     8.2044
   XZ=     7.2066   YZ=     6.9732   ZZ=   164.7335
   Eigenvalues:   156.0382   162.2622   175.2731
      3  C    Isotropic =   132.4035   Anisotropy =    20.8495
   XX=   130.2804   YX=    -4.9640   ZX=    10.3228
   XY=    -8.5696   YY=   126.3747   ZY=    -1.4915
   XZ=     8.5387   YZ=     5.7892   ZZ=   140.5554
   Eigenvalues:   118.5184   132.3890   146.3032
      4  C    Isotropic =   148.6007   Anisotropy =    17.0065
   XX=   147.1985   YX=    -7.6516   ZX=    -2.9110
   XY=     3.6211   YY=   150.8529   ZY=   -12.2790
   XZ=    -5.6345   YZ=    -8.4926   ZZ=   147.7508
   Eigenvalues:   136.7955   149.0683   159.9384
      5  C    Isotropic =   120.3235   Anisotropy =    66.0708
   XX=   137.9688   YX=    16.0573   ZX=   -16.6363
   XY=    21.2146   YY=   116.3680   ZY=   -23.8975
   XZ=   -23.4873   YZ=   -24.7435   ZZ=   106.6337
   Eigenvalues:    86.3269   110.2729   164.3707
      6  O    Isotropic =   301.0941   Anisotropy =    89.5898
   XX=   299.8453   YX=    25.8956   ZX=    32.8678
   XY=    24.6097   YY=   286.0990   ZY=    -7.3034
   XZ=    61.3931   YZ=    10.8468   ZZ=   317.3379
   Eigenvalues:   250.4509   292.0107   360.8207
      7  N    Isotropic =   205.1800   Anisotropy =    48.8734
   XX=   187.6078   YX=    20.4857   ZX=     8.4720
   XY=     7.8398   YY=   232.3681   ZY=     1.9295
   XZ=    25.2255   YZ=     2.8328   ZZ=   195.5641
   Eigenvalues:   172.6362   205.1416   237.7623
      8  C    Isotropic =   148.5895   Anisotropy =    47.2717
   XX=   160.0533   YX=    26.1217   ZX=     7.9312
   XY=    24.8129   YY=   129.6626   ZY=     5.8256
   XZ=    11.0475   YZ=     7.6946   ZZ=   156.0526
   Eigenvalues:   115.1650   150.4995   180.1040
      9  C    Isotropic =    53.8968   Anisotropy =   188.8005
   XX=    35.9027   YX=    -0.1046   ZX=   104.0202
   XY=    -0.5147   YY=    31.4581   ZY=    39.8013
   XZ=   103.7104   YZ=    39.3625   ZZ=    94.3295
   Eigenvalues:   -50.3162    32.2427   179.7638
     10  C    Isotropic =    72.8113   Anisotropy =   146.0112
   XX=    96.5812   YX=    14.3494   ZX=    49.9577
   XY=     9.0243   YY=    -0.2418   ZY=    39.5649
   XZ=    52.4934   YZ=    35.5558   ZZ=   122.0945
   Eigenvalues:   -10.9346    59.2165   170.1521
     11  C    Isotropic =    18.0185   Anisotropy =    93.5673
   XX=     5.0557   YX=    54.2222   ZX=    39.5915
   XY=    51.1186   YY=    -4.4303   ZY=   -12.5968
   XZ=    41.1093   YZ=   -11.7507   ZZ=    53.4303
   Eigenvalues:   -64.1140    37.7729    80.3968
     12  C    Isotropic =    64.7116   Anisotropy =   141.8121
   XX=    62.1209   YX=    16.5925   ZX=    66.1550
   XY=    18.5246   YY=    28.3791   ZY=    28.4595
   XZ=    61.2323   YZ=    32.6280   ZZ=   103.6347
   Eigenvalues:    13.5122    21.3696   159.2530
     13  C    Isotropic =    17.6079   Anisotropy =    96.3574
   XX=    51.1478   YX=    -4.5574   ZX=    24.7085
   XY=     2.3344   YY=   -55.7089   ZY=    32.5155
   XZ=    21.3724   YZ=    31.9476   ZZ=    57.3847
   Eigenvalues:   -64.6838    35.6613    81.8462
     14  C    Isotropic =    71.4762   Anisotropy =   148.1879
   XX=    66.2447   YX=    42.3179   ZX=    64.1845
   XY=    49.3681   YY=    25.8407   ZY=     2.3694
   XZ=    63.8899   YZ=     6.1903   ZZ=   122.3433
   Eigenvalues:   -13.2681    57.4285   170.2681
     15  H    Isotropic =    24.6357   Anisotropy =     3.0836
   XX=    25.0963   YX=    -0.7215   ZX=    -2.2465
   XY=    -0.7543   YY=    26.2861   ZY=    -0.7781
   XZ=    -2.1949   YZ=    -0.7516   ZZ=    22.5247
   Eigenvalues:    21.0412    26.1745    26.6914
     16  H    Isotropic =    25.1739   Anisotropy =     5.3254
   XX=    26.7807   YX=     0.3708   ZX=    -3.0951
   XY=     0.2574   YY=    25.5312   ZY=    -0.9723
   XZ=    -3.0328   YZ=    -0.9695   ZZ=    23.2099
   Eigenvalues:    21.3350    25.4626    28.7242
     17  H    Isotropic =    25.0844   Anisotropy =     4.7932
   XX=    26.3165   YX=     0.0303   ZX=    -2.8198
   XY=     0.2774   YY=    25.5121   ZY=    -1.4093
   XZ=    -2.7791   YZ=    -1.2375   ZZ=    23.4245
   Eigenvalues:    21.4417    25.5316    28.2798
     18  F    Isotropic =   301.3595   Anisotropy =   111.2823
   XX=   309.0420   YX=   -13.5091   ZX=    57.1054
   XY=   -19.5876   YY=   269.4338   ZY=    44.2268
   XZ=    46.0397   YZ=    45.1606   ZZ=   325.6026
   Eigenvalues:   223.8156   304.7151   375.5477
     19  F    Isotropic =   295.7084   Anisotropy =   131.0002
   XX=   264.4628   YX=    -0.8224   ZX=    80.6972
   XY=    24.1469   YY=   289.1336   ZY=     0.8595
   XZ=    72.2310   YZ=    -7.1526   ZZ=   333.5288
   Eigenvalues:   213.3472   290.7362   383.0419
     20  H    Isotropic =    31.7175   Anisotropy =     7.5961
   XX=    30.9299   YX=     2.2162   ZX=    -3.9143
   XY=     1.0122   YY=    29.7325   ZY=    -0.0323
   XZ=    -3.1929   YZ=     0.1165   ZZ=    34.4903
   Eigenvalues:    27.7273    30.6438    36.7816
     21  H    Isotropic =    31.1118   Anisotropy =    12.0627
   XX=    29.1384   YX=     1.6981   ZX=     1.0627
   XY=     2.4093   YY=    33.0793   ZY=     6.2948
   XZ=     1.8767   YZ=     6.4005   ZZ=    31.1177
   Eigenvalues:    25.6592    28.5226    39.1536
     22  H    Isotropic =    31.3844   Anisotropy =     6.7649
   XX=    31.9323   YX=    -3.3536   ZX=     2.4177
   XY=    -4.0638   YY=    32.4086   ZY=     1.2637
   XZ=     1.8671   YZ=     2.2214   ZZ=    29.8122
   Eigenvalues:    26.2944    31.9644    35.8943
     23  H    Isotropic =    30.9748   Anisotropy =     6.9476
   XX=    31.9561   YX=     3.3117   ZX=    -3.7670
   XY=     2.9598   YY=    32.1417   ZY=     0.8539
   XZ=    -2.7006   YZ=     1.2269   ZZ=    28.8265
   Eigenvalues:    25.7003    31.6175    35.6065
     24  H    Isotropic =    30.7355   Anisotropy =     7.3410
   XX=    31.5336   YX=    -2.9696   ZX=     4.0301
   XY=    -3.0012   YY=    29.6350   ZY=     2.2027
   XZ=     4.4503   YZ=     2.2215   ZZ=    31.0379
   Eigenvalues:    24.4425    32.1345    35.6295
     25  H    Isotropic =    30.0197   Anisotropy =     4.5532
   XX=    31.7908   YX=     0.5761   ZX=     0.3870
   XY=     0.6687   YY=    30.1588   ZY=     2.5587
   XZ=     2.0055   YZ=     2.5495   ZZ=    28.1096
   Eigenvalues:    26.3034    30.7005    33.0552
     26  H    Isotropic =    28.7862   Anisotropy =     5.2543
   XX=    30.6388   YX=     1.2481   ZX=     3.1719
   XY=     1.1116   YY=    27.7709   ZY=    -0.7512
   XZ=     2.1538   YZ=    -2.2555   ZZ=    27.9487
   Eigenvalues:    25.0044    29.0650    32.2890
     27  H    Isotropic =    28.3033   Anisotropy =     7.4007
   XX=    30.7555   YX=    -3.8177   ZX=    -3.2376
   XY=    -1.6562   YY=    29.7440   ZY=    -2.3459
   XZ=    -2.7125   YZ=    -1.0568   ZZ=    24.4106
   Eigenvalues:    22.2867    29.3862    33.2371
     28  H    Isotropic =    31.7785   Anisotropy =    17.1899
   XX=    36.0462   YX=     5.0079   ZX=     7.4391
   XY=     5.8919   YY=    28.1153   ZY=     1.1021
   XZ=     7.8866   YZ=     0.3811   ZZ=    31.1738
   Eigenvalues:    23.5046    28.5924    43.2384
     29  H    Isotropic =    28.1616   Anisotropy =     8.4581
   XX=    28.2440   YX=    -0.8273   ZX=     2.9003
   XY=    -0.2030   YY=    24.9058   ZY=    -2.0946
   XZ=     1.7872   YZ=    -4.6997   ZZ=    31.3349
   Eigenvalues:    23.3951    27.2893    33.8003
     30  H    Isotropic =    28.1845   Anisotropy =     5.2516
   XX=    27.4276   YX=     1.2085   ZX=    -0.0125
   XY=     0.2636   YY=    28.6790   ZY=     2.6458
   XZ=    -1.7269   YZ=     3.5924   ZZ=    28.4468
   Eigenvalues:    24.9249    27.9430    31.6855
     31  H    Isotropic =    29.3805   Anisotropy =     3.3112
   XX=    31.2968   YX=    -0.2452   ZX=    -0.7452
   XY=     1.6027   YY=    29.9092   ZY=    -1.0935
   XZ=     1.3947   YZ=    -1.7083   ZZ=    26.9355
   Eigenvalues:    26.3175    30.2361    31.5880
     32  C    Isotropic =   177.6082   Anisotropy =    20.5393
   XX=   183.0308   YX=     7.8560   ZX=   -10.8075
   XY=     3.9759   YY=   176.3447   ZY=    -1.6525
   XZ=    -7.9595   YZ=    -2.5041   ZZ=   173.4493
   Eigenvalues:   167.4609   174.0628   191.3011
     33  H    Isotropic =    31.7123   Anisotropy =     8.6450
   XX=    36.0308   YX=     3.1016   ZX=     0.9119
   XY=     2.7123   YY=    29.5869   ZY=     2.4909
   XZ=     0.7646   YZ=     1.9445   ZZ=    29.5194
   Eigenvalues:    27.0567    30.6046    37.4757
     34  H    Isotropic =    31.5996   Anisotropy =    10.9566
   XX=    33.1990   YX=    -3.1401   ZX=    -5.1049
   XY=    -2.4397   YY=    30.8765   ZY=     2.6430
   XZ=    -4.6489   YZ=     2.9276   ZZ=    30.7233
   Eigenvalues:    26.8366    29.0582    38.9040
     35  H    Isotropic =    30.7750   Anisotropy =     8.0341
   XX=    30.5550   YX=     0.0326   ZX=    -3.0002
   XY=    -0.8257   YY=    29.6978   ZY=    -4.4822
   XZ=    -1.8371   YZ=    -4.6431   ZZ=    32.0722
   Eigenvalues:    25.4980    30.6960    36.1310
     36  H    Isotropic =    30.9935   Anisotropy =    11.5948
   XX=    30.5544   YX=    -2.4045   ZX=     4.3793
   XY=    -4.7706   YY=    36.7723   ZY=     3.3847
   XZ=     4.1311   YZ=     4.3908   ZZ=    25.6538
   Eigenvalues:    21.4428    32.8143    38.7234
 End of Minotr F.D. properties file   721 does not exist.
 End of Minotr F.D. properties file   722 does not exist.
 End of Minotr F.D. properties file   788 does not exist.

 **********************************************************************

            Population analysis using the SCF density.

 **********************************************************************

 Orbital symmetries:
       Occupied  (A) (A) (A) (A) (A) (A) (A) (A) (A) (A) (A) (A)
                 (A) (A) (A) (A) (A) (A) (A) (A) (A) (A) (A) (A)
                 (A) (A) (A) (A) (A) (A) (A) (A) (A) (A) (A) (A)
                 (A) (A) (A) (A) (A) (A) (A) (A) (A) (A) (A) (A)
                 (A) (A) (A) (A) (A) (A) (A) (A) (A) (A) (A) (A)
                 (A) (A) (A) (A) (A)
       Virtual   (A) (A) (A) (A) (A) (A) (A) (A) (A) (A) (A) (A)
                 (A) (A) (A) (A) (A) (A) (A) (A) (A) (A) (A) (A)
                 (A) (A) (A) (A) (A) (A) (A) (A) (A) (A) (A) (A)
                 (A) (A) (A) (A) (A) (A) (A) (A) (A) (A) (A) (A)
                 (A) (A) (A) (A) (A) (A) (A) (A) (A) (A) (A) (A)
                 (A) (A) (A) (A) (A) (A) (A) (A) (A) (A) (A) (A)
                 (A) (A) (A) (A) (A) (A) (A) (A) (A) (A) (A) (A)
                 (A) (A) (A) (A) (A) (A) (A) (A) (A) (A) (A) (A)
                 (A) (A) (A) (A) (A) (A) (A) (A) (A) (A) (A) (A)
                 (A) (A) (A) (A) (A) (A) (A) (A) (A) (A) (A) (A)
                 (A) (A) (A) (A) (A) (A) (A) (A) (A) (A) (A) (A)
                 (A) (A) (A) (A) (A) (A) (A) (A) (A) (A) (A) (A)
                 (A) (A) (A) (A) (A) (A) (A) (A) (A) (A) (A) (A)
                 (A) (A) (A) (A) (A) (A) (A) (A) (A) (A) (A) (A)
                 (A) (A) (A) (A) (A) (A) (A) (A) (A) (A) (A) (A)
                 (A) (A) (A) (A) (A) (A) (A) (A) (A) (A) (A) (A)
                 (A) (A) (A) (A) (A) (A) (A) (A) (A) (A) (A) (A)
                 (A) (A) (A) (A) (A) (A) (A) (A) (A) (A) (A) (A)
                 (A) (A) (A) (A) (A) (A) (A) (A) (A) (A) (A) (A)
                 (A) (A) (A) (A) (A) (A) (A) (A) (A) (A) (A) (A)
                 (A) (A) (A) (A) (A) (A) (A) (A) (A) (A) (A) (A)
                 (A) (A) (A) (A) (A) (A) (A) (A) (A) (A) (A) (A)
                 (A) (A) (A) (A) (A) (A) (A) (A) (A) (A) (A) (A)
                 (A) (A) (A) (A) (A) (A) (A) (A) (A) (A) (A) (A)
                 (A) (A) (A) (A) (A) (A) (A) (A) (A) (A)
 The electronic state is 1-A.
 Alpha  occ. eigenvalues --  -24.80757 -24.80149 -19.20462 -14.38032 -10.34019
 Alpha  occ. eigenvalues --  -10.33871 -10.27124 -10.27091 -10.26569 -10.26313
 Alpha  occ. eigenvalues --  -10.25664 -10.25589 -10.25553 -10.23455 -10.22767
 Alpha  occ. eigenvalues --  -10.22024 -10.21588  -1.27300  -1.26996  -1.04525
 Alpha  occ. eigenvalues --   -0.94099  -0.90755  -0.82914  -0.80274  -0.79023
 Alpha  occ. eigenvalues --   -0.78275  -0.71712  -0.69317  -0.67910  -0.66089
 Alpha  occ. eigenvalues --   -0.64006  -0.63118  -0.59088  -0.56924  -0.55566
 Alpha  occ. eigenvalues --   -0.52752  -0.51780  -0.51541  -0.50671  -0.50127
 Alpha  occ. eigenvalues --   -0.49321  -0.48530  -0.47807  -0.46868  -0.45613
 Alpha  occ. eigenvalues --   -0.44232  -0.43324  -0.42501  -0.41833  -0.41602
 Alpha  occ. eigenvalues --   -0.40748  -0.40023  -0.39256  -0.38314  -0.38150
 Alpha  occ. eigenvalues --   -0.38031  -0.36889  -0.35342  -0.33895  -0.32985
 Alpha  occ. eigenvalues --   -0.32107  -0.28486  -0.27875  -0.27272  -0.24145
 Alpha virt. eigenvalues --   -0.02449  -0.01193   0.04965   0.05941   0.06370
 Alpha virt. eigenvalues --    0.06851   0.07701   0.10018   0.10326   0.10634
 Alpha virt. eigenvalues --    0.11364   0.11765   0.12588   0.12841   0.13240
 Alpha virt. eigenvalues --    0.13581   0.14549   0.15035   0.15603   0.16964
 Alpha virt. eigenvalues --    0.17147   0.17411   0.18407   0.19945   0.20964
 Alpha virt. eigenvalues --    0.21611   0.22817   0.23288   0.23785   0.24457
 Alpha virt. eigenvalues --    0.25311   0.25507   0.26895   0.27546   0.28856
 Alpha virt. eigenvalues --    0.31583   0.32817   0.33442   0.34223   0.34971
 Alpha virt. eigenvalues --    0.35511   0.36950   0.38012   0.38355   0.39271
 Alpha virt. eigenvalues --    0.40182   0.40716   0.41093   0.41825   0.42374
 Alpha virt. eigenvalues --    0.43423   0.44028   0.44850   0.45347   0.45834
 Alpha virt. eigenvalues --    0.47092   0.48559   0.49791   0.50284   0.52405
 Alpha virt. eigenvalues --    0.52463   0.53711   0.54490   0.54748   0.55919
 Alpha virt. eigenvalues --    0.56993   0.57304   0.58118   0.58901   0.59174
 Alpha virt. eigenvalues --    0.59985   0.60205   0.61202   0.61451   0.62531
 Alpha virt. eigenvalues --    0.62915   0.63185   0.63483   0.63759   0.64635
 Alpha virt. eigenvalues --    0.65379   0.65869   0.66415   0.66498   0.67424
 Alpha virt. eigenvalues --    0.68275   0.69566   0.70536   0.71460   0.72244
 Alpha virt. eigenvalues --    0.72533   0.73313   0.74894   0.76055   0.77094
 Alpha virt. eigenvalues --    0.78465   0.80436   0.81160   0.82217   0.85498
 Alpha virt. eigenvalues --    0.87565   0.88963   0.90252   0.91353   0.93703
 Alpha virt. eigenvalues --    0.95662   0.97474   0.97701   0.98951   0.99839
 Alpha virt. eigenvalues --    1.00648   1.01938   1.03508   1.05539   1.08069
 Alpha virt. eigenvalues --    1.09166   1.10452   1.11763   1.13027   1.15288
 Alpha virt. eigenvalues --    1.17006   1.18817   1.20948   1.22627   1.23302
 Alpha virt. eigenvalues --    1.25989   1.28588   1.29066   1.30882   1.32542
 Alpha virt. eigenvalues --    1.33866   1.35092   1.37678   1.39097   1.42912
 Alpha virt. eigenvalues --    1.44832   1.46160   1.47218   1.48354   1.49049
 Alpha virt. eigenvalues --    1.51655   1.52374   1.53044   1.54516   1.55405
 Alpha virt. eigenvalues --    1.55605   1.57041   1.59046   1.59651   1.62278
 Alpha virt. eigenvalues --    1.63740   1.64616   1.64882   1.65724   1.67216
 Alpha virt. eigenvalues --    1.67908   1.68582   1.70205   1.72976   1.73313
 Alpha virt. eigenvalues --    1.74227   1.75923   1.78895   1.79391   1.80790
 Alpha virt. eigenvalues --    1.82551   1.83494   1.84824   1.86948   1.89647
 Alpha virt. eigenvalues --    1.89967   1.90806   1.92709   1.95539   1.96307
 Alpha virt. eigenvalues --    1.98525   1.98680   2.00576   2.01022   2.03537
 Alpha virt. eigenvalues --    2.06034   2.15917   2.16311   2.18314   2.19747
 Alpha virt. eigenvalues --    2.20753   2.23481   2.24123   2.27646   2.28014
 Alpha virt. eigenvalues --    2.30387   2.33020   2.35090   2.37544   2.40394
 Alpha virt. eigenvalues --    2.41943   2.42695   2.43562   2.44671   2.45399
 Alpha virt. eigenvalues --    2.48684   2.50336   2.50989   2.51607   2.53724
 Alpha virt. eigenvalues --    2.55927   2.56821   2.60161   2.63279   2.66489
 Alpha virt. eigenvalues --    2.67166   2.68482   2.70243   2.71650   2.75171
 Alpha virt. eigenvalues --    2.77464   2.83350   2.84443   2.86006   2.89547
 Alpha virt. eigenvalues --    2.92468   2.95862   2.97728   3.00374   3.04237
 Alpha virt. eigenvalues --    3.04898   3.06274   3.07772   3.08965   3.12799
 Alpha virt. eigenvalues --    3.15195   3.15369   3.17369   3.20963   3.21411
 Alpha virt. eigenvalues --    3.22926   3.24879   3.28182   3.28732   3.29464
 Alpha virt. eigenvalues --    3.30142   3.32544   3.36159   3.37569   3.39408
 Alpha virt. eigenvalues --    3.44738   3.46842   3.51228   3.59492   3.64397
 Alpha virt. eigenvalues --    3.73295   3.78013   3.79531   3.79990   3.81053
 Alpha virt. eigenvalues --    3.84996   3.86734   3.95848   3.97200   3.97496
 Alpha virt. eigenvalues --    3.98772   4.04767   4.08466   4.09525   4.10637
 Alpha virt. eigenvalues --    4.16486   4.19859   4.43805   4.74832   4.76318
 Alpha virt. eigenvalues --    4.77520   4.80626   4.96539   5.06425   5.42176
 Alpha virt. eigenvalues --    6.13993   6.19556   6.30130   6.32826   6.55485
 Alpha virt. eigenvalues --    6.56862  23.28831  23.46509  23.58723  23.70039
 Alpha virt. eigenvalues --   23.72009  23.78801  23.83662  23.84427  23.86071
 Alpha virt. eigenvalues --   23.91043  24.10091  24.10706  24.19732  35.58933
 Alpha virt. eigenvalues --   49.96622  66.89494  66.90006
          Condensed to atoms (all electrons):
               1          2          3          4          5          6
     1  C    5.341544   0.311954  -0.070509   0.008091  -0.000317  -0.000065
     2  C    0.311954   5.345323   0.304638  -0.049749  -0.004148   0.000302
     3  C   -0.070509   0.304638   5.422388   0.254305  -0.070523  -0.014916
     4  C    0.008091  -0.049749   0.254305   5.511860   0.334020  -0.038213
     5  C   -0.000317  -0.004148  -0.070523   0.334020   5.074892   0.243345
     6  O   -0.000065   0.000302  -0.014916  -0.038213   0.243345   8.173757
     7  N   -0.001264  -0.051749   0.252980  -0.058951   0.004600   0.000184
     8  C   -0.000334   0.007927  -0.085882  -0.004980  -0.000290  -0.000103
     9  C   -0.000013   0.000003   0.000148  -0.000012   0.000003  -0.000021
    10  C   -0.000001   0.000000  -0.000690   0.000037  -0.000012  -0.000003
    11  C   -0.000038   0.000221  -0.001621   0.000084   0.000026   0.003102
    12  C    0.000516  -0.000109  -0.010453  -0.002951   0.000658  -0.000345
    13  C    0.000178  -0.000098   0.000226   0.000155   0.000010  -0.000030
    14  C    0.000029  -0.000016  -0.000137   0.000021  -0.000002   0.000003
    15  H    0.000000   0.000000   0.000000   0.000000   0.000000  -0.000001
    16  H    0.000001  -0.000001  -0.000023   0.000006  -0.000015   0.000116
    17  H    0.000007  -0.000001   0.000002   0.000000   0.000000   0.000000
    18  F    0.000000   0.000015   0.000804   0.000725  -0.000915  -0.003217
    19  F   -0.000171  -0.000040  -0.000172  -0.000001   0.000000   0.000000
    20  H    0.386005  -0.039989  -0.003473  -0.000189   0.000188  -0.000223
    21  H    0.393312  -0.037153   0.007691  -0.000168  -0.000016   0.000000
    22  H    0.383856  -0.038746  -0.005674   0.000109  -0.000031  -0.000001
    23  H   -0.045454   0.392753  -0.044499  -0.010164   0.000907  -0.000081
    24  H   -0.037932   0.399070  -0.050754  -0.001825   0.000818   0.000176
    25  H   -0.000311   0.007762  -0.070746   0.411865  -0.051802   0.001056
    26  H   -0.000158   0.004322  -0.013981  -0.032902   0.376564  -0.031411
    27  H    0.000020  -0.000377   0.010591  -0.052707   0.395216  -0.032258
    28  H    0.000005   0.000123  -0.000277   0.003566  -0.055804   0.256645
    29  H    0.000018  -0.000215   0.007279  -0.000096   0.000016  -0.000004
    30  H    0.000000  -0.000269  -0.008283   0.002707  -0.000288  -0.000134
    31  H   -0.011657  -0.039178   0.401616  -0.089964  -0.007203   0.032705
    32  C   -0.000062  -0.014008  -0.059306   0.253721  -0.070910   0.005378
    33  H    0.000146   0.004074  -0.010849  -0.035627  -0.005282  -0.000022
    34  H    0.000014  -0.000028   0.008737  -0.035734  -0.003333  -0.000078
    35  H   -0.000218  -0.002743  -0.006122  -0.036884   0.007013  -0.000190
    36  H    0.005225  -0.012009  -0.061913   0.009072  -0.000407   0.000027
               7          8          9         10         11         12
     1  C   -0.001264  -0.000334  -0.000013  -0.000001  -0.000038   0.000516
     2  C   -0.051749   0.007927   0.000003   0.000000   0.000221  -0.000109
     3  C    0.252980  -0.085882   0.000148  -0.000690  -0.001621  -0.010453
     4  C   -0.058951  -0.004980  -0.000012   0.000037   0.000084  -0.002951
     5  C    0.004600  -0.000290   0.000003  -0.000012   0.000026   0.000658
     6  O    0.000184  -0.000103  -0.000021  -0.000003   0.003102  -0.000345
     7  N    6.906335   0.328160  -0.000074   0.000125  -0.002030  -0.090481
     8  C    0.328160   5.338898  -0.001433   0.007624  -0.068676   0.183156
     9  C   -0.000074  -0.001433   5.079148   0.431762   0.000254  -0.056163
    10  C    0.000125   0.007624   0.431762   5.161922   0.471283  -0.035303
    11  C   -0.002030  -0.068676   0.000254   0.471283   4.769316   0.327029
    12  C   -0.090481   0.183156  -0.056163  -0.035303   0.327029   5.871095
    13  C    0.004259  -0.071016  -0.004710  -0.052958   0.044693   0.249515
    14  C    0.000583   0.008390   0.431003  -0.041720  -0.062521  -0.037858
    15  H   -0.000001   0.000026   0.403136  -0.040312   0.006181  -0.001671
    16  H    0.000016  -0.000163  -0.040244   0.395110  -0.049131   0.011249
    17  H    0.000033  -0.000171  -0.041095   0.007285  -0.001997   0.012646
    18  F   -0.000082  -0.006048   0.005225  -0.048522   0.264906  -0.066817
    19  F   -0.002301   0.004677   0.005361  -0.000535   0.005424  -0.085071
    20  H   -0.000060  -0.000114   0.000023  -0.000009  -0.000037   0.000267
    21  H   -0.000012   0.000043   0.000000   0.000000   0.000000  -0.000008
    22  H    0.001566  -0.000279  -0.000006   0.000012  -0.000015  -0.000391
    23  H    0.003661  -0.000139   0.000000  -0.000001  -0.000009   0.000336
    24  H    0.004966  -0.000532   0.000000   0.000000   0.000022   0.000062
    25  H   -0.005165   0.002636  -0.000014   0.000140   0.000415  -0.002379
    26  H   -0.000034  -0.000020   0.000000   0.000001   0.000010   0.000011
    27  H   -0.000187  -0.000002   0.000000  -0.000001   0.000053  -0.000023
    28  H   -0.000135   0.000256   0.000109  -0.000371  -0.003860   0.000233
    29  H   -0.030786   0.409309  -0.000089  -0.000037   0.004216  -0.050490
    30  H   -0.034195   0.411565  -0.000267   0.001030  -0.012235  -0.071366
    31  H   -0.045900  -0.013012  -0.000214  -0.000125   0.001326   0.006878
    32  C   -0.009740   0.000228   0.000000   0.000001   0.000056  -0.000101
    33  H    0.000022  -0.000007   0.000000   0.000000   0.000001  -0.000008
    34  H   -0.000481  -0.000030   0.000000   0.000000   0.000001  -0.000010
    35  H    0.019455  -0.000056   0.000000  -0.000001  -0.000012   0.000482
    36  H    0.344353  -0.050221  -0.000088   0.000116  -0.000945  -0.009241
              13         14         15         16         17         18
     1  C    0.000178   0.000029   0.000000   0.000001   0.000007   0.000000
     2  C   -0.000098  -0.000016   0.000000  -0.000001  -0.000001   0.000015
     3  C    0.000226  -0.000137   0.000000  -0.000023   0.000002   0.000804
     4  C    0.000155   0.000021   0.000000   0.000006   0.000000   0.000725
     5  C    0.000010  -0.000002   0.000000  -0.000015   0.000000  -0.000915
     6  O   -0.000030   0.000003  -0.000001   0.000116   0.000000  -0.003217
     7  N    0.004259   0.000583  -0.000001   0.000016   0.000033  -0.000082
     8  C   -0.071016   0.008390   0.000026  -0.000163  -0.000171  -0.006048
     9  C   -0.004710   0.431003   0.403136  -0.040244  -0.041095   0.005225
    10  C   -0.052958  -0.041720  -0.040312   0.395110   0.007285  -0.048522
    11  C    0.044693  -0.062521   0.006181  -0.049131  -0.001997   0.264906
    12  C    0.249515  -0.037858  -0.001671   0.011249   0.012646  -0.066817
    13  C    4.750235   0.478132   0.006180  -0.001706  -0.052650   0.004949
    14  C    0.478132   5.177740  -0.040875   0.006933   0.396135  -0.000294
    15  H    0.006180  -0.040875   0.443994  -0.006344  -0.006458  -0.000084
    16  H   -0.001706   0.006933  -0.006344   0.442516  -0.000113   0.000349
    17  H   -0.052650   0.396135  -0.006458  -0.000113   0.445727   0.000005
    18  F    0.004949  -0.000294  -0.000084   0.000349   0.000005   9.087004
    19  F    0.311775  -0.053798  -0.000079   0.000003   0.001486  -0.000001
    20  H    0.000186   0.000127   0.000000   0.000000   0.000002  -0.000002
    21  H    0.000014   0.000001   0.000000   0.000000   0.000000   0.000000
    22  H   -0.000222  -0.000091   0.000000   0.000000   0.000023   0.000001
    23  H   -0.000033  -0.000002   0.000000   0.000000   0.000000   0.000000
    24  H    0.000000   0.000000   0.000000   0.000000   0.000000  -0.000001
    25  H    0.000008   0.000006   0.000000  -0.000010   0.000000   0.003787
    26  H   -0.000001   0.000000   0.000000  -0.000001   0.000000  -0.000031
    27  H   -0.000001   0.000000   0.000000   0.000002   0.000000  -0.000073
    28  H   -0.000038   0.000008   0.000001   0.000098  -0.000001   0.018187
    29  H   -0.009975   0.000377   0.000001   0.000011  -0.000015   0.000131
    30  H    0.007458   0.000267   0.000001   0.000002   0.000014   0.007349
    31  H   -0.001475  -0.000491   0.000003   0.000003  -0.000011   0.000701
    32  C   -0.000005   0.000000   0.000000   0.000000   0.000000   0.000065
    33  H    0.000000   0.000000   0.000000   0.000000   0.000000   0.000000
    34  H    0.000000   0.000000   0.000000   0.000000   0.000000  -0.000002
    35  H   -0.000009   0.000000   0.000000   0.000000   0.000000  -0.000004
    36  H    0.004288   0.000491   0.000001   0.000000  -0.000001  -0.000065
              19         20         21         22         23         24
     1  C   -0.000171   0.386005   0.393312   0.383856  -0.045454  -0.037932
     2  C   -0.000040  -0.039989  -0.037153  -0.038746   0.392753   0.399070
     3  C   -0.000172  -0.003473   0.007691  -0.005674  -0.044499  -0.050754
     4  C   -0.000001  -0.000189  -0.000168   0.000109  -0.010164  -0.001825
     5  C    0.000000   0.000188  -0.000016  -0.000031   0.000907   0.000818
     6  O    0.000000  -0.000223   0.000000  -0.000001  -0.000081   0.000176
     7  N   -0.002301  -0.000060  -0.000012   0.001566   0.003661   0.004966
     8  C    0.004677  -0.000114   0.000043  -0.000279  -0.000139  -0.000532
     9  C    0.005361   0.000023   0.000000  -0.000006   0.000000   0.000000
    10  C   -0.000535  -0.000009   0.000000   0.000012  -0.000001   0.000000
    11  C    0.005424  -0.000037   0.000000  -0.000015  -0.000009   0.000022
    12  C   -0.085071   0.000267  -0.000008  -0.000391   0.000336   0.000062
    13  C    0.311775   0.000186   0.000014  -0.000222  -0.000033   0.000000
    14  C   -0.053798   0.000127   0.000001  -0.000091  -0.000002   0.000000
    15  H   -0.000079   0.000000   0.000000   0.000000   0.000000   0.000000
    16  H    0.000003   0.000000   0.000000   0.000000   0.000000   0.000000
    17  H    0.001486   0.000002   0.000000   0.000023   0.000000   0.000000
    18  F   -0.000001  -0.000002   0.000000   0.000001   0.000000  -0.000001
    19  F    9.050600  -0.000072  -0.000004   0.001724  -0.000009  -0.000001
    20  H   -0.000072   0.477993  -0.026638  -0.029523   0.007256  -0.005375
    21  H   -0.000004  -0.026638   0.469784  -0.027342  -0.004303  -0.004837
    22  H    0.001724  -0.029523  -0.027342   0.489900  -0.005564   0.006948
    23  H   -0.000009   0.007256  -0.004303  -0.005564   0.492717  -0.029263
    24  H   -0.000001  -0.005375  -0.004837   0.006948  -0.029263   0.479390
    25  H   -0.000003  -0.000019   0.000019  -0.000002  -0.000454   0.000415
    26  H    0.000000   0.000126   0.000037  -0.000011   0.000105   0.004364
    27  H    0.000000  -0.000016  -0.000001   0.000002  -0.000098   0.000062
    28  H    0.000001   0.000033   0.000000  -0.000001   0.000021  -0.000038
    29  H    0.004718   0.000011  -0.000002   0.000013   0.000001   0.000020
    30  H    0.000229   0.000006   0.000002  -0.000007  -0.000084  -0.000014
    31  H    0.000119   0.004106  -0.000127  -0.001046   0.008255  -0.001034
    32  C    0.000000  -0.000016   0.000006  -0.000033   0.001726  -0.002122
    33  H    0.000000  -0.000020   0.000015   0.000001  -0.001968   0.000950
    34  H    0.000000   0.000001  -0.000001   0.000000   0.000060  -0.000167
    35  H    0.000000   0.000004  -0.000008  -0.000026   0.002690   0.000182
    36  H    0.006445  -0.000342  -0.000273   0.005850  -0.001052   0.000616
              25         26         27         28         29         30
     1  C   -0.000311  -0.000158   0.000020   0.000005   0.000018   0.000000
     2  C    0.007762   0.004322  -0.000377   0.000123  -0.000215  -0.000269
     3  C   -0.070746  -0.013981   0.010591  -0.000277   0.007279  -0.008283
     4  C    0.411865  -0.032902  -0.052707   0.003566  -0.000096   0.002707
     5  C   -0.051802   0.376564   0.395216  -0.055804   0.000016  -0.000288
     6  O    0.001056  -0.031411  -0.032258   0.256645  -0.000004  -0.000134
     7  N   -0.005165  -0.000034  -0.000187  -0.000135  -0.030786  -0.034195
     8  C    0.002636  -0.000020  -0.000002   0.000256   0.409309   0.411565
     9  C   -0.000014   0.000000   0.000000   0.000109  -0.000089  -0.000267
    10  C    0.000140   0.000001  -0.000001  -0.000371  -0.000037   0.001030
    11  C    0.000415   0.000010   0.000053  -0.003860   0.004216  -0.012235
    12  C   -0.002379   0.000011  -0.000023   0.000233  -0.050490  -0.071366
    13  C    0.000008  -0.000001  -0.000001  -0.000038  -0.009975   0.007458
    14  C    0.000006   0.000000   0.000000   0.000008   0.000377   0.000267
    15  H    0.000000   0.000000   0.000000   0.000001   0.000001   0.000001
    16  H   -0.000010  -0.000001   0.000002   0.000098   0.000011   0.000002
    17  H    0.000000   0.000000   0.000000  -0.000001  -0.000015   0.000014
    18  F    0.003787  -0.000031  -0.000073   0.018187   0.000131   0.007349
    19  F   -0.000003   0.000000   0.000000   0.000001   0.004718   0.000229
    20  H   -0.000019   0.000126  -0.000016   0.000033   0.000011   0.000006
    21  H    0.000019   0.000037  -0.000001   0.000000  -0.000002   0.000002
    22  H   -0.000002  -0.000011   0.000002  -0.000001   0.000013  -0.000007
    23  H   -0.000454   0.000105  -0.000098   0.000021   0.000001  -0.000084
    24  H    0.000415   0.004364   0.000062  -0.000038   0.000020  -0.000014
    25  H    0.523528   0.009535  -0.011915   0.008144   0.000465   0.000787
    26  H    0.009535   0.501984  -0.042548   0.007938   0.000003  -0.000050
    27  H   -0.011915  -0.042548   0.523260  -0.006365  -0.000004   0.000122
    28  H    0.008144   0.007938  -0.006365   0.376287  -0.000007  -0.000559
    29  H    0.000465   0.000003  -0.000004  -0.000007   0.439321  -0.023710
    30  H    0.000787  -0.000050   0.000122  -0.000559  -0.023710   0.449594
    31  H   -0.006109  -0.003554   0.002314  -0.005264  -0.000175  -0.001022
    32  C   -0.036801  -0.002824   0.000802  -0.001023  -0.000050   0.000610
    33  H    0.008057   0.004501  -0.001234   0.000020   0.000007  -0.000054
    34  H   -0.008537  -0.000968   0.005837  -0.000099  -0.000008   0.000111
    35  H   -0.005994  -0.000353  -0.000261   0.000047  -0.000024  -0.000544
    36  H   -0.000323  -0.000026   0.000029  -0.000006  -0.009688   0.007233
              31         32         33         34         35         36
     1  C   -0.011657  -0.000062   0.000146   0.000014  -0.000218   0.005225
     2  C   -0.039178  -0.014008   0.004074  -0.000028  -0.002743  -0.012009
     3  C    0.401616  -0.059306  -0.010849   0.008737  -0.006122  -0.061913
     4  C   -0.089964   0.253721  -0.035627  -0.035734  -0.036884   0.009072
     5  C   -0.007203  -0.070910  -0.005282  -0.003333   0.007013  -0.000407
     6  O    0.032705   0.005378  -0.000022  -0.000078  -0.000190   0.000027
     7  N   -0.045900  -0.009740   0.000022  -0.000481   0.019455   0.344353
     8  C   -0.013012   0.000228  -0.000007  -0.000030  -0.000056  -0.050221
     9  C   -0.000214   0.000000   0.000000   0.000000   0.000000  -0.000088
    10  C   -0.000125   0.000001   0.000000   0.000000  -0.000001   0.000116
    11  C    0.001326   0.000056   0.000001   0.000001  -0.000012  -0.000945
    12  C    0.006878  -0.000101  -0.000008  -0.000010   0.000482  -0.009241
    13  C   -0.001475  -0.000005   0.000000   0.000000  -0.000009   0.004288
    14  C   -0.000491   0.000000   0.000000   0.000000   0.000000   0.000491
    15  H    0.000003   0.000000   0.000000   0.000000   0.000000   0.000001
    16  H    0.000003   0.000000   0.000000   0.000000   0.000000   0.000000
    17  H   -0.000011   0.000000   0.000000   0.000000   0.000000  -0.000001
    18  F    0.000701   0.000065   0.000000  -0.000002  -0.000004  -0.000065
    19  F    0.000119   0.000000   0.000000   0.000000   0.000000   0.006445
    20  H    0.004106  -0.000016  -0.000020   0.000001   0.000004  -0.000342
    21  H   -0.000127   0.000006   0.000015  -0.000001  -0.000008  -0.000273
    22  H   -0.001046  -0.000033   0.000001   0.000000  -0.000026   0.005850
    23  H    0.008255   0.001726  -0.001968   0.000060   0.002690  -0.001052
    24  H   -0.001034  -0.002122   0.000950  -0.000167   0.000182   0.000616
    25  H   -0.006109  -0.036801   0.008057  -0.008537  -0.005994  -0.000323
    26  H   -0.003554  -0.002824   0.004501  -0.000968  -0.000353  -0.000026
    27  H    0.002314   0.000802  -0.001234   0.005837  -0.000261   0.000029
    28  H   -0.005264  -0.001023   0.000020  -0.000099   0.000047  -0.000006
    29  H   -0.000175  -0.000050   0.000007  -0.000008  -0.000024  -0.009688
    30  H   -0.001022   0.000610  -0.000054   0.000111  -0.000544   0.007233
    31  H    0.524864   0.009991  -0.000344  -0.000135   0.000997   0.001710
    32  C    0.009991   5.440757   0.385576   0.389177   0.376086  -0.000170
    33  H   -0.000344   0.385576   0.483979  -0.030602  -0.026388  -0.000048
    34  H   -0.000135   0.389177  -0.030602   0.477427  -0.025773   0.000052
    35  H    0.000997   0.376086  -0.026388  -0.025773   0.460393  -0.000393
    36  H    0.001710  -0.000170  -0.000048   0.000052  -0.000393   0.432502
 Mulliken charges:
               1
     1  C   -0.662415
     2  C   -0.487862
     3  C   -0.080602
     4  C   -0.339228
     5  C   -0.166977
     6  O   -0.595480
     7  N   -0.537668
     8  C   -0.399386
     9  C   -0.211730
    10  C   -0.255847
    11  C    0.304507
    12  C   -0.142893
    13  C    0.332663
    14  C   -0.262440
    15  H    0.236300
    16  H    0.241335
    17  H    0.239146
    18  F   -0.268043
    19  F   -0.250305
    20  H    0.229783
    21  H    0.229970
    22  H    0.219007
    23  H    0.232689
    24  H    0.235833
    25  H    0.221960
    26  H    0.219371
    27  H    0.209758
    28  H    0.402129
    29  H    0.259458
    30  H    0.263995
    31  H    0.232452
    32  C   -0.667010
    33  H    0.225103
    34  H    0.224568
    35  H    0.238654
    36  H    0.329203
 Sum of Mulliken charges =   0.00000
 Mulliken charges with hydrogens summed into heavy atoms:
               1
     1  C    0.016345
     2  C   -0.019339
     3  C    0.151850
     4  C   -0.117268
     5  C    0.262152
     6  O   -0.193350
     7  N   -0.208466
     8  C    0.124067
     9  C    0.024571
    10  C   -0.014512
    11  C    0.304507
    12  C   -0.142893
    13  C    0.332663
    14  C   -0.023295
    18  F   -0.268043
    19  F   -0.250305
    32  C    0.021316
 Electronic spatial extent (au):  <R**2>=           4240.5895
 Charge=              0.0000 electrons
 Dipole moment (field-independent basis, Debye):
    X=             -2.1073    Y=              0.0725    Z=             -0.0306  Tot=              2.1088
 Quadrupole moment (field-independent basis, Debye-Ang):
   XX=            -92.2323   YY=           -102.7537   ZZ=           -105.1814
   XY=              3.7054   XZ=             -5.6580   YZ=              4.8666
 Traceless Quadrupole moment (field-independent basis, Debye-Ang):
   XX=              7.8235   YY=             -2.6979   ZZ=             -5.1256
   XY=              3.7054   XZ=             -5.6580   YZ=              4.8666
 Octapole moment (field-independent basis, Debye-Ang**2):
  XXX=            -40.2483  YYY=             -9.4151  ZZZ=            -14.3982  XYY=            -12.5167
  XXY=            -10.4824  XXZ=             27.3614  XZZ=            -13.8453  YZZ=              3.9364
  YYZ=             -3.7730  XYZ=             18.0734
 Hexadecapole moment (field-independent basis, Debye-Ang**3):
 XXXX=          -3180.7310 YYYY=          -1411.1077 ZZZZ=           -758.9963 XXXY=            -49.8907
 XXXZ=            -78.9880 YYYX=              9.1511 YYYZ=              4.4994 ZZZX=             22.1547
 ZZZY=              3.2447 XXYY=           -781.0075 XXZZ=           -672.8004 YYZZ=           -384.6238
 XXYZ=              6.9438 YYXZ=            -32.8360 ZZXY=              0.9883
 N-N= 1.316349764680D+03 E-N=-4.590571426741D+03  KE= 8.332555479146D+02
 1\1\GINC-SWANNODE-0-7\SP\RmPW1PW91\6-311G(d)\C13H19F2N1O1\KE291\06-Mar
 -2019\0\\# mPW1PW91/6-311g(d) geom=checkpoint nmr=giao scrf=(solvent=c
 hloroform)\\AT3_1ginp010\\0,1\C,0,-0.4414762526,-0.984829995,1.0315928
 282\C,0,-1.0173700954,0.1431807045,1.8983886043\C,0,-0.1394505674,1.40
 68131085,1.9416416533\C,0,-0.4855021971,2.3648585023,3.1118272921\C,0,
 0.0653067433,1.8633723031,4.4558569972\O,0,1.4702349839,1.6162305848,4
 .4450902557\N,0,-0.2627837687,2.1232865059,0.6554211079\C,0,0.82040012
 04,3.0585893519,0.3273440346\C,0,4.8219647513,1.3466891852,0.232151880
 9\C,0,4.4406928448,2.1364218276,1.3172093932\C,0,3.1593040484,2.672736
 6231,1.320986619\C,0,2.2261337098,2.4750905127,0.3042826811\C,0,2.6647
 117089,1.6658450758,-0.7464165002\C,0,3.9311265522,1.1019153639,-0.815
 3510112\H,0,5.8171636858,0.9159263143,0.2039054655\H,0,5.1105468391,2.
 3362143078,2.1454408434\H,0,4.2013031,0.4892658891,-1.6676476963\F,0,2
 .7903082492,3.4420532301,2.3872045179\F,0,1.7875954392,1.4234196252,-1
 .7525207058\H,0,0.5387019169,-1.3032489205,1.4025610096\H,0,-1.1019305
 022,-1.857710769,1.0388033969\H,0,-0.3151346147,-0.6872899287,-0.01557
 84323\H,0,-2.0172979254,0.4143277503,1.5386687567\H,0,-1.1455030474,-0
 .2345474917,2.9189386794\H,0,0.0403439463,3.3091099984,2.9110073586\H,
 0,-0.4016754816,0.9128633225,4.7394038128\H,0,-0.196855885,2.592791569
 8,5.2390169428\H,0,1.9020308856,2.3911552811,4.0574676595\H,0,0.599761
 9328,3.4729040433,-0.6606500268\H,0,0.8039861295,3.8937820206,1.030153
 7183\H,0,0.8967555824,1.072880385,2.1105576931\C,0,-1.9797100088,2.696
 4563381,3.2169222088\H,0,-2.5687928481,1.8302764494,3.5371652663\H,0,-
 2.1525608394,3.4986321464,3.9421825334\H,0,-2.360829655,3.0254454678,2
 .2467005786\H,0,-0.3225904813,1.4435953168,-0.0976884165\\Version=EM64
 L-G09RevD.01\State=1-A\HF=-836.4644165\RMSD=7.445e-09\Dipole=0.6410131
 ,0.0120858,-0.5265715\Quadrupole=5.9496164,-0.6014568,-5.3481596,-0.12
 47279,-4.247925,3.7846173\PG=C01 [X(C13H19F2N1O1)]\\@


 TERENCE, THIS IS STUPID STUFF:
 YOU EAT YOUR VICTUALS FAST ENOUGH;
 THERE CAN'T BE MUCH AMISS, 'TIS CLEAR
 TO SEE THE RATE YOU DRINK YOUR BEER.
 BUT OH, GOOD LORD, THE VERSE YOU MAKE,
 IT GIVES A CHAP THE BELLY-ACHE.
 THE COW, THE OLD COW, SHE IS DEAD;
 IT SLEEPS WELL, THE HORNED HEAD:
 WE POOR LADS, 'TIS OUR TURN NOW
 TO HEAR SUCH TUNES AS KILLED THE COW.
 PRETTY FRIENDSHIP 'TIS TO RHYME
 YOUR FRIENDS TO DEATH BEFORE THEIR TIME.
 MOPING, MELANCHOLY MAD:
 COME PIPE A TUNE TO DANCE TO, LAD.

     -- A. E. HOUSMAN
 Job cpu time:       0 days  0 hours 28 minutes 48.6 seconds.
 File lengths (MBytes):  RWF=    177 Int=      0 D2E=      0 Chk=     14 Scr=      1
 Normal termination of Gaussian 09 at Wed Mar  6 11:59:21 2019.
