 Entering Gaussian System, Link 0=/usr/local/shared/gaussian/em64t/09-D01/g09/g09
 Initial command:
 /usr/local/shared/gaussian/em64t/09-D01/g09/l1.exe "/scratch/ke291/AT3_1ginp009/Gau-16533.inp" -scrdir="/scratch/ke291/AT3_1ginp009/"
 Entering Link 1 = /usr/local/shared/gaussian/em64t/09-D01/g09/l1.exe PID=     16536.
  
 Copyright (c) 1988,1990,1992,1993,1995,1998,2003,2009,2013,
            Gaussian, Inc.  All Rights Reserved.
  
 This is part of the Gaussian(R) 09 program.  It is based on
 the Gaussian(R) 03 system (copyright 2003, Gaussian, Inc.),
 the Gaussian(R) 98 system (copyright 1998, Gaussian, Inc.),
 the Gaussian(R) 94 system (copyright 1995, Gaussian, Inc.),
 the Gaussian 92(TM) system (copyright 1992, Gaussian, Inc.),
 the Gaussian 90(TM) system (copyright 1990, Gaussian, Inc.),
 the Gaussian 88(TM) system (copyright 1988, Gaussian, Inc.),
 the Gaussian 86(TM) system (copyright 1986, Carnegie Mellon
 University), and the Gaussian 82(TM) system (copyright 1983,
 Carnegie Mellon University). Gaussian is a federally registered
 trademark of Gaussian, Inc.
  
 This software contains proprietary and confidential information,
 including trade secrets, belonging to Gaussian, Inc.
  
 This software is provided under written license and may be
 used, copied, transmitted, or stored only in accord with that
 written license.
  
 The following legend is applicable only to US Government
 contracts under FAR:
  
                    RESTRICTED RIGHTS LEGEND
  
 Use, reproduction and disclosure by the US Government is
 subject to restrictions as set forth in subparagraphs (a)
 and (c) of the Commercial Computer Software - Restricted
 Rights clause in FAR 52.227-19.
  
 Gaussian, Inc.
 340 Quinnipiac St., Bldg. 40, Wallingford CT 06492
  
  
 ---------------------------------------------------------------
 Warning -- This program may not be used in any manner that
 competes with the business of Gaussian, Inc. or will provide
 assistance to any competitor of Gaussian, Inc.  The licensee
 of this program is prohibited from giving any competitor of
 Gaussian, Inc. access to this program.  By using this program,
 the user acknowledges that Gaussian, Inc. is engaged in the
 business of creating and licensing software in the field of
 computational chemistry and represents and warrants to the
 licensee that it is not a competitor of Gaussian, Inc. and that
 it will not use this program in any manner prohibited above.
 ---------------------------------------------------------------
  

 Cite this work as:
 Gaussian 09, Revision D.01,
 M. J. Frisch, G. W. Trucks, H. B. Schlegel, G. E. Scuseria, 
 M. A. Robb, J. R. Cheeseman, G. Scalmani, V. Barone, B. Mennucci, 
 G. A. Petersson, H. Nakatsuji, M. Caricato, X. Li, H. P. Hratchian, 
 A. F. Izmaylov, J. Bloino, G. Zheng, J. L. Sonnenberg, M. Hada, 
 M. Ehara, K. Toyota, R. Fukuda, J. Hasegawa, M. Ishida, T. Nakajima, 
 Y. Honda, O. Kitao, H. Nakai, T. Vreven, J. A. Montgomery, Jr., 
 J. E. Peralta, F. Ogliaro, M. Bearpark, J. J. Heyd, E. Brothers, 
 K. N. Kudin, V. N. Staroverov, T. Keith, R. Kobayashi, J. Normand, 
 K. Raghavachari, A. Rendell, J. C. Burant, S. S. Iyengar, J. Tomasi, 
 M. Cossi, N. Rega, J. M. Millam, M. Klene, J. E. Knox, J. B. Cross, 
 V. Bakken, C. Adamo, J. Jaramillo, R. Gomperts, R. E. Stratmann, 
 O. Yazyev, A. J. Austin, R. Cammi, C. Pomelli, J. W. Ochterski, 
 R. L. Martin, K. Morokuma, V. G. Zakrzewski, G. A. Voth, 
 P. Salvador, J. J. Dannenberg, S. Dapprich, A. D. Daniels, 
 O. Farkas, J. B. Foresman, J. V. Ortiz, J. Cioslowski, 
 and D. J. Fox, Gaussian, Inc., Wallingford CT, 2013.
 
 ******************************************
 Gaussian 09:  EM64L-G09RevD.01 24-Apr-2013
                 6-Mar-2019 
 ******************************************
 %nprocshared=2
 Will use up to    2 processors via shared memory.
 %mem=6000MB
 %chk=AT3_1ginp009.chk
 ----------------------------------------------------------------------
 # mPW1PW91/6-311g(d) geom=checkpoint nmr=giao scrf=(solvent=chloroform
 )
 ----------------------------------------------------------------------
 1/29=2,38=1/1;
 2/12=2,40=1/2;
 3/5=4,6=6,7=1,11=2,14=-4,16=1,25=1,30=1,70=2201,72=7,74=-7/1,2,8,3;
 4//1;
 5/5=2,38=5,53=7/2;
 8/6=1,10=90,11=11/1;
 10/13=100,45=16/2;
 6/7=2,8=2,9=2,10=2,28=1/1;
 99/9=1/99;
 ------------
 AT3_1ginp009
 ------------
 Structure from the checkpoint file:  "AT3_1ginp009.chk"
 Charge =  0 Multiplicity = 1
 Redundant internal coordinates found in file.
 C,0,0.1748420621,-1.0640767338,3.3882783228
 C,0,-0.7174025599,-0.0027881171,2.7304326388
 C,0,-0.0378212433,1.3705762726,2.5840062426
 C,0,-1.0287220971,2.536097364,2.3148901109
 C,0,-1.8170661227,2.9361925762,3.5637871271
 O,0,-0.9048144572,3.3879995797,4.5652063822
 N,0,0.9534130011,1.3076785106,1.4890152627
 C,0,2.1172878458,2.1788745056,1.6997828181
 C,0,5.0345167785,1.6907761562,-1.4773981933
 C,0,4.3227904161,2.8860286878,-1.377243542
 C,0,3.3896977435,3.0214472189,-0.3546740313
 C,0,3.1284957831,2.02523381,0.5872994007
 C,0,3.8709834372,0.8528746786,0.4321765915
 C,0,4.8127142962,0.6548449806,-0.5676147196
 H,0,5.7653634588,1.5642957024,-2.2691505802
 H,0,4.4763371827,3.7045476632,-2.0709271654
 H,0,5.3492227861,-0.2851949451,-0.6229506456
 F,0,2.7060940316,4.1855551511,-0.2627063209
 F,0,3.6422109999,-0.1523632366,1.3181648138
 H,0,-0.3392743389,-2.0288043504,3.44438868
 H,0,1.1075025378,-1.2256861556,2.8357873963
 H,0,0.4471602493,-0.7689857282,4.4075298517
 H,0,-1.0371878847,-0.3480607373,1.7392367805
 H,0,-1.6297127635,0.1052647011,3.327586149
 H,0,-0.4166746759,3.4106739127,2.0559175556
 H,0,-2.4134090628,2.0858094448,3.9304550555
 H,0,-2.527794148,3.7335392554,3.2961407338
 H,0,-1.4125509412,3.5692109863,5.3666396719
 H,0,1.7839662237,3.2184301399,1.7276546641
 H,0,2.6184415553,1.9801347217,2.6637306595
 H,0,0.462026054,1.5964887934,3.5410995464
 C,0,-1.9762317386,2.2649670771,1.1387835505
 H,0,-1.4065169336,1.9303883543,0.268394222
 H,0,-2.7162349643,1.4932586775,1.3791851234
 H,0,-2.5244277027,3.1715217486,0.8614613849
 H,0,1.3002331915,0.3552543338,1.4179724621
 Recover connectivity data from disk.
                          Input orientation:                          
 ---------------------------------------------------------------------
 Center     Atomic      Atomic             Coordinates (Angstroms)
 Number     Number       Type             X           Y           Z
 ---------------------------------------------------------------------
      1          6           0        0.174842   -1.064077    3.388278
      2          6           0       -0.717403   -0.002788    2.730433
      3          6           0       -0.037821    1.370576    2.584006
      4          6           0       -1.028722    2.536097    2.314890
      5          6           0       -1.817066    2.936193    3.563787
      6          8           0       -0.904814    3.388000    4.565206
      7          7           0        0.953413    1.307679    1.489015
      8          6           0        2.117288    2.178875    1.699783
      9          6           0        5.034517    1.690776   -1.477398
     10          6           0        4.322790    2.886029   -1.377244
     11          6           0        3.389698    3.021447   -0.354674
     12          6           0        3.128496    2.025234    0.587299
     13          6           0        3.870983    0.852875    0.432177
     14          6           0        4.812714    0.654845   -0.567615
     15          1           0        5.765363    1.564296   -2.269151
     16          1           0        4.476337    3.704548   -2.070927
     17          1           0        5.349223   -0.285195   -0.622951
     18          9           0        2.706094    4.185555   -0.262706
     19          9           0        3.642211   -0.152363    1.318165
     20          1           0       -0.339274   -2.028804    3.444389
     21          1           0        1.107503   -1.225686    2.835787
     22          1           0        0.447160   -0.768986    4.407530
     23          1           0       -1.037188   -0.348061    1.739237
     24          1           0       -1.629713    0.105265    3.327586
     25          1           0       -0.416675    3.410674    2.055918
     26          1           0       -2.413409    2.085809    3.930455
     27          1           0       -2.527794    3.733539    3.296141
     28          1           0       -1.412551    3.569211    5.366640
     29          1           0        1.783966    3.218430    1.727655
     30          1           0        2.618442    1.980135    2.663731
     31          1           0        0.462026    1.596489    3.541100
     32          6           0       -1.976232    2.264967    1.138784
     33          1           0       -1.406517    1.930388    0.268394
     34          1           0       -2.716235    1.493259    1.379185
     35          1           0       -2.524428    3.171522    0.861461
     36          1           0        1.300233    0.355254    1.417972
 ---------------------------------------------------------------------
                    Distance matrix (angstroms):
                    1          2          3          4          5
     1  C    0.000000
     2  C    1.534664   0.000000
     3  C    2.572861   1.539286   0.000000
     4  C    3.944868   2.591435   1.553302   0.000000
     5  C    4.472209   3.246744   2.564535   1.530133   0.000000
     6  O    4.729884   3.859917   2.957504   2.409360   1.427996
     7  N    3.136654   2.459688   1.478346   2.473852   3.825218
     8  C    4.140150   3.722548   2.465703   3.225421   4.418957
     9  C    7.408135   7.325201   6.505855   7.201311   8.597023
    10  C    7.451108   7.114901   6.083012   6.510990   7.881252
    11  C    6.405973   5.960885   4.807193   5.185033   6.517054
    12  C    5.110127   4.847353   3.800129   4.530785   5.843621
    13  C    5.106339   5.202636   4.491897   5.512256   6.819172
    14  C    6.333533   6.472387   5.828609   6.780142   8.137998
    15  H    8.376680   8.335337   7.567537   8.253328   9.664290
    16  H    8.428853   7.985758   6.891549   7.134868   8.482175
    17  H    6.593241   6.937498   6.484319   7.567614   8.902910
    18  F    6.877177   6.182348   4.853550   4.828412   6.054910
    19  F    4.139956   4.585096   4.179035   5.480775   6.662260
    20  H    1.094607   2.181159   3.519506   4.752834   5.181633
    21  H    1.096002   2.199286   2.848814   4.357270   5.138513
    22  H    1.095495   2.180807   2.852748   4.181022   4.423457
    23  H    2.168187   1.097244   2.160112   2.941057   3.837123
    24  H    2.151153   1.095709   2.165189   2.701054   2.846936
    25  H    4.706216   3.492439   2.141123   1.098432   2.111847
    26  H    4.112758   2.945969   2.822747   2.174895   1.101463
    27  H    5.507254   4.190189   3.505809   2.154980   1.101150
    28  H    5.282148   4.493551   3.803541   3.244661   1.953106
    29  H    4.866910   4.199840   2.732547   2.953242   4.051972
    30  H    3.970311   3.881274   2.726472   3.705751   4.625784
    31  H    2.680380   2.146141   1.103137   2.146808   2.643782
    32  C    4.557398   3.043142   2.577991   1.534442   2.521214
    33  H    4.604475   3.205259   2.747504   2.167431   3.469843
    34  H    4.351407   2.838901   2.939480   2.193344   2.768221
    35  H    5.622380   4.103003   3.520480   2.180219   2.803267
    36  H    2.676399   2.433434   2.044726   3.314298   4.580755
                    6          7          8          9         10
     6  O    0.000000
     7  N    4.152553   0.000000
     8  C    4.336558   1.469017   0.000000
     9  C    8.641140   5.059820   4.340846   0.000000
    10  C    7.930482   4.696736   3.851285   1.394709   0.000000
    11  C    6.540827   3.503095   2.559248   2.395125   1.390916
    12  C    5.826531   2.461496   1.511214   2.829798   2.454941
    13  C    6.805662   3.136235   2.537824   2.387962   2.758957
    14  C    8.155129   4.421552   3.837849   1.396444   2.423573
    15  H    9.722428   6.111017   5.425735   1.084899   2.150231
    16  H    8.549577   5.552402   4.702238   2.172353   1.083857
    17  H    8.917528   5.130379   4.681040   2.175680   3.417482
    18  F    6.081406   3.797709   2.867895   3.622285   2.354712
    19  F    6.614597   3.064400   2.811706   3.626410   4.118281
    20  H    5.560381   4.077578   5.175221   8.181497   8.314961
    21  H    5.322256   2.873234   3.728432   6.521561   6.707750
    22  H    4.374154   3.617534   4.337177   7.856631   7.864047
    23  H    4.686339   2.601264   4.041989   7.167231   6.992936
    24  H    3.582392   3.390970   4.581442   8.367418   8.080864
    25  H    2.556428   2.573151   2.839917   6.719960   5.875745
    26  H    2.091522   4.231029   5.050918   9.212629   8.613269
    27  H    2.089016   4.611866   5.151905   9.173227   8.336024
    28  H    0.965883   5.074277   5.276233   9.588225   8.879236
    29  H    3.912799   2.097079   1.092042   4.813748   4.024489
    30  H    4.243940   2.145804   1.104467   4.803134   4.478272
    31  H    2.475189   2.129771   2.543524   6.789837   6.384239
    32  C    3.761583   3.101916   4.132679   7.504978   6.811299
    33  H    4.564968   2.728911   3.811538   6.677733   6.037080
    34  H    4.125775   3.675979   4.892422   8.262762   7.686715
    35  H    4.048177   3.995386   4.820130   8.049877   7.209556
    36  H    4.895392   1.016092   2.018065   4.910363   4.832588
                   11         12         13         14         15
    11  C    0.000000
    12  C    1.395701   0.000000
    13  C    2.356582   1.396344   0.000000
    14  C    2.769680   2.459346   1.387680   0.000000
    15  H    3.381168   3.914696   3.375198   2.151712   0.000000
    16  H    2.143114   3.420956   3.842398   3.416692   2.506304
    17  H    3.852998   3.425553   2.143289   1.083780   2.510730
    18  F    1.353115   2.359644   3.598137   4.122709   4.500661
    19  F    3.596557   2.353720   1.359344   2.361742   4.508162
    20  H    7.337789   6.051745   5.924843   7.059825   9.100632
    21  H    5.781488   4.439436   4.211245   5.371046   7.452520
    22  H    6.760510   5.439796   5.491487   6.770334   8.849042
    23  H    5.944356   4.930761   5.219272   6.367789   8.123976
    24  H    6.874419   5.816872   6.260988   7.548476   9.388258
    25  H    4.522269   4.079769   5.250037   6.467150   7.767427
    26  H    7.274187   6.472485   7.297374   8.631173  10.276157
    27  H    6.989437   6.499980   7.579240   8.848165  10.220301
    28  H    7.489664   6.771046   7.722897   9.080905  10.669931
    29  H    2.636905   2.128823   3.410243   4.584053   5.878957
    30  H    3.284804   2.138634   2.796321   4.124660   5.865949
    31  H    5.077285   4.002352   4.673259   6.057781   7.866729
    32  C    5.621021   5.140024   6.056668   7.182902   8.487476
    33  H    4.958054   4.547201   5.388865   6.403496   7.616366
    34  H    6.528709   5.922074   6.685683   7.821639   9.233250
    35  H    6.039734   5.774486   6.816281   7.887305   9.005806
    36  H    3.823182   2.611780   2.797888   4.045965   5.915577
                   16         17         18         19         20
    16  H    0.000000
    17  H    4.333199   0.000000
    18  F    2.575809   5.206103   0.000000
    19  F    5.201680   2.588332   4.710945   0.000000
    20  H    9.299470   7.207109   7.850802   4.888158   0.000000
    21  H    7.728654   5.553340   6.437211   3.143238   1.763110
    22  H    8.844047   7.040597   7.173658   4.486953   1.770103
    23  H    7.831982   6.809561   6.210766   4.702380   2.493898
    24  H    8.909693   8.028994   6.952567   5.647772   2.496623
    25  H    6.407712   7.354003   3.965872   5.451061   5.614425
    26  H    9.279305   9.306644   6.942683   6.964482   4.633394
    27  H    8.824064   9.672481   6.345337   7.555236   6.165728
    28  H    9.487609   9.821060   7.002332   7.469329   6.015376
    29  H    4.681281   5.523748   2.397329   3.870788   5.915133
    30  H    5.370508   4.836441   3.665460   2.721433   5.042728
    31  H    7.214808   6.690646   5.119379   4.255996   3.714052
    32  C    7.349169   7.954201   5.251381   6.119033   5.141198
    33  H    6.574803   7.165426   4.720319   5.561432   5.186632
    34  H    8.278053   8.498415   6.272633   6.568229   4.724398
    35  H    7.608793   8.726210   5.445216   7.020272   6.204015
    36  H    5.786002   4.579286   4.412746   2.398436   3.532433
                   21         22         23         24         25
    21  H    0.000000
    22  H    1.764937   0.000000
    23  H    2.563659   3.082248   0.000000
    24  H    3.083122   2.498798   1.754834   0.000000
    25  H    4.942383   4.872971   3.822749   3.743572   0.000000
    26  H    4.955918   4.069436   3.552344   2.213637   3.042385
    27  H    6.166135   5.509834   4.615768   3.737903   2.469660
    28  H    5.978873   4.816468   5.352006   4.025397   3.460894
    29  H    4.629874   4.986809   4.547406   4.889252   2.233279
    30  H    3.548215   3.913178   4.431570   4.690699   3.409957
    31  H    2.979728   2.519205   3.045591   2.577733   2.503827
    32  C    4.957207   5.075668   2.840821   3.094390   2.141494
    33  H    4.782532   5.277801   2.736990   3.569250   2.523147
    34  H    4.912771   4.929066   2.517795   2.627418   3.069597
    35  H    6.035256   6.077214   3.920438   4.035371   2.434449
    36  H    2.132303   3.305919   2.461991   3.506238   3.562350
                   26         27         28         29         30
    26  H    0.000000
    27  H    1.769308   0.000000
    28  H    2.294520   2.357485   0.000000
    29  H    4.873717   4.617008   4.856231   0.000000
    30  H    5.189921   5.473400   5.106837   1.762374   0.000000
    31  H    2.942645   3.683207   3.276930   2.768899   2.359468
    32  C    2.831369   2.667417   4.460219   3.923640   4.849496
    33  H    3.801142   3.698089   5.355173   3.737335   4.684058
    34  H    2.636626   2.954503   4.680701   4.832128   5.508709
    35  H    3.257272   2.498707   4.657366   4.394855   5.578233
    36  H    4.806093   5.440048   5.768942   2.920219   2.435123
                   31         32         33         34         35
    31  H    0.000000
    32  C    3.487562   0.000000
    33  H    3.783324   1.092747   0.000000
    34  H    3.845240   1.095870   1.772089   0.000000
    35  H    4.310463   1.095111   1.772531   1.766747   0.000000
    36  H    2.598254   3.802653   3.336027   4.174754   4.782165
                   36
    36  H    0.000000
 Stoichiometry    C13H19F2NO
 Framework group  C1[X(C13H19F2NO)]
 Deg. of freedom   102
 Full point group                 C1      NOp   1
 Largest Abelian subgroup         C1      NOp   1
 Largest concise Abelian subgroup C1      NOp   1
                         Standard orientation:                         
 ---------------------------------------------------------------------
 Center     Atomic      Atomic             Coordinates (Angstroms)
 Number     Number       Type             X           Y           Z
 ---------------------------------------------------------------------
      1          6           0        2.187260    2.964984   -0.038773
      2          6           0        2.552485    1.626662   -0.695052
      3          6           0        1.913467    0.406928   -0.007079
      4          6           0        2.580586   -0.945379   -0.379857
      5          6           0        3.939044   -1.136049    0.298039
      6          8           0        3.756315   -1.138262    1.714294
      7          7           0        0.476031    0.354546   -0.348462
      8          6           0       -0.360944   -0.208785    0.719312
      9          6           0       -4.566471   -0.063718   -0.346259
     10          6           0       -3.919979   -1.297254   -0.271096
     11          6           0       -2.571287   -1.322359    0.068093
     12          6           0       -1.825004   -0.176185    0.346176
     13          6           0       -2.527930    1.026641    0.251934
     14          6           0       -3.871005    1.118646   -0.084729
     15          1           0       -5.617693   -0.022282   -0.611255
     16          1           0       -4.437343   -2.228709   -0.469775
     17          1           0       -4.347021    2.090830   -0.138061
     18          9           0       -1.952692   -2.523518    0.142097
     19          9           0       -1.840122    2.172395    0.500895
     20          1           0        2.639916    3.802939   -0.578306
     21          1           0        1.105279    3.138670   -0.019564
     22          1           0        2.541419    3.002157    0.997228
     23          1           0        2.253193    1.636009   -1.750647
     24          1           0        3.642863    1.519141   -0.685471
     25          1           0        1.932018   -1.733868    0.025355
     26          1           0        4.635781   -0.339334   -0.006961
     27          1           0        4.375136   -2.089029   -0.039869
     28          1           0        4.629363   -1.189329    2.124304
     29          1           0       -0.067613   -1.246394    0.892177
     30          1           0       -0.228048    0.322760    1.678293
     31          1           0        2.044748    0.533814    1.080844
     32          6           0        2.693863   -1.166761   -1.894015
     33          1           0        1.730239   -0.977416   -2.373257
     34          1           0        3.437613   -0.503469   -2.349877
     35          1           0        2.990872   -2.196905   -2.117299
     36          1           0        0.147356    1.300573   -0.520064
 ---------------------------------------------------------------------
 Rotational constants (GHZ):      0.7235336      0.2461639      0.2056740
 Standard basis: 6-311G(d) (5D, 7F)
 There are   380 symmetry adapted cartesian basis functions of A   symmetry.
 There are   363 symmetry adapted basis functions of A   symmetry.
   363 basis functions,   639 primitive gaussians,   380 cartesian basis functions
    65 alpha electrons       65 beta electrons
       nuclear repulsion energy      1256.8250498871 Hartrees.
 NAtoms=   36 NActive=   36 NUniq=   36 SFac= 1.00D+00 NAtFMM=   60 NAOKFM=F Big=F
 Integral buffers will be    131072 words long.
 Raffenetti 2 integral format.
 Two-electron integral symmetry is turned on.
 ------------------------------------------------------------------------------
 Polarizable Continuum Model (PCM)
 =================================
 Model                : PCM (using non-symmetric T matrix).
 Atomic radii         : UFF (Universal Force Field).
 Polarization charges : Total charges.
 Charge compensation  : None.
 Solution method      : On-the-fly selection.
 Cavity type          : Scaled VdW (van der Waals Surface) (Alpha=1.100).
 Cavity algorithm     : GePol (No added spheres)
                        Default sphere list used, NSphG=   36.
                        Lebedev-Laikov grids with approx.  5.0 points / Ang**2.
                        Smoothing algorithm: Karplus/York (Gamma=1.0000).
                        Polarization charges: spherical gaussians, with
                                              point-specific exponents (IZeta= 3).
                        Self-potential: point-specific (ISelfS= 7).
                        Self-field    : sphere-specific E.n sum rule (ISelfD= 2).
 Solvent              : Chloroform, Eps=   4.711300 Eps(inf)=   2.090627
 ------------------------------------------------------------------------------
 One-electron integrals computed using PRISM.
 NBasis=   363 RedAO= T EigKep=  2.29D-04  NBF=   363
 NBsUse=   363 1.00D-06 EigRej= -1.00D+00 NBFU=   363
 ExpMin= 1.03D-01 ExpMax= 1.14D+04 ExpMxC= 1.72D+03 IAcc=1 IRadAn=         1 AccDes= 0.00D+00
 Harris functional with IExCor=  908 and IRadAn=       1 diagonalized for initial guess.
 HarFok:  IExCor=  908 AccDes= 0.00D+00 IRadAn=         1 IDoV= 1 UseB2=F ITyADJ=14
 ICtDFT=  3500011 ScaDFX=  1.000000  1.000000  1.000000  1.000000
 FoFCou: FMM=F IPFlag=           0 FMFlag=      100000 FMFlg1=           0
         NFxFlg=           0 DoJE=T BraDBF=F KetDBF=T FulRan=T
         wScrn=  0.000000 ICntrl=     500 IOpCl=  0 I1Cent=   200000004 NGrid=           0
         NMat0=    1 NMatS0=      1 NMatT0=    0 NMatD0=    1 NMtDS0=    0 NMtDT0=    0
 Petite list used in FoFCou.
 Requested convergence on RMS density matrix=1.00D-08 within 128 cycles.
 Requested convergence on MAX density matrix=1.00D-06.
 Requested convergence on             energy=1.00D-06.
 No special actions if energy rises.
 Inv3:  Mode=1 IEnd=    19584075.
 Iteration    1 A*A^-1 deviation from unit magnitude is 7.88D-15 for    140.
 Iteration    1 A*A^-1 deviation from orthogonality  is 8.88D-15 for   2390    485.
 Iteration    1 A^-1*A deviation from unit magnitude is 8.99D-15 for   1933.
 Iteration    1 A^-1*A deviation from orthogonality  is 6.56D-12 for   2463   2449.
 Error on total polarization charges =  0.00953
 SCF Done:  E(RmPW1PW91) =  -836.460716904     A.U. after   12 cycles
            NFock= 12  Conv=0.65D-08     -V/T= 2.0038
 DoSCS=F DFT=T ScalE2(SS,OS)=  1.000000  1.000000
 Range of M.O.s used for correlation:     1   363
 NBasis=   363 NAE=    65 NBE=    65 NFC=     0 NFV=     0
 NROrb=    363 NOA=    65 NOB=    65 NVA=   298 NVB=   298

 **** Warning!!: The largest alpha MO coefficient is  0.12644542D+02

 NEqPCM:  Using equilibrium solvation (IEInf=0, Eps=   4.7113, EpsInf=   2.0906)
          Differentiating once with respect to magnetic field using GIAOs.
          Electric field/nuclear overlap derivatives assumed to be zero.
 FoFJK:  IHMeth= 1 ICntrl=    6127 DoSepK=F KAlg= 0 I1Cent=   0 FoldK=F
 IRaf=         1 NMat=   1 IRICut=       1 DoRegI=T DoRafI=F ISym2E= 0.
          There are     3 degrees of freedom in the 1st order CPHF.  IDoFFX=0 NUNeed=     3.
      3 vectors produced by pass  0 Test12= 6.46D-13 3.33D-08 XBig12= 5.22D+01 2.52D+00.
 AX will form     3 AO Fock derivatives at one time.
      3 vectors produced by pass  1 Test12= 6.46D-13 3.33D-08 XBig12= 1.84D-01 2.43D-01.
      3 vectors produced by pass  2 Test12= 6.46D-13 3.33D-08 XBig12= 8.47D-04 8.95D-03.
      3 vectors produced by pass  3 Test12= 6.46D-13 3.33D-08 XBig12= 1.83D-06 2.82D-04.
      3 vectors produced by pass  4 Test12= 6.46D-13 3.33D-08 XBig12= 3.41D-09 1.68D-05.
      3 vectors produced by pass  5 Test12= 6.46D-13 3.33D-08 XBig12= 1.36D-11 6.31D-07.
 InvSVY:  IOpt=1 It=  1 EMax= 1.84D-16
 Solved reduced A of dimension    18 with     3 vectors.
 Calculating GIAO nuclear magnetic shielding tensors.
 SCF GIAO Magnetic shielding tensor (ppm):
      1  C    Isotropic =   174.8431   Anisotropy =    23.6516
   XX=   161.4571   YX=    -5.0153   ZX=    -2.9500
   XY=     0.2136   YY=   186.5375   ZY=     5.4064
   XZ=    -3.1933   YZ=     8.6891   ZZ=   176.5347
   Eigenvalues:   160.8106   173.1078   190.6108
      2  C    Isotropic =   164.4622   Anisotropy =    15.2999
   XX=   164.2315   YX=     1.8272   ZX=    -5.4858
   XY=     9.6296   YY=   167.7454   ZY=    -5.6109
   XZ=    -5.2729   YZ=    -1.0518   ZZ=   161.4098
   Eigenvalues:   157.1494   161.5752   174.6621
      3  C    Isotropic =   126.3013   Anisotropy =    29.9951
   XX=   143.8151   YX=    11.8568   ZX=     1.8000
   XY=     2.7104   YY=   120.7251   ZY=     5.0124
   XZ=     1.9404   YZ=     6.6797   ZZ=   114.3638
   Eigenvalues:   110.7362   121.8697   146.2981
      4  C    Isotropic =   148.7428   Anisotropy =    15.6869
   XX=   152.9458   YX=    -4.9749   ZX=    13.1300
   XY=    -6.1418   YY=   144.9680   ZY=    -1.0045
   XZ=     1.9938   YZ=     6.3922   ZZ=   148.3144
   Eigenvalues:   138.0956   148.9320   159.2007
      5  C    Isotropic =   120.2254   Anisotropy =    63.5158
   XX=   104.8427   YX=    -4.1282   ZX=     8.4585
   XY=    -5.2634   YY=    93.5147   ZY=    -0.0250
   XZ=    -0.9076   YZ=    -0.3434   ZZ=   162.3188
   Eigenvalues:    91.8037   106.3032   162.5692
      6  O    Isotropic =   308.4361   Anisotropy =   109.1562
   XX=   354.0744   YX=    -3.6764   ZX=    59.8273
   XY=     3.0769   YY=   268.1681   ZY=   -17.0246
   XZ=    31.2903   YZ=    -9.2191   ZZ=   303.0659
   Eigenvalues:   260.1014   284.0001   381.2070
      7  N    Isotropic =   208.4787   Anisotropy =    54.9001
   XX=   241.4149   YX=    -7.5502   ZX=    12.3911
   XY=    14.4513   YY=   191.9598   ZY=   -39.0828
   XZ=    11.5911   YZ=   -35.9192   ZZ=   192.0615
   Eigenvalues:   153.1525   227.2049   245.0788
      8  C    Isotropic =   145.2569   Anisotropy =    50.0090
   XX=   152.3488   YX=    14.7123   ZX=   -12.3594
   XY=    18.8084   YY=   121.3911   ZY=    -9.3693
   XZ=   -16.9391   YZ=   -11.4256   ZZ=   162.0308
   Eigenvalues:   113.7347   143.4398   178.5963
      9  C    Isotropic =    54.4306   Anisotropy =   187.5265
   XX=   -36.0095   YX=     5.3084   ZX=   -54.8598
   XY=     5.6670   YY=    34.3806   ZY=    -9.1904
   XZ=   -53.7273   YZ=   -10.1913   ZZ=   164.9206
   Eigenvalues:   -49.8452    33.6887   179.4483
     10  C    Isotropic =    71.9970   Anisotropy =   146.6512
   XX=    50.6441   YX=   -22.2951   ZX=   -32.3071
   XY=   -30.1083   YY=     5.2863   ZY=   -19.6335
   XZ=   -32.7230   YZ=   -17.6040   ZZ=   160.0607
   Eigenvalues:   -12.2746    58.5012   169.7645
     11  C    Isotropic =    19.4281   Anisotropy =    96.7751
   XX=    18.7584   YX=    43.9534   ZX=   -14.3043
   XY=    34.5339   YY=   -40.9406   ZY=    -0.1737
   XZ=   -12.5485   YZ=    -0.6541   ZZ=    80.4665
   Eigenvalues:   -60.6209    34.9604    83.9449
     12  C    Isotropic =    65.4913   Anisotropy =   138.2146
   XX=    24.7762   YX=     4.0530   ZX=   -36.3736
   XY=     4.0516   YY=    24.5289   ZY=   -10.6821
   XZ=   -34.6860   YZ=    -9.7951   ZZ=   147.1687
   Eigenvalues:    15.0290    23.8105   157.6344
     13  C    Isotropic =    16.8178   Anisotropy =    94.9369
   XX=    15.4370   YX=   -44.3652   ZX=   -20.7055
   XY=   -38.6937   YY=   -38.6056   ZY=   -18.0470
   XZ=   -19.6448   YZ=   -16.2993   ZZ=    73.6219
   Eigenvalues:   -65.5476    35.8919    80.1090
     14  C    Isotropic =    72.7107   Anisotropy =   145.5539
   XX=    55.0360   YX=    24.6936   ZX=   -27.8297
   XY=    32.0195   YY=     0.9420   ZY=    -3.8355
   XZ=   -28.1074   YZ=    -4.7077   ZZ=   162.1541
   Eigenvalues:   -11.5036    59.8891   169.7466
     15  H    Isotropic =    24.6342   Anisotropy =     3.1264
   XX=    25.9228   YX=     0.0214   ZX=     1.1330
   XY=    -0.0135   YY=    26.6804   ZY=     0.4001
   XZ=     1.1735   YZ=     0.3434   ZZ=    21.2995
   Eigenvalues:    21.0048    26.1794    26.7185
     16  H    Isotropic =    25.0972   Anisotropy =     4.9050
   XX=    28.0250   YX=    -0.1118   ZX=     1.5365
   XY=    -0.3938   YY=    25.6750   ZY=     0.1315
   XZ=     1.4278   YZ=     0.1684   ZZ=    21.5916
   Eigenvalues:    21.2575    25.6670    28.3672
     17  H    Isotropic =    25.1308   Anisotropy =     5.1889
   XX=    28.2829   YX=    -0.0793   ZX=     1.5075
   XY=     0.1428   YY=    25.4669   ZY=     0.3472
   XZ=     1.3975   YZ=     0.3514   ZZ=    21.6427
   Eigenvalues:    21.3118    25.4906    28.5901
     18  F    Isotropic =   294.7178   Anisotropy =   118.0004
   XX=   239.4756   YX=   -32.7474   ZX=   -37.5904
   XY=   -31.1824   YY=   281.9172   ZY=   -15.4134
   XZ=   -37.2904   YZ=    -9.6910   ZZ=   362.7607
   Eigenvalues:   212.2285   298.5402   373.3848
     19  F    Isotropic =   299.5207   Anisotropy =   116.7288
   XX=   243.7852   YX=    24.8419   ZX=   -28.8709
   XY=    37.7306   YY=   283.0542   ZY=     6.9280
   XZ=   -19.9458   YZ=    24.5615   ZZ=   371.7229
   Eigenvalues:   220.9122   300.3100   377.3399
     20  H    Isotropic =    30.9605   Anisotropy =    11.4564
   XX=    27.8742   YX=     2.3819   ZX=    -1.6350
   XY=     3.1664   YY=    37.0942   ZY=    -2.6120
   XZ=    -2.0010   YZ=    -2.1601   ZZ=    27.9132
   Eigenvalues:    26.0638    28.2196    38.5981
     21  H    Isotropic =    30.9897   Anisotropy =     7.7284
   XX=    35.0500   YX=    -1.3606   ZX=    -0.2222
   XY=    -2.1564   YY=    32.8896   ZY=     1.3217
   XZ=    -1.3068   YZ=     0.4325   ZZ=    25.0293
   Eigenvalues:    24.8996    31.9275    36.1419
     22  H    Isotropic =    31.1805   Anisotropy =     8.9115
   XX=    28.1981   YX=     0.9343   ZX=     2.3297
   XY=     0.8599   YY=    31.2660   ZY=     3.8464
   XZ=     2.8371   YZ=     2.9108   ZZ=    34.0776
   Eigenvalues:    27.1757    29.2444    37.1215
     23  H    Isotropic =    31.0356   Anisotropy =     5.5882
   XX=    26.6498   YX=     0.1066   ZX=    -1.0140
   XY=     0.0627   YY=    31.8506   ZY=    -0.3006
   XZ=    -0.8580   YZ=    -0.4173   ZZ=    34.6063
   Eigenvalues:    26.5409    31.8048    34.7610
     24  H    Isotropic =    30.6285   Anisotropy =     7.3390
   XX=    35.2931   YX=     0.1487   ZX=    -1.4255
   XY=     0.1205   YY=    32.2623   ZY=     0.3338
   XZ=    -1.7435   YZ=     0.0045   ZZ=    24.3302
   Eigenvalues:    24.1015    32.2629    35.5212
     25  H    Isotropic =    29.8943   Anisotropy =     5.1924
   XX=    30.5554   YX=     0.7439   ZX=    -2.0212
   XY=     1.1299   YY=    32.2256   ZY=    -1.7634
   XZ=    -1.6751   YZ=    -1.1354   ZZ=    26.9018
   Eigenvalues:    25.9678    30.3591    33.3559
     26  H    Isotropic =    28.4797   Anisotropy =     3.7783
   XX=    30.5453   YX=     0.6019   ZX=    -0.0026
   XY=     0.9083   YY=    26.1122   ZY=    -0.7444
   XZ=    -0.9437   YZ=    -2.6794   ZZ=    28.7815
   Eigenvalues:    25.2334    29.2071    30.9985
     27  H    Isotropic =    28.3485   Anisotropy =     6.4129
   XX=    27.4173   YX=    -4.4918   ZX=     0.2527
   XY=    -4.6940   YY=    27.9133   ZY=     0.1094
   XZ=    -0.1813   YZ=     2.7222   ZZ=    29.7148
   Eigenvalues:    22.9164    29.5053    32.6237
     28  H    Isotropic =    31.5862   Anisotropy =    20.8649
   XX=    39.0289   YX=    -1.5721   ZX=     7.9624
   XY=    -1.5751   YY=    22.2883   ZY=    -1.1170
   XZ=     9.3350   YZ=    -1.3535   ZZ=    33.4412
   Eigenvalues:    22.1151    27.1473    45.4961
     29  H    Isotropic =    28.2049   Anisotropy =     7.5299
   XX=    30.6348   YX=     2.1035   ZX=    -1.1306
   XY=     1.4411   YY=    30.9475   ZY=    -2.2052
   XZ=    -0.0564   YZ=    -3.5264   ZZ=    23.0323
   Eigenvalues:    22.1036    29.2862    33.2248
     30  H    Isotropic =    28.3981   Anisotropy =     5.7054
   XX=    28.1400   YX=     0.4109   ZX=    -2.0779
   XY=    -0.3342   YY=    25.3012   ZY=     0.3955
   XZ=     1.0141   YZ=     2.8487   ZZ=    31.7531
   Eigenvalues:    24.9084    28.0842    32.2017
     31  H    Isotropic =    28.9129   Anisotropy =     4.3546
   XX=    29.3039   YX=    -2.1938   ZX=     3.0954
   XY=    -1.7819   YY=    28.1588   ZY=     0.5098
   XZ=     1.1188   YZ=     0.2873   ZZ=    29.2758
   Eigenvalues:    25.8316    29.0911    31.8159
     32  C    Isotropic =   176.9194   Anisotropy =    20.0264
   XX=   167.7222   YX=    -3.1291   ZX=    -2.8839
   XY=    -2.9097   YY=   173.3500   ZY=     3.8191
   XZ=     1.7781   YZ=     2.1737   ZZ=   189.6860
   Eigenvalues:   166.3874   174.1003   190.2703
     33  H    Isotropic =    30.7241   Anisotropy =     6.8628
   XX=    32.4501   YX=    -1.4688   ZX=     2.2973
   XY=    -1.2591   YY=    27.0168   ZY=     2.3924
   XZ=     2.9820   YZ=     2.2623   ZZ=    32.7055
   Eigenvalues:    25.4582    31.4148    35.2994
     34  H    Isotropic =    31.7420   Anisotropy =     8.1683
   XX=    30.9283   YX=     1.5990   ZX=    -4.2472
   XY=     1.6643   YY=    30.8057   ZY=    -0.3891
   XZ=    -4.5638   YZ=    -1.0784   ZZ=    33.4921
   Eigenvalues:    27.3854    30.6531    37.1876
     35  H    Isotropic =    31.5964   Anisotropy =    10.9102
   XX=    27.9702   YX=    -2.4168   ZX=    -1.0621
   XY=    -2.1042   YY=    35.6854   ZY=     3.8618
   XZ=    -1.3690   YZ=     4.7205   ZZ=    31.1337
   Eigenvalues:    27.3551    28.5643    38.8699
     36  H    Isotropic =    31.2141   Anisotropy =    11.3488
   XX=    36.4903   YX=    -2.6328   ZX=    -1.5968
   XY=    -2.7143   YY=    35.4262   ZY=    -3.1756
   XZ=    -3.2013   YZ=    -6.1005   ZZ=    21.7258
   Eigenvalues:    19.7314    35.1309    38.7800
 End of Minotr F.D. properties file   721 does not exist.
 End of Minotr F.D. properties file   722 does not exist.
 End of Minotr F.D. properties file   788 does not exist.

 **********************************************************************

            Population analysis using the SCF density.

 **********************************************************************

 Orbital symmetries:
       Occupied  (A) (A) (A) (A) (A) (A) (A) (A) (A) (A) (A) (A)
                 (A) (A) (A) (A) (A) (A) (A) (A) (A) (A) (A) (A)
                 (A) (A) (A) (A) (A) (A) (A) (A) (A) (A) (A) (A)
                 (A) (A) (A) (A) (A) (A) (A) (A) (A) (A) (A) (A)
                 (A) (A) (A) (A) (A) (A) (A) (A) (A) (A) (A) (A)
                 (A) (A) (A) (A) (A)
       Virtual   (A) (A) (A) (A) (A) (A) (A) (A) (A) (A) (A) (A)
                 (A) (A) (A) (A) (A) (A) (A) (A) (A) (A) (A) (A)
                 (A) (A) (A) (A) (A) (A) (A) (A) (A) (A) (A) (A)
                 (A) (A) (A) (A) (A) (A) (A) (A) (A) (A) (A) (A)
                 (A) (A) (A) (A) (A) (A) (A) (A) (A) (A) (A) (A)
                 (A) (A) (A) (A) (A) (A) (A) (A) (A) (A) (A) (A)
                 (A) (A) (A) (A) (A) (A) (A) (A) (A) (A) (A) (A)
                 (A) (A) (A) (A) (A) (A) (A) (A) (A) (A) (A) (A)
                 (A) (A) (A) (A) (A) (A) (A) (A) (A) (A) (A) (A)
                 (A) (A) (A) (A) (A) (A) (A) (A) (A) (A) (A) (A)
                 (A) (A) (A) (A) (A) (A) (A) (A) (A) (A) (A) (A)
                 (A) (A) (A) (A) (A) (A) (A) (A) (A) (A) (A) (A)
                 (A) (A) (A) (A) (A) (A) (A) (A) (A) (A) (A) (A)
                 (A) (A) (A) (A) (A) (A) (A) (A) (A) (A) (A) (A)
                 (A) (A) (A) (A) (A) (A) (A) (A) (A) (A) (A) (A)
                 (A) (A) (A) (A) (A) (A) (A) (A) (A) (A) (A) (A)
                 (A) (A) (A) (A) (A) (A) (A) (A) (A) (A) (A) (A)
                 (A) (A) (A) (A) (A) (A) (A) (A) (A) (A) (A) (A)
                 (A) (A) (A) (A) (A) (A) (A) (A) (A) (A) (A) (A)
                 (A) (A) (A) (A) (A) (A) (A) (A) (A) (A) (A) (A)
                 (A) (A) (A) (A) (A) (A) (A) (A) (A) (A) (A) (A)
                 (A) (A) (A) (A) (A) (A) (A) (A) (A) (A) (A) (A)
                 (A) (A) (A) (A) (A) (A) (A) (A) (A) (A) (A) (A)
                 (A) (A) (A) (A) (A) (A) (A) (A) (A) (A) (A) (A)
                 (A) (A) (A) (A) (A) (A) (A) (A) (A) (A)
 The electronic state is 1-A.
 Alpha  occ. eigenvalues --  -24.80095 -24.79656 -19.20673 -14.37518 -10.33652
 Alpha  occ. eigenvalues --  -10.33648 -10.27221 -10.26650 -10.26473 -10.26067
 Alpha  occ. eigenvalues --  -10.25483 -10.25305 -10.25231 -10.23130 -10.22756
 Alpha  occ. eigenvalues --  -10.22001 -10.21319  -1.26865  -1.26631  -1.04704
 Alpha  occ. eigenvalues --   -0.93832  -0.90511  -0.82955  -0.80046  -0.78694
 Alpha  occ. eigenvalues --   -0.78172  -0.71308  -0.69321  -0.67373  -0.65732
 Alpha  occ. eigenvalues --   -0.63778  -0.62494  -0.58531  -0.56015  -0.55289
 Alpha  occ. eigenvalues --   -0.52814  -0.52144  -0.51404  -0.50746  -0.49546
 Alpha  occ. eigenvalues --   -0.49071  -0.48770  -0.47978  -0.46511  -0.45165
 Alpha  occ. eigenvalues --   -0.43678  -0.42830  -0.42817  -0.41951  -0.41309
 Alpha  occ. eigenvalues --   -0.40596  -0.39237  -0.38400  -0.38011  -0.37746
 Alpha  occ. eigenvalues --   -0.37614  -0.36827  -0.35287  -0.34022  -0.32733
 Alpha  occ. eigenvalues --   -0.31982  -0.28608  -0.27478  -0.26906  -0.23875
 Alpha virt. eigenvalues --   -0.02105  -0.00813   0.05108   0.05449   0.06429
 Alpha virt. eigenvalues --    0.07087   0.07609   0.09715   0.10310   0.10596
 Alpha virt. eigenvalues --    0.11617   0.11890   0.12376   0.13046   0.13529
 Alpha virt. eigenvalues --    0.14177   0.14453   0.14757   0.15520   0.16712
 Alpha virt. eigenvalues --    0.17625   0.17851   0.18864   0.19491   0.21132
 Alpha virt. eigenvalues --    0.21496   0.22887   0.23479   0.23510   0.24348
 Alpha virt. eigenvalues --    0.25305   0.25629   0.27230   0.28474   0.29943
 Alpha virt. eigenvalues --    0.31788   0.32974   0.33856   0.34523   0.34993
 Alpha virt. eigenvalues --    0.35435   0.37552   0.38318   0.38933   0.39504
 Alpha virt. eigenvalues --    0.39599   0.40853   0.41306   0.42379   0.42742
 Alpha virt. eigenvalues --    0.43102   0.44198   0.44520   0.45557   0.45940
 Alpha virt. eigenvalues --    0.47386   0.47960   0.50510   0.51129   0.51473
 Alpha virt. eigenvalues --    0.52591   0.53056   0.54013   0.55586   0.56216
 Alpha virt. eigenvalues --    0.56404   0.57518   0.58379   0.58768   0.58894
 Alpha virt. eigenvalues --    0.59666   0.59883   0.60693   0.61638   0.62241
 Alpha virt. eigenvalues --    0.62519   0.63549   0.63938   0.64155   0.64654
 Alpha virt. eigenvalues --    0.65348   0.65680   0.66037   0.66107   0.67202
 Alpha virt. eigenvalues --    0.67506   0.68639   0.69884   0.70293   0.71481
 Alpha virt. eigenvalues --    0.72719   0.73494   0.74100   0.75308   0.76401
 Alpha virt. eigenvalues --    0.77887   0.78855   0.81795   0.83454   0.86668
 Alpha virt. eigenvalues --    0.86868   0.89107   0.89421   0.92665   0.93863
 Alpha virt. eigenvalues --    0.94308   0.95339   0.97255   0.98701   0.99173
 Alpha virt. eigenvalues --    1.00131   1.03399   1.04969   1.05407   1.07124
 Alpha virt. eigenvalues --    1.08905   1.09541   1.10161   1.14419   1.14791
 Alpha virt. eigenvalues --    1.18155   1.18982   1.23195   1.23573   1.26047
 Alpha virt. eigenvalues --    1.26092   1.28223   1.29442   1.30978   1.31919
 Alpha virt. eigenvalues --    1.33565   1.34572   1.37102   1.41292   1.42455
 Alpha virt. eigenvalues --    1.44539   1.45651   1.47348   1.48752   1.49842
 Alpha virt. eigenvalues --    1.50772   1.51697   1.53221   1.54169   1.54533
 Alpha virt. eigenvalues --    1.55108   1.56723   1.57163   1.60315   1.61805
 Alpha virt. eigenvalues --    1.63342   1.63401   1.64692   1.65933   1.66864
 Alpha virt. eigenvalues --    1.68045   1.68646   1.70423   1.71450   1.73793
 Alpha virt. eigenvalues --    1.74059   1.76815   1.78570   1.79667   1.80659
 Alpha virt. eigenvalues --    1.81672   1.84194   1.85088   1.88918   1.90109
 Alpha virt. eigenvalues --    1.90429   1.90775   1.92287   1.94059   1.95844
 Alpha virt. eigenvalues --    1.97165   1.97822   1.99206   2.02076   2.03804
 Alpha virt. eigenvalues --    2.06103   2.09951   2.12241   2.17855   2.19767
 Alpha virt. eigenvalues --    2.20901   2.22189   2.26036   2.27348   2.27696
 Alpha virt. eigenvalues --    2.30586   2.33553   2.35893   2.38166   2.40648
 Alpha virt. eigenvalues --    2.41808   2.42655   2.43055   2.44318   2.46015
 Alpha virt. eigenvalues --    2.48438   2.49992   2.51017   2.51697   2.53080
 Alpha virt. eigenvalues --    2.54507   2.56493   2.57696   2.60787   2.65613
 Alpha virt. eigenvalues --    2.66506   2.68859   2.70291   2.72071   2.74844
 Alpha virt. eigenvalues --    2.77866   2.83431   2.83840   2.85644   2.89133
 Alpha virt. eigenvalues --    2.90726   2.95013   2.97511   3.00515   3.05301
 Alpha virt. eigenvalues --    3.05935   3.06990   3.08349   3.09067   3.11110
 Alpha virt. eigenvalues --    3.13445   3.15346   3.16065   3.20626   3.21494
 Alpha virt. eigenvalues --    3.22239   3.23613   3.25890   3.28060   3.28979
 Alpha virt. eigenvalues --    3.29676   3.29966   3.32604   3.38084   3.38780
 Alpha virt. eigenvalues --    3.46570   3.48098   3.52009   3.59827   3.63919
 Alpha virt. eigenvalues --    3.74045   3.78257   3.80117   3.80366   3.81157
 Alpha virt. eigenvalues --    3.86089   3.86437   3.96008   3.97292   3.98661
 Alpha virt. eigenvalues --    3.99571   4.05660   4.09154   4.10320   4.12055
 Alpha virt. eigenvalues --    4.18077   4.22942   4.48198   4.75348   4.77110
 Alpha virt. eigenvalues --    4.78034   4.80270   4.92101   5.12645   5.40056
 Alpha virt. eigenvalues --    6.13318   6.14960   6.29584   6.32615   6.55364
 Alpha virt. eigenvalues --    6.57384  23.29003  23.46782  23.58655  23.70476
 Alpha virt. eigenvalues --   23.72149  23.77851  23.82964  23.85154  23.86236
 Alpha virt. eigenvalues --   23.90674  24.10156  24.10661  24.19826  35.59387
 Alpha virt. eigenvalues --   49.96037  66.89201  66.89571
          Condensed to atoms (all electrons):
               1          2          3          4          5          6
     1  C    5.343749   0.311503  -0.073937   0.008094  -0.000411  -0.000044
     2  C    0.311503   5.365140   0.299563  -0.054100  -0.003058   0.000415
     3  C   -0.073937   0.299563   5.356942   0.280895  -0.067435  -0.004992
     4  C    0.008094  -0.054100   0.280895   5.463812   0.287318  -0.057970
     5  C   -0.000411  -0.003058  -0.067435   0.287318   5.122717   0.232486
     6  O   -0.000044   0.000415  -0.004992  -0.057970   0.232486   8.214647
     7  N   -0.002667  -0.044558   0.244493  -0.059089   0.005044   0.000007
     8  C    0.000596   0.006290  -0.073073  -0.005221  -0.000080  -0.000170
     9  C    0.000000   0.000000  -0.000001   0.000000   0.000000   0.000000
    10  C    0.000000   0.000000   0.000011  -0.000001   0.000000   0.000000
    11  C   -0.000002   0.000007  -0.000602   0.000099   0.000002   0.000000
    12  C   -0.000011  -0.000229   0.009453  -0.000293   0.000012   0.000000
    13  C   -0.000024  -0.000045   0.000285   0.000026  -0.000001   0.000000
    14  C   -0.000004   0.000000   0.000016   0.000000   0.000000   0.000000
    15  H    0.000000   0.000000   0.000000   0.000000   0.000000   0.000000
    16  H    0.000000   0.000000   0.000000   0.000000   0.000000   0.000000
    17  H    0.000000   0.000000  -0.000001   0.000000   0.000000   0.000000
    18  F    0.000000   0.000000   0.000030  -0.000039   0.000000   0.000000
    19  F   -0.000380  -0.000081  -0.000072  -0.000003   0.000000   0.000000
    20  H    0.392670  -0.037281   0.007533  -0.000204  -0.000013   0.000000
    21  H    0.382471  -0.039265  -0.005334   0.000391  -0.000060   0.000002
    22  H    0.385983  -0.040483  -0.003332  -0.000452   0.000205  -0.000051
    23  H   -0.045274   0.390407  -0.041288  -0.009669   0.001017  -0.000033
    24  H   -0.037090   0.398506  -0.052121   0.002597  -0.001227  -0.000533
    25  H   -0.000290   0.007912  -0.064374   0.400718  -0.049695   0.008348
    26  H   -0.000211   0.004033  -0.018197  -0.037277   0.373457  -0.035149
    27  H    0.000021  -0.000288   0.010011  -0.049492   0.394476  -0.032569
    28  H   -0.000005  -0.000023  -0.000037   0.010970  -0.045868   0.256274
    29  H    0.000033  -0.000084  -0.002772   0.003703  -0.000566   0.000113
    30  H   -0.000287   0.000879  -0.004687  -0.001982   0.000387  -0.000247
    31  H   -0.010519  -0.042112   0.415896  -0.086229  -0.002388   0.025140
    32  C   -0.000064  -0.013706  -0.057615   0.281051  -0.068855   0.003462
    33  H   -0.000218  -0.002402  -0.007093  -0.041508   0.008336  -0.000149
    34  H    0.000151   0.004001  -0.010486  -0.034212  -0.005749  -0.000062
    35  H    0.000014  -0.000042   0.008683  -0.033733  -0.004145  -0.000144
    36  H    0.003761  -0.011305  -0.057874   0.006932  -0.000328   0.000001
               7          8          9         10         11         12
     1  C   -0.002667   0.000596   0.000000   0.000000  -0.000002  -0.000011
     2  C   -0.044558   0.006290   0.000000   0.000000   0.000007  -0.000229
     3  C    0.244493  -0.073073  -0.000001   0.000011  -0.000602   0.009453
     4  C   -0.059089  -0.005221   0.000000  -0.000001   0.000099  -0.000293
     5  C    0.005044  -0.000080   0.000000   0.000000   0.000002   0.000012
     6  O    0.000007  -0.000170   0.000000   0.000000   0.000000   0.000000
     7  N    6.955726   0.280912   0.000047  -0.000101   0.010320  -0.055387
     8  C    0.280912   5.312233  -0.001427   0.009867  -0.072152   0.276655
     9  C    0.000047  -0.001427   5.072922   0.436115  -0.003877  -0.055096
    10  C   -0.000101   0.009867   0.436115   5.175993   0.469904  -0.030534
    11  C    0.010320  -0.072152  -0.003877   0.469904   4.751172   0.296930
    12  C   -0.055387   0.276655  -0.055096  -0.030534   0.296930   5.721467
    13  C   -0.005940  -0.079840  -0.009578  -0.057045   0.042945   0.231916
    14  C   -0.000223   0.009126   0.439059  -0.043329  -0.063032  -0.041646
    15  H    0.000000   0.000028   0.402721  -0.039877   0.006013  -0.001641
    16  H    0.000007  -0.000216  -0.040716   0.393364  -0.048627   0.011984
    17  H    0.000014  -0.000246  -0.039953   0.006689  -0.001582   0.011963
    18  F   -0.000255  -0.006956   0.005556  -0.052517   0.307482  -0.073441
    19  F   -0.003619   0.002827   0.005312  -0.000511   0.005203  -0.082640
    20  H   -0.000004   0.000041   0.000000   0.000000   0.000000  -0.000004
    21  H    0.003261   0.000321  -0.000003   0.000001  -0.000036  -0.000223
    22  H   -0.000292   0.000028   0.000000   0.000000   0.000000  -0.000002
    23  H    0.001252  -0.000191   0.000000   0.000000   0.000009   0.000095
    24  H    0.005094  -0.000523   0.000000   0.000000  -0.000001   0.000022
    25  H   -0.002913   0.002674   0.000000  -0.000005   0.000196  -0.000034
    26  H   -0.000023  -0.000039   0.000000   0.000000   0.000000   0.000001
    27  H   -0.000215  -0.000039   0.000000   0.000000   0.000000  -0.000002
    28  H    0.000012   0.000010   0.000000   0.000000   0.000000   0.000000
    29  H   -0.038651   0.384072  -0.000340   0.001608  -0.019302  -0.037712
    30  H   -0.050993   0.374839  -0.000015  -0.000199   0.009575  -0.034322
    31  H   -0.044105  -0.010757   0.000000  -0.000001   0.000104   0.000816
    32  C   -0.012613   0.000708   0.000000   0.000000  -0.000048   0.000004
    33  H    0.023383  -0.000441   0.000000  -0.000002   0.000216  -0.000038
    34  H    0.000042  -0.000028   0.000000   0.000000   0.000001   0.000005
    35  H   -0.000487  -0.000043   0.000000   0.000000  -0.000002  -0.000003
    36  H    0.343695  -0.052377  -0.000034   0.000007   0.000088  -0.017487
              13         14         15         16         17         18
     1  C   -0.000024  -0.000004   0.000000   0.000000   0.000000   0.000000
     2  C   -0.000045   0.000000   0.000000   0.000000   0.000000   0.000000
     3  C    0.000285   0.000016   0.000000   0.000000  -0.000001   0.000030
     4  C    0.000026   0.000000   0.000000   0.000000   0.000000  -0.000039
     5  C   -0.000001   0.000000   0.000000   0.000000   0.000000   0.000000
     6  O    0.000000   0.000000   0.000000   0.000000   0.000000   0.000000
     7  N   -0.005940  -0.000223   0.000000   0.000007   0.000014  -0.000255
     8  C   -0.079840   0.009126   0.000028  -0.000216  -0.000246  -0.006956
     9  C   -0.009578   0.439059   0.402721  -0.040716  -0.039953   0.005556
    10  C   -0.057045  -0.043329  -0.039877   0.393364   0.006689  -0.052517
    11  C    0.042945  -0.063032   0.006013  -0.048627  -0.001582   0.307482
    12  C    0.231916  -0.041646  -0.001641   0.011984   0.011963  -0.073441
    13  C    4.811138   0.485522   0.006284  -0.001645  -0.050456   0.005836
    14  C    0.485522   5.173303  -0.041050   0.006878   0.394238  -0.000438
    15  H    0.006284  -0.041050   0.446340  -0.006380  -0.006387  -0.000082
    16  H   -0.001645   0.006878  -0.006380   0.446405  -0.000139   0.001431
    17  H   -0.050456   0.394238  -0.006387  -0.000139   0.446095   0.000004
    18  F    0.005836  -0.000438  -0.000082   0.001431   0.000004   9.044199
    19  F    0.306138  -0.054436  -0.000081   0.000004   0.001507  -0.000002
    20  H    0.000002   0.000000   0.000000   0.000000   0.000000   0.000000
    21  H    0.000099   0.000070   0.000000   0.000000   0.000005   0.000000
    22  H    0.000005   0.000000   0.000000   0.000000   0.000000   0.000000
    23  H   -0.000051  -0.000002   0.000000   0.000000   0.000000   0.000000
    24  H    0.000001   0.000000   0.000000   0.000000   0.000000   0.000000
    25  H   -0.000067   0.000000   0.000000   0.000001   0.000000  -0.000144
    26  H    0.000000   0.000000   0.000000   0.000000   0.000000   0.000000
    27  H    0.000000   0.000000   0.000000   0.000000   0.000000   0.000000
    28  H    0.000000   0.000000   0.000000   0.000000   0.000000   0.000000
    29  H    0.010158   0.000196   0.000006  -0.000055   0.000007   0.015808
    30  H   -0.022496  -0.000664   0.000002   0.000013  -0.000014   0.000048
    31  H   -0.000356  -0.000009   0.000000   0.000000   0.000000  -0.000003
    32  C    0.000014   0.000000   0.000000   0.000000   0.000000  -0.000002
    33  H   -0.000080  -0.000003   0.000000   0.000000   0.000000   0.000010
    34  H   -0.000001   0.000000   0.000000   0.000000   0.000000   0.000000
    35  H    0.000000   0.000000   0.000000   0.000000   0.000000   0.000001
    36  H    0.004517  -0.000122   0.000001   0.000000   0.000006  -0.000010
              19         20         21         22         23         24
     1  C   -0.000380   0.392670   0.382471   0.385983  -0.045274  -0.037090
     2  C   -0.000081  -0.037281  -0.039265  -0.040483   0.390407   0.398506
     3  C   -0.000072   0.007533  -0.005334  -0.003332  -0.041288  -0.052121
     4  C   -0.000003  -0.000204   0.000391  -0.000452  -0.009669   0.002597
     5  C    0.000000  -0.000013  -0.000060   0.000205   0.001017  -0.001227
     6  O    0.000000   0.000000   0.000002  -0.000051  -0.000033  -0.000533
     7  N   -0.003619  -0.000004   0.003261  -0.000292   0.001252   0.005094
     8  C    0.002827   0.000041   0.000321   0.000028  -0.000191  -0.000523
     9  C    0.005312   0.000000  -0.000003   0.000000   0.000000   0.000000
    10  C   -0.000511   0.000000   0.000001   0.000000   0.000000   0.000000
    11  C    0.005203   0.000000  -0.000036   0.000000   0.000009  -0.000001
    12  C   -0.082640  -0.000004  -0.000223  -0.000002   0.000095   0.000022
    13  C    0.306138   0.000002   0.000099   0.000005  -0.000051   0.000001
    14  C   -0.054436   0.000000   0.000070   0.000000  -0.000002   0.000000
    15  H   -0.000081   0.000000   0.000000   0.000000   0.000000   0.000000
    16  H    0.000004   0.000000   0.000000   0.000000   0.000000   0.000000
    17  H    0.001507   0.000000   0.000005   0.000000   0.000000   0.000000
    18  F   -0.000002   0.000000   0.000000   0.000000   0.000000   0.000000
    19  F    9.056324  -0.000006   0.003615  -0.000027  -0.000033  -0.000002
    20  H   -0.000006   0.471643  -0.026636  -0.027191  -0.004449  -0.004403
    21  H    0.003615  -0.026636   0.487647  -0.029573  -0.006375   0.007140
    22  H   -0.000027  -0.027191  -0.029573   0.482427   0.007521  -0.005782
    23  H   -0.000033  -0.004449  -0.006375   0.007521   0.494276  -0.030376
    24  H   -0.000002  -0.004403   0.007140  -0.005782  -0.030376   0.482587
    25  H   -0.000001   0.000020  -0.000009  -0.000046  -0.000458   0.000439
    26  H    0.000000   0.000051  -0.000018  -0.000005   0.000014   0.005056
    27  H    0.000000  -0.000002   0.000003  -0.000013  -0.000099  -0.000051
    28  H    0.000000   0.000000  -0.000001   0.000020   0.000009  -0.000015
    29  H    0.000183   0.000002   0.000111  -0.000001  -0.000121   0.000026
    30  H    0.004329  -0.000029  -0.001018   0.000156   0.000300  -0.000024
    31  H   -0.000068  -0.000033  -0.002087   0.004858   0.007882  -0.002782
    32  C    0.000000   0.000011  -0.000027   0.000000   0.001643  -0.002211
    33  H    0.000000  -0.000007  -0.000083   0.000007   0.002651  -0.000039
    34  H    0.000000   0.000016   0.000003  -0.000025  -0.002030   0.000893
    35  H    0.000000  -0.000002   0.000001   0.000002   0.000102  -0.000186
    36  H    0.009607  -0.000354   0.006886  -0.000304  -0.000215   0.000859
              25         26         27         28         29         30
     1  C   -0.000290  -0.000211   0.000021  -0.000005   0.000033  -0.000287
     2  C    0.007912   0.004033  -0.000288  -0.000023  -0.000084   0.000879
     3  C   -0.064374  -0.018197   0.010011  -0.000037  -0.002772  -0.004687
     4  C    0.400718  -0.037277  -0.049492   0.010970   0.003703  -0.001982
     5  C   -0.049695   0.373457   0.394476  -0.045868  -0.000566   0.000387
     6  O    0.008348  -0.035149  -0.032569   0.256274   0.000113  -0.000247
     7  N   -0.002913  -0.000023  -0.000215   0.000012  -0.038651  -0.050993
     8  C    0.002674  -0.000039  -0.000039   0.000010   0.384072   0.374839
     9  C    0.000000   0.000000   0.000000   0.000000  -0.000340  -0.000015
    10  C   -0.000005   0.000000   0.000000   0.000000   0.001608  -0.000199
    11  C    0.000196   0.000000   0.000000   0.000000  -0.019302   0.009575
    12  C   -0.000034   0.000001  -0.000002   0.000000  -0.037712  -0.034322
    13  C   -0.000067   0.000000   0.000000   0.000000   0.010158  -0.022496
    14  C    0.000000   0.000000   0.000000   0.000000   0.000196  -0.000664
    15  H    0.000000   0.000000   0.000000   0.000000   0.000006   0.000002
    16  H    0.000001   0.000000   0.000000   0.000000  -0.000055   0.000013
    17  H    0.000000   0.000000   0.000000   0.000000   0.000007  -0.000014
    18  F   -0.000144   0.000000   0.000000   0.000000   0.015808   0.000048
    19  F   -0.000001   0.000000   0.000000   0.000000   0.000183   0.004329
    20  H    0.000020   0.000051  -0.000002   0.000000   0.000002  -0.000029
    21  H   -0.000009  -0.000018   0.000003  -0.000001   0.000111  -0.001018
    22  H   -0.000046  -0.000005  -0.000013   0.000020  -0.000001   0.000156
    23  H   -0.000458   0.000014  -0.000099   0.000009  -0.000121   0.000300
    24  H    0.000439   0.005056  -0.000051  -0.000015   0.000026  -0.000024
    25  H    0.516079   0.011625  -0.012384  -0.000496   0.000892   0.000640
    26  H    0.011625   0.542314  -0.047314  -0.005023  -0.000056   0.000025
    27  H   -0.012384  -0.047314   0.525619  -0.002583   0.000121  -0.000022
    28  H   -0.000496  -0.005023  -0.002583   0.376409  -0.000014   0.000015
    29  H    0.000892  -0.000056   0.000121  -0.000014   0.467842  -0.045673
    30  H    0.000640   0.000025  -0.000022   0.000015  -0.045673   0.538535
    31  H   -0.004677  -0.000087   0.001496  -0.001196  -0.002721   0.010836
    32  C   -0.037562  -0.000125   0.000529  -0.000685   0.000510  -0.000114
    33  H   -0.004871  -0.000478  -0.000207   0.000037  -0.000846   0.000366
    34  H    0.008016   0.005119  -0.001546  -0.000016  -0.000029   0.000003
    35  H   -0.008698  -0.001164   0.005594  -0.000013   0.000090  -0.000011
    36  H   -0.000297  -0.000032   0.000025   0.000000   0.006023  -0.001980
              31         32         33         34         35         36
     1  C   -0.010519  -0.000064  -0.000218   0.000151   0.000014   0.003761
     2  C   -0.042112  -0.013706  -0.002402   0.004001  -0.000042  -0.011305
     3  C    0.415896  -0.057615  -0.007093  -0.010486   0.008683  -0.057874
     4  C   -0.086229   0.281051  -0.041508  -0.034212  -0.033733   0.006932
     5  C   -0.002388  -0.068855   0.008336  -0.005749  -0.004145  -0.000328
     6  O    0.025140   0.003462  -0.000149  -0.000062  -0.000144   0.000001
     7  N   -0.044105  -0.012613   0.023383   0.000042  -0.000487   0.343695
     8  C   -0.010757   0.000708  -0.000441  -0.000028  -0.000043  -0.052377
     9  C    0.000000   0.000000   0.000000   0.000000   0.000000  -0.000034
    10  C   -0.000001   0.000000  -0.000002   0.000000   0.000000   0.000007
    11  C    0.000104  -0.000048   0.000216   0.000001  -0.000002   0.000088
    12  C    0.000816   0.000004  -0.000038   0.000005  -0.000003  -0.017487
    13  C   -0.000356   0.000014  -0.000080  -0.000001   0.000000   0.004517
    14  C   -0.000009   0.000000  -0.000003   0.000000   0.000000  -0.000122
    15  H    0.000000   0.000000   0.000000   0.000000   0.000000   0.000001
    16  H    0.000000   0.000000   0.000000   0.000000   0.000000   0.000000
    17  H    0.000000   0.000000   0.000000   0.000000   0.000000   0.000006
    18  F   -0.000003  -0.000002   0.000010   0.000000   0.000001  -0.000010
    19  F   -0.000068   0.000000   0.000000   0.000000   0.000000   0.009607
    20  H   -0.000033   0.000011  -0.000007   0.000016  -0.000002  -0.000354
    21  H   -0.002087  -0.000027  -0.000083   0.000003   0.000001   0.006886
    22  H    0.004858   0.000000   0.000007  -0.000025   0.000002  -0.000304
    23  H    0.007882   0.001643   0.002651  -0.002030   0.000102  -0.000215
    24  H   -0.002782  -0.002211  -0.000039   0.000893  -0.000186   0.000859
    25  H   -0.004677  -0.037562  -0.004871   0.008016  -0.008698  -0.000297
    26  H   -0.000087  -0.000125  -0.000478   0.005119  -0.001164  -0.000032
    27  H    0.001496   0.000529  -0.000207  -0.001546   0.005594   0.000025
    28  H   -0.001196  -0.000685   0.000037  -0.000016  -0.000013   0.000000
    29  H   -0.002721   0.000510  -0.000846  -0.000029   0.000090   0.006023
    30  H    0.010836  -0.000114   0.000366   0.000003  -0.000011  -0.001980
    31  H    0.504135   0.008529   0.001074  -0.000372  -0.000220   0.004299
    32  C    0.008529   5.418812   0.378895   0.382197   0.388311  -0.000200
    33  H    0.001074   0.378895   0.456864  -0.026580  -0.025067  -0.000302
    34  H   -0.000372   0.382197  -0.026580   0.492145  -0.031223  -0.000038
    35  H   -0.000220   0.388311  -0.025067  -0.031223   0.477783   0.000040
    36  H    0.004299  -0.000200  -0.000302  -0.000038   0.000040   0.425236
 Mulliken charges:
               1
     1  C   -0.657606
     2  C   -0.499592
     3  C   -0.088489
     4  C   -0.275134
     5  C   -0.175575
     6  O   -0.608783
     7  N   -0.551175
     8  C   -0.357406
     9  C   -0.210693
    10  C   -0.269435
    11  C    0.308996
    12  C   -0.130578
    13  C    0.322738
    14  C   -0.263449
    15  H    0.234104
    16  H    0.237694
    17  H    0.238247
    18  F   -0.246519
    19  F   -0.253089
    20  H    0.228627
    21  H    0.218724
    22  H    0.226364
    23  H    0.233489
    24  H    0.234145
    25  H    0.229462
    26  H    0.203502
    27  H    0.208929
    28  H    0.412219
    29  H    0.257437
    30  H    0.223826
    31  H    0.225657
    32  C   -0.670849
    33  H    0.238573
    34  H    0.219805
    35  H    0.224561
    36  H    0.331273
 Sum of Mulliken charges =   0.00000
 Mulliken charges with hydrogens summed into heavy atoms:
               1
     1  C    0.016109
     2  C   -0.031958
     3  C    0.137168
     4  C   -0.045671
     5  C    0.236856
     6  O   -0.196564
     7  N   -0.219901
     8  C    0.123857
     9  C    0.023411
    10  C   -0.031742
    11  C    0.308996
    12  C   -0.130578
    13  C    0.322738
    14  C   -0.025202
    18  F   -0.246519
    19  F   -0.253089
    32  C    0.012089
 Electronic spatial extent (au):  <R**2>=           5350.3091
 Charge=              0.0000 electrons
 Dipole moment (field-independent basis, Debye):
    X=              0.4672    Y=              0.7975    Z=             -0.1300  Tot=              0.9333
 Quadrupole moment (field-independent basis, Debye-Ang):
   XX=            -70.2327   YY=           -102.5124   ZZ=           -105.3109
   XY=             -1.9781   XZ=              4.6935   YZ=             -0.6391
 Traceless Quadrupole moment (field-independent basis, Debye-Ang):
   XX=             22.4527   YY=             -9.8271   ZZ=            -12.6256
   XY=             -1.9781   XZ=              4.6935   YZ=             -0.6391
 Octapole moment (field-independent basis, Debye-Ang**2):
  XXX=              6.2625  YYY=             -4.5764  ZZZ=             19.0420  XYY=             -0.5951
  XXY=            -17.8548  XXZ=             10.5837  XZZ=             12.4285  YZZ=             -0.8811
  YYZ=             -3.0691  XYZ=             -4.9261
 Hexadecapole moment (field-independent basis, Debye-Ang**3):
 XXXX=          -4017.0609 YYYY=          -1435.3720 ZZZZ=           -510.7795 XXXY=           -118.2194
 XXXZ=            287.3254 YYYX=            -25.3985 YYYZ=             -8.2033 ZZZX=             52.5117
 ZZZY=             -9.9098 XXYY=           -989.0542 XXZZ=           -904.5829 YYZZ=           -323.4711
 XXYZ=            -26.9007 YYXZ=             16.4118 ZZXY=             -8.7677
 N-N= 1.256825049887D+03 E-N=-4.472314722330D+03  KE= 8.332774834470D+02
 1\1\GINC-SWANNODE-0-13\SP\RmPW1PW91\6-311G(d)\C13H19F2N1O1\KE291\06-Ma
 r-2019\0\\# mPW1PW91/6-311g(d) geom=checkpoint nmr=giao scrf=(solvent=
 chloroform)\\AT3_1ginp009\\0,1\C,0,0.1748420621,-1.0640767338,3.388278
 3228\C,0,-0.7174025599,-0.0027881171,2.7304326388\C,0,-0.0378212433,1.
 3705762726,2.5840062426\C,0,-1.0287220971,2.536097364,2.3148901109\C,0
 ,-1.8170661227,2.9361925762,3.5637871271\O,0,-0.9048144572,3.387999579
 7,4.5652063822\N,0,0.9534130011,1.3076785106,1.4890152627\C,0,2.117287
 8458,2.1788745056,1.6997828181\C,0,5.0345167785,1.6907761562,-1.477398
 1933\C,0,4.3227904161,2.8860286878,-1.377243542\C,0,3.3896977435,3.021
 4472189,-0.3546740313\C,0,3.1284957831,2.02523381,0.5872994007\C,0,3.8
 709834372,0.8528746786,0.4321765915\C,0,4.8127142962,0.6548449806,-0.5
 676147196\H,0,5.7653634588,1.5642957024,-2.2691505802\H,0,4.4763371827
 ,3.7045476632,-2.0709271654\H,0,5.3492227861,-0.2851949451,-0.62295064
 56\F,0,2.7060940316,4.1855551511,-0.2627063209\F,0,3.6422109999,-0.152
 3632366,1.3181648138\H,0,-0.3392743389,-2.0288043504,3.44438868\H,0,1.
 1075025378,-1.2256861556,2.8357873963\H,0,0.4471602493,-0.7689857282,4
 .4075298517\H,0,-1.0371878847,-0.3480607373,1.7392367805\H,0,-1.629712
 7635,0.1052647011,3.327586149\H,0,-0.4166746759,3.4106739127,2.0559175
 556\H,0,-2.4134090628,2.0858094448,3.9304550555\H,0,-2.527794148,3.733
 5392554,3.2961407338\H,0,-1.4125509412,3.5692109863,5.3666396719\H,0,1
 .7839662237,3.2184301399,1.7276546641\H,0,2.6184415553,1.9801347217,2.
 6637306595\H,0,0.462026054,1.5964887934,3.5410995464\C,0,-1.9762317386
 ,2.2649670771,1.1387835505\H,0,-1.4065169336,1.9303883543,0.268394222\
 H,0,-2.7162349643,1.4932586775,1.3791851234\H,0,-2.5244277027,3.171521
 7486,0.8614613849\H,0,1.3002331915,0.3552543338,1.4179724621\\Version=
 EM64L-G09RevD.01\State=1-A\HF=-836.4607169\RMSD=6.508e-09\Dipole=-0.12
 31177,-0.3132157,0.1468801\Quadrupole=5.6273203,-7.2157896,1.5884692,-
 2.2540995,-13.2228604,1.2593361\PG=C01 [X(C13H19F2N1O1)]\\@


 YOU KNOW YOU'RE A TEACHER WHEN YOU SAY 2, WRITE 3, AND MEAN 4.
 -- RONALD ANSTROM, HIGH SCHOOL TEACHER, UNDERWOOD, N.D. 1974
 Job cpu time:       0 days  0 hours 24 minutes 49.8 seconds.
 File lengths (MBytes):  RWF=    187 Int=      0 D2E=      0 Chk=     14 Scr=      1
 Normal termination of Gaussian 09 at Wed Mar  6 12:14:45 2019.
