 Entering Gaussian System, Link 0=/usr/local/shared/gaussian/em64t/09-D01/g09/g09
 Initial command:
 /usr/local/shared/gaussian/em64t/09-D01/g09/l1.exe "/scratch/ke291/AT3_1ginp016/Gau-30840.inp" -scrdir="/scratch/ke291/AT3_1ginp016/"
 Entering Link 1 = /usr/local/shared/gaussian/em64t/09-D01/g09/l1.exe PID=     30843.
  
 Copyright (c) 1988,1990,1992,1993,1995,1998,2003,2009,2013,
            Gaussian, Inc.  All Rights Reserved.
  
 This is part of the Gaussian(R) 09 program.  It is based on
 the Gaussian(R) 03 system (copyright 2003, Gaussian, Inc.),
 the Gaussian(R) 98 system (copyright 1998, Gaussian, Inc.),
 the Gaussian(R) 94 system (copyright 1995, Gaussian, Inc.),
 the Gaussian 92(TM) system (copyright 1992, Gaussian, Inc.),
 the Gaussian 90(TM) system (copyright 1990, Gaussian, Inc.),
 the Gaussian 88(TM) system (copyright 1988, Gaussian, Inc.),
 the Gaussian 86(TM) system (copyright 1986, Carnegie Mellon
 University), and the Gaussian 82(TM) system (copyright 1983,
 Carnegie Mellon University). Gaussian is a federally registered
 trademark of Gaussian, Inc.
  
 This software contains proprietary and confidential information,
 including trade secrets, belonging to Gaussian, Inc.
  
 This software is provided under written license and may be
 used, copied, transmitted, or stored only in accord with that
 written license.
  
 The following legend is applicable only to US Government
 contracts under FAR:
  
                    RESTRICTED RIGHTS LEGEND
  
 Use, reproduction and disclosure by the US Government is
 subject to restrictions as set forth in subparagraphs (a)
 and (c) of the Commercial Computer Software - Restricted
 Rights clause in FAR 52.227-19.
  
 Gaussian, Inc.
 340 Quinnipiac St., Bldg. 40, Wallingford CT 06492
  
  
 ---------------------------------------------------------------
 Warning -- This program may not be used in any manner that
 competes with the business of Gaussian, Inc. or will provide
 assistance to any competitor of Gaussian, Inc.  The licensee
 of this program is prohibited from giving any competitor of
 Gaussian, Inc. access to this program.  By using this program,
 the user acknowledges that Gaussian, Inc. is engaged in the
 business of creating and licensing software in the field of
 computational chemistry and represents and warrants to the
 licensee that it is not a competitor of Gaussian, Inc. and that
 it will not use this program in any manner prohibited above.
 ---------------------------------------------------------------
  

 Cite this work as:
 Gaussian 09, Revision D.01,
 M. J. Frisch, G. W. Trucks, H. B. Schlegel, G. E. Scuseria, 
 M. A. Robb, J. R. Cheeseman, G. Scalmani, V. Barone, B. Mennucci, 
 G. A. Petersson, H. Nakatsuji, M. Caricato, X. Li, H. P. Hratchian, 
 A. F. Izmaylov, J. Bloino, G. Zheng, J. L. Sonnenberg, M. Hada, 
 M. Ehara, K. Toyota, R. Fukuda, J. Hasegawa, M. Ishida, T. Nakajima, 
 Y. Honda, O. Kitao, H. Nakai, T. Vreven, J. A. Montgomery, Jr., 
 J. E. Peralta, F. Ogliaro, M. Bearpark, J. J. Heyd, E. Brothers, 
 K. N. Kudin, V. N. Staroverov, T. Keith, R. Kobayashi, J. Normand, 
 K. Raghavachari, A. Rendell, J. C. Burant, S. S. Iyengar, J. Tomasi, 
 M. Cossi, N. Rega, J. M. Millam, M. Klene, J. E. Knox, J. B. Cross, 
 V. Bakken, C. Adamo, J. Jaramillo, R. Gomperts, R. E. Stratmann, 
 O. Yazyev, A. J. Austin, R. Cammi, C. Pomelli, J. W. Ochterski, 
 R. L. Martin, K. Morokuma, V. G. Zakrzewski, G. A. Voth, 
 P. Salvador, J. J. Dannenberg, S. Dapprich, A. D. Daniels, 
 O. Farkas, J. B. Foresman, J. V. Ortiz, J. Cioslowski, 
 and D. J. Fox, Gaussian, Inc., Wallingford CT, 2013.
 
 ******************************************
 Gaussian 09:  EM64L-G09RevD.01 24-Apr-2013
                 6-Mar-2019 
 ******************************************
 %nprocshared=2
 Will use up to    2 processors via shared memory.
 %mem=6000MB
 %chk=AT3_1ginp016.chk
 ----------------------------------------------------------------------
 # mPW1PW91/6-311g(d) geom=checkpoint nmr=giao scrf=(solvent=chloroform
 )
 ----------------------------------------------------------------------
 1/29=2,38=1/1;
 2/12=2,40=1/2;
 3/5=4,6=6,7=1,11=2,14=-4,16=1,25=1,30=1,70=2201,72=7,74=-7/1,2,8,3;
 4//1;
 5/5=2,38=5,53=7/2;
 8/6=1,10=90,11=11/1;
 10/13=100,45=16/2;
 6/7=2,8=2,9=2,10=2,28=1/1;
 99/9=1/99;
 ------------
 AT3_1ginp016
 ------------
 Structure from the checkpoint file:  "AT3_1ginp016.chk"
 Charge =  0 Multiplicity = 1
 Redundant internal coordinates found in file.
 C,0,-1.8792848814,0.5337470401,0.344999578
 C,0,-1.720987255,1.6664793286,1.3681491924
 C,0,-0.4057406936,1.5985322777,2.1646400064
 C,0,-0.4099572045,2.4600038542,3.4557343601
 C,0,-1.25793611,1.83859035,4.575689644
 O,0,-0.8594019509,0.515967492,4.9361689871
 N,0,0.7134565717,2.01877496,1.2949050584
 C,0,1.9758268156,1.3265481121,1.5845199349
 C,0,5.0866670434,2.5134497468,-1.1998793586
 C,0,5.179108621,2.8996636119,0.1371421638
 C,0,4.1704397125,2.5122408039,1.0128085821
 C,0,3.0675994466,1.7481358894,0.6285266188
 C,0,3.0315735144,1.3951659845,-0.7219692142
 C,0,4.0035177417,1.7529909637,-1.6454681102
 H,0,5.861869192,2.8072629768,-1.8996663177
 H,0,6.0092500576,3.490081362,0.5072605748
 H,0,3.904806938,1.4411929312,-2.6787043577
 F,0,4.2692339624,2.8878430187,2.3093530161
 F,0,1.9691239498,0.6615785261,-1.1467548201
 H,0,-1.8983156337,-0.4420438784,0.8423128864
 H,0,-2.8118610921,0.6416534103,-0.2177283062
 H,0,-1.0612035779,0.512799533,-0.3840726378
 H,0,-1.7783606447,2.6377329074,0.8607973683
 H,0,-2.568143222,1.6309474217,2.0618186498
 H,0,0.6279100507,2.4711124902,3.8234108536
 H,0,-2.3056360197,1.7544737591,4.2662634319
 H,0,-1.2378750325,2.5043821169,5.4522861963
 H,0,0.0483050524,0.5687686463,5.2656380906
 H,0,2.2909081036,1.5710305236,2.6014423653
 H,0,1.8700569893,0.2279413651,1.5393235326
 H,0,-0.2688478525,0.5521746219,2.4877376581
 C,0,-0.8205580042,3.9186329918,3.2131553341
 H,0,-1.8838730317,4.0058172275,2.9634791496
 H,0,-0.6414337844,4.5291376764,4.1046020489
 H,0,-0.241257158,4.3401074559,2.3879301409
 H,0,0.4719703861,1.8128725017,0.329716699
 Recover connectivity data from disk.
                          Input orientation:                          
 ---------------------------------------------------------------------
 Center     Atomic      Atomic             Coordinates (Angstroms)
 Number     Number       Type             X           Y           Z
 ---------------------------------------------------------------------
      1          6           0       -1.879285    0.533747    0.345000
      2          6           0       -1.720987    1.666479    1.368149
      3          6           0       -0.405741    1.598532    2.164640
      4          6           0       -0.409957    2.460004    3.455734
      5          6           0       -1.257936    1.838590    4.575690
      6          8           0       -0.859402    0.515967    4.936169
      7          7           0        0.713457    2.018775    1.294905
      8          6           0        1.975827    1.326548    1.584520
      9          6           0        5.086667    2.513450   -1.199879
     10          6           0        5.179109    2.899664    0.137142
     11          6           0        4.170440    2.512241    1.012809
     12          6           0        3.067599    1.748136    0.628527
     13          6           0        3.031574    1.395166   -0.721969
     14          6           0        4.003518    1.752991   -1.645468
     15          1           0        5.861869    2.807263   -1.899666
     16          1           0        6.009250    3.490081    0.507261
     17          1           0        3.904807    1.441193   -2.678704
     18          9           0        4.269234    2.887843    2.309353
     19          9           0        1.969124    0.661579   -1.146755
     20          1           0       -1.898316   -0.442044    0.842313
     21          1           0       -2.811861    0.641653   -0.217728
     22          1           0       -1.061204    0.512800   -0.384073
     23          1           0       -1.778361    2.637733    0.860797
     24          1           0       -2.568143    1.630947    2.061819
     25          1           0        0.627910    2.471112    3.823411
     26          1           0       -2.305636    1.754474    4.266263
     27          1           0       -1.237875    2.504382    5.452286
     28          1           0        0.048305    0.568769    5.265638
     29          1           0        2.290908    1.571031    2.601442
     30          1           0        1.870057    0.227941    1.539324
     31          1           0       -0.268848    0.552175    2.487738
     32          6           0       -0.820558    3.918633    3.213155
     33          1           0       -1.883873    4.005817    2.963479
     34          1           0       -0.641434    4.529138    4.104602
     35          1           0       -0.241257    4.340107    2.387930
     36          1           0        0.471970    1.812873    0.329717
 ---------------------------------------------------------------------
                    Distance matrix (angstroms):
                    1          2          3          4          5
     1  C    0.000000
     2  C    1.534593   0.000000
     3  C    2.572196   1.539119   0.000000
     4  C    3.942849   2.589690   1.552120   0.000000
     5  C    4.470730   3.245359   2.568467   1.536074   0.000000
     6  O    4.703117   3.846657   3.009839   2.484545   1.427623
     7  N    3.135273   2.460893   1.478393   2.475061   3.831762
     8  C    4.126358   3.718710   2.466248   3.236994   4.434693
     9  C    7.404753   7.325045   6.505660   7.203504   8.606197
    10  C    7.447260   7.116702   6.082288   6.514907   7.890635
    11  C    6.399967   5.962423   4.806559   5.191402   6.528031
    12  C    5.101646   4.846057   3.800805   4.537980   5.856495
    13  C    5.098725   5.198946   4.493217   5.516450   6.830938
    14  C    6.328972   6.469879   5.829437   6.782396   8.148192
    15  H    8.374537   8.335449   7.567202   8.254496   9.672652
    16  H    8.425866   7.988944   6.890353   7.138682   8.490673
    17  H    6.589534   6.933782   6.485643   7.568785   8.912804
    18  F    6.870570   6.185495   4.851665   4.836535   6.065214
    19  F    4.129397   4.577280   4.181292   5.484275   6.674252
    20  H    1.095377   2.180326   2.853118   4.179362   4.421479
    21  H    1.094534   2.180661   3.518623   4.750776   5.179208
    22  H    1.096012   2.199221   2.846820   4.354290   5.137671
    23  H    2.168638   1.097284   2.159636   2.939016   3.835348
    24  H    2.150777   1.095497   2.165088   2.699649   2.842412
    25  H    4.705184   3.491857   2.140409   1.101126   2.126599
    26  H    4.128954   2.957807   2.837383   2.179066   1.095671
    27  H    5.511732   4.197101   3.510218   2.161860   1.100955
    28  H    5.284838   4.418799   3.298903   2.657541   1.948010
    29  H    4.853658   4.198265   2.731935   2.968966   4.069832
    30  H    3.946833   3.872246   2.729248   3.721988   4.647370
    31  H    2.680517   2.145661   1.103629   2.144001   2.644372
    32  C    4.561214   3.047461   2.579598   1.534613   2.524753
    33  H    4.348762   2.836214   2.935650   2.191867   2.772705
    34  H    5.624058   4.104683   3.522421   2.180808   2.800186
    35  H    4.620074   3.221466   2.755567   2.168745   3.475272
    36  H    2.676714   2.430810   2.045302   3.311882   4.584924
                    6          7          8          9         10
     6  O    0.000000
     7  N    4.241594   0.000000
     8  C    4.464204   1.468548   0.000000
     9  C    8.774780   5.059014   4.340385   0.000000
    10  C    8.073182   4.696640   3.851053   1.394752   0.000000
    11  C    6.684098   3.503401   2.559111   2.394882   1.390792
    12  C    5.957798   2.461563   1.511167   2.829383   2.454780
    13  C    6.922948   3.135337   2.537558   2.387963   2.759256
    14  C    8.276241   4.420513   3.837474   1.396445   2.423752
    15  H    9.856681   6.110086   5.425255   1.084881   2.150183
    16  H    8.697066   5.552527   4.702113   2.172394   1.083843
    17  H    9.029952   5.129122   4.680725   2.175650   3.417598
    18  F    6.231281   3.798412   2.867532   3.622579   2.355103
    19  F    6.709972   3.062742   2.811066   3.626475   4.118424
    20  H    4.330910   3.616880   4.322935   7.854647   7.858385
    21  H    5.512763   4.075830   5.161311   8.176490   8.311446
    22  H    5.324068   2.869904   3.709595   6.516476   6.701513
    23  H    4.685619   2.603980   4.041894   7.168713   6.999905
    24  H    3.524892   3.392265   4.579098   8.367413   8.082941
    25  H    2.696835   2.570072   2.852988   6.716826   5.872448
    26  H    2.018481   4.244260   5.070088   9.225015   8.624529
    27  H    2.088878   4.618152   5.164764   9.178846   8.341743
    28  H    0.967094   4.279213   4.223766   8.424357   7.619691
    29  H    4.060611   2.096633   1.092327   4.811909   4.022405
    30  H    4.367089   2.145821   1.104612   4.803474   4.478173
    31  H    2.518905   2.130420   2.540477   6.791661   6.380927
    32  C    3.814239   3.105213   4.146218   7.506312   6.818809
    33  H    4.137644   3.671321   4.896662   8.255249   7.687488
    34  H    4.104211   4.004004   4.843289   8.062981   7.230120
    35  H    4.636774   2.737657   3.826548   6.678011   6.043285
    36  H    4.967285   1.016022   2.018075   4.911812   4.834806
                   11         12         13         14         15
    11  C    0.000000
    12  C    1.395631   0.000000
    13  C    2.356762   1.396325   0.000000
    14  C    2.769613   2.459069   1.387647   0.000000
    15  H    3.380900   3.914263   3.375139   2.151645   0.000000
    16  H    2.143123   3.420875   3.842686   3.416824   2.506244
    17  H    3.852917   3.425333   2.143238   1.083761   2.510606
    18  F    1.353464   2.359668   3.598444   4.122997   4.500980
    19  F    3.596450   2.353482   1.359188   2.361917   4.508248
    20  H    6.751789   5.431658   5.488727   6.770441   8.848554
    21  H    7.332520   6.042227   5.913355   7.051447   9.096833
    22  H    5.772273   4.427011   4.200425   5.364755   7.449196
    23  H    5.952065   4.932409   5.213884   6.363509   8.125393
    24  H    6.876453   5.816327   6.257947   7.546231   9.388407
    25  H    4.522244   4.084368   5.253165   6.466766   7.762792
    26  H    7.286888   6.488823   7.314190   8.646039  10.287623
    27  H    6.997063   6.509814   7.588147   8.855219  10.224936
    28  H    6.233429   5.657725   6.740494   8.050433   9.494734
    29  H    2.634819   2.127678   3.409484   4.582836   5.877075
    30  H    3.284357   2.138843   2.797316   4.125570   5.866355
    31  H    5.071937   4.002358   4.680345   6.064525   7.868953
    32  C    5.632897   5.148702   6.057393   7.181082   8.487103
    33  H    6.533804   5.921673   6.675301   7.808905   9.224058
    34  H    6.064749   5.794307   6.827046   7.895940   9.017153
    35  H    4.969419   4.556572   5.390322   6.401530   7.614542
    36  H    3.825494   2.613574   2.798587   4.046822   5.916922
                   16         17         18         19         20
    16  H    0.000000
    17  H    4.333243   0.000000
    18  F    2.576409   5.206373   0.000000
    19  F    5.201809   2.588733   4.710779   0.000000
    20  H    8.837616   7.044173   7.160937   4.486810   0.000000
    21  H    9.297911   7.197867   7.846873   4.870452   1.769930
    22  H    7.723341   5.548739   6.427203   3.128371   1.765362
    23  H    7.842089   6.801336   6.223686   4.688187   3.082167
    24  H    8.913176   8.025438   6.956349   5.641047   2.496629
    25  H    6.402653   7.353658   3.965511   5.456722   4.873935
    26  H    9.288690   9.322034   6.952909   6.983463   4.088280
    27  H    8.828686   9.679388   6.352426   7.564926   5.510849
    28  H    8.167563   8.873912   5.651015   6.694546   4.937295
    29  H    4.679147   5.522814   2.394386   3.870353   4.969567
    30  H    5.370254   4.837762   3.663888   2.722659   3.890416
    31  H    7.208890   6.700886   5.106991   4.269663   2.520131
    32  C    7.358791   7.948635   5.271183   6.115517   5.079169
    33  H    8.282535   8.480587   6.287963   6.551606   4.927781
    34  H    7.632306   8.730232   5.480094   7.024939   6.077411
    35  H    6.582424   7.159912   4.739175   5.559798   5.291857
    36  H    5.788438   4.579641   4.415171   2.397272   3.311444
                   21         22         23         24         25
    21  H    0.000000
    22  H    1.763257   0.000000
    23  H    2.493125   2.565026   0.000000
    24  H    2.496885   3.082776   1.754943   0.000000
    25  H    5.613355   4.938726   3.820338   3.744842   0.000000
    26  H    4.647668   4.971518   3.557438   2.223454   3.052111
    27  H    6.172216   6.169335   4.625114   3.745367   2.476993
    28  H    6.184915   5.757897   5.198071   4.270654   2.456598
    29  H    5.903365   4.611920   4.552653   4.889291   2.251426
    30  H    5.017843   3.517511   4.424754   4.683914   3.433919
    31  H    3.714091   2.979374   3.045508   2.575251   2.504101
    32  C    5.145371   4.959603   2.844588   3.100506   2.136770
    33  H    4.722165   4.907551   2.510788   2.630822   3.066571
    34  H    6.205306   6.037829   3.923300   4.035428   2.434290
    35  H    5.203463   4.796311   2.755522   3.586125   2.511812
    36  H    3.529164   2.133145   2.454879   3.503650   3.558581
                   26         27         28         29         30
    26  H    0.000000
    27  H    1.763271   0.000000
    28  H    2.818809   2.331458   0.000000
    29  H    4.892187   4.631497   3.623774   0.000000
    30  H    5.215641   5.491147   4.161774   1.763264   0.000000
    31  H    2.959254   3.679494   2.795996   2.757417   2.362103
    32  C    2.828087   2.681038   4.023580   3.945460   4.864394
    33  H    2.635086   2.977546   4.565802   4.846448   5.512944
    34  H    3.239516   2.504322   4.184288   4.428150   5.602547
    35  H    3.804642   3.708559   4.752688   3.758355   4.699754
    36  H    4.818185   5.444490   5.107897   2.920233   2.435118
                   31         32         33         34         35
    31  H    0.000000
    32  C    3.487643   0.000000
    33  H    3.842172   1.095709   0.000000
    34  H    4.309212   1.095207   1.766262   0.000000
    35  H    3.789348   1.092807   1.772341   1.772805   0.000000
    36  H    2.606765   3.797246   4.158811   4.782000   3.336443
                   36
    36  H    0.000000
 Stoichiometry    C13H19F2NO
 Framework group  C1[X(C13H19F2NO)]
 Deg. of freedom   102
 Full point group                 C1      NOp   1
 Largest Abelian subgroup         C1      NOp   1
 Largest concise Abelian subgroup C1      NOp   1
                         Standard orientation:                         
 ---------------------------------------------------------------------
 Center     Atomic      Atomic             Coordinates (Angstroms)
 Number     Number       Type             X           Y           Z
 ---------------------------------------------------------------------
      1          6           0       -2.185501    2.958215    0.005769
      2          6           0       -2.554659    1.627862    0.675738
      3          6           0       -1.914369    0.400350    0.003331
      4          6           0       -2.584324   -0.945687    0.388585
      5          6           0       -3.949397   -1.139275   -0.288632
      6          8           0       -3.902720   -1.068420   -1.713731
      7          7           0       -0.476836    0.351433    0.345019
      8          6           0        0.363560   -0.203568   -0.723785
      9          6           0        4.565026   -0.064637    0.356644
     10          6           0        3.919937   -1.298103    0.268579
     11          6           0        2.572624   -1.321176   -0.075683
     12          6           0        1.826580   -0.173214   -0.346585
     13          6           0        2.527946    1.029445   -0.239722
     14          6           0        3.869695    1.119435    0.102585
     15          1           0        5.615192   -0.024645    0.625938
     16          1           0        4.437364   -2.230748    0.461344
     17          1           0        4.344810    2.091432    0.166058
     18          9           0        1.954707   -2.522210   -0.162633
     19          9           0        1.839818    2.176360   -0.481506
     20          1           0       -2.539216    2.985090   -1.030578
     21          1           0       -2.636916    3.802502    0.536249
     22          1           0       -1.103069    3.129063   -0.014086
     23          1           0       -2.258870    1.647874    1.732213
     24          1           0       -3.644924    1.521661    0.663218
     25          1           0       -1.929588   -1.739997   -0.002401
     26          1           0       -4.649292   -0.355057    0.020630
     27          1           0       -4.380266   -2.097574    0.040180
     28          1           0       -3.331826   -1.786891   -2.018933
     29          1           0        0.072459   -1.240968   -0.903341
     30          1           0        0.232953    0.333911   -1.679936
     31          1           0       -2.046252    0.514276   -1.086451
     32          6           0       -2.698286   -1.157299    1.904260
     33          1           0       -3.433783   -0.481808    2.355185
     34          1           0       -3.009209   -2.181973    2.134150
     35          1           0       -1.732392   -0.977490    2.382740
     36          1           0       -0.151270    1.297228    0.523287
 ---------------------------------------------------------------------
 Rotational constants (GHZ):      0.7252217      0.2450546      0.2049743
 Standard basis: 6-311G(d) (5D, 7F)
 There are   380 symmetry adapted cartesian basis functions of A   symmetry.
 There are   363 symmetry adapted basis functions of A   symmetry.
   363 basis functions,   639 primitive gaussians,   380 cartesian basis functions
    65 alpha electrons       65 beta electrons
       nuclear repulsion energy      1256.5127041966 Hartrees.
 NAtoms=   36 NActive=   36 NUniq=   36 SFac= 1.00D+00 NAtFMM=   60 NAOKFM=F Big=F
 Integral buffers will be    131072 words long.
 Raffenetti 2 integral format.
 Two-electron integral symmetry is turned on.
 ------------------------------------------------------------------------------
 Polarizable Continuum Model (PCM)
 =================================
 Model                : PCM (using non-symmetric T matrix).
 Atomic radii         : UFF (Universal Force Field).
 Polarization charges : Total charges.
 Charge compensation  : None.
 Solution method      : On-the-fly selection.
 Cavity type          : Scaled VdW (van der Waals Surface) (Alpha=1.100).
 Cavity algorithm     : GePol (No added spheres)
                        Default sphere list used, NSphG=   36.
                        Lebedev-Laikov grids with approx.  5.0 points / Ang**2.
                        Smoothing algorithm: Karplus/York (Gamma=1.0000).
                        Polarization charges: spherical gaussians, with
                                              point-specific exponents (IZeta= 3).
                        Self-potential: point-specific (ISelfS= 7).
                        Self-field    : sphere-specific E.n sum rule (ISelfD= 2).
 Solvent              : Chloroform, Eps=   4.711300 Eps(inf)=   2.090627
 ------------------------------------------------------------------------------
 One-electron integrals computed using PRISM.
 NBasis=   363 RedAO= T EigKep=  2.29D-04  NBF=   363
 NBsUse=   363 1.00D-06 EigRej= -1.00D+00 NBFU=   363
 ExpMin= 1.03D-01 ExpMax= 1.14D+04 ExpMxC= 1.72D+03 IAcc=1 IRadAn=         1 AccDes= 0.00D+00
 Harris functional with IExCor=  908 and IRadAn=       1 diagonalized for initial guess.
 HarFok:  IExCor=  908 AccDes= 0.00D+00 IRadAn=         1 IDoV= 1 UseB2=F ITyADJ=14
 ICtDFT=  3500011 ScaDFX=  1.000000  1.000000  1.000000  1.000000
 FoFCou: FMM=F IPFlag=           0 FMFlag=      100000 FMFlg1=           0
         NFxFlg=           0 DoJE=T BraDBF=F KetDBF=T FulRan=T
         wScrn=  0.000000 ICntrl=     500 IOpCl=  0 I1Cent=   200000004 NGrid=           0
         NMat0=    1 NMatS0=      1 NMatT0=    0 NMatD0=    1 NMtDS0=    0 NMtDT0=    0
 Petite list used in FoFCou.
 Requested convergence on RMS density matrix=1.00D-08 within 128 cycles.
 Requested convergence on MAX density matrix=1.00D-06.
 Requested convergence on             energy=1.00D-06.
 No special actions if energy rises.
 Inv3:  Mode=1 IEnd=    19584075.
 Iteration    1 A*A^-1 deviation from unit magnitude is 7.22D-15 for   1286.
 Iteration    1 A*A^-1 deviation from orthogonality  is 9.30D-15 for   1740   1009.
 Iteration    1 A^-1*A deviation from unit magnitude is 8.99D-15 for    451.
 Iteration    1 A^-1*A deviation from orthogonality  is 4.74D-12 for   2515   2448.
 Error on total polarization charges =  0.00953
 SCF Done:  E(RmPW1PW91) =  -836.461517370     A.U. after   12 cycles
            NFock= 12  Conv=0.68D-08     -V/T= 2.0038
 DoSCS=F DFT=T ScalE2(SS,OS)=  1.000000  1.000000
 Range of M.O.s used for correlation:     1   363
 NBasis=   363 NAE=    65 NBE=    65 NFC=     0 NFV=     0
 NROrb=    363 NOA=    65 NOB=    65 NVA=   298 NVB=   298

 **** Warning!!: The largest alpha MO coefficient is  0.13797993D+02

 NEqPCM:  Using equilibrium solvation (IEInf=0, Eps=   4.7113, EpsInf=   2.0906)
          Differentiating once with respect to magnetic field using GIAOs.
          Electric field/nuclear overlap derivatives assumed to be zero.
 FoFJK:  IHMeth= 1 ICntrl=    6127 DoSepK=F KAlg= 0 I1Cent=   0 FoldK=F
 IRaf=         1 NMat=   1 IRICut=       1 DoRegI=T DoRafI=F ISym2E= 0.
          There are     3 degrees of freedom in the 1st order CPHF.  IDoFFX=0 NUNeed=     3.
      3 vectors produced by pass  0 Test12= 6.46D-13 3.33D-08 XBig12= 5.42D+01 2.54D+00.
 AX will form     3 AO Fock derivatives at one time.
      3 vectors produced by pass  1 Test12= 6.46D-13 3.33D-08 XBig12= 1.87D-01 2.47D-01.
      3 vectors produced by pass  2 Test12= 6.46D-13 3.33D-08 XBig12= 8.80D-04 9.35D-03.
      3 vectors produced by pass  3 Test12= 6.46D-13 3.33D-08 XBig12= 1.85D-06 2.75D-04.
      3 vectors produced by pass  4 Test12= 6.46D-13 3.33D-08 XBig12= 3.27D-09 1.64D-05.
      3 vectors produced by pass  5 Test12= 6.46D-13 3.33D-08 XBig12= 1.43D-11 6.27D-07.
 InvSVY:  IOpt=1 It=  1 EMax= 8.88D-16
 Solved reduced A of dimension    18 with     3 vectors.
 Calculating GIAO nuclear magnetic shielding tensors.
 SCF GIAO Magnetic shielding tensor (ppm):
      1  C    Isotropic =   174.9513   Anisotropy =    23.5337
   XX=   161.6851   YX=     4.9037   ZX=    -3.0958
   XY=    -0.2877   YY=   186.5024   ZY=    -5.4373
   XZ=    -3.3179   YZ=    -8.7281   ZZ=   176.6665
   Eigenvalues:   160.9958   173.2177   190.6405
      2  C    Isotropic =   164.5051   Anisotropy =    15.2352
   XX=   164.2371   YX=    -1.9132   ZX=    -5.2672
   XY=    -9.6850   YY=   167.9393   ZY=     5.5418
   XZ=    -5.1740   YZ=     0.8883   ZZ=   161.3388
   Eigenvalues:   157.2367   161.6166   174.6619
      3  C    Isotropic =   126.3264   Anisotropy =    30.7096
   XX=   144.1427   YX=   -12.0969   ZX=     2.0162
   XY=    -3.3041   YY=   120.3560   ZY=    -4.9475
   XZ=     1.8124   YZ=    -6.5496   ZZ=   114.4807
   Eigenvalues:   110.7663   121.4135   146.7995
      4  C    Isotropic =   145.5811   Anisotropy =    17.7561
   XX=   150.5057   YX=     4.1094   ZX=    15.3542
   XY=     4.4699   YY=   140.9391   ZY=     2.9636
   XZ=     1.8569   YZ=    -4.8247   ZZ=   145.2984
   Eigenvalues:   136.3203   143.0044   157.4185
      5  C    Isotropic =   119.4609   Anisotropy =    64.7378
   XX=   109.1901   YX=     7.3919   ZX=     8.9150
   XY=     8.3752   YY=    86.9351   ZY=    -0.8907
   XZ=    -0.1258   YZ=    -0.7951   ZZ=   162.2574
   Eigenvalues:    84.3665   111.3968   162.6194
      6  O    Isotropic =   299.5395   Anisotropy =    87.6770
   XX=   311.1587   YX=   -38.6112   ZX=   -23.3008
   XY=   -42.7245   YY=   298.7033   ZY=    41.9137
   XZ=     1.2337   YZ=    18.8591   ZZ=   288.7565
   Eigenvalues:   254.1115   286.5161   357.9908
      7  N    Isotropic =   209.0494   Anisotropy =    54.9683
   XX=   242.4028   YX=     7.0116   ZX=    12.2432
   XY=   -15.1797   YY=   192.6002   ZY=    39.5171
   XZ=    11.4572   YZ=    35.6334   ZZ=   192.1453
   Eigenvalues:   153.3606   228.0928   245.6949
      8  C    Isotropic =   145.2815   Anisotropy =    50.1463
   XX=   152.7644   YX=   -14.6925   ZX=   -12.3325
   XY=   -18.7418   YY=   121.0963   ZY=     9.2798
   XZ=   -17.1695   YZ=    11.2524   ZZ=   161.9837
   Eigenvalues:   113.5937   143.5383   178.7123
      9  C    Isotropic =    54.2892   Anisotropy =   187.8317
   XX=   -35.7482   YX=    -4.9634   ZX=   -55.7025
   XY=    -5.3076   YY=    33.9120   ZY=     8.0454
   XZ=   -54.6309   YZ=     9.0425   ZZ=   164.7039
   Eigenvalues:   -50.0247    33.3820   179.5104
     10  C    Isotropic =    72.0183   Anisotropy =   146.7327
   XX=    50.7910   YX=    22.4597   ZX=   -32.5577
   XY=    30.3219   YY=     5.0697   ZY=    18.4045
   XZ=   -32.9169   YZ=    16.3339   ZZ=   160.1943
   Eigenvalues:   -12.2044    58.4192   169.8401
     11  C    Isotropic =    19.5496   Anisotropy =    96.5353
   XX=    19.1290   YX=   -43.7079   ZX=   -14.8425
   XY=   -34.2855   YY=   -40.8278   ZY=    -1.0042
   XZ=   -12.9681   YZ=    -0.4920   ZZ=    80.3476
   Eigenvalues:   -60.3710    35.1133    83.9064
     12  C    Isotropic =    65.8029   Anisotropy =   137.8548
   XX=    25.1849   YX=    -3.7389   ZX=   -36.7832
   XY=    -3.8007   YY=    25.0539   ZY=     9.5764
   XZ=   -35.1376   YZ=     8.6880   ZZ=   147.1700
   Eigenvalues:    15.2074    24.4953   157.7061
     13  C    Isotropic =    16.8701   Anisotropy =    95.0329
   XX=    15.5347   YX=    44.5169   ZX=   -20.5582
   XY=    38.6769   YY=   -38.8171   ZY=    17.1869
   XZ=   -19.5104   YZ=    15.4523   ZZ=    73.8929
   Eigenvalues:   -65.4515    35.8365    80.2254
     14  C    Isotropic =    72.5943   Anisotropy =   145.8426
   XX=    55.0442   YX=   -24.2998   ZX=   -28.5167
   XY=   -31.7279   YY=     0.6816   ZY=     2.3482
   XZ=   -28.8735   YZ=     3.2437   ZZ=   162.0571
   Eigenvalues:   -11.6219    59.5822   169.8227
     15  H    Isotropic =    24.6333   Anisotropy =     3.1384
   XX=    25.8972   YX=    -0.0152   ZX=     1.1542
   XY=     0.0003   YY=    26.6968   ZY=    -0.3489
   XZ=     1.1868   YZ=    -0.2874   ZZ=    21.3059
   Eigenvalues:    21.0080    26.1663    26.7256
     16  H    Isotropic =    25.1098   Anisotropy =     4.8899
   XX=    28.0138   YX=     0.1138   ZX=     1.5672
   XY=     0.3764   YY=    25.6957   ZY=    -0.0915
   XZ=     1.4522   YZ=    -0.1223   ZZ=    21.6200
   Eigenvalues:    21.2758    25.6840    28.3697
     17  H    Isotropic =    25.1252   Anisotropy =     5.1733
   XX=    28.2550   YX=     0.0866   ZX=     1.5404
   XY=    -0.1620   YY=    25.4778   ZY=    -0.3089
   XZ=     1.4177   YZ=    -0.3089   ZZ=    21.6430
   Eigenvalues:    21.3064    25.4952    28.5741
     18  F    Isotropic =   295.3186   Anisotropy =   117.3819
   XX=   240.5007   YX=    33.1184   ZX=   -37.5667
   XY=    31.2335   YY=   282.5597   ZY=    14.7342
   XZ=   -37.4625   YZ=     9.2359   ZZ=   362.8954
   Eigenvalues:   213.0561   299.3266   373.5732
     19  F    Isotropic =   299.2524   Anisotropy =   117.0368
   XX=   243.7852   YX=   -24.4254   ZX=   -29.5871
   XY=   -37.4645   YY=   282.8031   ZY=    -7.7807
   XZ=   -20.9739   YZ=   -25.4144   ZZ=   371.1687
   Eigenvalues:   220.6690   299.8112   377.2769
     20  H    Isotropic =    31.1355   Anisotropy =     8.9131
   XX=    28.1121   YX=    -0.9024   ZX=     2.3683
   XY=    -0.8970   YY=    31.1954   ZY=    -3.8055
   XZ=     2.8249   YZ=    -2.8554   ZZ=    34.0990
   Eigenvalues:    27.1032    29.2258    37.0776
     21  H    Isotropic =    30.9448   Anisotropy =    11.5395
   XX=    27.8440   YX=    -2.4067   ZX=    -1.6010
   XY=    -3.2295   YY=    37.1636   ZY=     2.5295
   XZ=    -2.0016   YZ=     2.1019   ZZ=    27.8269
   Eigenvalues:    26.0181    28.1786    38.6379
     22  H    Isotropic =    30.9914   Anisotropy =     7.6733
   XX=    35.0486   YX=     1.3468   ZX=    -0.1998
   XY=     2.0779   YY=    32.8873   ZY=    -1.3864
   XZ=    -1.3291   YZ=    -0.4869   ZZ=    25.0383
   Eigenvalues:    24.8960    31.9712    36.1069
     23  H    Isotropic =    31.0258   Anisotropy =     5.6810
   XX=    26.5987   YX=    -0.1369   ZX=    -1.0377
   XY=    -0.1070   YY=    31.8531   ZY=     0.3413
   XZ=    -0.9663   YZ=     0.5090   ZZ=    34.6254
   Eigenvalues:    26.4746    31.7895    34.8131
     24  H    Isotropic =    30.5888   Anisotropy =     7.3798
   XX=    35.2684   YX=    -0.1644   ZX=    -1.3813
   XY=    -0.2179   YY=    32.2162   ZY=    -0.3699
   XZ=    -1.8456   YZ=     0.0161   ZZ=    24.2817
   Eigenvalues:    24.0447    32.2131    35.5086
     25  H    Isotropic =    30.2424   Anisotropy =     5.0134
   XX=    30.6722   YX=    -0.5116   ZX=    -2.1390
   XY=    -0.9807   YY=    32.6614   ZY=     1.6093
   XZ=    -1.6632   YZ=     1.2239   ZZ=    27.3935
   Eigenvalues:    26.3631    30.7794    33.5846
     26  H    Isotropic =    28.6359   Anisotropy =     4.2799
   XX=    31.2484   YX=    -0.6080   ZX=     0.2573
   XY=    -0.7586   YY=    25.9163   ZY=     0.7498
   XZ=    -1.0470   YZ=     2.5322   ZZ=    28.7430
   Eigenvalues:    25.1293    29.2893    31.4892
     27  H    Isotropic =    28.2593   Anisotropy =     6.6802
   XX=    27.5692   YX=     4.9318   ZX=     0.7045
   XY=     4.8382   YY=    27.4742   ZY=    -0.3897
   XZ=    -0.3364   YZ=    -2.6284   ZZ=    29.7344
   Eigenvalues:    22.4362    29.6289    32.7127
     28  H    Isotropic =    32.1806   Anisotropy =    15.1608
   XX=    29.9442   YX=    -6.4044   ZX=    -1.7889
   XY=    -5.6033   YY=    33.5473   ZY=     5.9421
   XZ=    -2.5268   YZ=     6.3210   ZZ=    33.0502
   Eigenvalues:    24.7828    29.4712    42.2878
     29  H    Isotropic =    28.3348   Anisotropy =     7.5752
   XX=    30.6499   YX=    -2.0753   ZX=    -1.1087
   XY=    -1.5109   YY=    31.1006   ZY=     2.2745
   XZ=    -0.0679   YZ=     3.6152   ZZ=    23.2539
   Eigenvalues:    22.2717    29.3478    33.3849
     30  H    Isotropic =    28.4236   Anisotropy =     5.6958
   XX=    28.0699   YX=    -0.3715   ZX=    -2.0632
   XY=     0.2604   YY=    25.4362   ZY=    -0.3923
   XZ=     0.9898   YZ=    -2.8614   ZZ=    31.7647
   Eigenvalues:    25.0316    28.0183    32.2208
     31  H    Isotropic =    28.9337   Anisotropy =     4.2240
   XX=    29.3237   YX=     2.1162   ZX=     3.1098
   XY=     1.4992   YY=    28.2323   ZY=    -0.3463
   XZ=     0.9630   YZ=    -0.0608   ZZ=    29.2451
   Eigenvalues:    26.1549    28.8965    31.7497
     32  C    Isotropic =   177.1948   Anisotropy =    19.6111
   XX=   168.3303   YX=     2.5317   ZX=    -2.8482
   XY=     2.0645   YY=   173.4960   ZY=    -3.3828
   XZ=     0.9818   YZ=    -2.0025   ZZ=   189.7583
   Eigenvalues:   167.4555   173.8600   190.2689
     33  H    Isotropic =    31.7369   Anisotropy =     8.2316
   XX=    30.8217   YX=    -1.6837   ZX=    -4.1618
   XY=    -1.8117   YY=    30.9498   ZY=     0.4772
   XZ=    -4.6867   YZ=     1.2175   ZZ=    33.4391
   Eigenvalues:    27.2791    30.7070    37.2246
     34  H    Isotropic =    31.6242   Anisotropy =    10.7540
   XX=    28.0195   YX=     2.4081   ZX=    -1.0059
   XY=     2.1510   YY=    35.5910   ZY=    -3.8004
   XZ=    -1.5245   YZ=    -4.6270   ZZ=    31.2621
   Eigenvalues:    27.3812    28.6978    38.7935
     35  H    Isotropic =    30.7768   Anisotropy =     6.8154
   XX=    32.5187   YX=     1.4010   ZX=     2.3351
   XY=     1.1218   YY=    27.0574   ZY=    -2.4080
   XZ=     2.8550   YZ=    -2.1648   ZZ=    32.7543
   Eigenvalues:    25.5965    31.4135    35.3204
     36  H    Isotropic =    31.2036   Anisotropy =    11.2975
   XX=    36.3946   YX=     2.6414   ZX=    -1.5138
   XY=     2.6798   YY=    35.4253   ZY=     3.2357
   XZ=    -3.1529   YZ=     6.1555   ZZ=    21.7908
   Eigenvalues:    19.7753    35.1001    38.7352
 End of Minotr F.D. properties file   721 does not exist.
 End of Minotr F.D. properties file   722 does not exist.
 End of Minotr F.D. properties file   788 does not exist.

 **********************************************************************

            Population analysis using the SCF density.

 **********************************************************************

 Orbital symmetries:
       Occupied  (A) (A) (A) (A) (A) (A) (A) (A) (A) (A) (A) (A)
                 (A) (A) (A) (A) (A) (A) (A) (A) (A) (A) (A) (A)
                 (A) (A) (A) (A) (A) (A) (A) (A) (A) (A) (A) (A)
                 (A) (A) (A) (A) (A) (A) (A) (A) (A) (A) (A) (A)
                 (A) (A) (A) (A) (A) (A) (A) (A) (A) (A) (A) (A)
                 (A) (A) (A) (A) (A)
       Virtual   (A) (A) (A) (A) (A) (A) (A) (A) (A) (A) (A) (A)
                 (A) (A) (A) (A) (A) (A) (A) (A) (A) (A) (A) (A)
                 (A) (A) (A) (A) (A) (A) (A) (A) (A) (A) (A) (A)
                 (A) (A) (A) (A) (A) (A) (A) (A) (A) (A) (A) (A)
                 (A) (A) (A) (A) (A) (A) (A) (A) (A) (A) (A) (A)
                 (A) (A) (A) (A) (A) (A) (A) (A) (A) (A) (A) (A)
                 (A) (A) (A) (A) (A) (A) (A) (A) (A) (A) (A) (A)
                 (A) (A) (A) (A) (A) (A) (A) (A) (A) (A) (A) (A)
                 (A) (A) (A) (A) (A) (A) (A) (A) (A) (A) (A) (A)
                 (A) (A) (A) (A) (A) (A) (A) (A) (A) (A) (A) (A)
                 (A) (A) (A) (A) (A) (A) (A) (A) (A) (A) (A) (A)
                 (A) (A) (A) (A) (A) (A) (A) (A) (A) (A) (A) (A)
                 (A) (A) (A) (A) (A) (A) (A) (A) (A) (A) (A) (A)
                 (A) (A) (A) (A) (A) (A) (A) (A) (A) (A) (A) (A)
                 (A) (A) (A) (A) (A) (A) (A) (A) (A) (A) (A) (A)
                 (A) (A) (A) (A) (A) (A) (A) (A) (A) (A) (A) (A)
                 (A) (A) (A) (A) (A) (A) (A) (A) (A) (A) (A) (A)
                 (A) (A) (A) (A) (A) (A) (A) (A) (A) (A) (A) (A)
                 (A) (A) (A) (A) (A) (A) (A) (A) (A) (A) (A) (A)
                 (A) (A) (A) (A) (A) (A) (A) (A) (A) (A) (A) (A)
                 (A) (A) (A) (A) (A) (A) (A) (A) (A) (A) (A) (A)
                 (A) (A) (A) (A) (A) (A) (A) (A) (A) (A) (A) (A)
                 (A) (A) (A) (A) (A) (A) (A) (A) (A) (A) (A) (A)
                 (A) (A) (A) (A) (A) (A) (A) (A) (A) (A) (A) (A)
                 (A) (A) (A) (A) (A) (A) (A) (A) (A) (A)
 The electronic state is 1-A.
 Alpha  occ. eigenvalues --  -24.80217 -24.79833 -19.20873 -14.37709 -10.33800
 Alpha  occ. eigenvalues --  -10.33781 -10.27256 -10.26937 -10.26635 -10.26184
 Alpha  occ. eigenvalues --  -10.25705 -10.25419 -10.25358 -10.23400 -10.22837
 Alpha  occ. eigenvalues --  -10.22005 -10.21498  -1.26990  -1.26799  -1.04860
 Alpha  occ. eigenvalues --   -0.94040  -0.90652  -0.83075  -0.80138  -0.78826
 Alpha  occ. eigenvalues --   -0.78221  -0.71478  -0.69371  -0.67624  -0.65873
 Alpha  occ. eigenvalues --   -0.64032  -0.62898  -0.58680  -0.57182  -0.55479
 Alpha  occ. eigenvalues --   -0.52285  -0.51759  -0.51534  -0.50746  -0.49646
 Alpha  occ. eigenvalues --   -0.49050  -0.48600  -0.47869  -0.46641  -0.45335
 Alpha  occ. eigenvalues --   -0.44060  -0.43381  -0.42509  -0.42066  -0.41408
 Alpha  occ. eigenvalues --   -0.40708  -0.39715  -0.39290  -0.38100  -0.38052
 Alpha  occ. eigenvalues --   -0.37501  -0.36920  -0.35561  -0.33984  -0.33043
 Alpha  occ. eigenvalues --   -0.32205  -0.28656  -0.27620  -0.27035  -0.24032
 Alpha virt. eigenvalues --   -0.02241  -0.00941   0.04660   0.05598   0.06134
 Alpha virt. eigenvalues --    0.07030   0.07825   0.09597   0.10252   0.10717
 Alpha virt. eigenvalues --    0.11178   0.11897   0.12238   0.13018   0.13414
 Alpha virt. eigenvalues --    0.14243   0.14541   0.14676   0.15413   0.16688
 Alpha virt. eigenvalues --    0.17378   0.17659   0.18471   0.19241   0.20562
 Alpha virt. eigenvalues --    0.21314   0.22827   0.23203   0.24033   0.24590
 Alpha virt. eigenvalues --    0.25376   0.25582   0.27053   0.28237   0.29638
 Alpha virt. eigenvalues --    0.31738   0.32848   0.33703   0.34245   0.35093
 Alpha virt. eigenvalues --    0.35368   0.37401   0.38374   0.38766   0.39337
 Alpha virt. eigenvalues --    0.40270   0.40565   0.41187   0.42199   0.42340
 Alpha virt. eigenvalues --    0.43050   0.43756   0.44522   0.45195   0.45868
 Alpha virt. eigenvalues --    0.46901   0.47452   0.50596   0.50878   0.51095
 Alpha virt. eigenvalues --    0.52205   0.53759   0.53918   0.55184   0.55951
 Alpha virt. eigenvalues --    0.56335   0.57460   0.58179   0.58383   0.59009
 Alpha virt. eigenvalues --    0.59455   0.59871   0.60829   0.61362   0.62118
 Alpha virt. eigenvalues --    0.62709   0.63420   0.63644   0.64121   0.64370
 Alpha virt. eigenvalues --    0.65170   0.65424   0.65676   0.66242   0.66828
 Alpha virt. eigenvalues --    0.67048   0.68507   0.69239   0.70133   0.71301
 Alpha virt. eigenvalues --    0.72396   0.72803   0.73870   0.75010   0.76288
 Alpha virt. eigenvalues --    0.77601   0.78666   0.81364   0.83316   0.86170
 Alpha virt. eigenvalues --    0.87113   0.88532   0.90290   0.92488   0.93797
 Alpha virt. eigenvalues --    0.95497   0.96444   0.97718   0.98433   0.99366
 Alpha virt. eigenvalues --    1.00009   1.01651   1.04049   1.04864   1.06991
 Alpha virt. eigenvalues --    1.08661   1.08871   1.09617   1.14264   1.14587
 Alpha virt. eigenvalues --    1.17452   1.18912   1.21890   1.23736   1.24708
 Alpha virt. eigenvalues --    1.25918   1.27971   1.29025   1.30762   1.31548
 Alpha virt. eigenvalues --    1.32195   1.34126   1.36917   1.38254   1.43389
 Alpha virt. eigenvalues --    1.44335   1.45439   1.46901   1.48619   1.49648
 Alpha virt. eigenvalues --    1.51424   1.51992   1.53164   1.53956   1.54218
 Alpha virt. eigenvalues --    1.55319   1.56348   1.56678   1.60209   1.60898
 Alpha virt. eigenvalues --    1.63324   1.63444   1.64361   1.65525   1.67028
 Alpha virt. eigenvalues --    1.67933   1.68646   1.69103   1.71670   1.73652
 Alpha virt. eigenvalues --    1.73921   1.76718   1.78440   1.79482   1.80380
 Alpha virt. eigenvalues --    1.81499   1.84048   1.85019   1.88778   1.90087
 Alpha virt. eigenvalues --    1.90316   1.91231   1.92122   1.94031   1.95628
 Alpha virt. eigenvalues --    1.97082   1.97539   1.99061   2.01674   2.03558
 Alpha virt. eigenvalues --    2.05550   2.10320   2.13725   2.17596   2.18390
 Alpha virt. eigenvalues --    2.20451   2.22860   2.25942   2.27250   2.27573
 Alpha virt. eigenvalues --    2.30519   2.33223   2.35569   2.37518   2.40749
 Alpha virt. eigenvalues --    2.41682   2.42552   2.43266   2.44609   2.45684
 Alpha virt. eigenvalues --    2.48619   2.50260   2.51063   2.51402   2.53110
 Alpha virt. eigenvalues --    2.54520   2.56431   2.57039   2.59408   2.65451
 Alpha virt. eigenvalues --    2.66265   2.68637   2.69922   2.72002   2.74603
 Alpha virt. eigenvalues --    2.77956   2.83618   2.83901   2.85732   2.88339
 Alpha virt. eigenvalues --    2.90736   2.94851   2.97057   3.00172   3.04001
 Alpha virt. eigenvalues --    3.05639   3.06269   3.08187   3.08515   3.12187
 Alpha virt. eigenvalues --    3.13395   3.15947   3.17075   3.20273   3.21375
 Alpha virt. eigenvalues --    3.22212   3.24884   3.25766   3.28071   3.28902
 Alpha virt. eigenvalues --    3.29810   3.30228   3.32491   3.35858   3.38087
 Alpha virt. eigenvalues --    3.46450   3.48047   3.51845   3.59758   3.63765
 Alpha virt. eigenvalues --    3.73781   3.78112   3.79998   3.80183   3.81030
 Alpha virt. eigenvalues --    3.84759   3.85950   3.95951   3.97157   3.98557
 Alpha virt. eigenvalues --    3.99362   4.05319   4.08384   4.10180   4.11846
 Alpha virt. eigenvalues --    4.17875   4.22531   4.48002   4.75170   4.77033
 Alpha virt. eigenvalues --    4.77932   4.80135   4.95334   5.05356   5.39403
 Alpha virt. eigenvalues --    6.13150   6.14838   6.29362   6.32499   6.55236
 Alpha virt. eigenvalues --    6.57210  23.28868  23.46430  23.58493  23.70305
 Alpha virt. eigenvalues --   23.72031  23.77682  23.82693  23.84565  23.86101
 Alpha virt. eigenvalues --   23.90551  24.10042  24.10522  24.19707  35.59203
 Alpha virt. eigenvalues --   49.95800  66.89028  66.89442
          Condensed to atoms (all electrons):
               1          2          3          4          5          6
     1  C    5.344033   0.311383  -0.073681   0.008166  -0.000351  -0.000077
     2  C    0.311383   5.356533   0.303469  -0.052324  -0.004214   0.000187
     3  C   -0.073681   0.303469   5.376203   0.265532  -0.067478  -0.015311
     4  C    0.008166  -0.052324   0.265532   5.472251   0.319975  -0.041722
     5  C   -0.000351  -0.004214  -0.067478   0.319975   5.113579   0.238858
     6  O   -0.000077   0.000187  -0.015311  -0.041722   0.238858   8.170217
     7  N   -0.002740  -0.043555   0.243708  -0.059177   0.004852   0.000076
     8  C    0.000604   0.006208  -0.074153  -0.004634   0.000014  -0.000064
     9  C    0.000000   0.000000  -0.000001   0.000000   0.000000   0.000000
    10  C    0.000000   0.000000   0.000011  -0.000002   0.000000   0.000000
    11  C   -0.000002   0.000007  -0.000585   0.000077   0.000002   0.000000
    12  C   -0.000009  -0.000224   0.009363  -0.000090   0.000012   0.000001
    13  C   -0.000026  -0.000045   0.000214   0.000038  -0.000001   0.000000
    14  C   -0.000004   0.000001   0.000015   0.000000   0.000000   0.000000
    15  H    0.000000   0.000000   0.000000   0.000000   0.000000   0.000000
    16  H    0.000000   0.000000   0.000000   0.000000   0.000000   0.000000
    17  H    0.000000   0.000000  -0.000001   0.000000   0.000000   0.000000
    18  F    0.000000   0.000000   0.000029  -0.000040   0.000000   0.000000
    19  F   -0.000402  -0.000082  -0.000060  -0.000003   0.000000   0.000000
    20  H    0.386352  -0.040101  -0.003503  -0.000326   0.000199  -0.000177
    21  H    0.392654  -0.037224   0.007594  -0.000200  -0.000017   0.000000
    22  H    0.382108  -0.039503  -0.005413   0.000406  -0.000061   0.000000
    23  H   -0.045246   0.392081  -0.042188  -0.009567   0.001049  -0.000065
    24  H   -0.036383   0.398388  -0.050675   0.000456  -0.000391   0.000230
    25  H   -0.000309   0.007668  -0.068551   0.411551  -0.050372   0.001074
    26  H   -0.000157   0.004033  -0.013291  -0.033619   0.373824  -0.029348
    27  H    0.000020  -0.000316   0.010187  -0.054201   0.394182  -0.030347
    28  H   -0.000001   0.000041  -0.001487   0.001200  -0.055685   0.258967
    29  H    0.000033  -0.000080  -0.003191   0.003871  -0.000776   0.000133
    30  H   -0.000263   0.000857  -0.004166  -0.002079   0.000415  -0.000264
    31  H   -0.011001  -0.040781   0.405002  -0.083669  -0.007297   0.031858
    32  C   -0.000112  -0.013624  -0.059416   0.264512  -0.071168   0.005183
    33  H    0.000146   0.003847  -0.010153  -0.037043  -0.005682   0.000009
    34  H    0.000013  -0.000062   0.008661  -0.035792  -0.003504  -0.000070
    35  H   -0.000215  -0.001994  -0.006826  -0.036862   0.007518  -0.000214
    36  H    0.003733  -0.010733  -0.058413   0.006735  -0.000306   0.000015
               7          8          9         10         11         12
     1  C   -0.002740   0.000604   0.000000   0.000000  -0.000002  -0.000009
     2  C   -0.043555   0.006208   0.000000   0.000000   0.000007  -0.000224
     3  C    0.243708  -0.074153  -0.000001   0.000011  -0.000585   0.009363
     4  C   -0.059177  -0.004634   0.000000  -0.000002   0.000077  -0.000090
     5  C    0.004852   0.000014   0.000000   0.000000   0.000002   0.000012
     6  O    0.000076  -0.000064   0.000000   0.000000   0.000000   0.000001
     7  N    6.954761   0.282255   0.000046  -0.000097   0.010442  -0.056400
     8  C    0.282255   5.312104  -0.001428   0.009847  -0.071824   0.278460
     9  C    0.000046  -0.001428   5.072137   0.436390  -0.004093  -0.054979
    10  C   -0.000097   0.009847   0.436390   5.174553   0.470431  -0.030691
    11  C    0.010442  -0.071824  -0.004093   0.470431   4.751390   0.297218
    12  C   -0.056400   0.278460  -0.054979  -0.030691   0.297218   5.718921
    13  C   -0.006017  -0.080598  -0.009580  -0.056890   0.042661   0.232161
    14  C   -0.000223   0.009226   0.439175  -0.043387  -0.062937  -0.041938
    15  H    0.000000   0.000028   0.402669  -0.039823   0.006004  -0.001632
    16  H    0.000007  -0.000221  -0.040589   0.393401  -0.048652   0.011938
    17  H    0.000014  -0.000252  -0.039855   0.006655  -0.001560   0.011936
    18  F   -0.000248  -0.007054   0.005556  -0.052392   0.306752  -0.073248
    19  F   -0.003638   0.002874   0.005300  -0.000508   0.005206  -0.082565
    20  H   -0.000287   0.000041   0.000000   0.000000   0.000000  -0.000001
    21  H   -0.000002   0.000042   0.000000   0.000000   0.000000  -0.000003
    22  H    0.003431   0.000335  -0.000004   0.000001  -0.000038  -0.000246
    23  H    0.000913  -0.000183   0.000000   0.000000   0.000009   0.000098
    24  H    0.005021  -0.000520   0.000000   0.000000  -0.000001   0.000021
    25  H   -0.002222   0.002993   0.000000  -0.000005   0.000197   0.000200
    26  H   -0.000004   0.000011   0.000000   0.000000   0.000000   0.000002
    27  H   -0.000205  -0.000056   0.000000   0.000000   0.000000  -0.000003
    28  H   -0.000101   0.000203   0.000000   0.000000   0.000001   0.000004
    29  H   -0.039217   0.382731  -0.000342   0.001593  -0.019938  -0.036786
    30  H   -0.051189   0.374207  -0.000014  -0.000193   0.009777  -0.033646
    31  H   -0.043547  -0.011458   0.000000  -0.000001   0.000098   0.000634
    32  C   -0.012658   0.000731   0.000000   0.000000  -0.000048   0.000022
    33  H    0.000024  -0.000025   0.000000   0.000000   0.000001   0.000006
    34  H   -0.000501  -0.000053   0.000000   0.000000  -0.000002  -0.000003
    35  H    0.023124  -0.000401   0.000000  -0.000001   0.000219  -0.000074
    36  H    0.344294  -0.052391  -0.000031   0.000002   0.000085  -0.017158
              13         14         15         16         17         18
     1  C   -0.000026  -0.000004   0.000000   0.000000   0.000000   0.000000
     2  C   -0.000045   0.000001   0.000000   0.000000   0.000000   0.000000
     3  C    0.000214   0.000015   0.000000   0.000000  -0.000001   0.000029
     4  C    0.000038   0.000000   0.000000   0.000000   0.000000  -0.000040
     5  C   -0.000001   0.000000   0.000000   0.000000   0.000000   0.000000
     6  O    0.000000   0.000000   0.000000   0.000000   0.000000   0.000000
     7  N   -0.006017  -0.000223   0.000000   0.000007   0.000014  -0.000248
     8  C   -0.080598   0.009226   0.000028  -0.000221  -0.000252  -0.007054
     9  C   -0.009580   0.439175   0.402669  -0.040589  -0.039855   0.005556
    10  C   -0.056890  -0.043387  -0.039823   0.393401   0.006655  -0.052392
    11  C    0.042661  -0.062937   0.006004  -0.048652  -0.001560   0.306752
    12  C    0.232161  -0.041938  -0.001632   0.011938   0.011936  -0.073248
    13  C    4.811068   0.485641   0.006266  -0.001637  -0.050272   0.005847
    14  C    0.485641   5.172538  -0.040955   0.006862   0.394102  -0.000437
    15  H    0.006266  -0.040955   0.445593  -0.006364  -0.006365  -0.000082
    16  H   -0.001637   0.006862  -0.006364   0.445925  -0.000138   0.001399
    17  H   -0.050272   0.394102  -0.006365  -0.000138   0.445249   0.000004
    18  F    0.005847  -0.000437  -0.000082   0.001399   0.000004   9.045691
    19  F    0.306193  -0.054363  -0.000081   0.000004   0.001494  -0.000002
    20  H    0.000005   0.000000   0.000000   0.000000   0.000000   0.000000
    21  H    0.000002   0.000000   0.000000   0.000000   0.000000   0.000000
    22  H    0.000108   0.000073   0.000000   0.000000   0.000005   0.000000
    23  H   -0.000051  -0.000002   0.000000   0.000000   0.000000   0.000000
    24  H    0.000002   0.000000   0.000000   0.000000   0.000000   0.000000
    25  H   -0.000066   0.000000   0.000000   0.000001   0.000000  -0.000086
    26  H    0.000000   0.000000   0.000000   0.000000   0.000000   0.000000
    27  H    0.000000   0.000000   0.000000   0.000000   0.000000   0.000000
    28  H    0.000000   0.000000   0.000000   0.000000   0.000000  -0.000001
    29  H    0.010389   0.000197   0.000006  -0.000055   0.000007   0.015895
    30  H   -0.022695  -0.000666   0.000002   0.000013  -0.000013   0.000041
    31  H   -0.000344  -0.000009   0.000000   0.000000   0.000000  -0.000002
    32  C    0.000014   0.000000   0.000000   0.000000   0.000000  -0.000001
    33  H   -0.000001   0.000000   0.000000   0.000000   0.000000   0.000000
    34  H    0.000000   0.000000   0.000000   0.000000   0.000000   0.000000
    35  H   -0.000083  -0.000003   0.000000   0.000000   0.000000   0.000009
    36  H    0.004468  -0.000132   0.000001   0.000000   0.000006  -0.000010
              19         20         21         22         23         24
     1  C   -0.000402   0.386352   0.392654   0.382108  -0.045246  -0.036383
     2  C   -0.000082  -0.040101  -0.037224  -0.039503   0.392081   0.398388
     3  C   -0.000060  -0.003503   0.007594  -0.005413  -0.042188  -0.050675
     4  C   -0.000003  -0.000326  -0.000200   0.000406  -0.009567   0.000456
     5  C    0.000000   0.000199  -0.000017  -0.000061   0.001049  -0.000391
     6  O    0.000000  -0.000177   0.000000   0.000000  -0.000065   0.000230
     7  N   -0.003638  -0.000287  -0.000002   0.003431   0.000913   0.005021
     8  C    0.002874   0.000041   0.000042   0.000335  -0.000183  -0.000520
     9  C    0.005300   0.000000   0.000000  -0.000004   0.000000   0.000000
    10  C   -0.000508   0.000000   0.000000   0.000001   0.000000   0.000000
    11  C    0.005206   0.000000   0.000000  -0.000038   0.000009  -0.000001
    12  C   -0.082565  -0.000001  -0.000003  -0.000246   0.000098   0.000021
    13  C    0.306193   0.000005   0.000002   0.000108  -0.000051   0.000002
    14  C   -0.054363   0.000000   0.000000   0.000073  -0.000002   0.000000
    15  H   -0.000081   0.000000   0.000000   0.000000   0.000000   0.000000
    16  H    0.000004   0.000000   0.000000   0.000000   0.000000   0.000000
    17  H    0.001494   0.000000   0.000000   0.000005   0.000000   0.000000
    18  F   -0.000002   0.000000   0.000000   0.000000   0.000000   0.000000
    19  F    9.055348  -0.000027  -0.000006   0.003743  -0.000035  -0.000002
    20  H   -0.000027   0.479506  -0.026800  -0.029419   0.007418  -0.005824
    21  H   -0.000006  -0.026800   0.470314  -0.026610  -0.004389  -0.004333
    22  H    0.003743  -0.029419  -0.026610   0.488571  -0.006315   0.007127
    23  H   -0.000035   0.007418  -0.004389  -0.006315   0.493513  -0.030570
    24  H   -0.000002  -0.005824  -0.004333   0.007127  -0.030570   0.478444
    25  H   -0.000001  -0.000026   0.000020  -0.000013  -0.000453   0.000357
    26  H    0.000000   0.000100   0.000042  -0.000018   0.000064   0.004806
    27  H    0.000000  -0.000015  -0.000001   0.000002  -0.000101   0.000115
    28  H    0.000000   0.000013   0.000000  -0.000002   0.000013   0.000000
    29  H    0.000182  -0.000003   0.000002   0.000118  -0.000123   0.000035
    30  H    0.004297   0.000158  -0.000029  -0.001076   0.000306  -0.000043
    31  H   -0.000069   0.004380  -0.000045  -0.002184   0.007735  -0.002228
    32  C    0.000000  -0.000011   0.000010  -0.000034   0.001573  -0.001606
    33  H    0.000000  -0.000021   0.000014   0.000002  -0.001981   0.000787
    34  H    0.000000   0.000001  -0.000002   0.000001   0.000086  -0.000141
    35  H    0.000000   0.000007  -0.000006  -0.000081   0.002621  -0.000156
    36  H    0.009632  -0.000328  -0.000351   0.006906  -0.000251   0.000880
              25         26         27         28         29         30
     1  C   -0.000309  -0.000157   0.000020  -0.000001   0.000033  -0.000263
     2  C    0.007668   0.004033  -0.000316   0.000041  -0.000080   0.000857
     3  C   -0.068551  -0.013291   0.010187  -0.001487  -0.003191  -0.004166
     4  C    0.411551  -0.033619  -0.054201   0.001200   0.003871  -0.002079
     5  C   -0.050372   0.373824   0.394182  -0.055685  -0.000776   0.000415
     6  O    0.001074  -0.029348  -0.030347   0.258967   0.000133  -0.000264
     7  N   -0.002222  -0.000004  -0.000205  -0.000101  -0.039217  -0.051189
     8  C    0.002993   0.000011  -0.000056   0.000203   0.382731   0.374207
     9  C    0.000000   0.000000   0.000000   0.000000  -0.000342  -0.000014
    10  C   -0.000005   0.000000   0.000000   0.000000   0.001593  -0.000193
    11  C    0.000197   0.000000   0.000000   0.000001  -0.019938   0.009777
    12  C    0.000200   0.000002  -0.000003   0.000004  -0.036786  -0.033646
    13  C   -0.000066   0.000000   0.000000   0.000000   0.010389  -0.022695
    14  C    0.000000   0.000000   0.000000   0.000000   0.000197  -0.000666
    15  H    0.000000   0.000000   0.000000   0.000000   0.000006   0.000002
    16  H    0.000001   0.000000   0.000000   0.000000  -0.000055   0.000013
    17  H    0.000000   0.000000   0.000000   0.000000   0.000007  -0.000013
    18  F   -0.000086   0.000000   0.000000  -0.000001   0.015895   0.000041
    19  F   -0.000001   0.000000   0.000000   0.000000   0.000182   0.004297
    20  H   -0.000026   0.000100  -0.000015   0.000013  -0.000003   0.000158
    21  H    0.000020   0.000042  -0.000001   0.000000   0.000002  -0.000029
    22  H   -0.000013  -0.000018   0.000002  -0.000002   0.000118  -0.001076
    23  H   -0.000453   0.000064  -0.000101   0.000013  -0.000123   0.000306
    24  H    0.000357   0.004806   0.000115   0.000000   0.000035  -0.000043
    25  H    0.519706   0.008869  -0.010191   0.007680   0.000902   0.000629
    26  H    0.008869   0.494024  -0.039662   0.008388  -0.000042   0.000030
    27  H   -0.010191  -0.039662   0.516125  -0.006516   0.000113  -0.000023
    28  H    0.007680   0.008388  -0.006516   0.387509  -0.000108   0.000100
    29  H    0.000902  -0.000042   0.000113  -0.000108   0.476075  -0.046865
    30  H    0.000629   0.000030  -0.000023   0.000100  -0.046865   0.539455
    31  H   -0.005436  -0.002248   0.001851  -0.001957  -0.002585   0.010526
    32  C   -0.037086  -0.001975   0.000858  -0.000460   0.000559  -0.000118
    33  H    0.007976   0.004486  -0.001274   0.000041  -0.000025   0.000002
    34  H   -0.008077  -0.000791   0.005599  -0.000075   0.000088  -0.000011
    35  H   -0.005323  -0.000395  -0.000259   0.000011  -0.000846   0.000359
    36  H   -0.000289  -0.000025   0.000025   0.000005   0.006145  -0.002051
              31         32         33         34         35         36
     1  C   -0.011001  -0.000112   0.000146   0.000013  -0.000215   0.003733
     2  C   -0.040781  -0.013624   0.003847  -0.000062  -0.001994  -0.010733
     3  C    0.405002  -0.059416  -0.010153   0.008661  -0.006826  -0.058413
     4  C   -0.083669   0.264512  -0.037043  -0.035792  -0.036862   0.006735
     5  C   -0.007297  -0.071168  -0.005682  -0.003504   0.007518  -0.000306
     6  O    0.031858   0.005183   0.000009  -0.000070  -0.000214   0.000015
     7  N   -0.043547  -0.012658   0.000024  -0.000501   0.023124   0.344294
     8  C   -0.011458   0.000731  -0.000025  -0.000053  -0.000401  -0.052391
     9  C    0.000000   0.000000   0.000000   0.000000   0.000000  -0.000031
    10  C   -0.000001   0.000000   0.000000   0.000000  -0.000001   0.000002
    11  C    0.000098  -0.000048   0.000001  -0.000002   0.000219   0.000085
    12  C    0.000634   0.000022   0.000006  -0.000003  -0.000074  -0.017158
    13  C   -0.000344   0.000014  -0.000001   0.000000  -0.000083   0.004468
    14  C   -0.000009   0.000000   0.000000   0.000000  -0.000003  -0.000132
    15  H    0.000000   0.000000   0.000000   0.000000   0.000000   0.000001
    16  H    0.000000   0.000000   0.000000   0.000000   0.000000   0.000000
    17  H    0.000000   0.000000   0.000000   0.000000   0.000000   0.000006
    18  F   -0.000002  -0.000001   0.000000   0.000000   0.000009  -0.000010
    19  F   -0.000069   0.000000   0.000000   0.000000   0.000000   0.009632
    20  H    0.004380  -0.000011  -0.000021   0.000001   0.000007  -0.000328
    21  H   -0.000045   0.000010   0.000014  -0.000002  -0.000006  -0.000351
    22  H   -0.002184  -0.000034   0.000002   0.000001  -0.000081   0.006906
    23  H    0.007735   0.001573  -0.001981   0.000086   0.002621  -0.000251
    24  H   -0.002228  -0.001606   0.000787  -0.000141  -0.000156   0.000880
    25  H   -0.005436  -0.037086   0.007976  -0.008077  -0.005323  -0.000289
    26  H   -0.002248  -0.001975   0.004486  -0.000791  -0.000395  -0.000025
    27  H    0.001851   0.000858  -0.001274   0.005599  -0.000259   0.000025
    28  H   -0.001957  -0.000460   0.000041  -0.000075   0.000011   0.000005
    29  H   -0.002585   0.000559  -0.000025   0.000088  -0.000846   0.006145
    30  H    0.010526  -0.000118   0.000002  -0.000011   0.000359  -0.002051
    31  H    0.520504   0.009838  -0.000309  -0.000144   0.000974   0.004589
    32  C    0.009838   5.436320   0.385979   0.388972   0.373169  -0.000111
    33  H   -0.000309   0.385979   0.487131  -0.030765  -0.026563  -0.000032
    34  H   -0.000144   0.388972  -0.030765   0.477887  -0.025552   0.000040
    35  H    0.000974   0.373169  -0.026563  -0.025552   0.459981  -0.000315
    36  H    0.004589  -0.000111  -0.000032   0.000040  -0.000315   0.422481
 Mulliken charges:
               1
     1  C   -0.658266
     2  C   -0.499841
     3  C   -0.071446
     4  C   -0.303419
     5  C   -0.187175
     6  O   -0.589150
     7  N   -0.550938
     8  C   -0.357601
     9  C   -0.210359
    10  C   -0.268894
    11  C    0.309105
    12  C   -0.131302
    13  C    0.323226
    14  C   -0.262775
    15  H    0.234734
    16  H    0.238107
    17  H    0.238982
    18  F   -0.247619
    19  F   -0.252433
    20  H    0.228687
    21  H    0.229324
    22  H    0.218079
    23  H    0.234042
    24  H    0.236203
    25  H    0.218682
    26  H    0.222898
    27  H    0.214092
    28  H    0.402220
    29  H    0.251906
    30  H    0.224233
    31  H    0.217324
    32  C   -0.669309
    33  H    0.223426
    34  H    0.224197
    35  H    0.238177
    36  H    0.332884
 Sum of Mulliken charges =   0.00000
 Mulliken charges with hydrogens summed into heavy atoms:
               1
     1  C    0.017824
     2  C   -0.029596
     3  C    0.145878
     4  C   -0.084737
     5  C    0.249815
     6  O   -0.186931
     7  N   -0.218054
     8  C    0.118538
     9  C    0.024375
    10  C   -0.030787
    11  C    0.309105
    12  C   -0.131302
    13  C    0.323226
    14  C   -0.023793
    18  F   -0.247619
    19  F   -0.252433
    32  C    0.016490
 Electronic spatial extent (au):  <R**2>=           5362.5476
 Charge=              0.0000 electrons
 Dipole moment (field-independent basis, Debye):
    X=              2.3565    Y=             -0.3467    Z=              0.5189  Tot=              2.4378
 Quadrupole moment (field-independent basis, Debye-Ang):
   XX=            -92.2838   YY=            -98.3847   ZZ=           -106.2389
   XY=              2.4999   XZ=             -2.9521   YZ=              3.1483
 Traceless Quadrupole moment (field-independent basis, Debye-Ang):
   XX=              6.6853   YY=              0.5844   ZZ=             -7.2698
   XY=              2.4999   XZ=             -2.9521   YZ=              3.1483
 Octapole moment (field-independent basis, Debye-Ang**2):
  XXX=            131.7957  YYY=            -13.5733  ZZZ=            -15.3046  XYY=             -8.5980
  XXY=             -2.8252  XXZ=             46.6228  XZZ=              5.6268  YZZ=             -5.6969
  YYZ=             -4.9374  XYZ=             -5.3347
 Hexadecapole moment (field-independent basis, Debye-Ang**3):
 XXXX=          -4763.4512 YYYY=          -1411.6602 ZZZZ=           -519.0758 XXXY=            -10.9007
 XXXZ=            -46.3336 YYYX=             50.0612 YYYZ=             28.8098 ZZZX=              6.1286
 ZZZY=             19.7829 XXYY=           -977.9311 XXZZ=          -1032.0012 YYZZ=           -306.4562
 XXYZ=             -7.3739 YYXZ=             33.4673 ZZXY=              7.8294
 N-N= 1.256512704197D+03 E-N=-4.471127459353D+03  KE= 8.332744821626D+02
 1\1\GINC-SWANNODE-0-11\SP\RmPW1PW91\6-311G(d)\C13H19F2N1O1\KE291\06-Ma
 r-2019\0\\# mPW1PW91/6-311g(d) geom=checkpoint nmr=giao scrf=(solvent=
 chloroform)\\AT3_1ginp016\\0,1\C,0,-1.8792848814,0.5337470401,0.344999
 578\C,0,-1.720987255,1.6664793286,1.3681491924\C,0,-0.4057406936,1.598
 5322777,2.1646400064\C,0,-0.4099572045,2.4600038542,3.4557343601\C,0,-
 1.25793611,1.83859035,4.575689644\O,0,-0.8594019509,0.515967492,4.9361
 689871\N,0,0.7134565717,2.01877496,1.2949050584\C,0,1.9758268156,1.326
 5481121,1.5845199349\C,0,5.0866670434,2.5134497468,-1.1998793586\C,0,5
 .179108621,2.8996636119,0.1371421638\C,0,4.1704397125,2.5122408039,1.0
 128085821\C,0,3.0675994466,1.7481358894,0.6285266188\C,0,3.0315735144,
 1.3951659845,-0.7219692142\C,0,4.0035177417,1.7529909637,-1.6454681102
 \H,0,5.861869192,2.8072629768,-1.8996663177\H,0,6.0092500576,3.4900813
 62,0.5072605748\H,0,3.904806938,1.4411929312,-2.6787043577\F,0,4.26923
 39624,2.8878430187,2.3093530161\F,0,1.9691239498,0.6615785261,-1.14675
 48201\H,0,-1.8983156337,-0.4420438784,0.8423128864\H,0,-2.8118610921,0
 .6416534103,-0.2177283062\H,0,-1.0612035779,0.512799533,-0.3840726378\
 H,0,-1.7783606447,2.6377329074,0.8607973683\H,0,-2.568143222,1.6309474
 217,2.0618186498\H,0,0.6279100507,2.4711124902,3.8234108536\H,0,-2.305
 6360197,1.7544737591,4.2662634319\H,0,-1.2378750325,2.5043821169,5.452
 2861963\H,0,0.0483050524,0.5687686463,5.2656380906\H,0,2.2909081036,1.
 5710305236,2.6014423653\H,0,1.8700569893,0.2279413651,1.5393235326\H,0
 ,-0.2688478525,0.5521746219,2.4877376581\C,0,-0.8205580042,3.918632991
 8,3.2131553341\H,0,-1.8838730317,4.0058172275,2.9634791496\H,0,-0.6414
 337844,4.5291376764,4.1046020489\H,0,-0.241257158,4.3401074559,2.38793
 01409\H,0,0.4719703861,1.8128725017,0.329716699\\Version=EM64L-G09RevD
 .01\State=1-A\HF=-836.4615174\RMSD=6.829e-09\Dipole=0.7774908,0.299347
 6,-0.4751538\Quadrupole=3.2313432,-6.4719771,3.2406338,-1.3724917,-2.1
 969449,1.6366454\PG=C01 [X(C13H19F2N1O1)]\\@


 THE 2ND LAW OF THERMODYNAMICS HAS THE SAME
 DEGREE OF TRUTH AS THE STATEMENT THAT IF YOU THROW
 A TUMBLERFULL OF WATER INTO THE SEA, YOU CANNOT GET
 THE SAME TUMBLERFULL OF WATER OUT AGAIN.
          - J.C. MAXWELL, LETTER TO LORD RAYLEIGH, DECEMBER 6,1870
 Job cpu time:       0 days  0 hours 25 minutes 30.8 seconds.
 File lengths (MBytes):  RWF=    187 Int=      0 D2E=      0 Chk=     14 Scr=      1
 Normal termination of Gaussian 09 at Wed Mar  6 11:36:02 2019.
