 Entering Gaussian System, Link 0=/usr/local/shared/gaussian/em64t/09-D01/g09/g09
 Initial command:
 /usr/local/shared/gaussian/em64t/09-D01/g09/l1.exe "/scratch/ah809/P_ng_2ginp001/Gau-12563.inp" -scrdir="/scratch/ah809/P_ng_2ginp001/"
 Entering Link 1 = /usr/local/shared/gaussian/em64t/09-D01/g09/l1.exe PID=     12612.
  
 Copyright (c) 1988,1990,1992,1993,1995,1998,2003,2009,2013,
            Gaussian, Inc.  All Rights Reserved.
  
 This is part of the Gaussian(R) 09 program.  It is based on
 the Gaussian(R) 03 system (copyright 2003, Gaussian, Inc.),
 the Gaussian(R) 98 system (copyright 1998, Gaussian, Inc.),
 the Gaussian(R) 94 system (copyright 1995, Gaussian, Inc.),
 the Gaussian 92(TM) system (copyright 1992, Gaussian, Inc.),
 the Gaussian 90(TM) system (copyright 1990, Gaussian, Inc.),
 the Gaussian 88(TM) system (copyright 1988, Gaussian, Inc.),
 the Gaussian 86(TM) system (copyright 1986, Carnegie Mellon
 University), and the Gaussian 82(TM) system (copyright 1983,
 Carnegie Mellon University). Gaussian is a federally registered
 trademark of Gaussian, Inc.
  
 This software contains proprietary and confidential information,
 including trade secrets, belonging to Gaussian, Inc.
  
 This software is provided under written license and may be
 used, copied, transmitted, or stored only in accord with that
 written license.
  
 The following legend is applicable only to US Government
 contracts under FAR:
  
                    RESTRICTED RIGHTS LEGEND
  
 Use, reproduction and disclosure by the US Government is
 subject to restrictions as set forth in subparagraphs (a)
 and (c) of the Commercial Computer Software - Restricted
 Rights clause in FAR 52.227-19.
  
 Gaussian, Inc.
 340 Quinnipiac St., Bldg. 40, Wallingford CT 06492
  
  
 ---------------------------------------------------------------
 Warning -- This program may not be used in any manner that
 competes with the business of Gaussian, Inc. or will provide
 assistance to any competitor of Gaussian, Inc.  The licensee
 of this program is prohibited from giving any competitor of
 Gaussian, Inc. access to this program.  By using this program,
 the user acknowledges that Gaussian, Inc. is engaged in the
 business of creating and licensing software in the field of
 computational chemistry and represents and warrants to the
 licensee that it is not a competitor of Gaussian, Inc. and that
 it will not use this program in any manner prohibited above.
 ---------------------------------------------------------------
  

 Cite this work as:
 Gaussian 09, Revision D.01,
 M. J. Frisch, G. W. Trucks, H. B. Schlegel, G. E. Scuseria, 
 M. A. Robb, J. R. Cheeseman, G. Scalmani, V. Barone, B. Mennucci, 
 G. A. Petersson, H. Nakatsuji, M. Caricato, X. Li, H. P. Hratchian, 
 A. F. Izmaylov, J. Bloino, G. Zheng, J. L. Sonnenberg, M. Hada, 
 M. Ehara, K. Toyota, R. Fukuda, J. Hasegawa, M. Ishida, T. Nakajima, 
 Y. Honda, O. Kitao, H. Nakai, T. Vreven, J. A. Montgomery, Jr., 
 J. E. Peralta, F. Ogliaro, M. Bearpark, J. J. Heyd, E. Brothers, 
 K. N. Kudin, V. N. Staroverov, T. Keith, R. Kobayashi, J. Normand, 
 K. Raghavachari, A. Rendell, J. C. Burant, S. S. Iyengar, J. Tomasi, 
 M. Cossi, N. Rega, J. M. Millam, M. Klene, J. E. Knox, J. B. Cross, 
 V. Bakken, C. Adamo, J. Jaramillo, R. Gomperts, R. E. Stratmann, 
 O. Yazyev, A. J. Austin, R. Cammi, C. Pomelli, J. W. Ochterski, 
 R. L. Martin, K. Morokuma, V. G. Zakrzewski, G. A. Voth, 
 P. Salvador, J. J. Dannenberg, S. Dapprich, A. D. Daniels, 
 O. Farkas, J. B. Foresman, J. V. Ortiz, J. Cioslowski, 
 and D. J. Fox, Gaussian, Inc., Wallingford CT, 2013.
 
 ******************************************
 Gaussian 09:  EM64L-G09RevD.01 24-Apr-2013
                 8-Mar-2018 
 ******************************************
 %mem=6000MB
 %chk=P_ng_2ginp001.chk
 --------------------------------------------------------
 #mPW1PW91/6-311g(d) nmr=(giao) scrf=(solvent=chloroform)
 --------------------------------------------------------
 1/38=1/1;
 2/12=2,17=6,18=5,40=1/2;
 3/5=4,6=6,7=1,11=2,16=1,25=1,30=1,70=2201,72=7,74=-7/1,2,8,3;
 4//1;
 5/5=2,38=5,53=7/2;
 8/6=1,10=90,11=11/1;
 10/13=100,45=16/2;
 6/7=2,8=2,9=2,10=2,28=1/1;
 99/9=1/99;
 -------------
 P_ng_2ginp001
 -------------
 Symbolic Z-matrix:
 Charge =  0 Multiplicity = 1
 C                    -0.01346   0.26187   0.98948 
 C                    -0.91093   1.37086   0.408 
 C                    -2.19693   1.5481    1.26438 
 C                    -1.74644   1.84723   2.69692 
 C                    -0.86598   0.77574   3.25892 
 H                    -0.41313  -0.72157   0.71341 
 H                    -0.3506    2.31245   0.46449 
 H                    -1.16852   2.77583   2.75689 
 H                    -2.6077    1.98099   3.36077 
 O                     0.07155   0.26686   2.43434 
 O                    -0.90769   0.45693   4.44265 
 C                     1.43004   0.3447    0.45795 
 C                     2.3088   -0.7929    0.96645 
 C                    -1.20103   1.13653  -1.08297 
 O                    -3.03621   2.56565   0.67324 
 Si                   -2.97331   4.22645   0.84814 
 C                    -3.58755   4.77175   2.53807 
 C                    -1.26018   4.93447   0.56129 
 C                    -4.11942   5.00911  -0.43839 
 H                    -1.28967   6.02796   0.59107 
 H                    -0.55629   4.59759   1.32695 
 H                    -0.87661   4.63287  -0.41786 
 H                    -4.1094    6.09903  -0.34689 
 H                    -3.7952    4.7409   -1.44805 
 H                    -5.14525   4.65672  -0.29729 
 H                    -4.55808   4.31725   2.75783 
 H                    -2.88718   4.4868    3.32746 
 H                    -3.70421   5.85928   2.56896 
 H                    -1.89539   1.88173  -1.48241 
 H                    -0.28617   1.2118   -1.6785 
 H                    -1.62868   0.14461  -1.25955 
 H                     1.88364   1.292     0.77405 
 H                     1.44151   0.32171  -0.636 
 H                     2.41551  -0.76253   2.05512 
 H                     1.89041  -1.76496   0.68688 
 H                     3.31039  -0.717     0.53111 
 C                    -3.08375   0.25395   1.22708 
 C                    -4.31692   0.32487   2.0936 
 C                    -4.54945  -0.47528   3.1417 
 H                    -2.50234  -0.6322    1.50325 
 H                    -3.44083   0.08645   0.20296 
 H                    -5.05744   1.07669   1.8253 
 H                    -5.46049  -0.37531   3.72438 
 H                    -3.84256  -1.23948   3.45146 
 
                          Input orientation:                          
 ---------------------------------------------------------------------
 Center     Atomic      Atomic             Coordinates (Angstroms)
 Number     Number       Type             X           Y           Z
 ---------------------------------------------------------------------
      1          6           0       -0.013457    0.261872    0.989481
      2          6           0       -0.910931    1.370859    0.407998
      3          6           0       -2.196933    1.548095    1.264379
      4          6           0       -1.746442    1.847227    2.696919
      5          6           0       -0.865978    0.775735    3.258916
      6          1           0       -0.413132   -0.721572    0.713414
      7          1           0       -0.350595    2.312451    0.464486
      8          1           0       -1.168524    2.775834    2.756891
      9          1           0       -2.607695    1.980986    3.360773
     10          8           0        0.071549    0.266861    2.434338
     11          8           0       -0.907692    0.456934    4.442652
     12          6           0        1.430037    0.344698    0.457949
     13          6           0        2.308805   -0.792895    0.966447
     14          6           0       -1.201031    1.136529   -1.082973
     15          8           0       -3.036215    2.565647    0.673238
     16         14           0       -2.973311    4.226450    0.848143
     17          6           0       -3.587545    4.771753    2.538070
     18          6           0       -1.260184    4.934466    0.561286
     19          6           0       -4.119420    5.009110   -0.438390
     20          1           0       -1.289674    6.027956    0.591067
     21          1           0       -0.556292    4.597592    1.326947
     22          1           0       -0.876607    4.632867   -0.417862
     23          1           0       -4.109402    6.099030   -0.346888
     24          1           0       -3.795202    4.740899   -1.448047
     25          1           0       -5.145250    4.656723   -0.297287
     26          1           0       -4.558077    4.317251    2.757832
     27          1           0       -2.887177    4.486800    3.327458
     28          1           0       -3.704210    5.859281    2.568960
     29          1           0       -1.895394    1.881727   -1.482407
     30          1           0       -0.286165    1.211797   -1.678503
     31          1           0       -1.628681    0.144610   -1.259550
     32          1           0        1.883643    1.291996    0.774048
     33          1           0        1.441507    0.321707   -0.636001
     34          1           0        2.415514   -0.762534    2.055122
     35          1           0        1.890406   -1.764960    0.686881
     36          1           0        3.310385   -0.717000    0.531108
     37          6           0       -3.083753    0.253951    1.227079
     38          6           0       -4.316923    0.324872    2.093601
     39          6           0       -4.549449   -0.475280    3.141705
     40          1           0       -2.502335   -0.632195    1.503253
     41          1           0       -3.440830    0.086452    0.202964
     42          1           0       -5.057440    1.076693    1.825303
     43          1           0       -5.460491   -0.375305    3.724380
     44          1           0       -3.842557   -1.239477    3.451456
 ---------------------------------------------------------------------
                    Distance matrix (angstroms):
                    1          2          3          4          5
     1  C    0.000000
     2  C    1.540595   0.000000
     3  C    2.549021   1.555186   0.000000
     4  C    2.903779   2.482774   1.531206   0.000000
     5  C    2.478141   2.912718   2.519158   1.496380   0.000000
     6  H    1.096866   2.172407   2.938860   3.508666   2.987738
     7  H    2.143398   1.097161   2.152448   2.673683   3.230473
     8  H    3.282975   2.749110   2.189192   1.095398   2.084217
     9  H    3.912601   3.459789   2.179676   1.095605   2.120515
    10  O    1.447364   2.508014   2.855937   2.423138   1.348272
    11  O    3.572408   4.136871   3.599194   2.384114   1.226623
    12  C    1.540474   2.556488   3.905561   4.166605   3.647313
    13  C    2.550679   3.919234   5.086322   5.139047   4.218443
    14  C    2.543703   1.536900   2.582880   3.884604   4.369718
    15  O    3.813719   2.452489   1.445425   2.504980   3.820922
    16  Si   4.949605   3.549865   2.819504   3.253288   4.707453
    17  C    5.959132   4.823645   3.734710   3.459443   4.888221
    18  C    4.854978   3.583960   3.583203   3.785290   4.972690
    19  C    6.436926   4.924190   4.309757   5.045661   6.494338
    20  H    5.919053   4.676057   4.620132   4.703376   5.906163
    21  H    4.382582   3.373728   3.463387   3.295116   4.293600
    22  H    4.672391   3.365103   3.753534   4.268286   5.328816
    23  H    7.255002   5.758096   5.192757   5.738133   7.201326
    24  H    6.348608   4.808440   4.483940   5.454493   6.816038
    25  H    6.877920   5.405903   4.560147   5.330144   6.783864
    26  H    6.342455   5.244485   3.933653   3.742996   5.140527
    27  H    5.619112   4.705091   3.656326   2.943841   4.226340
    28  H    6.888207   5.711225   4.749752   4.466073   5.862938
    29  H    3.503691   2.191754   2.783356   4.182122   4.976250
    30  H    2.845148   2.183831   3.524867   4.656232   4.990435
    31  H    2.771433   2.190792   2.943280   4.308877   4.625643
    32  H    2.169460   2.819549   4.117901   4.145266   3.741859
    33  H    2.182359   2.779320   4.284124   4.857838   4.549836
    34  H    2.843396   4.281310   5.219095   4.954254   3.818846
    35  H    2.797197   4.214098   5.293031   5.505889   4.546223
    36  H    3.495171   4.711032   5.999908   6.069390   5.206842
    37  C    3.079486   2.576729   1.569283   2.547029   3.052728
    38  C    4.443295   3.941589   2.584229   3.047775   3.670185
    39  C    5.074513   4.911232   3.626669   3.667250   3.891881
    40  H    2.694036   2.782872   2.214497   2.853725   2.782496
    41  H    3.520833   2.844667   2.193235   3.491574   4.055098
    42  H    5.177287   4.391904   2.952856   3.509437   4.440065
    43  H    6.128283   5.894572   4.516844   4.448537   4.759317
    44  H    4.793472   4.966983   3.906654   3.806674   3.599746
                    6          7          8          9         10
     6  H    0.000000
     7  H    3.044860   0.000000
     8  H    4.120469   2.477671   0.000000
     9  H    4.373607   3.686848   1.751477   0.000000
    10  O    2.042913   2.871056   2.817227   3.312832   0.000000
    11  O    3.942167   4.424828   2.878736   2.526501   2.242402
    12  C    2.144637   2.653817   4.236517   5.235180   2.399513
    13  C    2.734603   4.119168   5.294651   6.131817   2.878038
    14  C    2.701912   2.121477   4.175276   4.736949   3.840216
    15  O    4.205709   2.705594   2.806075   2.783577   4.247833
    16  Si   5.572754   3.269438   3.000810   3.389556   5.240757
    17  C    6.601734   4.563525   3.143762   3.070069   5.804634
    18  C    5.721137   2.776992   3.080386   4.286719   5.202727
    19  C    6.921267   4.721355   4.889287   5.088073   6.950231
    20  H    6.807307   3.834432   3.909190   5.078033   6.200064
    21  H    5.356344   2.451126   2.395490   3.897606   4.513948
    22  H    5.492232   2.537628   3.689559   4.930235   5.300571
    23  H    7.829896   5.396771   5.415334   5.741094   7.696088
    24  H    6.778562   4.628224   5.333144   5.670277   7.074015
    25  H    7.234674   5.391162   5.355380   5.194243   7.344907
    26  H    6.837394   5.194378   3.723578   3.102525   6.159849
    27  H    6.330977   4.399847   2.491329   2.521572   5.230641
    28  H    7.588272   5.315595   3.996582   4.107370   6.749047
    29  H    3.714283   2.522364   4.393110   4.896286   4.670926
    30  H    3.078198   2.409978   4.785132   5.601380   4.235130
    31  H    2.473948   3.050465   4.823576   5.067359   4.068235
    32  H    3.055046   2.475677   3.930543   5.228573   2.662921
    33  H    2.519730   2.895818   4.934239   5.926504   3.362555
    34  H    3.130990   4.431367   5.085062   5.870626   2.587978
    35  H    2.528962   4.657985   5.853273   6.435427   3.238849
    36  H    3.727980   4.752345   6.100379   7.092940   3.883339
    37  C    2.889241   3.505585   3.516862   2.786024   3.378398
    38  C    4.270778   4.726124   4.044698   2.696275   4.402062
    39  C    4.802747   5.706954   4.706217   3.138733   4.733367
    40  H    2.235308   3.792092   3.868504   3.207834   2.880989
    41  H    3.174967   3.817462   4.349562   3.775597   4.165139
    42  H    5.102906   5.053050   4.344952   3.029301   5.228124
    43  H    5.887415   6.630383   5.411718   3.717898   5.716647
    44  H    4.418830   5.807924   4.873971   3.450288   4.315531
                   11         12         13         14         15
    11  O    0.000000
    12  C    4.621194   0.000000
    13  C    4.898155   1.524769   0.000000
    14  C    5.574982   3.150231   4.499083   0.000000
    15  O    4.815160   4.992632   6.319416   2.914542   0.000000
    16  Si   5.603260   5.883003   7.287563   4.051888   1.671172
    17  C    5.424639   7.007271   8.258465   5.658821   2.940828
    18  C    5.936122   5.321084   6.760510   4.139011   2.962790
    19  C    7.406894   7.304563   8.772623   4.891765   2.894747
    20  H    6.783576   6.301902   7.721008   5.170718   3.878755
    21  H    5.193857   4.773654   6.115234   4.266422   3.272026
    22  H    6.408118   4.947327   6.442209   3.573794   3.182421
    23  H    8.063739   8.027794   9.508778   5.798867   3.831081
    24  H    7.835203   7.089607   8.585544   4.455837   3.131714
    25  H    7.619852   7.899262   9.319780   5.344711   3.124507
    26  H    5.573686   7.545074   8.745097   6.011533   3.119249
    27  H    4.626212   6.635467   7.774817   5.789586   3.279928
    28  H    6.365264   7.824799   9.109108   6.473554   3.858498
    29  H    6.173485   4.145592   5.552097   1.094078   2.532987
    30  H    6.198762   2.874306   4.212887   1.094213   3.863466
    31  H    5.756082   3.513630   4.619283   1.094517   3.402682
    32  H    4.684820   1.096837   2.136481   3.603874   5.083046
    33  H    5.597297   1.094252   2.135974   2.801201   5.176811
    34  H    4.269789   2.179011   1.094313   5.151066   6.535116
    35  H    5.183819   2.171407   1.094589   4.594345   6.559416
    36  H    5.871156   2.160616   1.094734   5.137480   7.146699
    37  C    3.887975   4.579748   5.499409   3.108042   2.377591
    38  C    4.142262   5.975224   6.813234   4.523073   2.945966
    39  C    3.977924   6.605238   7.201963   5.626521   4.198862
    40  H    3.516981   4.184559   4.843661   3.392689   3.346662
    41  H    4.952676   4.884368   5.866384   2.788009   2.555637
    42  H    4.945202   6.670295   7.648174   4.830480   2.762171
    43  H    4.683643   7.659462   8.254849   6.598430   4.882190
    44  H    3.531814   6.266653   6.649358   5.760565   4.779922
                   16         17         18         19         20
    16  Si   0.000000
    17  C    1.878960   0.000000
    18  C    1.875734   3.057901   0.000000
    19  C    1.892430   3.032910   3.029877   0.000000
    20  H    2.479142   3.263292   1.094293   3.178882   0.000000
    21  H    2.491783   3.268891   1.093245   3.997705   1.767855
    22  H    2.482763   4.013229   1.093995   3.264631   1.770547
    23  H    2.495067   3.218226   3.209211   1.093800   2.972487
    24  H    2.492519   3.991642   3.240556   1.093829   3.477380
    25  H    2.492883   3.237117   3.988487   1.093807   4.187472
    26  H    2.483272   1.093983   4.010220   3.299534   4.278299
    27  H    2.494435   1.093091   3.240250   3.996604   3.523494
    28  H    2.482249   1.094204   3.295345   3.152673   3.125779
    29  H    3.477225   5.232577   3.728188   3.977033   4.675190
    30  H    4.763699   6.430543   4.452374   5.536363   5.417875
    31  H    4.786629   6.298374   5.137505   5.526431   6.176849
    32  H    5.675078   6.719701   4.816275   7.164057   5.703748
    33  H    6.077855   7.427584   5.478154   7.275624   6.444092
    34  H    7.442190   8.179137   6.942486   9.068343   7.872905
    35  H    7.718727   8.727168   7.404343   9.125364   8.417341
    36  H    8.001440   9.040782   7.268430   9.430284   8.164470
    37  C    3.992059   4.731072   5.067140   5.143727   6.079668
    38  C    4.310310   4.528167   5.739338   5.328421   6.629254
    39  C    5.463598   5.368518   6.836898   6.563577   7.708694
    40  H    4.925182   5.608135   5.780827   6.181364   6.830830
    41  H    4.215971   5.237012   5.327931   5.010427   6.330842
    42  H    3.901206   4.040061   5.558714   4.633367   6.343060
    43  H    5.969502   5.604236   7.472711   6.936790   8.259244
    44  H    6.116305   6.085572   7.289671   7.365622   8.216728
                   21         22         23         24         25
    21  H    0.000000
    22  H    1.774318   0.000000
    23  H    4.204834   3.550441   0.000000
    24  H    4.267513   3.096958   1.776455   0.000000
    25  H    4.868282   4.270412   1.776426   1.775940   0.000000
    26  H    4.259144   4.872152   3.607677   4.295448   3.129499
    27  H    3.073653   4.253369   4.194513   4.867702   4.273938
    28  H    3.611626   4.291915   2.953613   4.170780   3.426093
    29  H    4.130567   3.120890   4.896619   3.432975   4.434713
    30  H    4.535340   3.693448   6.346289   4.982069   6.114408
    31  H    5.260136   4.628013   6.514756   5.084803   5.800980
    32  H    4.145593   4.494558   7.764062   7.005849   7.866034
    33  H    5.111512   4.899728   8.017084   6.900130   7.892557
    34  H    6.171938   6.787051   9.768584   9.007384   9.595172
    35  H    6.846757   7.057550   9.945286   8.900014   9.576380
    36  H    6.620381   6.859484  10.113475   9.175788  10.052905
    37  C    5.026455   5.172256   6.139566   5.272112   5.094886
    38  C    5.743365   6.058221   6.272157   5.684783   5.016712
    39  C    6.706167   7.228655   7.455567   6.988794   6.206376
    40  H    5.582906   5.835628   7.163454   6.265127   6.180582
    41  H    5.471223   5.256477   6.074572   4.951292   4.903333
    42  H    5.736325   5.929378   5.553473   5.072915   4.162897
    43  H    7.384345   7.953109   7.766446   7.463426   6.449379
    44  H    7.027407   7.632359   8.267545   7.731253   7.107409
                   26         27         28         29         30
    26  H    0.000000
    27  H    1.773451   0.000000
    28  H    1.772743   1.768210   0.000000
    29  H    5.567880   5.559212   5.958718   0.000000
    30  H    6.897401   6.523079   7.164013   1.754103   0.000000
    31  H    6.490890   6.440425   7.184899   1.771546   1.765434
    32  H    7.388053   6.283900   7.436794   4.440776   3.275592
    33  H    7.967276   7.196840   8.210658   3.779547   2.205430
    34  H    8.656153   7.569206   9.031250   6.171722   5.013682
    35  H    9.103025   8.299545   9.642147   5.686512   4.381048
    36  H    9.602847   8.562061   9.828777   6.156928   4.640885
    37  C    4.585547   4.729402   5.797011   3.376857   4.145645
    38  C    4.054436   4.570363   5.588476   4.590799   5.591280
    39  C    4.807888   5.236401   6.416317   5.829400   6.652535
    40  H    5.504276   5.447930   6.687264   3.949981   4.293633
    41  H    5.067075   5.425132   6.244426   2.907208   3.841644
    42  H    3.408840   4.312232   5.025675   4.646242   5.921146
    43  H    4.875310   5.515393   6.579482   6.701846   7.647463
    44  H    5.645379   5.806753   7.154740   6.154377   6.706202
                   31         32         33         34         35
    31  H    0.000000
    32  H    4.217634   0.000000
    33  H    3.137870   1.767819   0.000000
    34  H    5.307115   2.478937   3.060459   0.000000
    35  H    4.451856   3.058206   2.511117   1.775579   0.000000
    36  H    5.323833   2.476020   2.435931   1.767904   1.771673
    37  C    2.883143   5.094880   4.894245   5.653391   5.395375
    38  C    4.301484   6.412766   6.372617   6.819798   6.699044
    39  C    5.318477   7.079106   7.127258   7.055061   7.011503
    40  H    2.999963   4.844693   4.586963   4.950433   4.609316
    41  H    2.329423   5.489033   4.959478   6.200648   5.664272
    42  H    4.705474   7.023541   6.990303   7.699391   7.592336
    43  H    6.308141   8.088304   8.193676   8.060262   8.074232
    44  H    5.386142   6.809276   6.860462   6.429672   6.386382
                   36         37         38         39         40
    36  H    0.000000
    37  C    6.504777   0.000000
    38  C    7.855107   1.508840   0.000000
    39  C    8.285568   2.519094   1.338967   0.000000
    40  H    5.894062   1.095251   2.134764   2.626751   0.000000
    41  H    6.806770   1.097439   2.097353   3.190733   1.757264
    42  H    8.655216   2.220409   1.088845   2.097520   3.090724
    43  H    9.340343   3.504477   2.111264   1.086049   3.708111
    44  H    7.743771   2.784594   2.125084   1.086112   2.441410
                   41         42         43         44
    41  H    0.000000
    42  H    2.495193   0.000000
    43  H    4.085660   2.424302   0.000000
    44  H    3.531596   3.079766   1.854452   0.000000
 Stoichiometry    C14H26O3Si
 Framework group  C1[X(C14H26O3Si)]
 Deg. of freedom   126
 Full point group                 C1      NOp   1
 Largest Abelian subgroup         C1      NOp   1
 Largest concise Abelian subgroup C1      NOp   1
                         Standard orientation:                         
 ---------------------------------------------------------------------
 Center     Atomic      Atomic             Coordinates (Angstroms)
 Number     Number       Type             X           Y           Z
 ---------------------------------------------------------------------
      1          6           0       -2.253633   -0.643460   -0.320386
      2          6           0       -0.771873   -0.973151   -0.583300
      3          6           0        0.116872    0.290114   -0.401929
      4          6           0       -0.126396    0.812062    1.016868
      5          6           0       -1.566954    1.122571    1.276733
      6          1           0       -2.681175   -0.135570   -1.193525
      7          1           0       -0.457010   -1.703236    0.172743
      8          1           0        0.166789    0.079352    1.776522
      9          1           0        0.469577    1.710069    1.213717
     10          8           0       -2.471916    0.242443    0.803175
     11          8           0       -1.909759    2.061957    1.987116
     12          6           0       -3.092629   -1.908826   -0.059622
     13          6           0       -4.574677   -1.602297    0.126101
     14          6           0       -0.580901   -1.660349   -1.944679
     15          8           0        1.493576   -0.040214   -0.693174
     16         14           0        2.656366   -0.713405    0.300581
     17          6           0        3.273936    0.515767    1.580517
     18          6           0        2.070894   -2.266140    1.175002
     19          6           0        4.143702   -1.202806   -0.762249
     20          1           0        2.893461   -2.721593    1.734845
     21          1           0        1.266277   -2.046308    1.881720
     22          1           0        1.705224   -3.001715    0.452480
     23          1           0        4.930273   -1.640636   -0.140951
     24          1           0        3.845659   -1.937004   -1.516295
     25          1           0        4.550578   -0.325235   -1.272871
     26          1           0        3.559697    1.456748    1.101251
     27          1           0        2.507235    0.729790    2.329658
     28          1           0        4.150010    0.117000    2.100864
     29          1           0        0.476555   -1.831755   -2.166970
     30          1           0       -1.066246   -2.640878   -1.962123
     31          1           0       -1.007457   -1.066808   -2.759373
     32          1           0       -2.732225   -2.407337    0.848478
     33          1           0       -2.992007   -2.617257   -0.887503
     34          1           0       -4.747931   -0.972845    1.004335
     35          1           0       -4.980963   -1.090369   -0.751958
     36          1           0       -5.135619   -2.531875    0.266359
     37          6           0       -0.242825    1.391114   -1.460732
     38          6           0        0.531192    2.676608   -1.302611
     39          6           0       -0.024018    3.861311   -1.017912
     40          1           0       -1.314924    1.614875   -1.450244
     41          1           0       -0.011422    1.018491   -2.466702
     42          1           0        1.609247    2.615748   -1.442890
     43          1           0        0.589477    4.752154   -0.920319
     44          1           0       -1.093560    3.975270   -0.867138
 ---------------------------------------------------------------------
 Rotational constants (GHZ):      0.4775549      0.2801517      0.2314653
 Standard basis: 6-311G(d) (5D, 7F)
 There are   428 symmetry adapted cartesian basis functions of A   symmetry.
 There are   410 symmetry adapted basis functions of A   symmetry.
   410 basis functions,   720 primitive gaussians,   428 cartesian basis functions
    74 alpha electrons       74 beta electrons
       nuclear repulsion energy      1630.6647844179 Hartrees.
 NAtoms=   44 NActive=   44 NUniq=   44 SFac= 1.00D+00 NAtFMM=   60 NAOKFM=F Big=F
 Integral buffers will be    131072 words long.
 Raffenetti 2 integral format.
 Two-electron integral symmetry is turned on.
 ------------------------------------------------------------------------------
 Polarizable Continuum Model (PCM)
 =================================
 Model                : PCM (using non-symmetric T matrix).
 Atomic radii         : UFF (Universal Force Field).
 Polarization charges : Total charges.
 Charge compensation  : None.
 Solution method      : On-the-fly selection.
 Cavity type          : Scaled VdW (van der Waals Surface) (Alpha=1.100).
 Cavity algorithm     : GePol (No added spheres)
                        Default sphere list used, NSphG=   44.
                        Lebedev-Laikov grids with approx.  5.0 points / Ang**2.
                        Smoothing algorithm: Karplus/York (Gamma=1.0000).
                        Polarization charges: spherical gaussians, with
                                              point-specific exponents (IZeta= 3).
                        Self-potential: point-specific (ISelfS= 7).
                        Self-field    : sphere-specific E.n sum rule (ISelfD= 2).
 Solvent              : Chloroform, Eps=   4.711300 Eps(inf)=   2.090627
 ------------------------------------------------------------------------------
 One-electron integrals computed using PRISM.
 NBasis=   410 RedAO= T EigKep=  1.06D-03  NBF=   410
 NBsUse=   410 1.00D-06 EigRej= -1.00D+00 NBFU=   410
 ExpMin= 6.54D-02 ExpMax= 6.94D+04 ExpMxC= 2.33D+03 IAcc=2 IRadAn=         4 AccDes= 0.00D+00
 Harris functional with IExCor=  908 and IRadAn=       4 diagonalized for initial guess.
 HarFok:  IExCor=  908 AccDes= 0.00D+00 IRadAn=         4 IDoV= 1 UseB2=F ITyADJ=14
 ICtDFT=  3500011 ScaDFX=  1.000000  1.000000  1.000000  1.000000
 FoFCou: FMM=F IPFlag=           0 FMFlag=      100000 FMFlg1=           0
         NFxFlg=           0 DoJE=T BraDBF=F KetDBF=T FulRan=T
         wScrn=  0.000000 ICntrl=     500 IOpCl=  0 I1Cent=   200000004 NGrid=           0
         NMat0=    1 NMatS0=      1 NMatT0=    0 NMatD0=    1 NMtDS0=    0 NMtDT0=    0
 Petite list used in FoFCou.
 Requested convergence on RMS density matrix=1.00D-08 within 128 cycles.
 Requested convergence on MAX density matrix=1.00D-06.
 Requested convergence on             energy=1.00D-06.
 No special actions if energy rises.
 Inv3:  Mode=1 IEnd=    25491675.
 Iteration    1 A*A^-1 deviation from unit magnitude is 8.22D-15 for   1883.
 Iteration    1 A*A^-1 deviation from orthogonality  is 7.33D-15 for   2547   1485.
 Iteration    1 A^-1*A deviation from unit magnitude is 8.22D-15 for   1883.
 Iteration    1 A^-1*A deviation from orthogonality  is 3.24D-12 for   2483   2465.
 Error on total polarization charges =  0.01148
 SCF Done:  E(RmPW1PW91) =  -1064.37806500     A.U. after   13 cycles
            NFock= 13  Conv=0.37D-08     -V/T= 2.0036
 DoSCS=F DFT=T ScalE2(SS,OS)=  1.000000  1.000000
 Range of M.O.s used for correlation:     1   410
 NBasis=   410 NAE=    74 NBE=    74 NFC=     0 NFV=     0
 NROrb=    410 NOA=    74 NOB=    74 NVA=   336 NVB=   336
 NEqPCM:  Using equilibrium solvation (IEInf=0, Eps=   4.7113, EpsInf=   2.0906)
          Differentiating once with respect to magnetic field using GIAOs.
          Electric field/nuclear overlap derivatives assumed to be zero.
 FoFJK:  IHMeth= 1 ICntrl=    6127 DoSepK=F KAlg= 0 I1Cent=   0 FoldK=F
 IRaf=         1 NMat=   1 IRICut=       1 DoRegI=T DoRafI=F ISym2E= 0.
          There are     3 degrees of freedom in the 1st order CPHF.  IDoFFX=0 NUNeed=     3.
      3 vectors produced by pass  0 Test12= 8.29D-13 3.33D-08 XBig12= 3.63D+01 1.16D+00.
 AX will form     3 AO Fock derivatives at one time.
      3 vectors produced by pass  1 Test12= 8.29D-13 3.33D-08 XBig12= 6.97D-02 1.01D-01.
      3 vectors produced by pass  2 Test12= 8.29D-13 3.33D-08 XBig12= 7.90D-04 1.06D-02.
      3 vectors produced by pass  3 Test12= 8.29D-13 3.33D-08 XBig12= 3.03D-06 4.63D-04.
      3 vectors produced by pass  4 Test12= 8.29D-13 3.33D-08 XBig12= 1.17D-08 3.72D-05.
      3 vectors produced by pass  5 Test12= 8.29D-13 3.33D-08 XBig12= 4.62D-11 1.57D-06.
      2 vectors produced by pass  6 Test12= 8.29D-13 3.33D-08 XBig12= 1.36D-13 8.21D-08.
 InvSVY:  IOpt=1 It=  1 EMax= 8.88D-16
 Solved reduced A of dimension    20 with     3 vectors.
 Calculating GIAO nuclear magnetic shielding tensors.
 SCF GIAO Magnetic shielding tensor (ppm):
      1  C    Isotropic =   101.3797   Anisotropy =    48.0591
   XX=    94.5269   YX=    -3.7083   ZX=   -15.5648
   XY=     6.1999   YY=    93.8164   ZY=    23.4623
   XZ=    -3.2808   YZ=    26.4123   ZZ=   115.7958
   Eigenvalues:    75.4447    95.2753   133.4191
      2  C    Isotropic =   140.5972   Anisotropy =    25.2238
   XX=   151.3344   YX=    11.5948   ZX=     2.6814
   XY=     9.5748   YY=   138.8456   ZY=    -9.2516
   XZ=     1.2891   YZ=    -1.3670   ZZ=   131.6117
   Eigenvalues:   126.5648   137.8137   157.4131
      3  C    Isotropic =   105.1342   Anisotropy =    57.7281
   XX=   140.4536   YX=   -14.0989   ZX=    -1.5460
   XY=   -10.7559   YY=    94.8372   ZY=    -0.2096
   XZ=     1.8385   YZ=     1.9915   ZZ=    80.1117
   Eigenvalues:    80.0420    91.7409   143.6196
      4  C    Isotropic =   143.4805   Anisotropy =    27.5628
   XX=   154.9721   YX=    -6.7821   ZX=    -9.4319
   XY=    -5.2675   YY=   135.8305   ZY=    11.7731
   XZ=    -7.7371   YZ=     4.1112   ZZ=   139.6387
   Eigenvalues:   129.5491   139.0366   161.8556
      5  C    Isotropic =    10.3144   Anisotropy =    92.7383
   XX=   -59.4557   YX=   -42.1086   ZX=   -19.6756
   XY=   -54.4550   YY=    33.2290   ZY=   -21.5226
   XZ=   -24.2969   YZ=   -25.5592   ZZ=    57.1698
   Eigenvalues:   -86.1430    44.9461    72.1399
      6  H    Isotropic =    28.1993   Anisotropy =     2.0485
   XX=    29.1347   YX=     0.6915   ZX=     0.2984
   XY=     0.3604   YY=    26.7583   ZY=     0.2568
   XZ=     0.8500   YZ=    -0.7590   ZZ=    28.7050
   Eigenvalues:    26.5816    28.4514    29.5650
      7  H    Isotropic =    30.0769   Anisotropy =     5.7612
   XX=    31.8767   YX=    -0.2190   ZX=     2.5387
   XY=    -0.0928   YY=    29.3022   ZY=    -2.6909
   XZ=     2.6371   YZ=    -2.3153   ZZ=    29.0520
   Eigenvalues:    26.0665    30.2466    33.9177
      8  H    Isotropic =    29.7447   Anisotropy =     5.0459
   XX=    31.0277   YX=    -2.1987   ZX=     1.3334
   XY=    -2.1172   YY=    27.6695   ZY=    -0.3000
   XZ=     1.6397   YZ=    -1.0139   ZZ=    30.5367
   Eigenvalues:    26.6132    29.5121    33.1086
      9  H    Isotropic =    29.0993   Anisotropy =     3.3591
   XX=    28.9535   YX=     1.1580   ZX=     0.9425
   XY=    -0.2737   YY=    30.2699   ZY=     1.8948
   XZ=    -0.2444   YZ=     1.5372   ZZ=    28.0745
   Eigenvalues:    27.1301    28.8291    31.3387
     10  O    Isotropic =   107.4654   Anisotropy =   197.3317
   XX=   150.9278   YX=    73.2014   ZX=    68.3019
   XY=    85.7225   YY=    68.2967   ZY=  -180.1148
   XZ=    68.8510   YZ=  -124.3524   ZZ=   103.1717
   Eigenvalues:  -109.7479   193.1242   239.0198
     11  O    Isotropic =  -127.1812   Anisotropy =   577.4740
   XX=  -233.2659   YX=   -74.3083   ZX=   -12.9560
   XY=   -64.8659   YY=  -193.5348   ZY=  -322.0930
   XZ=   -10.4626   YZ=  -293.4668   ZZ=    45.2570
   Eigenvalues:  -425.7153  -213.6298   257.8014
     12  C    Isotropic =   155.7139   Anisotropy =    26.8741
   XX=   158.7913   YX=    11.9673   ZX=    -1.1985
   XY=     9.5439   YY=   163.6147   ZY=    -4.5998
   XZ=    -3.1778   YZ=    -8.1541   ZZ=   144.7358
   Eigenvalues:   142.6813   150.8305   173.6300
     13  C    Isotropic =   174.8878   Anisotropy =    21.9403
   XX=   189.2774   YX=    -0.6109   ZX=     0.3267
   XY=    -3.6654   YY=   169.2362   ZY=    -5.2938
   XZ=    -0.5558   YZ=    -6.4837   ZZ=   166.1498
   Eigenvalues:   161.5345   173.6142   189.5147
     14  C    Isotropic =   176.0737   Anisotropy =    20.7168
   XX=   169.9339   YX=     1.2739   ZX=     0.0219
   XY=    -1.4332   YY=   170.5268   ZY=     6.2658
   XZ=    -3.4037   YZ=     6.1068   ZZ=   187.7602
   Eigenvalues:   168.3976   169.9386   189.8848
     15  O    Isotropic =   247.1076   Anisotropy =    18.9799
   XX=   235.2074   YX=    -5.2275   ZX=   -14.3268
   XY=   -11.9569   YY=   247.1208   ZY=     7.4331
   XZ=     7.3507   YZ=    -6.6448   ZZ=   258.9947
   Eigenvalues:   230.4114   251.1506   259.7609
     16  Si   Isotropic =   335.2898   Anisotropy =    52.4804
   XX=   343.2123   YX=   -20.1008   ZX=    26.4426
   XY=   -16.4156   YY=   323.5127   ZY=   -13.3127
   XZ=    12.6162   YZ=    -8.7927   ZZ=   339.1445
   Eigenvalues:   312.5984   322.9943   370.2768
     17  C    Isotropic =   185.0691   Anisotropy =    11.1630
   XX=   183.7397   YX=    -0.3812   ZX=     6.7041
   XY=    -3.1270   YY=   187.3402   ZY=     4.8644
   XZ=     6.0115   YZ=     6.2101   ZZ=   184.1275
   Eigenvalues:   175.3043   187.3920   192.5111
     18  C    Isotropic =   185.4403   Anisotropy =     7.3821
   XX=   188.7214   YX=     0.5952   ZX=     2.2851
   XY=     4.0901   YY=   185.9425   ZY=    -5.3372
   XZ=     2.5681   YZ=    -6.2808   ZZ=   181.6570
   Eigenvalues:   176.6851   189.2741   190.3617
     19  C    Isotropic =   186.4374   Anisotropy =    13.1524
   XX=   189.3283   YX=    -4.8842   ZX=    -4.9783
   XY=    -5.5118   YY=   177.6403   ZY=    -0.1710
   XZ=    -2.3770   YZ=    -0.9396   ZZ=   192.3435
   Eigenvalues:   175.4574   188.6490   195.2057
     20  H    Isotropic =    32.2100   Anisotropy =    10.6736
   XX=    33.4208   YX=    -3.6003   ZX=     3.6375
   XY=    -3.0163   YY=    31.9276   ZY=    -3.4888
   XZ=     3.5621   YZ=    -3.8677   ZZ=    31.2816
   Eigenvalues:    27.8388    29.4654    39.3257
     21  H    Isotropic =    32.1157   Anisotropy =     6.0299
   XX=    34.0070   YX=    -1.7989   ZX=    -2.7516
   XY=    -0.6294   YY=    29.9413   ZY=    -1.5295
   XZ=    -2.8788   YZ=    -1.1309   ZZ=    32.3989
   Eigenvalues:    28.3054    31.9061    36.1357
     22  H    Isotropic =    31.9717   Anisotropy =     6.8848
   XX=    30.8578   YX=     1.2004   ZX=     2.6008
   XY=     1.3226   YY=    34.6712   ZY=     2.7620
   XZ=     2.1670   YZ=     1.9611   ZZ=    30.3861
   Eigenvalues:    28.0729    31.2807    36.5616
     23  H    Isotropic =    32.3620   Anisotropy =     9.7106
   XX=    36.2908   YX=    -3.5185   ZX=     2.0910
   XY=    -3.6187   YY=    30.1035   ZY=    -1.2074
   XZ=     2.6987   YZ=    -1.4487   ZZ=    30.6915
   Eigenvalues:    28.4431    29.8071    38.8357
     24  H    Isotropic =    32.0009   Anisotropy =     8.3950
   XX=    30.8481   YX=    -0.2176   ZX=    -0.7955
   XY=     0.0933   YY=    31.7586   ZY=     4.6786
   XZ=     0.0103   YZ=     5.1928   ZZ=    33.3960
   Eigenvalues:    27.5612    30.8440    37.5976
     25  H    Isotropic =    31.9519   Anisotropy =     8.9589
   XX=    32.4420   YX=     2.6379   ZX=    -3.5431
   XY=     2.2178   YY=    32.4169   ZY=    -2.4914
   XZ=    -3.5075   YZ=    -3.4769   ZZ=    30.9969
   Eigenvalues:    27.8898    30.0415    37.9246
     26  H    Isotropic =    31.9344   Anisotropy =     8.1260
   XX=    30.8807   YX=     3.0207   ZX=     0.2333
   XY=     2.7670   YY=    35.8390   ZY=    -1.9859
   XZ=     0.4812   YZ=    -1.0192   ZZ=    29.0835
   Eigenvalues:    28.2303    30.2212    37.3517
     27  H    Isotropic =    32.0787   Anisotropy =     6.2555
   XX=    33.8019   YX=    -0.5666   ZX=    -1.1592
   XY=    -1.6484   YY=    29.0822   ZY=     2.8575
   XZ=    -2.0150   YZ=     2.7627   ZZ=    33.3519
   Eigenvalues:    27.6733    32.3136    36.2490
     28  H    Isotropic =    32.3229   Anisotropy =    10.3494
   XX=    35.5812   YX=    -1.3343   ZX=     4.8872
   XY=    -1.8376   YY=    29.4265   ZY=    -0.3247
   XZ=     4.9710   YZ=    -0.0136   ZZ=    31.9610
   Eigenvalues:    28.0334    29.7128    39.2225
     29  H    Isotropic =    30.4642   Anisotropy =     7.3693
   XX=    34.2963   YX=    -1.1371   ZX=    -0.8851
   XY=    -1.3914   YY=    27.9267   ZY=     3.9120
   XZ=    -1.6851   YZ=     3.6541   ZZ=    29.1696
   Eigenvalues:    24.7125    31.3030    35.3771
     30  H    Isotropic =    31.2494   Anisotropy =     9.3643
   XX=    29.6995   YX=     3.2773   ZX=    -0.9951
   XY=     3.0955   YY=    35.0818   ZY=     3.2078
   XZ=    -0.6494   YZ=     3.5793   ZZ=    28.9671
   Eigenvalues:    26.0630    30.1930    37.4923
     31  H    Isotropic =    31.4669   Anisotropy =     8.6142
   XX=    28.4325   YX=     0.0529   ZX=     2.6328
   XY=    -0.2278   YY=    29.6365   ZY=    -0.6105
   XZ=     2.5009   YZ=    -1.3015   ZZ=    36.3318
   Eigenvalues:    27.6530    29.5381    37.2097
     32  H    Isotropic =    30.5561   Anisotropy =     5.0414
   XX=    32.4298   YX=     0.2417   ZX=     0.4984
   XY=     0.0286   YY=    29.8860   ZY=    -4.4280
   XZ=     0.5894   YZ=    -4.0480   ZZ=    29.3526
   Eigenvalues:    25.3391    32.4122    33.9170
     33  H    Isotropic =    30.1997   Anisotropy =     5.6687
   XX=    32.2051   YX=     1.6274   ZX=    -2.4257
   XY=     1.7924   YY=    30.5683   ZY=     4.6056
   XZ=    -2.1662   YZ=     4.5564   ZZ=    27.8258
   Eigenvalues:    23.4764    33.1439    33.9789
     34  H    Isotropic =    30.5211   Anisotropy =     7.9185
   XX=    32.6001   YX=    -0.6618   ZX=    -3.3059
   XY=     0.2605   YY=    28.3341   ZY=     3.8188
   XZ=    -3.0958   YZ=     3.4421   ZZ=    30.6290
   Eigenvalues:    25.2126    30.5505    35.8001
     35  H    Isotropic =    31.2125   Anisotropy =     9.1643
   XX=    34.3439   YX=    -1.8921   ZX=     3.8463
   XY=    -1.1988   YY=    28.2384   ZY=    -2.7189
   XZ=     3.1407   YZ=    -2.1315   ZZ=    31.0554
   Eigenvalues:    26.8096    29.5059    37.3221
     36  H    Isotropic =    30.9903   Anisotropy =    11.2979
   XX=    34.4585   YX=     5.1207   ZX=    -1.3495
   XY=     4.4371   YY=    32.1968   ZY=    -0.9987
   XZ=    -1.5370   YZ=    -1.3520   ZZ=    26.3158
   Eigenvalues:    26.0317    28.4171    38.5223
     37  C    Isotropic =   144.1806   Anisotropy =    18.7201
   XX=   141.7966   YX=     5.0855   ZX=     4.5905
   XY=    -3.3722   YY=   151.4200   ZY=    -9.2294
   XZ=     8.4320   YZ=    -8.8630   ZZ=   139.3253
   Eigenvalues:   130.9417   144.9395   156.6607
     38  C    Isotropic =    44.5266   Anisotropy =   178.9753
   XX=   -62.6035   YX=   -43.8347   ZX=    20.8428
   XY=   -46.8846   YY=    38.7376   ZY=   -18.4892
   XZ=    18.4869   YZ=   -20.2870   ZZ=   157.4455
   Eigenvalues:   -80.5019    50.2381   163.8434
     39  C    Isotropic =    63.0929   Anisotropy =   142.8226
   XX=   -28.0390   YX=   -55.7586   ZX=    11.1356
   XY=   -53.0536   YY=    63.0142   ZY=   -11.5718
   XZ=    10.5257   YZ=   -14.8459   ZZ=   154.3034
   Eigenvalues:   -53.5405    84.5111   158.3079
     40  H    Isotropic =    30.1638   Anisotropy =     6.1237
   XX=    31.5682   YX=    -1.5642   ZX=     1.4227
   XY=    -0.3278   YY=    32.1728   ZY=    -3.2286
   XZ=     1.8123   YZ=    -2.3630   ZZ=    26.7503
   Eigenvalues:    25.3552    30.8899    34.2462
     41  H    Isotropic =    29.4342   Anisotropy =     4.2557
   XX=    25.4133   YX=     1.3692   ZX=     0.3817
   XY=     1.1338   YY=    30.6505   ZY=    -1.0911
   XZ=    -0.3624   YZ=     0.6618   ZZ=    32.2388
   Eigenvalues:    25.1291    30.9021    32.2713
     42  H    Isotropic =    25.6837   Anisotropy =     6.8704
   XX=    23.1658   YX=     0.8496   ZX=    -0.4179
   XY=    -0.6207   YY=    29.8501   ZY=    -1.2160
   XZ=    -0.8677   YZ=    -1.9523   ZZ=    24.0353
   Eigenvalues:    22.7535    24.0337    30.2640
     43  H    Isotropic =    26.6726   Anisotropy =     6.8692
   XX=    23.4868   YX=    -2.4976   ZX=    -0.1978
   XY=     0.0763   YY=    31.0632   ZY=    -0.0294
   XZ=     0.0075   YZ=    -0.0397   ZZ=    25.4678
   Eigenvalues:    23.2935    25.4722    31.2520
     44  H    Isotropic =    26.7948   Anisotropy =     7.3518
   XX=    23.7104   YX=    -1.5084   ZX=     0.2268
   XY=    -3.8612   YY=    30.7410   ZY=    -0.5007
   XZ=    -0.7191   YZ=    -0.7623   ZZ=    25.9329
   Eigenvalues:    22.7424    25.9459    31.6959
 End of Minotr F.D. properties file   721 does not exist.
 End of Minotr F.D. properties file   722 does not exist.
 End of Minotr F.D. properties file   788 does not exist.

 **********************************************************************

            Population analysis using the SCF density.

 **********************************************************************

 Orbital symmetries:
       Occupied  (A) (A) (A) (A) (A) (A) (A) (A) (A) (A) (A) (A)
                 (A) (A) (A) (A) (A) (A) (A) (A) (A) (A) (A) (A)
                 (A) (A) (A) (A) (A) (A) (A) (A) (A) (A) (A) (A)
                 (A) (A) (A) (A) (A) (A) (A) (A) (A) (A) (A) (A)
                 (A) (A) (A) (A) (A) (A) (A) (A) (A) (A) (A) (A)
                 (A) (A) (A) (A) (A) (A) (A) (A) (A) (A) (A) (A)
                 (A) (A)
       Virtual   (A) (A) (A) (A) (A) (A) (A) (A) (A) (A) (A) (A)
                 (A) (A) (A) (A) (A) (A) (A) (A) (A) (A) (A) (A)
                 (A) (A) (A) (A) (A) (A) (A) (A) (A) (A) (A) (A)
                 (A) (A) (A) (A) (A) (A) (A) (A) (A) (A) (A) (A)
                 (A) (A) (A) (A) (A) (A) (A) (A) (A) (A) (A) (A)
                 (A) (A) (A) (A) (A) (A) (A) (A) (A) (A) (A) (A)
                 (A) (A) (A) (A) (A) (A) (A) (A) (A) (A) (A) (A)
                 (A) (A) (A) (A) (A) (A) (A) (A) (A) (A) (A) (A)
                 (A) (A) (A) (A) (A) (A) (A) (A) (A) (A) (A) (A)
                 (A) (A) (A) (A) (A) (A) (A) (A) (A) (A) (A) (A)
                 (A) (A) (A) (A) (A) (A) (A) (A) (A) (A) (A) (A)
                 (A) (A) (A) (A) (A) (A) (A) (A) (A) (A) (A) (A)
                 (A) (A) (A) (A) (A) (A) (A) (A) (A) (A) (A) (A)
                 (A) (A) (A) (A) (A) (A) (A) (A) (A) (A) (A) (A)
                 (A) (A) (A) (A) (A) (A) (A) (A) (A) (A) (A) (A)
                 (A) (A) (A) (A) (A) (A) (A) (A) (A) (A) (A) (A)
                 (A) (A) (A) (A) (A) (A) (A) (A) (A) (A) (A) (A)
                 (A) (A) (A) (A) (A) (A) (A) (A) (A) (A) (A) (A)
                 (A) (A) (A) (A) (A) (A) (A) (A) (A) (A) (A) (A)
                 (A) (A) (A) (A) (A) (A) (A) (A) (A) (A) (A) (A)
                 (A) (A) (A) (A) (A) (A) (A) (A) (A) (A) (A) (A)
                 (A) (A) (A) (A) (A) (A) (A) (A) (A) (A) (A) (A)
                 (A) (A) (A) (A) (A) (A) (A) (A) (A) (A) (A) (A)
                 (A) (A) (A) (A) (A) (A) (A) (A) (A) (A) (A) (A)
                 (A) (A) (A) (A) (A) (A) (A) (A) (A) (A) (A) (A)
                 (A) (A) (A) (A) (A) (A) (A) (A) (A) (A) (A) (A)
                 (A) (A) (A) (A) (A) (A) (A) (A) (A) (A) (A) (A)
                 (A) (A) (A) (A) (A) (A) (A) (A) (A) (A) (A) (A)
 The electronic state is 1-A.
 Alpha  occ. eigenvalues --  -66.27031 -19.26408 -19.21387 -19.20125 -10.37518
 Alpha  occ. eigenvalues --  -10.32240 -10.31027 -10.25547 -10.25260 -10.24271
 Alpha  occ. eigenvalues --  -10.24012 -10.23958 -10.22851 -10.22660 -10.22022
 Alpha  occ. eigenvalues --  -10.20925 -10.20649 -10.20527  -5.32867  -3.66717
 Alpha  occ. eigenvalues --   -3.66482  -3.66446  -1.13555  -1.04978  -1.04196
 Alpha  occ. eigenvalues --   -0.86139  -0.83586  -0.80631  -0.78071  -0.74244
 Alpha  occ. eigenvalues --   -0.72553  -0.72096  -0.70423  -0.70007  -0.66531
 Alpha  occ. eigenvalues --   -0.64139  -0.61888  -0.58703  -0.56456  -0.53895
 Alpha  occ. eigenvalues --   -0.52767  -0.50174  -0.49519  -0.48688  -0.47781
 Alpha  occ. eigenvalues --   -0.46415  -0.45600  -0.44998  -0.44411  -0.43497
 Alpha  occ. eigenvalues --   -0.42825  -0.42586  -0.42120  -0.41797  -0.41402
 Alpha  occ. eigenvalues --   -0.40961  -0.40564  -0.39854  -0.39723  -0.38843
 Alpha  occ. eigenvalues --   -0.38255  -0.38016  -0.36942  -0.36666  -0.36241
 Alpha  occ. eigenvalues --   -0.35755  -0.34360  -0.33664  -0.32375  -0.31449
 Alpha  occ. eigenvalues --   -0.30423  -0.29109  -0.28503  -0.27167
 Alpha virt. eigenvalues --   -0.00465   0.01208   0.03934   0.05642   0.05881
 Alpha virt. eigenvalues --    0.06627   0.07621   0.07925   0.08165   0.08793
 Alpha virt. eigenvalues --    0.09900   0.09961   0.10256   0.10383   0.11229
 Alpha virt. eigenvalues --    0.11554   0.11884   0.12998   0.13663   0.13736
 Alpha virt. eigenvalues --    0.14021   0.14512   0.14934   0.15439   0.15530
 Alpha virt. eigenvalues --    0.16582   0.16641   0.17189   0.17909   0.18268
 Alpha virt. eigenvalues --    0.18861   0.19290   0.19520   0.20538   0.20936
 Alpha virt. eigenvalues --    0.21568   0.22492   0.24072   0.24279   0.24716
 Alpha virt. eigenvalues --    0.25138   0.25899   0.26401   0.26784   0.28092
 Alpha virt. eigenvalues --    0.29172   0.29717   0.30483   0.31870   0.32566
 Alpha virt. eigenvalues --    0.32772   0.33448   0.34453   0.35676   0.36327
 Alpha virt. eigenvalues --    0.36594   0.37678   0.38194   0.39360   0.40034
 Alpha virt. eigenvalues --    0.41249   0.41566   0.42284   0.43688   0.44317
 Alpha virt. eigenvalues --    0.44968   0.45325   0.46561   0.47268   0.48913
 Alpha virt. eigenvalues --    0.49506   0.50113   0.51227   0.52184   0.52717
 Alpha virt. eigenvalues --    0.53848   0.54789   0.54900   0.55718   0.56307
 Alpha virt. eigenvalues --    0.57089   0.57519   0.58103   0.58301   0.59345
 Alpha virt. eigenvalues --    0.59573   0.59981   0.60304   0.60617   0.61245
 Alpha virt. eigenvalues --    0.61435   0.61881   0.62114   0.62417   0.63022
 Alpha virt. eigenvalues --    0.63196   0.63618   0.64561   0.64956   0.66006
 Alpha virt. eigenvalues --    0.66694   0.66880   0.67675   0.67947   0.68649
 Alpha virt. eigenvalues --    0.69296   0.69439   0.69963   0.70417   0.70913
 Alpha virt. eigenvalues --    0.72190   0.72440   0.72870   0.73956   0.74719
 Alpha virt. eigenvalues --    0.76433   0.77529   0.77811   0.78461   0.81646
 Alpha virt. eigenvalues --    0.82435   0.83777   0.84700   0.88088   0.88790
 Alpha virt. eigenvalues --    0.89850   0.90695   0.92018   0.93459   0.94749
 Alpha virt. eigenvalues --    0.95547   0.96178   0.96934   0.97705   1.00848
 Alpha virt. eigenvalues --    1.01169   1.03300   1.06358   1.07664   1.09354
 Alpha virt. eigenvalues --    1.12647   1.13878   1.14897   1.16978   1.18117
 Alpha virt. eigenvalues --    1.20997   1.24175   1.25747   1.26851   1.27335
 Alpha virt. eigenvalues --    1.27786   1.29018   1.31318   1.32486   1.33002
 Alpha virt. eigenvalues --    1.34553   1.37051   1.38846   1.39294   1.41479
 Alpha virt. eigenvalues --    1.43035   1.43487   1.46441   1.47096   1.48858
 Alpha virt. eigenvalues --    1.50005   1.50871   1.52398   1.52577   1.52789
 Alpha virt. eigenvalues --    1.54116   1.54947   1.55525   1.57561   1.58194
 Alpha virt. eigenvalues --    1.59006   1.59490   1.60098   1.60487   1.60791
 Alpha virt. eigenvalues --    1.61172   1.62234   1.62448   1.63490   1.64583
 Alpha virt. eigenvalues --    1.65294   1.65551   1.66966   1.68765   1.68796
 Alpha virt. eigenvalues --    1.69836   1.70586   1.72320   1.73289   1.73770
 Alpha virt. eigenvalues --    1.74318   1.77042   1.78362   1.80224   1.80958
 Alpha virt. eigenvalues --    1.81671   1.82227   1.83237   1.84538   1.87766
 Alpha virt. eigenvalues --    1.88240   1.92660   1.93075   1.96110   1.96755
 Alpha virt. eigenvalues --    1.99153   2.03234   2.06521   2.08028   2.13059
 Alpha virt. eigenvalues --    2.15251   2.17124   2.20279   2.22554   2.25118
 Alpha virt. eigenvalues --    2.28516   2.30981   2.33700   2.36566   2.40306
 Alpha virt. eigenvalues --    2.41065   2.41628   2.42252   2.42720   2.43182
 Alpha virt. eigenvalues --    2.44094   2.44800   2.46253   2.46661   2.47624
 Alpha virt. eigenvalues --    2.48155   2.48833   2.49629   2.50232   2.51551
 Alpha virt. eigenvalues --    2.51936   2.53217   2.57863   2.58917   2.60695
 Alpha virt. eigenvalues --    2.61765   2.63345   2.67956   2.72845   2.80489
 Alpha virt. eigenvalues --    2.82681   2.87461   2.88502   2.90386   2.91688
 Alpha virt. eigenvalues --    2.92962   2.94033   2.95076   2.95510   2.97170
 Alpha virt. eigenvalues --    2.99748   3.00749   3.00892   3.03603   3.05123
 Alpha virt. eigenvalues --    3.08111   3.10533   3.12097   3.13606   3.14516
 Alpha virt. eigenvalues --    3.16095   3.17116   3.17824   3.20348   3.21398
 Alpha virt. eigenvalues --    3.22466   3.22875   3.22968   3.24444   3.25166
 Alpha virt. eigenvalues --    3.25666   3.27647   3.28549   3.29947   3.30528
 Alpha virt. eigenvalues --    3.32921   3.33782   3.35158   3.38399   3.39969
 Alpha virt. eigenvalues --    3.42899   3.50644   3.56859   3.59987   3.63153
 Alpha virt. eigenvalues --    3.78208   3.88322   3.90527   3.97847   4.04885
 Alpha virt. eigenvalues --    4.09237   4.10819   4.19411   4.21324   4.24902
 Alpha virt. eigenvalues --    4.94297   5.00091   5.02076   5.09002   5.14293
 Alpha virt. eigenvalues --    5.23508   5.49759   5.55020   5.77862   5.85622
 Alpha virt. eigenvalues --   11.52250  11.54088  11.59474  23.42174  23.49819
 Alpha virt. eigenvalues --   23.54576  23.55227  23.57319  23.60417  23.70549
 Alpha virt. eigenvalues --   23.73627  23.78645  23.79638  23.82502  23.84349
 Alpha virt. eigenvalues --   23.89727  24.27405  49.98643  50.05496  50.11988
 Alpha virt. eigenvalues --  141.29673
          Condensed to atoms (all electrons):
               1          2          3          4          5          6
     1  C    5.192458   0.281759  -0.047259  -0.007592  -0.049555   0.384881
     2  C    0.281759   5.525020   0.311944  -0.092317  -0.009716  -0.041626
     3  C   -0.047259   0.311944   5.226423   0.229574  -0.009274  -0.016827
     4  C   -0.007592  -0.092317   0.229574   5.866468   0.238548   0.003031
     5  C   -0.049555  -0.009716  -0.009274   0.238548   4.410592  -0.002046
     6  H    0.384881  -0.041626  -0.016827   0.003031  -0.002046   0.488366
     7  H   -0.049721   0.411535  -0.056986  -0.006636   0.001027   0.007998
     8  H    0.000307  -0.005949  -0.032672   0.364154  -0.030466   0.000191
     9  H   -0.000623   0.007500  -0.034271   0.366567  -0.025866   0.000128
    10  O    0.220384  -0.034110   0.004938  -0.111786   0.338034  -0.036491
    11  O    0.001276  -0.000039   0.002348  -0.098135   0.661459   0.000187
    12  C    0.326012  -0.071184   0.009502  -0.002570   0.002434  -0.050210
    13  C   -0.073577   0.008118  -0.000115   0.000062  -0.000004  -0.006181
    14  C   -0.066370   0.299237  -0.062761   0.007790  -0.000026  -0.001494
    15  O    0.004082  -0.049943   0.226028  -0.024512   0.001700  -0.000083
    16  Si   0.002779  -0.012115  -0.044259  -0.009235   0.001568  -0.000285
    17  C    0.000009  -0.000355  -0.001915  -0.000968   0.000088   0.000001
    18  C   -0.000112  -0.002006  -0.001253  -0.002090  -0.000068  -0.000007
    19  C   -0.000001  -0.000246   0.002408  -0.000150   0.000001   0.000000
    20  H   -0.000003   0.000292  -0.000067   0.000055   0.000002   0.000000
    21  H   -0.000095  -0.001024   0.000741   0.000281   0.000014  -0.000010
    22  H   -0.000057  -0.000467   0.000183   0.000275   0.000006  -0.000003
    23  H    0.000000   0.000000  -0.000069   0.000000   0.000000   0.000000
    24  H   -0.000001  -0.000005  -0.000061  -0.000020   0.000000   0.000000
    25  H    0.000000  -0.000018  -0.000129  -0.000037   0.000000   0.000000
    26  H    0.000003  -0.000045   0.000600  -0.000400  -0.000035   0.000000
    27  H    0.000007  -0.000012  -0.000373   0.001691   0.000088   0.000000
    28  H    0.000000   0.000007  -0.000016   0.000132  -0.000002   0.000000
    29  H    0.005654  -0.030652  -0.007964   0.000441  -0.000070  -0.000053
    30  H   -0.005879  -0.036633   0.007553  -0.000248   0.000003  -0.000983
    31  H   -0.005277  -0.037288  -0.010076  -0.000169   0.000013   0.005314
    32  H   -0.042605  -0.007175  -0.000941   0.000258  -0.000279   0.007931
    33  H   -0.039217  -0.005343  -0.000143   0.000104   0.000006   0.000184
    34  H   -0.011368   0.000437  -0.000065   0.000350   0.000657   0.000333
    35  H   -0.004380  -0.000079  -0.000003  -0.000003  -0.000105   0.005061
    36  H    0.008397  -0.000259   0.000013  -0.000001   0.000007  -0.000294
    37  C   -0.000721  -0.093544   0.271267  -0.095562  -0.004513   0.006383
    38  C   -0.000803   0.009636  -0.058937  -0.014351  -0.000835   0.000030
    39  C   -0.000038   0.000044  -0.003277  -0.000386   0.000685   0.000053
    40  H    0.004307  -0.009736  -0.023877  -0.003256   0.002633  -0.001943
    41  H   -0.000213  -0.007089  -0.040078   0.006567  -0.000206   0.000048
    42  H    0.000009  -0.000241  -0.001528  -0.000010   0.000131  -0.000007
    43  H    0.000000   0.000018  -0.000296   0.000051   0.000012   0.000000
    44  H   -0.000046   0.000000  -0.000402  -0.000025   0.001032   0.000116
               7          8          9         10         11         12
     1  C   -0.049721   0.000307  -0.000623   0.220384   0.001276   0.326012
     2  C    0.411535  -0.005949   0.007500  -0.034110  -0.000039  -0.071184
     3  C   -0.056986  -0.032672  -0.034271   0.004938   0.002348   0.009502
     4  C   -0.006636   0.364154   0.366567  -0.111786  -0.098135  -0.002570
     5  C    0.001027  -0.030466  -0.025866   0.338034   0.661459   0.002434
     6  H    0.007998   0.000191   0.000128  -0.036491   0.000187  -0.050210
     7  H    0.476709   0.001980   0.000139   0.002624  -0.000022  -0.008995
     8  H    0.001980   0.420707  -0.016476   0.003413   0.001594  -0.000190
     9  H    0.000139  -0.016476   0.403023   0.004636   0.009779   0.000072
    10  O    0.002624   0.003413   0.004636   8.037853  -0.069659  -0.049874
    11  O   -0.000022   0.001594   0.009779  -0.069659   7.872847  -0.000133
    12  C   -0.008995  -0.000190   0.000072  -0.049874  -0.000133   5.324305
    13  C   -0.000112  -0.000003  -0.000003  -0.004367  -0.000015   0.314763
    14  C   -0.041901   0.000206  -0.000136   0.003146   0.000005  -0.003749
    15  O   -0.001753  -0.003611  -0.000339  -0.000028  -0.000017  -0.000074
    16  Si  -0.003870   0.003110  -0.004529  -0.000789  -0.000475  -0.000265
    17  C   -0.000153  -0.000257  -0.002359  -0.000001  -0.000002   0.000000
    18  C   -0.003371   0.002365   0.000323   0.000007   0.000001   0.000003
    19  C   -0.000056  -0.000003  -0.000042   0.000000   0.000000   0.000000
    20  H    0.000582  -0.000026  -0.000004   0.000000   0.000000  -0.000001
    21  H   -0.000425   0.005117   0.000009  -0.000038   0.000004   0.000095
    22  H   -0.000984  -0.000369   0.000004  -0.000004   0.000000   0.000055
    23  H   -0.000003   0.000005  -0.000002   0.000000   0.000000   0.000000
    24  H   -0.000027  -0.000005  -0.000005   0.000000   0.000000   0.000000
    25  H   -0.000005   0.000000  -0.000018   0.000000   0.000000   0.000000
    26  H   -0.000001   0.000032   0.000285   0.000000   0.000001   0.000000
    27  H   -0.000054   0.001099  -0.000920  -0.000003  -0.000054   0.000000
    28  H    0.000003  -0.000047   0.000219   0.000000   0.000000   0.000000
    29  H   -0.003422   0.000043  -0.000027  -0.000102   0.000000   0.000027
    30  H   -0.008360  -0.000036   0.000014  -0.000001   0.000000   0.001833
    31  H    0.007456  -0.000010   0.000013   0.000032   0.000001  -0.000256
    32  H    0.006165   0.000198   0.000012   0.002634  -0.000058   0.387606
    33  H    0.000090  -0.000001  -0.000002   0.003256   0.000007   0.389041
    34  H    0.000007  -0.000015  -0.000007   0.012053   0.000156  -0.038357
    35  H    0.000016   0.000001   0.000000  -0.000341  -0.000002  -0.042674
    36  H   -0.000038  -0.000001   0.000000  -0.000142   0.000000  -0.038415
    37  C    0.008526   0.006337  -0.008107  -0.003923   0.000899  -0.000178
    38  C   -0.000209   0.000059   0.007685   0.000204  -0.000540   0.000009
    39  C   -0.000005   0.000052   0.004054  -0.000076   0.000216   0.000000
    40  H   -0.000241  -0.000034  -0.000351   0.002475  -0.000772   0.000905
    41  H   -0.000186  -0.000124   0.000262   0.000023  -0.000001  -0.000083
    42  H    0.000006   0.000018  -0.000266   0.000000  -0.000005   0.000001
    43  H   -0.000001  -0.000003   0.000160  -0.000001   0.000017   0.000000
    44  H    0.000008   0.000031   0.000020  -0.000201   0.001841  -0.000002
              13         14         15         16         17         18
     1  C   -0.073577  -0.066370   0.004082   0.002779   0.000009  -0.000112
     2  C    0.008118   0.299237  -0.049943  -0.012115  -0.000355  -0.002006
     3  C   -0.000115  -0.062761   0.226028  -0.044259  -0.001915  -0.001253
     4  C    0.000062   0.007790  -0.024512  -0.009235  -0.000968  -0.002090
     5  C   -0.000004  -0.000026   0.001700   0.001568   0.000088  -0.000068
     6  H   -0.006181  -0.001494  -0.000083  -0.000285   0.000001  -0.000007
     7  H   -0.000112  -0.041901  -0.001753  -0.003870  -0.000153  -0.003371
     8  H   -0.000003   0.000206  -0.003611   0.003110  -0.000257   0.002365
     9  H   -0.000003  -0.000136  -0.000339  -0.004529  -0.002359   0.000323
    10  O   -0.004367   0.003146  -0.000028  -0.000789  -0.000001   0.000007
    11  O   -0.000015   0.000005  -0.000017  -0.000475  -0.000002   0.000001
    12  C    0.314763  -0.003749  -0.000074  -0.000265   0.000000   0.000003
    13  C    5.341120  -0.000337   0.000001   0.000023   0.000000   0.000000
    14  C   -0.000337   5.389797  -0.005374  -0.000962   0.000010   0.000860
    15  O    0.000001  -0.005374   8.260120   0.349916  -0.023838  -0.023316
    16  Si   0.000023  -0.000962   0.349916  11.527717   0.322992   0.313636
    17  C    0.000000   0.000010  -0.023838   0.322992   5.769574  -0.058252
    18  C    0.000000   0.000860  -0.023316   0.313636  -0.058252   5.800703
    19  C    0.000000  -0.000141  -0.021187   0.335597  -0.053165  -0.050856
    20  H    0.000000  -0.000031   0.000800  -0.010021   0.000321   0.365945
    21  H   -0.000002   0.000244  -0.001143  -0.030564  -0.001413   0.366259
    22  H   -0.000001   0.000522  -0.002000  -0.027545   0.002397   0.370072
    23  H    0.000000  -0.000002   0.000888  -0.013413   0.000470  -0.000034
    24  H    0.000000   0.000066  -0.001328  -0.028313   0.002547  -0.000516
    25  H    0.000000  -0.000009  -0.001297  -0.026209  -0.000529   0.002589
    26  H    0.000000   0.000001  -0.002231  -0.025196   0.370196   0.002217
    27  H    0.000000   0.000001  -0.001087  -0.029225   0.370029  -0.001735
    28  H    0.000000   0.000001   0.000908  -0.012092   0.364347   0.000887
    29  H    0.000016   0.383931   0.007126   0.003551   0.000041  -0.000168
    30  H    0.000079   0.391607   0.000140  -0.000223   0.000001   0.000127
    31  H   -0.000097   0.385078  -0.000102  -0.000159   0.000000   0.000011
    32  H   -0.043892   0.001223  -0.000006  -0.000146   0.000001   0.000050
    33  H   -0.039179   0.000834  -0.000006  -0.000022   0.000000  -0.000002
    34  H    0.385977  -0.000075   0.000000   0.000003   0.000000   0.000000
    35  H    0.385909   0.000058   0.000000  -0.000001   0.000000   0.000000
    36  H    0.392514  -0.000001   0.000000  -0.000001   0.000000   0.000000
    37  C   -0.000016  -0.008564  -0.078574   0.000288  -0.000038  -0.000348
    38  C   -0.000001  -0.000262   0.007921   0.001140  -0.000066   0.000028
    39  C    0.000000  -0.000004   0.000782   0.000538  -0.000020   0.000001
    40  H   -0.000012   0.001152   0.003365   0.000026   0.000005   0.000013
    41  H    0.000002   0.001281   0.002292   0.000033   0.000022   0.000010
    42  H    0.000000   0.000014   0.003415   0.000678   0.000230   0.000017
    43  H    0.000000   0.000000   0.000009   0.000006   0.000003   0.000000
    44  H    0.000000  -0.000007   0.000001  -0.000004  -0.000001   0.000000
              19         20         21         22         23         24
     1  C   -0.000001  -0.000003  -0.000095  -0.000057   0.000000  -0.000001
     2  C   -0.000246   0.000292  -0.001024  -0.000467   0.000000  -0.000005
     3  C    0.002408  -0.000067   0.000741   0.000183  -0.000069  -0.000061
     4  C   -0.000150   0.000055   0.000281   0.000275   0.000000  -0.000020
     5  C    0.000001   0.000002   0.000014   0.000006   0.000000   0.000000
     6  H    0.000000   0.000000  -0.000010  -0.000003   0.000000   0.000000
     7  H   -0.000056   0.000582  -0.000425  -0.000984  -0.000003  -0.000027
     8  H   -0.000003  -0.000026   0.005117  -0.000369   0.000005  -0.000005
     9  H   -0.000042  -0.000004   0.000009   0.000004  -0.000002  -0.000005
    10  O    0.000000   0.000000  -0.000038  -0.000004   0.000000   0.000000
    11  O    0.000000   0.000000   0.000004   0.000000   0.000000   0.000000
    12  C    0.000000  -0.000001   0.000095   0.000055   0.000000   0.000000
    13  C    0.000000   0.000000  -0.000002  -0.000001   0.000000   0.000000
    14  C   -0.000141  -0.000031   0.000244   0.000522  -0.000002   0.000066
    15  O   -0.021187   0.000800  -0.001143  -0.002000   0.000888  -0.001328
    16  Si   0.335597  -0.010021  -0.030564  -0.027545  -0.013413  -0.028313
    17  C   -0.053165   0.000321  -0.001413   0.002397   0.000470   0.002547
    18  C   -0.050856   0.365945   0.366259   0.370072  -0.000034  -0.000516
    19  C    5.723743  -0.000957   0.002993  -0.000490   0.364030   0.368929
    20  H   -0.000957   0.435529  -0.020154  -0.020622   0.000643  -0.000072
    21  H    0.002993  -0.020154   0.451792  -0.019157  -0.000079  -0.000095
    22  H   -0.000490  -0.020622  -0.019157   0.449996  -0.000075   0.001216
    23  H    0.364030   0.000643  -0.000079  -0.000075   0.452286  -0.020534
    24  H    0.368929  -0.000072  -0.000095   0.001216  -0.020534   0.458475
    25  H    0.369388  -0.000045  -0.000107  -0.000076  -0.020562  -0.018155
    26  H   -0.000387  -0.000036  -0.000031  -0.000100  -0.000024  -0.000096
    27  H    0.002779   0.000058   0.000941  -0.000022  -0.000082  -0.000116
    28  H   -0.000784   0.000318   0.000064  -0.000043   0.000818   0.000001
    29  H    0.000199   0.000011  -0.000028   0.000358  -0.000014   0.000608
    30  H   -0.000003  -0.000004   0.000026   0.000247   0.000000  -0.000002
    31  H    0.000001   0.000001  -0.000010  -0.000008   0.000000  -0.000008
    32  H    0.000000  -0.000003   0.000054   0.000019   0.000000   0.000000
    33  H    0.000000   0.000000  -0.000002   0.000001   0.000000   0.000000
    34  H    0.000000   0.000000   0.000000   0.000000   0.000000   0.000000
    35  H    0.000000   0.000000   0.000000   0.000000   0.000000   0.000000
    36  H    0.000000   0.000000   0.000000   0.000000   0.000000   0.000000
    37  C    0.000001   0.000007  -0.000097  -0.000098   0.000001  -0.000008
    38  C   -0.000035   0.000000   0.000009   0.000007   0.000000   0.000003
    39  C   -0.000001   0.000000   0.000000   0.000000   0.000000   0.000000
    40  H    0.000002   0.000000   0.000005   0.000001   0.000000  -0.000001
    41  H   -0.000042   0.000000   0.000001   0.000000   0.000001  -0.000007
    42  H    0.000026   0.000000   0.000001   0.000000  -0.000004  -0.000009
    43  H    0.000000   0.000000   0.000000   0.000000   0.000000   0.000000
    44  H    0.000000   0.000000   0.000000   0.000000   0.000000   0.000000
              25         26         27         28         29         30
     1  C    0.000000   0.000003   0.000007   0.000000   0.005654  -0.005879
     2  C   -0.000018  -0.000045  -0.000012   0.000007  -0.030652  -0.036633
     3  C   -0.000129   0.000600  -0.000373  -0.000016  -0.007964   0.007553
     4  C   -0.000037  -0.000400   0.001691   0.000132   0.000441  -0.000248
     5  C    0.000000  -0.000035   0.000088  -0.000002  -0.000070   0.000003
     6  H    0.000000   0.000000   0.000000   0.000000  -0.000053  -0.000983
     7  H   -0.000005  -0.000001  -0.000054   0.000003  -0.003422  -0.008360
     8  H    0.000000   0.000032   0.001099  -0.000047   0.000043  -0.000036
     9  H   -0.000018   0.000285  -0.000920   0.000219  -0.000027   0.000014
    10  O    0.000000   0.000000  -0.000003   0.000000  -0.000102  -0.000001
    11  O    0.000000   0.000001  -0.000054   0.000000   0.000000   0.000000
    12  C    0.000000   0.000000   0.000000   0.000000   0.000027   0.001833
    13  C    0.000000   0.000000   0.000000   0.000000   0.000016   0.000079
    14  C   -0.000009   0.000001   0.000001   0.000001   0.383931   0.391607
    15  O   -0.001297  -0.002231  -0.001087   0.000908   0.007126   0.000140
    16  Si  -0.026209  -0.025196  -0.029225  -0.012092   0.003551  -0.000223
    17  C   -0.000529   0.370196   0.370029   0.364347   0.000041   0.000001
    18  C    0.002589   0.002217  -0.001735   0.000887  -0.000168   0.000127
    19  C    0.369388  -0.000387   0.002779  -0.000784   0.000199  -0.000003
    20  H   -0.000045  -0.000036   0.000058   0.000318   0.000011  -0.000004
    21  H   -0.000107  -0.000031   0.000941   0.000064  -0.000028   0.000026
    22  H   -0.000076  -0.000100  -0.000022  -0.000043   0.000358   0.000247
    23  H   -0.020562  -0.000024  -0.000082   0.000818  -0.000014   0.000000
    24  H   -0.018155  -0.000096  -0.000116   0.000001   0.000608  -0.000002
    25  H    0.455945   0.001102  -0.000087  -0.000098  -0.000016   0.000000
    26  H    0.001102   0.448237  -0.018537  -0.020296   0.000003   0.000000
    27  H   -0.000087  -0.018537   0.455024  -0.022497   0.000001   0.000000
    28  H   -0.000098  -0.020296  -0.022497   0.450117   0.000000   0.000000
    29  H   -0.000016   0.000003   0.000001   0.000000   0.428433  -0.024836
    30  H    0.000000   0.000000   0.000000   0.000000  -0.024836   0.459578
    31  H    0.000000   0.000000   0.000000   0.000000  -0.023844  -0.026615
    32  H    0.000000   0.000000   0.000000   0.000000  -0.000078   0.000199
    33  H    0.000000   0.000000   0.000000   0.000000   0.000313   0.001900
    34  H    0.000000   0.000000   0.000000   0.000000   0.000004  -0.000023
    35  H    0.000000   0.000000   0.000000   0.000000  -0.000005   0.000052
    36  H    0.000000   0.000000   0.000000   0.000000  -0.000001   0.000007
    37  C    0.000064   0.000117  -0.000031  -0.000001  -0.000410  -0.000243
    38  C   -0.000027   0.000383  -0.000057   0.000004  -0.000138   0.000013
    39  C   -0.000001   0.000042  -0.000021   0.000000   0.000003   0.000000
    40  H    0.000000   0.000002   0.000004   0.000000   0.000003  -0.000066
    41  H   -0.000009   0.000008  -0.000001   0.000000   0.000456   0.000228
    42  H    0.000058   0.000497  -0.000013  -0.000001   0.000003  -0.000001
    43  H    0.000000  -0.000001   0.000002   0.000000   0.000000   0.000000
    44  H    0.000000   0.000001  -0.000001   0.000000   0.000000   0.000000
              31         32         33         34         35         36
     1  C   -0.005277  -0.042605  -0.039217  -0.011368  -0.004380   0.008397
     2  C   -0.037288  -0.007175  -0.005343   0.000437  -0.000079  -0.000259
     3  C   -0.010076  -0.000941  -0.000143  -0.000065  -0.000003   0.000013
     4  C   -0.000169   0.000258   0.000104   0.000350  -0.000003  -0.000001
     5  C    0.000013  -0.000279   0.000006   0.000657  -0.000105   0.000007
     6  H    0.005314   0.007931   0.000184   0.000333   0.005061  -0.000294
     7  H    0.007456   0.006165   0.000090   0.000007   0.000016  -0.000038
     8  H   -0.000010   0.000198  -0.000001  -0.000015   0.000001  -0.000001
     9  H    0.000013   0.000012  -0.000002  -0.000007   0.000000   0.000000
    10  O    0.000032   0.002634   0.003256   0.012053  -0.000341  -0.000142
    11  O    0.000001  -0.000058   0.000007   0.000156  -0.000002   0.000000
    12  C   -0.000256   0.387606   0.389041  -0.038357  -0.042674  -0.038415
    13  C   -0.000097  -0.043892  -0.039179   0.385977   0.385909   0.392514
    14  C    0.385078   0.001223   0.000834  -0.000075   0.000058  -0.000001
    15  O   -0.000102  -0.000006  -0.000006   0.000000   0.000000   0.000000
    16  Si  -0.000159  -0.000146  -0.000022   0.000003  -0.000001  -0.000001
    17  C    0.000000   0.000001   0.000000   0.000000   0.000000   0.000000
    18  C    0.000011   0.000050  -0.000002   0.000000   0.000000   0.000000
    19  C    0.000001   0.000000   0.000000   0.000000   0.000000   0.000000
    20  H    0.000001  -0.000003   0.000000   0.000000   0.000000   0.000000
    21  H   -0.000010   0.000054  -0.000002   0.000000   0.000000   0.000000
    22  H   -0.000008   0.000019   0.000001   0.000000   0.000000   0.000000
    23  H    0.000000   0.000000   0.000000   0.000000   0.000000   0.000000
    24  H   -0.000008   0.000000   0.000000   0.000000   0.000000   0.000000
    25  H    0.000000   0.000000   0.000000   0.000000   0.000000   0.000000
    26  H    0.000000   0.000000   0.000000   0.000000   0.000000   0.000000
    27  H    0.000000   0.000000   0.000000   0.000000   0.000000   0.000000
    28  H    0.000000   0.000000   0.000000   0.000000   0.000000   0.000000
    29  H   -0.023844  -0.000078   0.000313   0.000004  -0.000005  -0.000001
    30  H   -0.026615   0.000199   0.001900  -0.000023   0.000052   0.000007
    31  H    0.468543   0.000010   0.000254   0.000004  -0.000019   0.000001
    32  H    0.000010   0.484321  -0.024704  -0.004829   0.007358  -0.004683
    33  H    0.000254  -0.024704   0.470810   0.007174  -0.004520  -0.005581
    34  H    0.000004  -0.004829   0.007174   0.462674  -0.026964  -0.026542
    35  H   -0.000019   0.007358  -0.004520  -0.026964   0.485055  -0.026915
    36  H    0.000001  -0.004683  -0.005581  -0.026542  -0.026915   0.473804
    37  C    0.004390   0.000029   0.000003  -0.000001  -0.000017   0.000000
    38  C    0.000160   0.000000   0.000000   0.000000   0.000000   0.000000
    39  C   -0.000011   0.000000   0.000000   0.000000   0.000000   0.000000
    40  H   -0.000216  -0.000052  -0.000027  -0.000007  -0.000030   0.000002
    41  H    0.000165   0.000002  -0.000005   0.000000   0.000001   0.000000
    42  H    0.000006   0.000000   0.000000   0.000000   0.000000   0.000000
    43  H    0.000000   0.000000   0.000000   0.000000   0.000000   0.000000
    44  H    0.000004   0.000000   0.000000   0.000000   0.000000   0.000000
              37         38         39         40         41         42
     1  C   -0.000721  -0.000803  -0.000038   0.004307  -0.000213   0.000009
     2  C   -0.093544   0.009636   0.000044  -0.009736  -0.007089  -0.000241
     3  C    0.271267  -0.058937  -0.003277  -0.023877  -0.040078  -0.001528
     4  C   -0.095562  -0.014351  -0.000386  -0.003256   0.006567  -0.000010
     5  C   -0.004513  -0.000835   0.000685   0.002633  -0.000206   0.000131
     6  H    0.006383   0.000030   0.000053  -0.001943   0.000048  -0.000007
     7  H    0.008526  -0.000209  -0.000005  -0.000241  -0.000186   0.000006
     8  H    0.006337   0.000059   0.000052  -0.000034  -0.000124   0.000018
     9  H   -0.008107   0.007685   0.004054  -0.000351   0.000262  -0.000266
    10  O   -0.003923   0.000204  -0.000076   0.002475   0.000023   0.000000
    11  O    0.000899  -0.000540   0.000216  -0.000772  -0.000001  -0.000005
    12  C   -0.000178   0.000009   0.000000   0.000905  -0.000083   0.000001
    13  C   -0.000016  -0.000001   0.000000  -0.000012   0.000002   0.000000
    14  C   -0.008564  -0.000262  -0.000004   0.001152   0.001281   0.000014
    15  O   -0.078574   0.007921   0.000782   0.003365   0.002292   0.003415
    16  Si   0.000288   0.001140   0.000538   0.000026   0.000033   0.000678
    17  C   -0.000038  -0.000066  -0.000020   0.000005   0.000022   0.000230
    18  C   -0.000348   0.000028   0.000001   0.000013   0.000010   0.000017
    19  C    0.000001  -0.000035  -0.000001   0.000002  -0.000042   0.000026
    20  H    0.000007   0.000000   0.000000   0.000000   0.000000   0.000000
    21  H   -0.000097   0.000009   0.000000   0.000005   0.000001   0.000001
    22  H   -0.000098   0.000007   0.000000   0.000001   0.000000   0.000000
    23  H    0.000001   0.000000   0.000000   0.000000   0.000001  -0.000004
    24  H   -0.000008   0.000003   0.000000  -0.000001  -0.000007  -0.000009
    25  H    0.000064  -0.000027  -0.000001   0.000000  -0.000009   0.000058
    26  H    0.000117   0.000383   0.000042   0.000002   0.000008   0.000497
    27  H   -0.000031  -0.000057  -0.000021   0.000004  -0.000001  -0.000013
    28  H   -0.000001   0.000004   0.000000   0.000000   0.000000  -0.000001
    29  H   -0.000410  -0.000138   0.000003   0.000003   0.000456   0.000003
    30  H   -0.000243   0.000013   0.000000  -0.000066   0.000228  -0.000001
    31  H    0.004390   0.000160  -0.000011  -0.000216   0.000165   0.000006
    32  H    0.000029   0.000000   0.000000  -0.000052   0.000002   0.000000
    33  H    0.000003   0.000000   0.000000  -0.000027  -0.000005   0.000000
    34  H   -0.000001   0.000000   0.000000  -0.000007   0.000000   0.000000
    35  H   -0.000017   0.000000   0.000000  -0.000030   0.000001   0.000000
    36  H    0.000000   0.000000   0.000000   0.000002   0.000000   0.000000
    37  C    5.509520   0.330225  -0.063651   0.379192   0.394179  -0.045186
    38  C    0.330225   5.060032   0.615303  -0.047068  -0.041566   0.398692
    39  C   -0.063651   0.615303   5.153254   0.001475   0.001399  -0.041117
    40  H    0.379192  -0.047068   0.001475   0.452446  -0.020942   0.005157
    41  H    0.394179  -0.041566   0.001399  -0.020942   0.442567  -0.002426
    42  H   -0.045186   0.398692  -0.041117   0.005157  -0.002426   0.461985
    43  H    0.006450  -0.039862   0.391781   0.000110  -0.000383  -0.007910
    44  H   -0.008631  -0.038506   0.386453   0.004154   0.000111   0.005645
              43         44
     1  C    0.000000  -0.000046
     2  C    0.000018   0.000000
     3  C   -0.000296  -0.000402
     4  C    0.000051  -0.000025
     5  C    0.000012   0.001032
     6  H    0.000000   0.000116
     7  H   -0.000001   0.000008
     8  H   -0.000003   0.000031
     9  H    0.000160   0.000020
    10  O   -0.000001  -0.000201
    11  O    0.000017   0.001841
    12  C    0.000000  -0.000002
    13  C    0.000000   0.000000
    14  C    0.000000  -0.000007
    15  O    0.000009   0.000001
    16  Si   0.000006  -0.000004
    17  C    0.000003  -0.000001
    18  C    0.000000   0.000000
    19  C    0.000000   0.000000
    20  H    0.000000   0.000000
    21  H    0.000000   0.000000
    22  H    0.000000   0.000000
    23  H    0.000000   0.000000
    24  H    0.000000   0.000000
    25  H    0.000000   0.000000
    26  H   -0.000001   0.000001
    27  H    0.000002  -0.000001
    28  H    0.000000   0.000000
    29  H    0.000000   0.000000
    30  H    0.000000   0.000000
    31  H    0.000000   0.000004
    32  H    0.000000   0.000000
    33  H    0.000000   0.000000
    34  H    0.000000   0.000000
    35  H    0.000000   0.000000
    36  H    0.000000   0.000000
    37  C    0.006450  -0.008631
    38  C   -0.039862  -0.038506
    39  C    0.391781   0.386453
    40  H    0.000110   0.004154
    41  H   -0.000383   0.000111
    42  H   -0.007910   0.005645
    43  H    0.457046  -0.032809
    44  H   -0.032809   0.457367
 Mulliken charges:
               1
     1  C   -0.026811
     2  C   -0.306328
     3  C    0.162374
     4  C   -0.615941
     5  C    0.472327
     6  H    0.248311
     7  H    0.262665
     8  H    0.279278
     9  H    0.289446
    10  O   -0.323777
    11  O   -0.382709
    12  C   -0.449456
    13  C   -0.660670
    14  C   -0.674858
    15  O   -0.627644
    16  Si   1.416316
    17  C   -1.059952
    18  C   -1.081987
    19  C   -1.041554
    20  H    0.247480
    21  H    0.245825
    22  H    0.246763
    23  H    0.235756
    24  H    0.237540
    25  H    0.238289
    26  H    0.243690
    27  H    0.243203
    28  H    0.238052
    29  H    0.260604
    30  H    0.240547
    31  H    0.232706
    32  H    0.231383
    33  H    0.244779
    34  H    0.238422
    35  H    0.222547
    36  H    0.228128
    37  C   -0.505419
    38  C   -0.188280
    39  C   -0.447529
    40  H    0.251196
    41  H    0.263704
    42  H    0.222133
    43  H    0.225602
    44  H    0.223849
 Sum of Mulliken charges =   0.00000
 Mulliken charges with hydrogens summed into heavy atoms:
               1
     1  C    0.221500
     2  C   -0.043664
     3  C    0.162374
     4  C   -0.047217
     5  C    0.472327
    10  O   -0.323777
    11  O   -0.382709
    12  C    0.026706
    13  C    0.028427
    14  C    0.058999
    15  O   -0.627644
    16  Si   1.416316
    17  C   -0.335006
    18  C   -0.341919
    19  C   -0.329968
    37  C    0.009482
    38  C    0.033853
    39  C    0.001922
 Electronic spatial extent (au):  <R**2>=           5472.0905
 Charge=              0.0000 electrons
 Dipole moment (field-independent basis, Debye):
    X=              1.8142    Y=             -4.2154    Z=             -2.3586  Tot=              5.1598
 Quadrupole moment (field-independent basis, Debye-Ang):
   XX=           -121.0799   YY=           -121.5863   ZZ=           -124.7020
   XY=              8.2920   XZ=             11.3843   YZ=             -6.3071
 Traceless Quadrupole moment (field-independent basis, Debye-Ang):
   XX=              1.3762   YY=              0.8698   ZZ=             -2.2459
   XY=              8.2920   XZ=             11.3843   YZ=             -6.3071
 Octapole moment (field-independent basis, Debye-Ang**2):
  XXX=             10.7072  YYY=             -7.4117  ZZZ=             -2.0455  XYY=              7.0572
  XXY=            -21.5764  XXZ=            -12.7754  XZZ=              5.5145  YZZ=            -22.3483
  YYZ=            -14.7652  XYZ=              9.3746
 Hexadecapole moment (field-independent basis, Debye-Ang**3):
 XXXX=          -4230.0561 YYYY=          -2134.3322 ZZZZ=          -1109.1753 XXXY=             35.0660
 XXXZ=             72.5311 YYYX=             50.8368 YYYZ=              4.9206 ZZZX=              6.7647
 ZZZY=              0.5642 XXYY=          -1042.2468 XXZZ=           -907.9533 YYZZ=           -608.3378
 XXYZ=            -58.0459 YYXZ=             21.8780 ZZXY=             22.8221
 N-N= 1.630664784418D+03 E-N=-5.756358317339D+03  KE= 1.060530566068D+03
 1\1\GINC-SWANNODE-0-0\SP\RmPW1PW91\6-311G(d)\C14H26O3Si1\ROOT\08-Mar-2
 018\0\\#mPW1PW91/6-311g(d) nmr=(giao) scrf=(solvent=chloroform)\\P_ng_
 2ginp001\\0,1\C,0,-0.013457,0.261872,0.989481\C,0,-0.910931,1.370859,0
 .407998\C,0,-2.196933,1.548095,1.264379\C,0,-1.746442,1.847227,2.69691
 9\C,0,-0.865978,0.775735,3.258916\H,0,-0.413132,-0.721572,0.713414\H,0
 ,-0.350595,2.312451,0.464486\H,0,-1.168524,2.775834,2.756891\H,0,-2.60
 7695,1.980986,3.360773\O,0,0.071549,0.266861,2.434338\O,0,-0.907692,0.
 456934,4.442652\C,0,1.430037,0.344698,0.457949\C,0,2.308805,-0.792895,
 0.966447\C,0,-1.201031,1.136529,-1.082973\O,0,-3.036215,2.565647,0.673
 238\Si,0,-2.973311,4.22645,0.848143\C,0,-3.587545,4.771753,2.53807\C,0
 ,-1.260184,4.934466,0.561286\C,0,-4.11942,5.00911,-0.43839\H,0,-1.2896
 74,6.027956,0.591067\H,0,-0.556292,4.597592,1.326947\H,0,-0.876607,4.6
 32867,-0.417862\H,0,-4.109402,6.09903,-0.346888\H,0,-3.795202,4.740899
 ,-1.448047\H,0,-5.14525,4.656723,-0.297287\H,0,-4.558077,4.317251,2.75
 7832\H,0,-2.887177,4.4868,3.327458\H,0,-3.70421,5.859281,2.56896\H,0,-
 1.895394,1.881727,-1.482407\H,0,-0.286165,1.211797,-1.678503\H,0,-1.62
 8681,0.14461,-1.25955\H,0,1.883643,1.291996,0.774048\H,0,1.441507,0.32
 1707,-0.636001\H,0,2.415514,-0.762534,2.055122\H,0,1.890406,-1.76496,0
 .686881\H,0,3.310385,-0.717,0.531108\C,0,-3.083753,0.253951,1.227079\C
 ,0,-4.316923,0.324872,2.093601\C,0,-4.549449,-0.47528,3.141705\H,0,-2.
 502335,-0.632195,1.503253\H,0,-3.44083,0.086452,0.202964\H,0,-5.05744,
 1.076693,1.825303\H,0,-5.460491,-0.375305,3.72438\H,0,-3.842557,-1.239
 477,3.451456\\Version=EM64L-G09RevD.01\State=1-A\HF=-1064.378065\RMSD=
 3.699e-09\Dipole=0.1410759,0.8069807,-1.8573854\Quadrupole=3.033873,4.
 5734992,-7.6073721,0.5723575,-6.7545593,6.6190034\PG=C01 [X(C14H26O3Si
 1)]\\@


 CHEMISTRY BEGAN BY SAYING IT WOULD CHANGE THE BASER
 METALS INTO GOLD.  BY NOT DOING THAT IT HAS DONE MUCH
 GREATER THINGS.  --  RALPH WALDO EMERSON
 Job cpu time:       0 days  1 hours 18 minutes 13.7 seconds.
 File lengths (MBytes):  RWF=    240 Int=      0 D2E=      0 Chk=     11 Scr=      1
 Normal termination of Gaussian 09 at Thu Mar  8 13:19:21 2018.
