 Entering Gaussian System, Link 0=/usr/local/shared/gaussian/em64t/09-D01/g09/g09
 Initial command:
 /usr/local/shared/gaussian/em64t/09-D01/g09/l1.exe "/scratch/ah809/P_ng_3ginp008/Gau-30118.inp" -scrdir="/scratch/ah809/P_ng_3ginp008/"
 Entering Link 1 = /usr/local/shared/gaussian/em64t/09-D01/g09/l1.exe PID=     30158.
  
 Copyright (c) 1988,1990,1992,1993,1995,1998,2003,2009,2013,
            Gaussian, Inc.  All Rights Reserved.
  
 This is part of the Gaussian(R) 09 program.  It is based on
 the Gaussian(R) 03 system (copyright 2003, Gaussian, Inc.),
 the Gaussian(R) 98 system (copyright 1998, Gaussian, Inc.),
 the Gaussian(R) 94 system (copyright 1995, Gaussian, Inc.),
 the Gaussian 92(TM) system (copyright 1992, Gaussian, Inc.),
 the Gaussian 90(TM) system (copyright 1990, Gaussian, Inc.),
 the Gaussian 88(TM) system (copyright 1988, Gaussian, Inc.),
 the Gaussian 86(TM) system (copyright 1986, Carnegie Mellon
 University), and the Gaussian 82(TM) system (copyright 1983,
 Carnegie Mellon University). Gaussian is a federally registered
 trademark of Gaussian, Inc.
  
 This software contains proprietary and confidential information,
 including trade secrets, belonging to Gaussian, Inc.
  
 This software is provided under written license and may be
 used, copied, transmitted, or stored only in accord with that
 written license.
  
 The following legend is applicable only to US Government
 contracts under FAR:
  
                    RESTRICTED RIGHTS LEGEND
  
 Use, reproduction and disclosure by the US Government is
 subject to restrictions as set forth in subparagraphs (a)
 and (c) of the Commercial Computer Software - Restricted
 Rights clause in FAR 52.227-19.
  
 Gaussian, Inc.
 340 Quinnipiac St., Bldg. 40, Wallingford CT 06492
  
  
 ---------------------------------------------------------------
 Warning -- This program may not be used in any manner that
 competes with the business of Gaussian, Inc. or will provide
 assistance to any competitor of Gaussian, Inc.  The licensee
 of this program is prohibited from giving any competitor of
 Gaussian, Inc. access to this program.  By using this program,
 the user acknowledges that Gaussian, Inc. is engaged in the
 business of creating and licensing software in the field of
 computational chemistry and represents and warrants to the
 licensee that it is not a competitor of Gaussian, Inc. and that
 it will not use this program in any manner prohibited above.
 ---------------------------------------------------------------
  

 Cite this work as:
 Gaussian 09, Revision D.01,
 M. J. Frisch, G. W. Trucks, H. B. Schlegel, G. E. Scuseria, 
 M. A. Robb, J. R. Cheeseman, G. Scalmani, V. Barone, B. Mennucci, 
 G. A. Petersson, H. Nakatsuji, M. Caricato, X. Li, H. P. Hratchian, 
 A. F. Izmaylov, J. Bloino, G. Zheng, J. L. Sonnenberg, M. Hada, 
 M. Ehara, K. Toyota, R. Fukuda, J. Hasegawa, M. Ishida, T. Nakajima, 
 Y. Honda, O. Kitao, H. Nakai, T. Vreven, J. A. Montgomery, Jr., 
 J. E. Peralta, F. Ogliaro, M. Bearpark, J. J. Heyd, E. Brothers, 
 K. N. Kudin, V. N. Staroverov, T. Keith, R. Kobayashi, J. Normand, 
 K. Raghavachari, A. Rendell, J. C. Burant, S. S. Iyengar, J. Tomasi, 
 M. Cossi, N. Rega, J. M. Millam, M. Klene, J. E. Knox, J. B. Cross, 
 V. Bakken, C. Adamo, J. Jaramillo, R. Gomperts, R. E. Stratmann, 
 O. Yazyev, A. J. Austin, R. Cammi, C. Pomelli, J. W. Ochterski, 
 R. L. Martin, K. Morokuma, V. G. Zakrzewski, G. A. Voth, 
 P. Salvador, J. J. Dannenberg, S. Dapprich, A. D. Daniels, 
 O. Farkas, J. B. Foresman, J. V. Ortiz, J. Cioslowski, 
 and D. J. Fox, Gaussian, Inc., Wallingford CT, 2013.
 
 ******************************************
 Gaussian 09:  EM64L-G09RevD.01 24-Apr-2013
                 8-Mar-2018 
 ******************************************
 %mem=6000MB
 %chk=P_ng_3ginp008.chk
 --------------------------------------------------------
 #mPW1PW91/6-311g(d) nmr=(giao) scrf=(solvent=chloroform)
 --------------------------------------------------------
 1/38=1/1;
 2/12=2,17=6,18=5,40=1/2;
 3/5=4,6=6,7=1,11=2,16=1,25=1,30=1,70=2201,72=7,74=-7/1,2,8,3;
 4//1;
 5/5=2,38=5,53=7/2;
 8/6=1,10=90,11=11/1;
 10/13=100,45=16/2;
 6/7=2,8=2,9=2,10=2,28=1/1;
 99/9=1/99;
 -------------
 P_ng_3ginp008
 -------------
 Symbolic Z-matrix:
 Charge =  0 Multiplicity = 1
 C                    -0.16003   0.62962  -0.35345 
 C                    -1.43543   0.09856   0.31432 
 C                    -1.69107   0.89285   1.63833 
 C                    -1.8207    2.37399   1.26049 
 C                    -0.71819   2.89398   0.37875 
 H                     0.70476   0.44417   0.2936 
 H                    -1.30604  -0.96214   0.56111 
 H                    -2.76446   2.57132   0.74025 
 H                    -1.83111   2.99263   2.1656 
 O                    -0.21506   2.05842  -0.55435 
 O                    -0.36988   4.07016   0.42534 
 C                     0.18921   0.00789  -1.71529 
 C                     0.40811  -1.49545  -1.66287 
 C                    -2.64813   0.14651  -0.64094 
 O                    -2.90193   0.32369   2.18149 
 Si                   -3.96896   0.97279   3.29322 
 C                    -3.1568    1.82526   4.7508 
 C                    -5.13805   2.19822   2.46958 
 C                    -5.03515  -0.4265    3.99059 
 H                    -5.94522   2.47423   3.15471 
 H                    -4.61092   3.11207   2.18284 
 H                    -5.58335   1.75826   1.57252 
 H                    -4.40754  -1.16241   4.5015 
 H                    -5.76333  -0.0328    4.70553 
 H                    -5.57558  -0.93022   3.18398 
 H                    -3.91758   2.19299   5.44645 
 H                    -2.51076   1.13413   5.29867 
 H                    -2.55798   2.68182   4.43034 
 H                    -3.57256  -0.15182  -0.13723 
 H                    -2.79974   1.14225  -1.06823 
 H                    -2.51475  -0.55075  -1.47425 
 H                     1.10633   0.48299  -2.0882 
 H                    -0.57582   0.25332  -2.46111 
 H                     0.74397  -1.85994  -2.63898 
 H                     1.17325  -1.75432  -0.92416 
 H                    -0.51165  -2.02966  -1.40881 
 C                    -0.52632   0.71851   2.67651 
 C                    -0.20232  -0.70398   3.06034 
 C                    -0.31908  -1.19486   4.30089 
 H                    -0.76434   1.28187   3.585 
 H                     0.39635   1.17653   2.30177 
 H                     0.17271  -1.36317   2.28105 
 H                    -0.06073  -2.22764   4.51553 
 H                    -0.67396  -0.58893   5.12822 
 
                          Input orientation:                          
 ---------------------------------------------------------------------
 Center     Atomic      Atomic             Coordinates (Angstroms)
 Number     Number       Type             X           Y           Z
 ---------------------------------------------------------------------
      1          6           0       -0.160031    0.629620   -0.353448
      2          6           0       -1.435426    0.098561    0.314319
      3          6           0       -1.691065    0.892853    1.638327
      4          6           0       -1.820699    2.373991    1.260493
      5          6           0       -0.718186    2.893981    0.378748
      6          1           0        0.704764    0.444167    0.293595
      7          1           0       -1.306043   -0.962141    0.561110
      8          1           0       -2.764461    2.571321    0.740251
      9          1           0       -1.831109    2.992630    2.165595
     10          8           0       -0.215059    2.058424   -0.554351
     11          8           0       -0.369884    4.070162    0.425340
     12          6           0        0.189209    0.007890   -1.715287
     13          6           0        0.408106   -1.495447   -1.662873
     14          6           0       -2.648133    0.146509   -0.640943
     15          8           0       -2.901929    0.323693    2.181487
     16         14           0       -3.968959    0.972785    3.293222
     17          6           0       -3.156802    1.825261    4.750800
     18          6           0       -5.138052    2.198225    2.469581
     19          6           0       -5.035155   -0.426502    3.990585
     20          1           0       -5.945218    2.474231    3.154706
     21          1           0       -4.610916    3.112074    2.182845
     22          1           0       -5.583353    1.758260    1.572521
     23          1           0       -4.407537   -1.162412    4.501496
     24          1           0       -5.763327   -0.032800    4.705533
     25          1           0       -5.575575   -0.930222    3.183979
     26          1           0       -3.917582    2.192989    5.446448
     27          1           0       -2.510760    1.134134    5.298669
     28          1           0       -2.557978    2.681824    4.430345
     29          1           0       -3.572562   -0.151824   -0.137232
     30          1           0       -2.799740    1.142253   -1.068233
     31          1           0       -2.514751   -0.550753   -1.474246
     32          1           0        1.106331    0.482994   -2.088200
     33          1           0       -0.575822    0.253324   -2.461111
     34          1           0        0.743970   -1.859937   -2.638980
     35          1           0        1.173247   -1.754320   -0.924162
     36          1           0       -0.511651   -2.029656   -1.408809
     37          6           0       -0.526319    0.718506    2.676506
     38          6           0       -0.202317   -0.703977    3.060343
     39          6           0       -0.319083   -1.194864    4.300892
     40          1           0       -0.764337    1.281868    3.584998
     41          1           0        0.396346    1.176533    2.301773
     42          1           0        0.172711   -1.363167    2.281052
     43          1           0       -0.060728   -2.227638    4.515532
     44          1           0       -0.673955   -0.588929    5.128220
 ---------------------------------------------------------------------
                    Distance matrix (angstroms):
                    1          2          3          4          5
     1  C    0.000000
     2  C    1.534460   0.000000
     3  C    2.525970   1.565007   0.000000
     4  C    2.899216   2.494246   1.534058   0.000000
     5  C    2.444377   2.886686   2.556863   1.504460   0.000000
     6  H    1.095869   2.168014   2.783814   3.322209   2.834365
     7  H    2.164131   1.096693   2.179367   3.447286   3.904934
     8  H    3.427745   2.839418   2.185400   1.095572   2.102864
     9  H    3.836912   3.458240   2.169490   1.096372   2.107404
    10  O    1.443908   2.466768   2.888769   2.443629   1.349802
    11  O    3.533819   4.113553   3.648582   2.383137   1.227553
    12  C    1.537245   2.601338   3.945290   4.300399   3.679384
    13  C    2.559938   3.138273   4.583494   5.337246   4.970295
    14  C    2.550824   1.544501   2.582263   3.043318   3.508998
    15  O    3.746664   2.384876   1.444007   2.494195   3.824262
    16  Si   5.284307   4.007109   2.816712   3.272673   4.769977
    17  C    6.038505   5.062311   3.564444   3.777369   5.118970
    18  C    5.933861   4.771078   3.778452   3.535197   4.938712
    19  C    6.614594   5.171912   4.296132   5.062498   6.535074
    20  H    7.012712   5.835223   4.785183   4.539796   5.933296
    21  H    5.692604   4.759873   3.707691   3.029985   4.296007
    22  H    5.864777   4.641441   3.987877   3.825448   5.136614
    23  H    6.695011   5.287338   4.449839   5.449952   6.860225
    24  H    7.578193   6.166907   5.181496   5.762400   7.262270
    25  H    6.653917   5.141418   4.560928   5.358798   6.788820
    26  H    7.085344   6.073424   4.598860   4.685285   6.033996
    27  H    6.142222   5.203124   3.758752   4.280221   5.524129
    28  H    5.731175   4.987488   3.427436   3.268991   4.454805
    29  H    3.507531   2.198623   2.789980   3.376744   4.206023
    30  H    2.782404   2.205016   2.935443   2.810456   3.081424
    31  H    2.862547   2.187582   3.528536   4.063820   4.304350
    32  H    2.152797   3.518581   4.677650   4.832920   3.902250
    33  H    2.180992   2.909619   4.296296   4.460637   3.880481
    34  H    3.498395   4.160223   5.639380   6.301552   5.817587
    35  H    2.790433   3.431061   4.666707   5.547917   5.184766
    36  H    2.882563   2.889955   4.383733   5.313275   5.242158
    37  C    3.053308   2.605904   1.569983   2.533997   3.170047
    38  C    3.665275   3.115329   2.605449   3.915675   4.516899
    39  C    5.001692   4.337273   3.651048   4.922967   5.679890
    40  H    4.037570   3.542304   2.190818   2.777041   3.589022
    41  H    2.767466   2.909877   2.208601   2.726437   2.808885
    42  H    3.320016   2.931005   2.996061   4.356785   4.747185
    43  H    5.646304   4.995116   4.546842   5.904893   6.616360
    44  H    5.638942   4.922004   3.925499   5.005320   5.889830
                    6          7          8          9         10
     6  H    0.000000
     7  H    2.468322   0.000000
     8  H    4.093874   3.826804   0.000000
     9  H    4.053357   4.300033   1.755065   0.000000
    10  O    2.042281   3.399752   2.904911   3.298858   0.000000
    11  O    3.784186   5.120439   2.842480   2.514904   2.242957
    12  C    2.119373   2.891145   4.617901   5.296376   2.390794
    13  C    2.770898   2.858115   5.690236   6.309840   3.774540
    14  C    3.493405   2.115477   2.793017   4.079778   3.095604
    15  O    4.072700   2.612631   2.673554   2.875784   4.208726
    16  Si   5.578610   4.277791   3.244040   3.149876   5.483994
    17  C    6.056879   5.361755   4.098175   3.131054   6.070654
    18  C    6.476892   5.321134   2.960358   3.414580   5.779236
    19  C    6.882766   5.094554   4.970681   5.028614   7.075636
    20  H    7.518602   6.329087   3.994526   4.262977   6.838474
    21  H    6.240469   5.491032   2.404763   2.782425   5.284504
    22  H    6.550031   5.169034   3.049573   3.994339   5.782064
    23  H    6.813453   5.018567   5.548642   5.418375   7.315206
    24  H    7.844036   6.156890   5.612317   5.573764   7.926088
    25  H    7.048824   5.010924   5.112237   5.517871   7.186254
    26  H    7.139773   6.375069   4.860156   3.969483   7.052402
    27  H    5.988858   5.318851   4.786339   3.705683   6.354715
    28  H    5.724098   5.460476   3.697518   2.398756   5.543022
    29  H    4.340085   2.506273   2.972965   4.268871   4.041288
    30  H    3.824062   3.051944   2.305232   3.849647   2.789986
    31  H    3.805313   2.402684   3.835844   5.125561   3.597582
    32  H    2.415722   3.863523   5.229175   5.746442   2.565296
    33  H    3.043801   3.338323   4.517961   5.521408   2.650334
    34  H    3.729669   3.905018   6.585160   7.298108   4.540811
    35  H    2.556512   2.996741   6.081693   6.411419   4.074453
    36  H    3.240007   2.377231   5.555412   6.304022   4.186940
    37  C    2.696125   2.812018   3.491602   2.671170   3.511510
    38  C    3.129844   2.744271   4.761826   4.137444   4.549399
    39  C    4.448945   3.874819   5.730810   4.937694   5.845348
    40  H    3.700451   3.804329   3.708877   2.465647   4.247229
    41  H    2.159690   3.240673   3.791370   2.877205   3.051064
    42  H    2.738525   2.303418   5.145993   4.795998   4.460623
    43  H    5.054629   4.334714   6.677794   5.992299   6.640622
    44  H    5.132422   4.625723   5.797557   4.789960   6.285752
                   11         12         13         14         15
    11  O    0.000000
    12  C    4.625681   0.000000
    13  C    5.995157   1.520094   0.000000
    14  C    4.660733   3.037094   3.616761   0.000000
    15  O    4.850911   4.983946   5.389314   2.839352   0.000000
    16  Si   5.547236   6.580771   7.057885   4.231426   1.672073
    17  C    5.613920   7.503926   8.054246   5.669907   2.986810
    18  C    5.515296   7.119719   7.840935   4.481584   2.932084
    19  C    7.395655   7.748526   7.920437   5.241876   2.895908
    20  H    6.409429   8.211630   8.906859   5.540398   3.851438
    21  H    4.689681   6.919002   7.823642   4.541021   3.270429
    22  H    5.817317   6.869931   7.546653   4.014060   3.101428
    23  H    7.765148   7.819723   7.829481   5.590479   3.139714
    24  H    8.015209   8.755642   8.987909   6.190427   3.832166
    25  H    7.727428   7.623359   7.721133   4.935514   3.118602
    26  H    6.428177   8.539955   9.102669   6.546443   3.896895
    27  H    6.078893   7.599595   7.993594   6.022729   3.244480
    28  H    4.770252   7.243325   7.960814   5.670442   3.276652
    29  H    5.329052   4.082485   4.469745   1.094210   2.460147
    30  H    4.087495   3.261790   4.195394   1.094106   3.352784
    31  H    5.437071   2.771567   3.077518   1.094696   3.778749
    32  H    4.622215   1.098135   2.140712   4.037793   5.858477
    33  H    4.789808   1.096250   2.159513   2.760234   5.193211
    34  H    6.767333   2.156327   1.094734   4.418636   6.426330
    35  H    6.174706   2.167855   1.094600   4.277418   5.529037
    36  H    6.371184   2.176402   1.093563   3.144816   4.913441
    37  C    4.040522   4.506085   4.960337   3.979289   2.458545
    38  C    5.455614   4.844243   4.827816   4.517174   3.019337
    39  C    6.537812   6.156248   6.015451   5.625432   3.670012
    40  H    4.232448   5.534012   6.052128   4.764064   2.730795
    41  H    3.532874   4.188723   4.781008   4.357680   3.408874
    42  H    5.767074   4.225020   3.953157   4.332936   3.508393
    43  H    7.515819   6.624437   6.239279   6.238627   4.475431
    44  H    6.626965   6.923499   6.936251   6.141782   3.805257
                   16         17         18         19         20
    16  Si   0.000000
    17  C    1.873726   0.000000
    18  C    1.883313   3.044407   0.000000
    19  C    1.892378   3.029286   3.035331   0.000000
    20  H    2.485785   3.277795   1.094117   3.152961   0.000000
    21  H    2.494314   3.219430   1.093257   3.996176   1.769666
    22  H    2.486775   3.999262   1.093882   3.304654   1.773942
    23  H    2.492257   3.248489   3.994523   1.093845   4.171748
    24  H    2.495111   3.201314   3.219926   1.093794   2.953532
    25  H    2.492907   3.987239   3.238668   1.093801   3.424587
    26  H    2.475464   1.094503   3.217345   3.198475   3.072863
    27  H    2.484793   1.093246   4.004834   3.243338   4.264732
    28  H    2.490930   1.093152   3.276468   3.998936   3.625430
    29  H    3.631789   5.289100   3.843041   4.387881   4.833479
    30  H    4.518637   5.869850   4.370230   5.748888   5.431520
    31  H    5.211971   6.693943   5.476528   6.019323   6.507367
    32  H    7.413378   8.169939   7.918820   8.688881   9.009852
    33  H    6.718880   7.819470   6.993447   7.872242   8.080857
    34  H    8.088698   9.132664   8.784319   8.910901   9.853783
    35  H    7.187886   7.985482   8.183679   8.028829   9.229862
    36  H    6.563286   7.732916   7.370242   7.223963   8.404423
    37  C    3.506675   3.528037   4.847728   4.833989   5.716267
    38  C    4.129571   4.240716   5.756149   4.929368   6.564360
    39  C    4.362992   4.168480   6.171646   4.788320   6.813912
    40  H    3.232687   2.716295   4.605784   4.617674   5.333705
    41  H    4.481113   4.363879   5.630415   5.909569   6.528932
    42  H    4.861542   5.229855   6.397129   5.560730   7.274472
    43  H    5.197213   5.105587   7.039417   5.316445   7.654191
    44  H    4.082061   3.483574   5.896164   4.510062   6.408114
                   21         22         23         24         25
    21  H    0.000000
    22  H    1.775089   0.000000
    23  H    4.867108   4.300205   0.000000
    24  H    4.193118   3.613316   1.776463   0.000000
    25  H    4.274692   3.134453   1.775972   1.776441   0.000000
    26  H    3.460713   4.239233   3.520186   2.984940   4.197875
    27  H    4.246323   4.869758   3.083403   3.506100   4.257531
    28  H    3.074236   4.262983   4.266624   4.209415   4.868901
    29  H    4.136903   3.258060   4.820401   5.316577   3.955807
    30  H    4.210708   3.886071   6.238459   6.595451   5.484680
    31  H    5.584311   4.902107   6.298115   7.000799   5.586743
    32  H    7.605314   7.731692   8.748382   9.675384   8.627915
    33  H    6.783860   6.603816   8.072437   8.851715   7.633174
    34  H    8.754753   8.418023   8.832382   9.981243   8.643371
    35  H    8.172627   8.013943   7.805977   9.097975   7.943712
    36  H    7.492752   6.997056   7.131742   8.303777   6.924289
    37  C    4.759916   5.279533   4.683193   5.666363   5.335805
    38  C    5.896439   6.101784   4.468888   5.837976   5.379440
    39  C    6.438608   6.624008   4.093501   5.581570   5.380357
    40  H    4.484625   5.244037   4.481895   5.289031   5.310571
    41  H    5.369649   6.052026   5.778126   6.721765   6.393790
    42  H    6.551375   6.586167   5.094050   6.548628   5.834853
    43  H    7.393116   7.419440   4.475450   6.113350   5.819782
    44  H    6.154049   6.500345   3.829008   5.137086   5.284168
                   26         27         28         29         30
    26  H    0.000000
    27  H    1.766964   0.000000
    28  H    1.766337   1.775263   0.000000
    29  H    6.065861   5.685959   5.470073   0.000000
    30  H    6.692883   6.373462   5.715163   1.771624   0.000000
    31  H    7.575755   6.979344   6.731688   1.750918   1.764181
    32  H    9.216003   8.250646   7.794449   5.108944   4.090519
    33  H    8.801088   8.045744   7.570913   3.813792   2.770580
    34  H   10.174990   9.086473   9.028057   5.273409   4.902884
    35  H    9.059937   7.787085   7.891271   5.070499   4.918894
    36  H    8.742176   7.680903   7.776967   3.809506   3.925857
    37  C    4.620319   3.314588   3.325388   4.237239   4.401258
    38  C    5.281013   3.703737   4.346227   4.678452   5.215392
    39  C    5.073366   3.350110   4.478629   5.600893   6.359503
    40  H    3.773340   2.451222   2.427269   4.878176   5.080838
    41  H    5.434348   4.175458   3.940146   4.844121   4.644683
    42  H    6.276661   4.748004   5.332736   4.619796   5.131306
    43  H    5.940023   4.232903   5.508750   6.187907   7.073668
    44  H    4.285027   2.524253   3.838541   6.026439   6.775838
                   31         32         33         34         35
    31  H    0.000000
    32  H    3.815469   0.000000
    33  H    2.319459   1.738232   0.000000
    34  H    3.699977   2.433925   2.497871   0.000000
    35  H    3.918226   2.522902   3.074425   1.770885   0.000000
    36  H    2.490752   3.064775   2.514648   1.765987   1.774704
    37  C    4.774267   5.042166   5.158871   6.042880   4.687025
    38  C    5.092477   5.443249   5.616261   5.891858   4.344154
    39  C    6.211929   6.757774   6.920105   7.052250   5.462713
    40  H    5.658480   6.026838   6.135868   7.133290   5.771065
    41  H    5.071126   4.500771   4.947978   5.809650   4.427204
    42  H    4.688788   4.834286   5.065714   4.977935   3.380454
    43  H    6.686674   7.233176   7.422536   7.209007   5.597946
    44  H    6.854381   7.509671   7.636555   7.997210   6.434409
                   36         37         38         39         40
    36  H    0.000000
    37  C    4.923658   0.000000
    38  C    4.671877   1.508564   0.000000
    39  C    5.773616   2.518444   1.339241   0.000000
    40  H    5.997345   1.095165   2.129486   2.616287   0.000000
    41  H    4.987236   1.096141   2.114271   3.183055   1.733478
    42  H    3.811513   2.231230   1.087415   2.085651   3.094276
    43  H    5.944775   3.504077   2.111674   1.086020   3.698323
    44  H    6.695878   2.782460   2.124098   1.085156   2.426847
                   41         42         43         44
    41  H    0.000000
    42  H    2.549611   0.000000
    43  H    4.086322   2.407219   0.000000
    44  H    3.500172   3.069634   1.853861   0.000000
 Stoichiometry    C14H26O3Si
 Framework group  C1[X(C14H26O3Si)]
 Deg. of freedom   126
 Full point group                 C1      NOp   1
 Largest Abelian subgroup         C1      NOp   1
 Largest concise Abelian subgroup C1      NOp   1
                         Standard orientation:                         
 ---------------------------------------------------------------------
 Center     Atomic      Atomic             Coordinates (Angstroms)
 Number     Number       Type             X           Y           Z
 ---------------------------------------------------------------------
      1          6           0        2.538185    0.071497   -0.042313
      2          6           0        1.245146    0.368379    0.728712
      3          6           0        0.016259    0.018755   -0.175083
      4          6           0        0.131769   -1.466152   -0.542567
      5          6           0        1.479546   -1.877717   -1.069361
      6          1           0        2.604352    0.719805   -0.923361
      7          1           0        1.203996    1.435292    0.979188
      8          1           0       -0.082848   -2.107709    0.319187
      9          1           0       -0.608203   -1.721406   -1.310238
     10          8           0        2.568671   -1.285073   -0.535932
     11          8           0        1.592876   -2.801847   -1.869378
     12          6           0        3.845097    0.284004    0.738677
     13          6           0        4.037742    1.708908    1.231852
     14          6           0        1.202310   -0.367595    2.085911
     15          8           0       -1.137593    0.328483    0.635998
     16         14           0       -2.711888   -0.214510    0.485728
     17          6           0       -3.366036   -0.239438   -1.269925
     18          6           0       -2.901052   -1.942520    1.210340
     19          6           0       -3.840364    0.930848    1.483622
     20          1           0       -3.958931   -2.213225    1.278914
     21          1           0       -2.401472   -2.687431    0.585250
     22          1           0       -2.468938   -1.985656    2.214330
     23          1           0       -3.786752    1.950774    1.091992
     24          1           0       -4.878074    0.589725    1.427230
     25          1           0       -3.534399    0.944806    2.533665
     26          1           0       -4.408109   -0.573948   -1.281065
     27          1           0       -3.331832    0.758539   -1.714963
     28          1           0       -2.791298   -0.922139   -1.901254
     29          1           0        0.244592   -0.223045    2.595005
     30          1           0        1.371908   -1.443213    1.979375
     31          1           0        1.970451    0.019723    2.762891
     32          1           0        4.686758    0.022915    0.083437
     33          1           0        3.914668   -0.419344    1.576667
     34          1           0        5.023993    1.815559    1.694862
     35          1           0        3.974536    2.421912    0.403734
     36          1           0        3.289322    1.982552    1.980762
     37          6           0       -0.027308    0.879826   -1.487144
     38          6           0       -0.027125    2.374960   -1.286290
     39          6           0       -1.023612    3.186043   -1.664078
     40          1           0       -0.911592    0.604092   -2.071437
     41          1           0        0.820345    0.635077   -2.137610
     42          1           0        0.851275    2.821430   -0.826344
     43          1           0       -0.959568    4.257591   -1.499393
     44          1           0       -1.922736    2.809174   -2.140638
 ---------------------------------------------------------------------
 Rotational constants (GHZ):      0.5104823      0.2617319      0.2358882
 Standard basis: 6-311G(d) (5D, 7F)
 There are   428 symmetry adapted cartesian basis functions of A   symmetry.
 There are   410 symmetry adapted basis functions of A   symmetry.
   410 basis functions,   720 primitive gaussians,   428 cartesian basis functions
    74 alpha electrons       74 beta electrons
       nuclear repulsion energy      1631.1176660679 Hartrees.
 NAtoms=   44 NActive=   44 NUniq=   44 SFac= 1.00D+00 NAtFMM=   60 NAOKFM=F Big=F
 Integral buffers will be    131072 words long.
 Raffenetti 2 integral format.
 Two-electron integral symmetry is turned on.
 ------------------------------------------------------------------------------
 Polarizable Continuum Model (PCM)
 =================================
 Model                : PCM (using non-symmetric T matrix).
 Atomic radii         : UFF (Universal Force Field).
 Polarization charges : Total charges.
 Charge compensation  : None.
 Solution method      : On-the-fly selection.
 Cavity type          : Scaled VdW (van der Waals Surface) (Alpha=1.100).
 Cavity algorithm     : GePol (No added spheres)
                        Default sphere list used, NSphG=   44.
                        Lebedev-Laikov grids with approx.  5.0 points / Ang**2.
                        Smoothing algorithm: Karplus/York (Gamma=1.0000).
                        Polarization charges: spherical gaussians, with
                                              point-specific exponents (IZeta= 3).
                        Self-potential: point-specific (ISelfS= 7).
                        Self-field    : sphere-specific E.n sum rule (ISelfD= 2).
 Solvent              : Chloroform, Eps=   4.711300 Eps(inf)=   2.090627
 ------------------------------------------------------------------------------
 One-electron integrals computed using PRISM.
 NBasis=   410 RedAO= T EigKep=  1.15D-03  NBF=   410
 NBsUse=   410 1.00D-06 EigRej= -1.00D+00 NBFU=   410
 ExpMin= 6.54D-02 ExpMax= 6.94D+04 ExpMxC= 2.33D+03 IAcc=2 IRadAn=         4 AccDes= 0.00D+00
 Harris functional with IExCor=  908 and IRadAn=       4 diagonalized for initial guess.
 HarFok:  IExCor=  908 AccDes= 0.00D+00 IRadAn=         4 IDoV= 1 UseB2=F ITyADJ=14
 ICtDFT=  3500011 ScaDFX=  1.000000  1.000000  1.000000  1.000000
 FoFCou: FMM=F IPFlag=           0 FMFlag=      100000 FMFlg1=           0
         NFxFlg=           0 DoJE=T BraDBF=F KetDBF=T FulRan=T
         wScrn=  0.000000 ICntrl=     500 IOpCl=  0 I1Cent=   200000004 NGrid=           0
         NMat0=    1 NMatS0=      1 NMatT0=    0 NMatD0=    1 NMtDS0=    0 NMtDT0=    0
 Petite list used in FoFCou.
 Requested convergence on RMS density matrix=1.00D-08 within 128 cycles.
 Requested convergence on MAX density matrix=1.00D-06.
 Requested convergence on             energy=1.00D-06.
 No special actions if energy rises.
 Inv3:  Mode=1 IEnd=    24333312.
 Iteration    1 A*A^-1 deviation from unit magnitude is 8.22D-15 for   2217.
 Iteration    1 A*A^-1 deviation from orthogonality  is 7.11D-15 for   2454   1372.
 Iteration    1 A^-1*A deviation from unit magnitude is 8.22D-15 for   2012.
 Iteration    1 A^-1*A deviation from orthogonality  is 4.95D-12 for   2825   2459.
 Error on total polarization charges =  0.01116
 SCF Done:  E(RmPW1PW91) =  -1064.37543465     A.U. after   13 cycles
            NFock= 13  Conv=0.31D-08     -V/T= 2.0036
 DoSCS=F DFT=T ScalE2(SS,OS)=  1.000000  1.000000
 Range of M.O.s used for correlation:     1   410
 NBasis=   410 NAE=    74 NBE=    74 NFC=     0 NFV=     0
 NROrb=    410 NOA=    74 NOB=    74 NVA=   336 NVB=   336
 NEqPCM:  Using equilibrium solvation (IEInf=0, Eps=   4.7113, EpsInf=   2.0906)
          Differentiating once with respect to magnetic field using GIAOs.
          Electric field/nuclear overlap derivatives assumed to be zero.
 FoFJK:  IHMeth= 1 ICntrl=    6127 DoSepK=F KAlg= 0 I1Cent=   0 FoldK=F
 IRaf=         1 NMat=   1 IRICut=       1 DoRegI=T DoRafI=F ISym2E= 0.
          There are     3 degrees of freedom in the 1st order CPHF.  IDoFFX=0 NUNeed=     3.
      3 vectors produced by pass  0 Test12= 8.29D-13 3.33D-08 XBig12= 3.79D+01 1.13D+00.
 AX will form     3 AO Fock derivatives at one time.
      3 vectors produced by pass  1 Test12= 8.29D-13 3.33D-08 XBig12= 7.99D-02 1.03D-01.
      3 vectors produced by pass  2 Test12= 8.29D-13 3.33D-08 XBig12= 8.45D-04 1.10D-02.
      3 vectors produced by pass  3 Test12= 8.29D-13 3.33D-08 XBig12= 5.94D-06 9.58D-04.
      3 vectors produced by pass  4 Test12= 8.29D-13 3.33D-08 XBig12= 3.68D-08 6.03D-05.
      3 vectors produced by pass  5 Test12= 8.29D-13 3.33D-08 XBig12= 8.28D-11 1.53D-06.
      1 vectors produced by pass  6 Test12= 8.29D-13 3.33D-08 XBig12= 2.59D-13 8.54D-08.
 InvSVY:  IOpt=1 It=  1 EMax= 8.03D-17
 Solved reduced A of dimension    19 with     3 vectors.
 Calculating GIAO nuclear magnetic shielding tensors.
 SCF GIAO Magnetic shielding tensor (ppm):
      1  C    Isotropic =   106.4368   Anisotropy =    58.3826
   XX=    97.8303   YX=    11.0621   ZX=     4.8679
   XY=    -0.5041   YY=   137.1422   ZY=    20.7799
   XZ=     4.5210   YZ=    21.1678   ZZ=    84.3379
   Eigenvalues:    76.6676    97.2843   145.3585
      2  C    Isotropic =   148.5834   Anisotropy =    22.3544
   XX=   163.0633   YX=     3.7181   ZX=    -4.1071
   XY=     2.9907   YY=   136.7886   ZY=    -4.2175
   XZ=     5.7122   YZ=   -10.9731   ZZ=   145.8981
   Eigenvalues:   132.1313   150.1324   163.4863
      3  C    Isotropic =   104.1621   Anisotropy =    52.1813
   XX=   129.3267   YX=    -4.6921   ZX=   -20.8129
   XY=     0.3671   YY=    81.7617   ZY=    -0.5739
   XZ=   -17.0602   YZ=     0.1350   ZZ=   101.3980
   Eigenvalues:    81.5696    91.9671   138.9496
      4  C    Isotropic =   144.1054   Anisotropy =    34.9500
   XX=   153.7897   YX=   -12.0855   ZX=    -5.4983
   XY=   -11.0321   YY=   146.4859   ZY=     3.6763
   XZ=   -12.9149   YZ=    16.6729   ZZ=   132.0407
   Eigenvalues:   126.3541   138.5567   167.4054
      5  C    Isotropic =     8.9297   Anisotropy =    95.1568
   XX=   -78.0205   YX=   -23.5740   ZX=   -10.1135
   XY=   -30.9216   YY=    47.7435   ZY=   -20.3959
   XZ=   -23.2354   YZ=   -18.1944   ZZ=    57.0661
   Eigenvalues:   -86.5583    40.9798    72.3675
      6  H    Isotropic =    27.8173   Anisotropy =     3.0651
   XX=    28.8758   YX=     1.1553   ZX=     0.0766
   XY=     1.5478   YY=    27.2496   ZY=    -2.0609
   XZ=     0.2525   YZ=    -1.1447   ZZ=    27.3265
   Eigenvalues:    25.3351    28.2560    29.8607
      7  H    Isotropic =    29.8042   Anisotropy =     4.6608
   XX=    29.4540   YX=     1.1681   ZX=     2.1821
   XY=     0.1501   YY=    32.7852   ZY=    -0.1376
   XZ=     2.7195   YZ=    -0.8865   ZZ=    27.1733
   Eigenvalues:    25.5252    30.9759    32.9114
      8  H    Isotropic =    29.2039   Anisotropy =     4.4201
   XX=    29.9344   YX=     1.2684   ZX=    -1.1509
   XY=     1.6630   YY=    30.4991   ZY=    -1.4848
   XZ=    -0.9953   YZ=    -0.5816   ZZ=    27.1784
   Eigenvalues:    26.7246    28.7366    32.1506
      9  H    Isotropic =    29.5661   Anisotropy =     3.8352
   XX=    31.3645   YX=    -0.0150   ZX=     1.9604
   XY=    -1.2408   YY=    29.5069   ZY=     3.2002
   XZ=     0.7360   YZ=     3.0229   ZZ=    27.8270
   Eigenvalues:    25.1063    31.4692    32.1229
     10  O    Isotropic =   112.2768   Anisotropy =   186.5221
   XX=   199.8286   YX=    44.3519   ZX=    44.8639
   XY=    63.1238   YY=     8.8276   ZY=  -117.2776
   XZ=    64.3897   YZ=  -170.0950   ZZ=   128.1743
   Eigenvalues:  -105.5592   205.7648   236.6248
     11  O    Isotropic =  -134.5759   Anisotropy =   599.0417
   XX=  -276.2077   YX=   -87.8079   ZX=   -40.1799
   XY=   -86.0100   YY=   -99.9891   ZY=  -299.7260
   XZ=   -41.1816   YZ=  -350.4474   ZZ=   -27.5310
   Eigenvalues:  -442.0976  -226.4154   264.7852
     12  C    Isotropic =   159.7618   Anisotropy =    26.3004
   XX=   167.9283   YX=     4.7765   ZX=    12.9915
   XY=     1.4397   YY=   161.3209   ZY=     7.3920
   XZ=    11.3658   YZ=    10.6587   ZZ=   150.0360
   Eigenvalues:   141.4701   160.5198   177.2954
     13  C    Isotropic =   178.2619   Anisotropy =    15.7451
   XX=   175.2785   YX=     2.4260   ZX=     2.3259
   XY=     4.6425   YY=   186.4627   ZY=     4.2717
   XZ=     2.2642   YZ=     3.6863   ZZ=   173.0446
   Eigenvalues:   171.3883   174.6389   188.7587
     14  C    Isotropic =   179.7235   Anisotropy =    14.7024
   XX=   177.6429   YX=     2.0710   ZX=     2.2682
   XY=     1.4348   YY=   178.4582   ZY=    -8.8431
   XZ=     2.3099   YZ=    -7.9580   ZZ=   183.0693
   Eigenvalues:   170.8997   178.7457   189.5251
     15  O    Isotropic =   244.2053   Anisotropy =    23.1914
   XX=   234.8435   YX=   -11.6547   ZX=     2.5305
   XY=    -3.9499   YY=   250.8368   ZY=     7.2225
   XZ=    11.6331   YZ=    13.7581   ZZ=   246.9357
   Eigenvalues:   225.9235   247.0262   259.6663
     16  Si   Isotropic =   334.9444   Anisotropy =    53.8378
   XX=   366.4483   YX=    18.8669   ZX=     8.5059
   XY=     8.8853   YY=   324.2607   ZY=     7.2888
   XZ=    -4.2783   YZ=     3.8466   ZZ=   314.1243
   Eigenvalues:   311.3504   322.6466   370.8363
     17  C    Isotropic =   184.4262   Anisotropy =     6.3781
   XX=   187.0714   YX=     2.4230   ZX=     2.1548
   XY=     4.9561   YY=   178.0657   ZY=    -1.8090
   XZ=    -1.4547   YZ=    -1.7844   ZZ=   188.1414
   Eigenvalues:   176.4665   188.1338   188.6782
     18  C    Isotropic =   184.6844   Anisotropy =    11.4145
   XX=   187.5382   YX=     2.5179   ZX=    -0.1676
   XY=     0.1167   YY=   189.4466   ZY=    -6.0049
   XZ=     0.4360   YZ=    -6.3641   ZZ=   177.0683
   Eigenvalues:   174.4776   187.2814   192.2940
     19  C    Isotropic =   186.5221   Anisotropy =    12.9650
   XX=   189.2013   YX=    -1.1657   ZX=    -3.9661
   XY=     0.8552   YY=   188.6896   ZY=     8.2640
   XZ=    -2.6177   YZ=     8.9480   ZZ=   181.6754
   Eigenvalues:   175.3758   189.0251   195.1654
     20  H    Isotropic =    32.3211   Anisotropy =    10.4158
   XX=    37.1678   YX=     3.8103   ZX=    -1.6535
   XY=     3.5293   YY=    31.2794   ZY=    -1.1743
   XZ=    -1.4605   YZ=    -1.1231   ZZ=    28.5161
   Eigenvalues:    28.0909    29.6074    39.2649
     21  H    Isotropic =    32.0818   Anisotropy =     6.2488
   XX=    31.6874   YX=    -0.6796   ZX=    -2.6587
   XY=    -1.5471   YY=    34.7332   ZY=     2.3476
   XZ=    -2.4522   YZ=     1.3854   ZZ=    29.8249
   Eigenvalues:    27.9067    32.0911    36.2477
     22  H    Isotropic =    31.9767   Anisotropy =     7.5526
   XX=    30.7048   YX=     0.6859   ZX=     1.8268
   XY=     0.1901   YY=    29.5509   ZY=    -2.9763
   XZ=     1.8481   YZ=    -2.1614   ZZ=    35.6744
   Eigenvalues:    28.1398    30.7785    37.0118
     23  H    Isotropic =    32.0463   Anisotropy =     8.3129
   XX=    29.7714   YX=    -1.5203   ZX=    -1.3652
   XY=    -1.3125   YY=    37.1858   ZY=    -1.7768
   XZ=    -1.4309   YZ=    -0.9109   ZZ=    29.1818
   Eigenvalues:    27.6538    30.8969    37.5882
     24  H    Isotropic =    32.4059   Anisotropy =     9.8108
   XX=    38.6820   YX=     0.7853   ZX=    -1.3732
   XY=     1.2810   YY=    29.4269   ZY=     0.5671
   XZ=    -1.1924   YZ=     0.5590   ZZ=    29.1088
   Eigenvalues:    28.4186    29.8527    38.9464
     25  H    Isotropic =    32.0294   Anisotropy =     8.6692
   XX=    29.9366   YX=    -1.0198   ZX=     0.0021
   XY=    -0.6489   YY=    28.7310   ZY=     2.3225
   XZ=     0.3398   YZ=     1.4320   ZZ=    37.4206
   Eigenvalues:    27.9733    30.3061    37.8088
     26  H    Isotropic =    32.1224   Anisotropy =    10.4695
   XX=    37.9250   YX=     2.5959   ZX=     2.3968
   XY=     2.8525   YY=    28.7409   ZY=     0.5404
   XZ=     1.5494   YZ=     0.2699   ZZ=    29.7013
   Eigenvalues:    27.9808    29.2843    39.1020
     27  H    Isotropic =    31.7823   Anisotropy =     7.7225
   XX=    30.4378   YX=     0.1134   ZX=     1.3770
   XY=     0.0838   YY=    34.0291   ZY=    -3.5756
   XZ=     0.7180   YZ=    -4.7163   ZZ=    30.8802
   Eigenvalues:    27.7077    30.7086    36.9307
     28  H    Isotropic =    31.9175   Anisotropy =     6.1726
   XX=    32.3889   YX=    -1.5783   ZX=    -0.2703
   XY=    -1.6144   YY=    30.5143   ZY=     3.1558
   XZ=    -1.4585   YZ=     3.6636   ZZ=    32.8492
   Eigenvalues:    27.9233    31.7966    36.0326
     29  H    Isotropic =    30.6894   Anisotropy =     8.0331
   XX=    34.4338   YX=    -0.5836   ZX=    -2.0736
   XY=    -0.1665   YY=    24.2891   ZY=    -0.5937
   XZ=    -2.0946   YZ=    -0.7740   ZZ=    33.3453
   Eigenvalues:    24.2090    31.8144    36.0448
     30  H    Isotropic =    31.3957   Anisotropy =     7.4652
   XX=    28.7446   YX=    -0.6021   ZX=     0.8493
   XY=    -0.6018   YY=    35.0235   ZY=    -2.7695
   XZ=     0.9878   YZ=    -2.6007   ZZ=    30.4190
   Eigenvalues:    28.2660    29.5486    36.3725
     31  H    Isotropic =    31.1162   Anisotropy =     9.7123
   XX=    32.1752   YX=     2.9327   ZX=     3.2519
   XY=     2.6283   YY=    26.3741   ZY=     0.4265
   XZ=     3.7356   YZ=     0.5763   ZZ=    34.7992
   Eigenvalues:    25.1709    30.5866    37.5911
     32  H    Isotropic =    30.1136   Anisotropy =     9.2437
   XX=    34.7504   YX=    -0.8806   ZX=    -3.0759
   XY=    -1.2058   YY=    27.9351   ZY=     3.4587
   XZ=    -2.6222   YZ=     2.6798   ZZ=    27.6552
   Eigenvalues:    24.5247    29.5400    36.2760
     33  H    Isotropic =    30.2771   Anisotropy =     5.6781
   XX=    31.2124   YX=    -0.6751   ZX=     2.4566
   XY=    -0.4937   YY=    30.3311   ZY=    -3.2835
   XZ=     1.8412   YZ=    -2.5858   ZZ=    29.2879
   Eigenvalues:    26.4473    30.3216    34.0625
     34  H    Isotropic =    30.8905   Anisotropy =    11.9497
   XX=    35.2959   YX=     2.8393   ZX=     4.2028
   XY=     3.5870   YY=    29.1901   ZY=     2.2913
   XZ=     4.4780   YZ=     1.9455   ZZ=    28.1856
   Eigenvalues:    25.9797    27.8349    38.8570
     35  H    Isotropic =    31.2758   Anisotropy =     8.7677
   XX=    29.0417   YX=     2.2767   ZX=     0.5154
   XY=     2.4924   YY=    34.8214   ZY=    -3.9197
   XZ=     0.3098   YZ=    -3.0726   ZZ=    29.9644
   Eigenvalues:    26.9053    29.8012    37.1209
     36  H    Isotropic =    31.2078   Anisotropy =     6.0062
   XX=    31.8331   YX=     1.1916   ZX=    -2.0267
   XY=     0.6460   YY=    30.7447   ZY=     4.4705
   XZ=    -1.9896   YZ=     3.7032   ZZ=    31.0457
   Eigenvalues:    26.0640    32.3475    35.2119
     37  C    Isotropic =   142.6629   Anisotropy =    34.6312
   XX=   123.2450   YX=     1.5697   ZX=     0.4786
   XY=     2.0905   YY=   161.5094   ZY=    -8.7817
   XZ=     3.9271   YZ=   -10.7203   ZZ=   143.2343
   Eigenvalues:   122.7648   139.4735   165.7504
     38  C    Isotropic =    46.2806   Anisotropy =   176.9557
   XX=    29.2409   YX=   -49.4227   ZX=   -68.4116
   XY=   -51.2278   YY=   -16.9361   ZY=   -46.6588
   XZ=   -69.0598   YZ=   -46.6202   ZZ=   126.5370
   Eigenvalues:   -78.7242    53.3150   164.2511
     39  C    Isotropic =    63.0023   Anisotropy =   143.1993
   XX=    59.9607   YX=   -49.6036   ZX=   -53.6726
   XY=   -51.8608   YY=     1.6201   ZY=   -45.2137
   XZ=   -52.0726   YZ=   -46.5667   ZZ=   127.4261
   Eigenvalues:   -52.5803    83.1188   158.4685
     40  H    Isotropic =    29.6330   Anisotropy =     4.3609
   XX=    30.9324   YX=     0.4751   ZX=     1.4301
   XY=     1.8778   YY=    28.5134   ZY=    -1.0468
   XZ=     2.9641   YZ=    -1.1324   ZZ=    29.4533
   Eigenvalues:    26.5836    29.7751    32.5402
     41  H    Isotropic =    29.6898   Anisotropy =     4.9085
   XX=    29.8592   YX=    -1.4388   ZX=    -2.0237
   XY=    -1.3937   YY=    27.7064   ZY=    -1.3467
   XZ=    -2.2133   YZ=    -1.0583   ZZ=    31.5037
   Eigenvalues:    26.1735    29.9338    32.9621
     42  H    Isotropic =    25.8856   Anisotropy =     7.2742
   XX=    25.4741   YX=    -0.7549   ZX=     0.8476
   XY=    -2.4890   YY=    28.6046   ZY=    -3.2354
   XZ=     0.7402   YZ=    -3.0495   ZZ=    23.5781
   Eigenvalues:    22.0674    24.8544    30.7351
     43  H    Isotropic =    26.6508   Anisotropy =     6.6054
   XX=    26.1197   YX=    -3.6407   ZX=    -0.0640
   XY=    -1.7712   YY=    28.6831   ZY=    -1.6685
   XZ=     0.3020   YZ=    -2.7783   ZZ=    25.1497
   Eigenvalues:    23.4151    25.4830    31.0544
     44  H    Isotropic =    26.6579   Anisotropy =     6.5904
   XX=    26.8300   YX=    -1.1208   ZX=     0.5913
   XY=    -3.7410   YY=    27.1662   ZY=    -3.8128
   XZ=     0.2062   YZ=    -2.8040   ZZ=    25.9775
   Eigenvalues:    22.7547    26.1674    31.0515
 End of Minotr F.D. properties file   721 does not exist.
 End of Minotr F.D. properties file   722 does not exist.
 End of Minotr F.D. properties file   788 does not exist.

 **********************************************************************

            Population analysis using the SCF density.

 **********************************************************************

 Orbital symmetries:
       Occupied  (A) (A) (A) (A) (A) (A) (A) (A) (A) (A) (A) (A)
                 (A) (A) (A) (A) (A) (A) (A) (A) (A) (A) (A) (A)
                 (A) (A) (A) (A) (A) (A) (A) (A) (A) (A) (A) (A)
                 (A) (A) (A) (A) (A) (A) (A) (A) (A) (A) (A) (A)
                 (A) (A) (A) (A) (A) (A) (A) (A) (A) (A) (A) (A)
                 (A) (A) (A) (A) (A) (A) (A) (A) (A) (A) (A) (A)
                 (A) (A)
       Virtual   (A) (A) (A) (A) (A) (A) (A) (A) (A) (A) (A) (A)
                 (A) (A) (A) (A) (A) (A) (A) (A) (A) (A) (A) (A)
                 (A) (A) (A) (A) (A) (A) (A) (A) (A) (A) (A) (A)
                 (A) (A) (A) (A) (A) (A) (A) (A) (A) (A) (A) (A)
                 (A) (A) (A) (A) (A) (A) (A) (A) (A) (A) (A) (A)
                 (A) (A) (A) (A) (A) (A) (A) (A) (A) (A) (A) (A)
                 (A) (A) (A) (A) (A) (A) (A) (A) (A) (A) (A) (A)
                 (A) (A) (A) (A) (A) (A) (A) (A) (A) (A) (A) (A)
                 (A) (A) (A) (A) (A) (A) (A) (A) (A) (A) (A) (A)
                 (A) (A) (A) (A) (A) (A) (A) (A) (A) (A) (A) (A)
                 (A) (A) (A) (A) (A) (A) (A) (A) (A) (A) (A) (A)
                 (A) (A) (A) (A) (A) (A) (A) (A) (A) (A) (A) (A)
                 (A) (A) (A) (A) (A) (A) (A) (A) (A) (A) (A) (A)
                 (A) (A) (A) (A) (A) (A) (A) (A) (A) (A) (A) (A)
                 (A) (A) (A) (A) (A) (A) (A) (A) (A) (A) (A) (A)
                 (A) (A) (A) (A) (A) (A) (A) (A) (A) (A) (A) (A)
                 (A) (A) (A) (A) (A) (A) (A) (A) (A) (A) (A) (A)
                 (A) (A) (A) (A) (A) (A) (A) (A) (A) (A) (A) (A)
                 (A) (A) (A) (A) (A) (A) (A) (A) (A) (A) (A) (A)
                 (A) (A) (A) (A) (A) (A) (A) (A) (A) (A) (A) (A)
                 (A) (A) (A) (A) (A) (A) (A) (A) (A) (A) (A) (A)
                 (A) (A) (A) (A) (A) (A) (A) (A) (A) (A) (A) (A)
                 (A) (A) (A) (A) (A) (A) (A) (A) (A) (A) (A) (A)
                 (A) (A) (A) (A) (A) (A) (A) (A) (A) (A) (A) (A)
                 (A) (A) (A) (A) (A) (A) (A) (A) (A) (A) (A) (A)
                 (A) (A) (A) (A) (A) (A) (A) (A) (A) (A) (A) (A)
                 (A) (A) (A) (A) (A) (A) (A) (A) (A) (A) (A) (A)
                 (A) (A) (A) (A) (A) (A) (A) (A) (A) (A) (A) (A)
 The electronic state is 1-A.
 Alpha  occ. eigenvalues --  -66.26945 -19.26377 -19.21256 -19.20294 -10.37634
 Alpha  occ. eigenvalues --  -10.32345 -10.30744 -10.25533 -10.25362 -10.24718
 Alpha  occ. eigenvalues --  -10.24506 -10.23845 -10.23080 -10.22743 -10.22415
 Alpha  occ. eigenvalues --  -10.20856 -10.20482 -10.20455  -5.32772  -3.66618
 Alpha  occ. eigenvalues --   -3.66387  -3.66354  -1.13649  -1.05101  -1.04095
 Alpha  occ. eigenvalues --   -0.86072  -0.83384  -0.81113  -0.77654  -0.74050
 Alpha  occ. eigenvalues --   -0.73546  -0.71877  -0.70291  -0.69877  -0.66999
 Alpha  occ. eigenvalues --   -0.63568  -0.62286  -0.58625  -0.55191  -0.53601
 Alpha  occ. eigenvalues --   -0.53590  -0.51421  -0.50753  -0.48323  -0.47413
 Alpha  occ. eigenvalues --   -0.47001  -0.45768  -0.45025  -0.44318  -0.43429
 Alpha  occ. eigenvalues --   -0.42768  -0.42668  -0.42179  -0.41919  -0.40893
 Alpha  occ. eigenvalues --   -0.40760  -0.40157  -0.39845  -0.39630  -0.39414
 Alpha  occ. eigenvalues --   -0.38763  -0.37793  -0.37135  -0.37024  -0.36437
 Alpha  occ. eigenvalues --   -0.35479  -0.34399  -0.33451  -0.31881  -0.31354
 Alpha  occ. eigenvalues --   -0.30388  -0.29615  -0.28433  -0.27484
 Alpha virt. eigenvalues --   -0.00895   0.00956   0.03933   0.04799   0.06203
 Alpha virt. eigenvalues --    0.06500   0.07337   0.07652   0.08326   0.08718
 Alpha virt. eigenvalues --    0.09023   0.09907   0.10990   0.11127   0.11823
 Alpha virt. eigenvalues --    0.12152   0.12364   0.13294   0.13480   0.13773
 Alpha virt. eigenvalues --    0.14159   0.14697   0.15007   0.15719   0.15831
 Alpha virt. eigenvalues --    0.16541   0.16987   0.17286   0.17932   0.18739
 Alpha virt. eigenvalues --    0.18988   0.19655   0.20076   0.20544   0.21670
 Alpha virt. eigenvalues --    0.21966   0.22519   0.23568   0.24312   0.25193
 Alpha virt. eigenvalues --    0.25322   0.26109   0.26362   0.26605   0.27805
 Alpha virt. eigenvalues --    0.29480   0.30024   0.31229   0.32114   0.32196
 Alpha virt. eigenvalues --    0.32490   0.33701   0.34405   0.35510   0.35888
 Alpha virt. eigenvalues --    0.36662   0.37359   0.39009   0.39536   0.40228
 Alpha virt. eigenvalues --    0.41463   0.42392   0.42646   0.43669   0.44691
 Alpha virt. eigenvalues --    0.45008   0.45609   0.46301   0.47750   0.47902
 Alpha virt. eigenvalues --    0.48807   0.50032   0.50799   0.51637   0.52466
 Alpha virt. eigenvalues --    0.52812   0.53280   0.54729   0.55232   0.55771
 Alpha virt. eigenvalues --    0.56304   0.57448   0.57818   0.58214   0.58839
 Alpha virt. eigenvalues --    0.59817   0.60036   0.60202   0.60990   0.61052
 Alpha virt. eigenvalues --    0.61218   0.61774   0.62264   0.62927   0.63371
 Alpha virt. eigenvalues --    0.63684   0.63939   0.64267   0.65014   0.65878
 Alpha virt. eigenvalues --    0.66789   0.67305   0.67615   0.68032   0.68505
 Alpha virt. eigenvalues --    0.68875   0.69225   0.69775   0.70818   0.71235
 Alpha virt. eigenvalues --    0.71770   0.73005   0.73762   0.74729   0.75158
 Alpha virt. eigenvalues --    0.76454   0.76698   0.78173   0.80021   0.81245
 Alpha virt. eigenvalues --    0.82464   0.84029   0.85648   0.87252   0.88386
 Alpha virt. eigenvalues --    0.89825   0.90848   0.91473   0.92514   0.94161
 Alpha virt. eigenvalues --    0.96007   0.96605   0.99601   1.00031   1.00768
 Alpha virt. eigenvalues --    1.01695   1.03447   1.05405   1.05432   1.08160
 Alpha virt. eigenvalues --    1.12614   1.14858   1.15646   1.17910   1.18757
 Alpha virt. eigenvalues --    1.19943   1.23095   1.23403   1.24973   1.27237
 Alpha virt. eigenvalues --    1.29151   1.29616   1.31343   1.32416   1.32909
 Alpha virt. eigenvalues --    1.33172   1.35417   1.38076   1.38843   1.41465
 Alpha virt. eigenvalues --    1.43180   1.43932   1.45128   1.47134   1.48194
 Alpha virt. eigenvalues --    1.51299   1.51892   1.52641   1.53280   1.53710
 Alpha virt. eigenvalues --    1.54693   1.55205   1.56278   1.57524   1.58039
 Alpha virt. eigenvalues --    1.58268   1.59355   1.59640   1.59714   1.60259
 Alpha virt. eigenvalues --    1.61406   1.61864   1.62509   1.63560   1.64131
 Alpha virt. eigenvalues --    1.64554   1.65301   1.66763   1.67989   1.68595
 Alpha virt. eigenvalues --    1.70375   1.71791   1.72521   1.73106   1.73390
 Alpha virt. eigenvalues --    1.74467   1.76246   1.78276   1.79295   1.80981
 Alpha virt. eigenvalues --    1.81244   1.82795   1.84633   1.85333   1.87866
 Alpha virt. eigenvalues --    1.89750   1.92369   1.94749   1.94918   1.97040
 Alpha virt. eigenvalues --    2.00738   2.02869   2.05908   2.09321   2.11988
 Alpha virt. eigenvalues --    2.13146   2.15737   2.19484   2.22770   2.23422
 Alpha virt. eigenvalues --    2.27742   2.28813   2.33982   2.36634   2.41050
 Alpha virt. eigenvalues --    2.41819   2.42075   2.42453   2.42717   2.43852
 Alpha virt. eigenvalues --    2.44773   2.45699   2.46059   2.46849   2.48232
 Alpha virt. eigenvalues --    2.48632   2.49484   2.50280   2.51044   2.52610
 Alpha virt. eigenvalues --    2.52646   2.54042   2.55832   2.57991   2.58914
 Alpha virt. eigenvalues --    2.62382   2.64225   2.65946   2.72030   2.79626
 Alpha virt. eigenvalues --    2.82377   2.87014   2.88407   2.89392   2.91389
 Alpha virt. eigenvalues --    2.91756   2.92837   2.94867   2.95915   2.96511
 Alpha virt. eigenvalues --    2.99768   3.00995   3.01668   3.05428   3.07837
 Alpha virt. eigenvalues --    3.09725   3.11010   3.11668   3.13638   3.14662
 Alpha virt. eigenvalues --    3.15748   3.17675   3.17977   3.19324   3.20775
 Alpha virt. eigenvalues --    3.22601   3.23209   3.23653   3.23743   3.25613
 Alpha virt. eigenvalues --    3.27061   3.28259   3.29535   3.29971   3.33469
 Alpha virt. eigenvalues --    3.33938   3.34946   3.37253   3.39917   3.42074
 Alpha virt. eigenvalues --    3.43317   3.51035   3.56401   3.60610   3.61072
 Alpha virt. eigenvalues --    3.77003   3.89118   3.90420   3.98756   4.00970
 Alpha virt. eigenvalues --    4.08210   4.11635   4.18644   4.21097   4.24456
 Alpha virt. eigenvalues --    4.94585   4.99250   5.01793   5.10455   5.13811
 Alpha virt. eigenvalues --    5.23599   5.50596   5.53729   5.77263   5.85282
 Alpha virt. eigenvalues --   11.52377  11.54553  11.59080  23.41291  23.48967
 Alpha virt. eigenvalues --   23.54691  23.55400  23.57691  23.60803  23.70058
 Alpha virt. eigenvalues --   23.75627  23.77469  23.77784  23.80607  23.85774
 Alpha virt. eigenvalues --   23.88514  24.27073  49.98435  50.06103  50.11690
 Alpha virt. eigenvalues --  141.29125
          Condensed to atoms (all electrons):
               1          2          3          4          5          6
     1  C    5.234273   0.225490  -0.056822  -0.004090  -0.053710   0.401352
     2  C    0.225490   5.636923   0.296606  -0.082828  -0.017975  -0.054402
     3  C   -0.056822   0.296606   5.188046   0.224647  -0.011407  -0.015455
     4  C   -0.004090  -0.082828   0.224647   5.905373   0.230045   0.003001
     5  C   -0.053710  -0.017975  -0.011407   0.230045   4.407315  -0.002960
     6  H    0.401352  -0.054402  -0.015455   0.003001  -0.002960   0.479188
     7  H   -0.024951   0.388930  -0.040157   0.008152   0.000246  -0.001519
     8  H    0.001969  -0.007898  -0.028473   0.371618  -0.021669  -0.000250
     9  H   -0.001004   0.007546  -0.030422   0.350660  -0.024955   0.000162
    10  O    0.219214  -0.040444   0.002443  -0.108286   0.346239  -0.033337
    11  O    0.001017  -0.000288   0.003491  -0.104672   0.664356   0.000345
    12  C    0.343179  -0.053498   0.009143  -0.001774   0.003541  -0.050209
    13  C   -0.074918   0.002341  -0.000495   0.000115  -0.000148   0.002228
    14  C   -0.081852   0.292273  -0.079376  -0.008417   0.000571   0.007601
    15  O    0.003664  -0.062895   0.225911  -0.023200   0.001722  -0.000030
    16  Si   0.000369   0.001691  -0.050598  -0.009430   0.000900  -0.000133
    17  C    0.000009  -0.000268  -0.000731  -0.002068   0.000090   0.000001
    18  C    0.000001  -0.000061  -0.001335   0.001492   0.000137   0.000001
    19  C   -0.000001  -0.000037   0.002465  -0.000132   0.000001   0.000000
    20  H    0.000000  -0.000001  -0.000024   0.000136  -0.000001   0.000000
    21  H    0.000000   0.000018  -0.000182   0.001526   0.000071   0.000001
    22  H   -0.000001   0.000081   0.000461  -0.000041  -0.000030   0.000000
    23  H    0.000000  -0.000013  -0.000110  -0.000017   0.000000   0.000000
    24  H    0.000000   0.000002  -0.000077  -0.000004   0.000000   0.000000
    25  H   -0.000001   0.000043  -0.000152  -0.000040   0.000000   0.000000
    26  H    0.000000   0.000007  -0.000062   0.000060   0.000000   0.000000
    27  H    0.000003  -0.000092  -0.000434   0.000298   0.000004   0.000000
    28  H    0.000007  -0.000080   0.000282   0.001348  -0.000056  -0.000003
    29  H    0.006301  -0.033711  -0.006024  -0.000009  -0.000100  -0.000131
    30  H   -0.006147  -0.041026  -0.011504   0.006814  -0.001668   0.000669
    31  H   -0.007155  -0.032205   0.007237  -0.000569  -0.000005  -0.000310
    32  H   -0.046839   0.009329  -0.000140   0.000272  -0.000233  -0.007869
    33  H   -0.038448  -0.013094  -0.000497   0.000149  -0.000063   0.007435
    34  H    0.007635  -0.000095   0.000010  -0.000001   0.000005  -0.000329
    35  H   -0.001550  -0.002885  -0.000148  -0.000004  -0.000004   0.005420
    36  H   -0.009723   0.004842   0.000186  -0.000012  -0.000003  -0.000443
    37  C    0.000274  -0.092570   0.307262  -0.106773   0.001930   0.004890
    38  C   -0.002072  -0.005488  -0.066417   0.008220  -0.000147  -0.001027
    39  C    0.000035   0.000236  -0.001604  -0.000177   0.000008   0.000082
    40  H   -0.000310   0.007054  -0.029941  -0.006022  -0.000180   0.000408
    41  H    0.000912  -0.003753  -0.037524  -0.002999   0.003857  -0.000031
    42  H   -0.000738   0.004066  -0.004441  -0.000323  -0.000031   0.001555
    43  H    0.000003   0.000003  -0.000241   0.000016   0.000000  -0.000004
    44  H   -0.000009   0.000036   0.000167  -0.000091   0.000000   0.000002
               7          8          9         10         11         12
     1  C   -0.024951   0.001969  -0.001004   0.219214   0.001017   0.343179
     2  C    0.388930  -0.007898   0.007546  -0.040444  -0.000288  -0.053498
     3  C   -0.040157  -0.028473  -0.030422   0.002443   0.003491   0.009143
     4  C    0.008152   0.371618   0.350660  -0.108286  -0.104672  -0.001774
     5  C    0.000246  -0.021669  -0.024955   0.346239   0.664356   0.003541
     6  H   -0.001519  -0.000250   0.000162  -0.033337   0.000345  -0.050209
     7  H    0.445085  -0.000104  -0.000048   0.002922   0.000021  -0.007133
     8  H   -0.000104   0.393381  -0.016234  -0.000633   0.001355   0.000014
     9  H   -0.000048  -0.016234   0.426761   0.005683   0.015174   0.000047
    10  O    0.002922  -0.000633   0.005683   8.022472  -0.069697  -0.048346
    11  O    0.000021   0.001355   0.015174  -0.069697   7.869814  -0.000159
    12  C   -0.007133   0.000014   0.000047  -0.048346  -0.000159   5.320283
    13  C    0.001467  -0.000011  -0.000002   0.003778   0.000001   0.283430
    14  C   -0.038130   0.000376   0.000124  -0.000189  -0.000001  -0.009272
    15  O    0.004416  -0.001495  -0.001525  -0.000024  -0.000017  -0.000060
    16  Si  -0.000045  -0.006022  -0.001742  -0.000456  -0.001061   0.000034
    17  C    0.000006   0.000235   0.002811   0.000000   0.000009   0.000000
    18  C    0.000037  -0.001472  -0.000301  -0.000001   0.000007   0.000000
    19  C   -0.000043  -0.000052  -0.000017   0.000000   0.000000   0.000000
    20  H    0.000000   0.000306   0.000008   0.000000   0.000000   0.000000
    21  H    0.000007   0.000714   0.000149   0.000000  -0.000005   0.000000
    22  H    0.000007  -0.000055   0.000061   0.000000   0.000002   0.000000
    23  H   -0.000004  -0.000008  -0.000009   0.000000   0.000000   0.000000
    24  H    0.000000   0.000000  -0.000003   0.000000   0.000000   0.000000
    25  H   -0.000011  -0.000015  -0.000008   0.000000   0.000000   0.000000
    26  H    0.000000   0.000000   0.000042   0.000000   0.000000   0.000000
    27  H    0.000002   0.000009  -0.000214   0.000000   0.000000   0.000000
    28  H   -0.000001  -0.000151   0.003626  -0.000004  -0.000110   0.000000
    29  H   -0.002081   0.000380  -0.000125  -0.000127   0.000002   0.000111
    30  H    0.006682  -0.000358   0.000497   0.009066  -0.000252  -0.003819
    31  H   -0.006493   0.000202   0.000014  -0.000077   0.000001   0.001993
    32  H   -0.000262   0.000013  -0.000011   0.004114  -0.000029   0.403316
    33  H    0.000133  -0.000073   0.000002   0.003038  -0.000016   0.389964
    34  H    0.000238   0.000000   0.000000  -0.000120   0.000000  -0.032984
    35  H   -0.000296   0.000000   0.000000  -0.000045   0.000000  -0.044242
    36  H   -0.000221   0.000000   0.000000  -0.000047   0.000000  -0.034881
    37  C   -0.008990   0.005658  -0.007046  -0.003506   0.000032  -0.000464
    38  C    0.005871  -0.000177   0.000161   0.000265  -0.000004   0.000037
    39  C    0.000827   0.000003   0.000010   0.000001   0.000000   0.000003
    40  H   -0.000189  -0.000075   0.002440  -0.000132   0.000047  -0.000001
    41  H    0.000802   0.000076   0.000131  -0.000119   0.000294   0.000614
    42  H    0.000180   0.000010  -0.000011  -0.000003   0.000000  -0.000172
    43  H    0.000047  -0.000001   0.000002   0.000000   0.000000   0.000000
    44  H   -0.000039   0.000003  -0.000023   0.000000   0.000000   0.000000
              13         14         15         16         17         18
     1  C   -0.074918  -0.081852   0.003664   0.000369   0.000009   0.000001
     2  C    0.002341   0.292273  -0.062895   0.001691  -0.000268  -0.000061
     3  C   -0.000495  -0.079376   0.225911  -0.050598  -0.000731  -0.001335
     4  C    0.000115  -0.008417  -0.023200  -0.009430  -0.002068   0.001492
     5  C   -0.000148   0.000571   0.001722   0.000900   0.000090   0.000137
     6  H    0.002228   0.007601  -0.000030  -0.000133   0.000001   0.000001
     7  H    0.001467  -0.038130   0.004416  -0.000045   0.000006   0.000037
     8  H   -0.000011   0.000376  -0.001495  -0.006022   0.000235  -0.001472
     9  H   -0.000002   0.000124  -0.001525  -0.001742   0.002811  -0.000301
    10  O    0.003778  -0.000189  -0.000024  -0.000456   0.000000  -0.000001
    11  O    0.000001  -0.000001  -0.000017  -0.001061   0.000009   0.000007
    12  C    0.283430  -0.009272  -0.000060   0.000034   0.000000   0.000000
    13  C    5.372650  -0.002849  -0.000002  -0.000008   0.000000   0.000000
    14  C   -0.002849   5.432146  -0.005946  -0.001161  -0.000002   0.000085
    15  O   -0.000002  -0.005946   8.251256   0.354986  -0.021032  -0.024731
    16  Si  -0.000008  -0.001161   0.354986  11.533702   0.314830   0.316373
    17  C    0.000000  -0.000002  -0.021032   0.314830   5.813361  -0.058893
    18  C    0.000000   0.000085  -0.024731   0.316373  -0.058893   5.779331
    19  C    0.000000  -0.000023  -0.021942   0.336855  -0.050117  -0.054620
    20  H    0.000000   0.000001   0.000901  -0.011566   0.000808   0.364171
    21  H    0.000000   0.000000  -0.001371  -0.030552  -0.001338   0.370859
    22  H    0.000000   0.000267  -0.002348  -0.027121   0.002343   0.370589
    23  H    0.000000  -0.000002  -0.001487  -0.027314  -0.000676   0.002528
    24  H    0.000000  -0.000002   0.000912  -0.014476  -0.000174   0.000739
    25  H    0.000000  -0.000004  -0.001207  -0.026683   0.002619  -0.000540
    26  H    0.000000   0.000000   0.000756  -0.009745   0.366247   0.000136
    27  H    0.000000   0.000002  -0.001666  -0.026018   0.365249   0.002425
    28  H    0.000000   0.000003  -0.000961  -0.028388   0.364235  -0.001324
    29  H   -0.000055   0.386349   0.006723   0.001184   0.000041   0.000328
    30  H    0.000657   0.386787   0.000162  -0.000916   0.000004   0.000141
    31  H   -0.000724   0.387493   0.000262   0.000264   0.000000  -0.000006
    32  H   -0.038246  -0.000423   0.000004   0.000002   0.000000   0.000000
    33  H   -0.036191   0.005525  -0.000002  -0.000004   0.000000   0.000000
    34  H    0.389875  -0.000081   0.000000   0.000000   0.000000   0.000000
    35  H    0.384960   0.000546   0.000000   0.000000   0.000000   0.000000
    36  H    0.383893   0.000128  -0.000021  -0.000009   0.000000   0.000000
    37  C    0.000009   0.008266  -0.056761  -0.015757  -0.001598  -0.000404
    38  C   -0.000041  -0.000248   0.002113   0.001143   0.000229   0.000027
    39  C    0.000003  -0.000012   0.000467   0.001631  -0.001280  -0.000003
    40  H    0.000000  -0.000118  -0.003189  -0.005522  -0.003481  -0.000139
    41  H   -0.000038  -0.000311   0.003734   0.002460  -0.000052   0.000024
    42  H    0.000458   0.000304   0.000022  -0.000211  -0.000016   0.000000
    43  H    0.000000  -0.000002   0.000047   0.000202   0.000031   0.000000
    44  H    0.000000   0.000002  -0.000024  -0.001131   0.000818   0.000007
              19         20         21         22         23         24
     1  C   -0.000001   0.000000   0.000000  -0.000001   0.000000   0.000000
     2  C   -0.000037  -0.000001   0.000018   0.000081  -0.000013   0.000002
     3  C    0.002465  -0.000024  -0.000182   0.000461  -0.000110  -0.000077
     4  C   -0.000132   0.000136   0.001526  -0.000041  -0.000017  -0.000004
     5  C    0.000001  -0.000001   0.000071  -0.000030   0.000000   0.000000
     6  H    0.000000   0.000000   0.000001   0.000000   0.000000   0.000000
     7  H   -0.000043   0.000000   0.000007   0.000007  -0.000004   0.000000
     8  H   -0.000052   0.000306   0.000714  -0.000055  -0.000008   0.000000
     9  H   -0.000017   0.000008   0.000149   0.000061  -0.000009  -0.000003
    10  O    0.000000   0.000000   0.000000   0.000000   0.000000   0.000000
    11  O    0.000000   0.000000  -0.000005   0.000002   0.000000   0.000000
    12  C    0.000000   0.000000   0.000000   0.000000   0.000000   0.000000
    13  C    0.000000   0.000000   0.000000   0.000000   0.000000   0.000000
    14  C   -0.000023   0.000001   0.000000   0.000267  -0.000002  -0.000002
    15  O   -0.021942   0.000901  -0.001371  -0.002348  -0.001487   0.000912
    16  Si   0.336855  -0.011566  -0.030552  -0.027121  -0.027314  -0.014476
    17  C   -0.050117   0.000808  -0.001338   0.002343  -0.000676  -0.000174
    18  C   -0.054620   0.364171   0.370859   0.370589   0.002528   0.000739
    19  C    5.723522  -0.000967   0.002724  -0.000552   0.368257   0.363559
    20  H   -0.000967   0.448832  -0.022680  -0.020411   0.000020   0.000819
    21  H    0.002724  -0.022680   0.457638  -0.018902  -0.000116  -0.000078
    22  H   -0.000552  -0.020411  -0.018902   0.452046  -0.000095  -0.000027
    23  H    0.368257   0.000020  -0.000116  -0.000095   0.456299  -0.020535
    24  H    0.363559   0.000819  -0.000078  -0.000027  -0.020535   0.455519
    25  H    0.369171  -0.000075  -0.000089   0.001092  -0.018067  -0.020763
    26  H   -0.000896   0.000387   0.000080  -0.000024  -0.000031   0.000580
    27  H   -0.000759  -0.000050  -0.000042  -0.000097   0.001245  -0.000093
    28  H    0.003065  -0.000005   0.001208  -0.000058  -0.000078  -0.000062
    29  H   -0.000008   0.000010  -0.000007   0.000700  -0.000018  -0.000006
    30  H    0.000001  -0.000005  -0.000002   0.000072  -0.000001   0.000000
    31  H   -0.000001   0.000000  -0.000003  -0.000010   0.000001   0.000000
    32  H    0.000000   0.000000   0.000000   0.000000   0.000000   0.000000
    33  H    0.000000   0.000000   0.000000   0.000000   0.000000   0.000000
    34  H    0.000000   0.000000   0.000000   0.000000   0.000000   0.000000
    35  H    0.000000   0.000000   0.000000   0.000000   0.000000   0.000000
    36  H    0.000000   0.000000   0.000000   0.000000   0.000000   0.000000
    37  C   -0.000163   0.000006  -0.000049  -0.000058   0.000036   0.000002
    38  C   -0.000165   0.000001   0.000002   0.000003   0.000251  -0.000002
    39  C   -0.000160   0.000000   0.000000   0.000001   0.000643  -0.000010
    40  H   -0.000029   0.000001  -0.000052  -0.000006  -0.000019   0.000004
    41  H   -0.000004   0.000000   0.000012   0.000005   0.000001   0.000000
    42  H    0.000000   0.000000   0.000000   0.000000  -0.000004   0.000000
    43  H    0.000000   0.000000   0.000000   0.000000   0.000008   0.000000
    44  H    0.000052   0.000000   0.000000  -0.000001   0.000061   0.000000
              25         26         27         28         29         30
     1  C   -0.000001   0.000000   0.000003   0.000007   0.006301  -0.006147
     2  C    0.000043   0.000007  -0.000092  -0.000080  -0.033711  -0.041026
     3  C   -0.000152  -0.000062  -0.000434   0.000282  -0.006024  -0.011504
     4  C   -0.000040   0.000060   0.000298   0.001348  -0.000009   0.006814
     5  C    0.000000   0.000000   0.000004  -0.000056  -0.000100  -0.001668
     6  H    0.000000   0.000000   0.000000  -0.000003  -0.000131   0.000669
     7  H   -0.000011   0.000000   0.000002  -0.000001  -0.002081   0.006682
     8  H   -0.000015   0.000000   0.000009  -0.000151   0.000380  -0.000358
     9  H   -0.000008   0.000042  -0.000214   0.003626  -0.000125   0.000497
    10  O    0.000000   0.000000   0.000000  -0.000004  -0.000127   0.009066
    11  O    0.000000   0.000000   0.000000  -0.000110   0.000002  -0.000252
    12  C    0.000000   0.000000   0.000000   0.000000   0.000111  -0.003819
    13  C    0.000000   0.000000   0.000000   0.000000  -0.000055   0.000657
    14  C   -0.000004   0.000000   0.000002   0.000003   0.386349   0.386787
    15  O   -0.001207   0.000756  -0.001666  -0.000961   0.006723   0.000162
    16  Si  -0.026683  -0.009745  -0.026018  -0.028388   0.001184  -0.000916
    17  C    0.002619   0.366247   0.365249   0.364235   0.000041   0.000004
    18  C   -0.000540   0.000136   0.002425  -0.001324   0.000328   0.000141
    19  C    0.369171  -0.000896  -0.000759   0.003065  -0.000008   0.000001
    20  H   -0.000075   0.000387  -0.000050  -0.000005   0.000010  -0.000005
    21  H   -0.000089   0.000080  -0.000042   0.001208  -0.000007  -0.000002
    22  H    0.001092  -0.000024  -0.000097  -0.000058   0.000700   0.000072
    23  H   -0.018067  -0.000031   0.001245  -0.000078  -0.000018  -0.000001
    24  H   -0.020763   0.000580  -0.000093  -0.000062  -0.000006   0.000000
    25  H    0.457829  -0.000074  -0.000040  -0.000099   0.000092  -0.000003
    26  H   -0.000074   0.434966  -0.020656  -0.019921   0.000000   0.000000
    27  H   -0.000040  -0.020656   0.442951  -0.018638   0.000001   0.000000
    28  H   -0.000099  -0.019921  -0.018638   0.449571   0.000004  -0.000003
    29  H    0.000092   0.000000   0.000001   0.000004   0.426860  -0.023550
    30  H   -0.000003   0.000000   0.000000  -0.000003  -0.023550   0.473453
    31  H    0.000000   0.000000   0.000000   0.000000  -0.026387  -0.026907
    32  H    0.000000   0.000000   0.000000   0.000000   0.000017  -0.000248
    33  H    0.000000   0.000000   0.000000   0.000000   0.000181   0.001375
    34  H    0.000000   0.000000   0.000000   0.000000  -0.000004   0.000005
    35  H    0.000000   0.000000   0.000000   0.000000   0.000008  -0.000001
    36  H    0.000000   0.000000   0.000000   0.000000  -0.000055  -0.000102
    37  C   -0.000019   0.000337   0.000088  -0.000909   0.000290  -0.000015
    38  C   -0.000015  -0.000029   0.000042   0.000242   0.000025  -0.000044
    39  C   -0.000008   0.000017   0.001547  -0.000007  -0.000010   0.000000
    40  H   -0.000006   0.000635  -0.000665   0.000930  -0.000023   0.000015
    41  H    0.000001  -0.000008  -0.000002  -0.000120  -0.000024  -0.000011
    42  H    0.000000   0.000001   0.000009   0.000000   0.000010  -0.000003
    43  H    0.000000  -0.000001  -0.000028  -0.000003   0.000000   0.000000
    44  H   -0.000006   0.000020   0.004792  -0.000093   0.000000   0.000000
              31         32         33         34         35         36
     1  C   -0.007155  -0.046839  -0.038448   0.007635  -0.001550  -0.009723
     2  C   -0.032205   0.009329  -0.013094  -0.000095  -0.002885   0.004842
     3  C    0.007237  -0.000140  -0.000497   0.000010  -0.000148   0.000186
     4  C   -0.000569   0.000272   0.000149  -0.000001  -0.000004  -0.000012
     5  C   -0.000005  -0.000233  -0.000063   0.000005  -0.000004  -0.000003
     6  H   -0.000310  -0.007869   0.007435  -0.000329   0.005420  -0.000443
     7  H   -0.006493  -0.000262   0.000133   0.000238  -0.000296  -0.000221
     8  H    0.000202   0.000013  -0.000073   0.000000   0.000000   0.000000
     9  H    0.000014  -0.000011   0.000002   0.000000   0.000000   0.000000
    10  O   -0.000077   0.004114   0.003038  -0.000120  -0.000045  -0.000047
    11  O    0.000001  -0.000029  -0.000016   0.000000   0.000000   0.000000
    12  C    0.001993   0.403316   0.389964  -0.032984  -0.044242  -0.034881
    13  C   -0.000724  -0.038246  -0.036191   0.389875   0.384960   0.383893
    14  C    0.387493  -0.000423   0.005525  -0.000081   0.000546   0.000128
    15  O    0.000262   0.000004  -0.000002   0.000000   0.000000  -0.000021
    16  Si   0.000264   0.000002  -0.000004   0.000000   0.000000  -0.000009
    17  C    0.000000   0.000000   0.000000   0.000000   0.000000   0.000000
    18  C   -0.000006   0.000000   0.000000   0.000000   0.000000   0.000000
    19  C   -0.000001   0.000000   0.000000   0.000000   0.000000   0.000000
    20  H    0.000000   0.000000   0.000000   0.000000   0.000000   0.000000
    21  H   -0.000003   0.000000   0.000000   0.000000   0.000000   0.000000
    22  H   -0.000010   0.000000   0.000000   0.000000   0.000000   0.000000
    23  H    0.000001   0.000000   0.000000   0.000000   0.000000   0.000000
    24  H    0.000000   0.000000   0.000000   0.000000   0.000000   0.000000
    25  H    0.000000   0.000000   0.000000   0.000000   0.000000   0.000000
    26  H    0.000000   0.000000   0.000000   0.000000   0.000000   0.000000
    27  H    0.000000   0.000000   0.000000   0.000000   0.000000   0.000000
    28  H    0.000000   0.000000   0.000000   0.000000   0.000000   0.000000
    29  H   -0.026387   0.000017   0.000181  -0.000004   0.000008  -0.000055
    30  H   -0.026907  -0.000248   0.001375   0.000005  -0.000001  -0.000102
    31  H    0.458437   0.000288  -0.001735   0.000005  -0.000078   0.003540
    32  H    0.000288   0.472811  -0.033120  -0.006124  -0.004926   0.006465
    33  H   -0.001735  -0.033120   0.476556  -0.004177   0.007091  -0.006052
    34  H    0.000005  -0.006124  -0.004177   0.459083  -0.025079  -0.026340
    35  H   -0.000078  -0.004926   0.007091  -0.025079   0.477095  -0.027157
    36  H    0.003540   0.006465  -0.006052  -0.026340  -0.027157   0.473187
    37  C   -0.000137   0.000009  -0.000006   0.000000  -0.000064   0.000008
    38  C   -0.000004   0.000000  -0.000009   0.000000   0.000074  -0.000016
    39  C    0.000001   0.000000   0.000000   0.000000   0.000002  -0.000001
    40  H    0.000011  -0.000002   0.000003   0.000000   0.000003   0.000001
    41  H   -0.000013  -0.000016  -0.000020   0.000002  -0.000060   0.000004
    42  H    0.000009  -0.000011   0.000013  -0.000010   0.000751   0.000013
    43  H    0.000000   0.000000   0.000000   0.000000  -0.000001   0.000000
    44  H    0.000000   0.000000   0.000000   0.000000   0.000000   0.000000
              37         38         39         40         41         42
     1  C    0.000274  -0.002072   0.000035  -0.000310   0.000912  -0.000738
     2  C   -0.092570  -0.005488   0.000236   0.007054  -0.003753   0.004066
     3  C    0.307262  -0.066417  -0.001604  -0.029941  -0.037524  -0.004441
     4  C   -0.106773   0.008220  -0.000177  -0.006022  -0.002999  -0.000323
     5  C    0.001930  -0.000147   0.000008  -0.000180   0.003857  -0.000031
     6  H    0.004890  -0.001027   0.000082   0.000408  -0.000031   0.001555
     7  H   -0.008990   0.005871   0.000827  -0.000189   0.000802   0.000180
     8  H    0.005658  -0.000177   0.000003  -0.000075   0.000076   0.000010
     9  H   -0.007046   0.000161   0.000010   0.002440   0.000131  -0.000011
    10  O   -0.003506   0.000265   0.000001  -0.000132  -0.000119  -0.000003
    11  O    0.000032  -0.000004   0.000000   0.000047   0.000294   0.000000
    12  C   -0.000464   0.000037   0.000003  -0.000001   0.000614  -0.000172
    13  C    0.000009  -0.000041   0.000003   0.000000  -0.000038   0.000458
    14  C    0.008266  -0.000248  -0.000012  -0.000118  -0.000311   0.000304
    15  O   -0.056761   0.002113   0.000467  -0.003189   0.003734   0.000022
    16  Si  -0.015757   0.001143   0.001631  -0.005522   0.002460  -0.000211
    17  C   -0.001598   0.000229  -0.001280  -0.003481  -0.000052  -0.000016
    18  C   -0.000404   0.000027  -0.000003  -0.000139   0.000024   0.000000
    19  C   -0.000163  -0.000165  -0.000160  -0.000029  -0.000004   0.000000
    20  H    0.000006   0.000001   0.000000   0.000001   0.000000   0.000000
    21  H   -0.000049   0.000002   0.000000  -0.000052   0.000012   0.000000
    22  H   -0.000058   0.000003   0.000001  -0.000006   0.000005   0.000000
    23  H    0.000036   0.000251   0.000643  -0.000019   0.000001  -0.000004
    24  H    0.000002  -0.000002  -0.000010   0.000004   0.000000   0.000000
    25  H   -0.000019  -0.000015  -0.000008  -0.000006   0.000001   0.000000
    26  H    0.000337  -0.000029   0.000017   0.000635  -0.000008   0.000001
    27  H    0.000088   0.000042   0.001547  -0.000665  -0.000002   0.000009
    28  H   -0.000909   0.000242  -0.000007   0.000930  -0.000120   0.000000
    29  H    0.000290   0.000025  -0.000010  -0.000023  -0.000024   0.000010
    30  H   -0.000015  -0.000044   0.000000   0.000015  -0.000011  -0.000003
    31  H   -0.000137  -0.000004   0.000001   0.000011  -0.000013   0.000009
    32  H    0.000009   0.000000   0.000000  -0.000002  -0.000016  -0.000011
    33  H   -0.000006  -0.000009   0.000000   0.000003  -0.000020   0.000013
    34  H    0.000000   0.000000   0.000000   0.000000   0.000002  -0.000010
    35  H   -0.000064   0.000074   0.000002   0.000003  -0.000060   0.000751
    36  H    0.000008  -0.000016  -0.000001   0.000001   0.000004   0.000013
    37  C    5.498994   0.321327  -0.048924   0.396360   0.382040  -0.047474
    38  C    0.321327   5.014488   0.638805  -0.045809  -0.038675   0.392896
    39  C   -0.048924   0.638805   5.136014  -0.000122  -0.000719  -0.037564
    40  H    0.396360  -0.045809  -0.000122   0.438639  -0.027182   0.004832
    41  H    0.382040  -0.038675  -0.000719  -0.027182   0.460924  -0.002087
    42  H   -0.047474   0.392896  -0.037564   0.004832  -0.002087   0.470963
    43  H    0.006453  -0.037779   0.392581   0.000125  -0.000331  -0.008456
    44  H   -0.009357  -0.040838   0.384755   0.004256   0.000042   0.006047
              43         44
     1  C    0.000003  -0.000009
     2  C    0.000003   0.000036
     3  C   -0.000241   0.000167
     4  C    0.000016  -0.000091
     5  C    0.000000   0.000000
     6  H   -0.000004   0.000002
     7  H    0.000047  -0.000039
     8  H   -0.000001   0.000003
     9  H    0.000002  -0.000023
    10  O    0.000000   0.000000
    11  O    0.000000   0.000000
    12  C    0.000000   0.000000
    13  C    0.000000   0.000000
    14  C   -0.000002   0.000002
    15  O    0.000047  -0.000024
    16  Si   0.000202  -0.001131
    17  C    0.000031   0.000818
    18  C    0.000000   0.000007
    19  C    0.000000   0.000052
    20  H    0.000000   0.000000
    21  H    0.000000   0.000000
    22  H    0.000000  -0.000001
    23  H    0.000008   0.000061
    24  H    0.000000   0.000000
    25  H    0.000000  -0.000006
    26  H   -0.000001   0.000020
    27  H   -0.000028   0.004792
    28  H   -0.000003  -0.000093
    29  H    0.000000   0.000000
    30  H    0.000000   0.000000
    31  H    0.000000   0.000000
    32  H    0.000000   0.000000
    33  H    0.000000   0.000000
    34  H    0.000000   0.000000
    35  H   -0.000001   0.000000
    36  H    0.000000   0.000000
    37  C    0.006453  -0.009357
    38  C   -0.037779  -0.040838
    39  C    0.392581   0.384755
    40  H    0.000125   0.004256
    41  H   -0.000331   0.000042
    42  H   -0.008456   0.006047
    43  H    0.454296  -0.033261
    44  H   -0.033261   0.455164
 Mulliken charges:
               1
     1  C   -0.035365
     2  C   -0.331913
     3  C    0.206435
     4  C   -0.651963
     5  C    0.474308
     6  H    0.254100
     7  H    0.264638
     8  H    0.308903
     9  H    0.267589
    10  O   -0.313644
    11  O   -0.379661
    12  C   -0.468696
    13  C   -0.672140
    14  C   -0.680430
    15  O   -0.626121
    16  Si   1.429445
    17  C   -1.092250
    18  C   -1.065610
    19  C   -1.038985
    20  H    0.239378
    21  H    0.240461
    22  H    0.242109
    23  H    0.239253
    24  H    0.234176
    25  H    0.237078
    26  H    0.247176
    27  H    0.250828
    28  H    0.246553
    29  H    0.262839
    30  H    0.230187
    31  H    0.243061
    32  H    0.241858
    33  H    0.242042
    34  H    0.238487
    35  H    0.230592
    36  H    0.232816
    37  C   -0.533226
    38  C   -0.147215
    39  C   -0.467071
    40  H    0.267451
    41  H    0.258169
    42  H    0.219416
    43  H    0.226295
    44  H    0.228648
 Sum of Mulliken charges =   0.00000
 Mulliken charges with hydrogens summed into heavy atoms:
               1
     1  C    0.218734
     2  C   -0.067275
     3  C    0.206435
     4  C   -0.075472
     5  C    0.474308
    10  O   -0.313644
    11  O   -0.379661
    12  C    0.015203
    13  C    0.029755
    14  C    0.055657
    15  O   -0.626121
    16  Si   1.429445
    17  C   -0.347692
    18  C   -0.343662
    19  C   -0.328478
    37  C   -0.007606
    38  C    0.072201
    39  C   -0.012129
 Electronic spatial extent (au):  <R**2>=           5473.0702
 Charge=              0.0000 electrons
 Dipole moment (field-independent basis, Debye):
    X=             -1.1810    Y=              3.5649    Z=              2.0634  Tot=              4.2850
 Quadrupole moment (field-independent basis, Debye-Ang):
   XX=           -114.3016   YY=           -129.5229   ZZ=           -124.0661
   XY=             12.5456   XZ=              8.8834   YZ=             -9.4203
 Traceless Quadrupole moment (field-independent basis, Debye-Ang):
   XX=              8.3286   YY=             -6.8927   ZZ=             -1.4359
   XY=             12.5456   XZ=              8.8834   YZ=             -9.4203
 Octapole moment (field-independent basis, Debye-Ang**2):
  XXX=              8.0570  YYY=             35.9765  ZZZ=             15.7121  XYY=            -17.8478
  XXY=             19.4431  XXZ=             11.2876  XZZ=             -0.3342  YZZ=              9.6247
  YYZ=             23.1817  XYZ=            -11.7178
 Hexadecapole moment (field-independent basis, Debye-Ang**3):
 XXXX=          -4232.8538 YYYY=          -1815.3334 ZZZZ=          -1276.9724 XXXY=             83.1772
 XXXZ=             49.1803 YYYX=             18.9802 YYYZ=            -66.4110 ZZZX=              7.6817
 ZZZY=              6.5597 XXYY=          -1085.7783 XXZZ=           -959.6523 YYZZ=           -579.0752
 XXYZ=            -37.6135 YYXZ=             66.4756 ZZXY=             21.7141
 N-N= 1.631117666068D+03 E-N=-5.757151435946D+03  KE= 1.060510478722D+03
 1\1\GINC-SWANNODE-0-8\SP\RmPW1PW91\6-311G(d)\C14H26O3Si1\AH809\08-Mar-
 2018\0\\#mPW1PW91/6-311g(d) nmr=(giao) scrf=(solvent=chloroform)\\P_ng
 _3ginp008\\0,1\C,0,-0.160031,0.62962,-0.353448\C,0,-1.435426,0.098561,
 0.314319\C,0,-1.691065,0.892853,1.638327\C,0,-1.820699,2.373991,1.2604
 93\C,0,-0.718186,2.893981,0.378748\H,0,0.704764,0.444167,0.293595\H,0,
 -1.306043,-0.962141,0.56111\H,0,-2.764461,2.571321,0.740251\H,0,-1.831
 109,2.99263,2.165595\O,0,-0.215059,2.058424,-0.554351\O,0,-0.369884,4.
 070162,0.42534\C,0,0.189209,0.00789,-1.715287\C,0,0.408106,-1.495447,-
 1.662873\C,0,-2.648133,0.146509,-0.640943\O,0,-2.901929,0.323693,2.181
 487\Si,0,-3.968959,0.972785,3.293222\C,0,-3.156802,1.825261,4.7508\C,0
 ,-5.138052,2.198225,2.469581\C,0,-5.035155,-0.426502,3.990585\H,0,-5.9
 45218,2.474231,3.154706\H,0,-4.610916,3.112074,2.182845\H,0,-5.583353,
 1.75826,1.572521\H,0,-4.407537,-1.162412,4.501496\H,0,-5.763327,-0.032
 8,4.705533\H,0,-5.575575,-0.930222,3.183979\H,0,-3.917582,2.192989,5.4
 46448\H,0,-2.51076,1.134134,5.298669\H,0,-2.557978,2.681824,4.430345\H
 ,0,-3.572562,-0.151824,-0.137232\H,0,-2.79974,1.142253,-1.068233\H,0,-
 2.514751,-0.550753,-1.474246\H,0,1.106331,0.482994,-2.0882\H,0,-0.5758
 22,0.253324,-2.461111\H,0,0.74397,-1.859937,-2.63898\H,0,1.173247,-1.7
 5432,-0.924162\H,0,-0.511651,-2.029656,-1.408809\C,0,-0.526319,0.71850
 6,2.676506\C,0,-0.202317,-0.703977,3.060343\C,0,-0.319083,-1.194864,4.
 300892\H,0,-0.764337,1.281868,3.584998\H,0,0.396346,1.176533,2.301773\
 H,0,0.172711,-1.363167,2.281052\H,0,-0.060728,-2.227638,4.515532\H,0,-
 0.673955,-0.588929,5.12822\\Version=EM64L-G09RevD.01\State=1-A\HF=-106
 4.3754347\RMSD=3.081e-09\Dipole=-0.4317053,-1.5859278,0.3748274\Quadru
 pole=2.3315281,-8.473379,6.1418509,-9.6634696,-0.1456694,7.8525171\PG=
 C01 [X(C14H26O3Si1)]\\@


 YOU WILL NEVER "FIND" TIME FOR ANYTHING.
 IF YOU WANT TIME, YOU MUST MAKE IT.

                        -- CHARLES BIXTON
 Job cpu time:       0 days  1 hours 18 minutes  2.9 seconds.
 File lengths (MBytes):  RWF=    233 Int=      0 D2E=      0 Chk=     11 Scr=      1
 Normal termination of Gaussian 09 at Thu Mar  8 13:23:55 2018.
