 Entering Gaussian System, Link 0=/usr/local/shared/gaussian/em64t/09-D01/g09/g09
 Initial command:
 /usr/local/shared/gaussian/em64t/09-D01/g09/l1.exe "/scratch/ah809/P_ng_correct1ginp018/Gau-2953.inp" -scrdir="/scratch/ah809/P_ng_correct1ginp018/"
 Entering Link 1 = /usr/local/shared/gaussian/em64t/09-D01/g09/l1.exe PID=      2963.
  
 Copyright (c) 1988,1990,1992,1993,1995,1998,2003,2009,2013,
            Gaussian, Inc.  All Rights Reserved.
  
 This is part of the Gaussian(R) 09 program.  It is based on
 the Gaussian(R) 03 system (copyright 2003, Gaussian, Inc.),
 the Gaussian(R) 98 system (copyright 1998, Gaussian, Inc.),
 the Gaussian(R) 94 system (copyright 1995, Gaussian, Inc.),
 the Gaussian 92(TM) system (copyright 1992, Gaussian, Inc.),
 the Gaussian 90(TM) system (copyright 1990, Gaussian, Inc.),
 the Gaussian 88(TM) system (copyright 1988, Gaussian, Inc.),
 the Gaussian 86(TM) system (copyright 1986, Carnegie Mellon
 University), and the Gaussian 82(TM) system (copyright 1983,
 Carnegie Mellon University). Gaussian is a federally registered
 trademark of Gaussian, Inc.
  
 This software contains proprietary and confidential information,
 including trade secrets, belonging to Gaussian, Inc.
  
 This software is provided under written license and may be
 used, copied, transmitted, or stored only in accord with that
 written license.
  
 The following legend is applicable only to US Government
 contracts under FAR:
  
                    RESTRICTED RIGHTS LEGEND
  
 Use, reproduction and disclosure by the US Government is
 subject to restrictions as set forth in subparagraphs (a)
 and (c) of the Commercial Computer Software - Restricted
 Rights clause in FAR 52.227-19.
  
 Gaussian, Inc.
 340 Quinnipiac St., Bldg. 40, Wallingford CT 06492
  
  
 ---------------------------------------------------------------
 Warning -- This program may not be used in any manner that
 competes with the business of Gaussian, Inc. or will provide
 assistance to any competitor of Gaussian, Inc.  The licensee
 of this program is prohibited from giving any competitor of
 Gaussian, Inc. access to this program.  By using this program,
 the user acknowledges that Gaussian, Inc. is engaged in the
 business of creating and licensing software in the field of
 computational chemistry and represents and warrants to the
 licensee that it is not a competitor of Gaussian, Inc. and that
 it will not use this program in any manner prohibited above.
 ---------------------------------------------------------------
  

 Cite this work as:
 Gaussian 09, Revision D.01,
 M. J. Frisch, G. W. Trucks, H. B. Schlegel, G. E. Scuseria, 
 M. A. Robb, J. R. Cheeseman, G. Scalmani, V. Barone, B. Mennucci, 
 G. A. Petersson, H. Nakatsuji, M. Caricato, X. Li, H. P. Hratchian, 
 A. F. Izmaylov, J. Bloino, G. Zheng, J. L. Sonnenberg, M. Hada, 
 M. Ehara, K. Toyota, R. Fukuda, J. Hasegawa, M. Ishida, T. Nakajima, 
 Y. Honda, O. Kitao, H. Nakai, T. Vreven, J. A. Montgomery, Jr., 
 J. E. Peralta, F. Ogliaro, M. Bearpark, J. J. Heyd, E. Brothers, 
 K. N. Kudin, V. N. Staroverov, T. Keith, R. Kobayashi, J. Normand, 
 K. Raghavachari, A. Rendell, J. C. Burant, S. S. Iyengar, J. Tomasi, 
 M. Cossi, N. Rega, J. M. Millam, M. Klene, J. E. Knox, J. B. Cross, 
 V. Bakken, C. Adamo, J. Jaramillo, R. Gomperts, R. E. Stratmann, 
 O. Yazyev, A. J. Austin, R. Cammi, C. Pomelli, J. W. Ochterski, 
 R. L. Martin, K. Morokuma, V. G. Zakrzewski, G. A. Voth, 
 P. Salvador, J. J. Dannenberg, S. Dapprich, A. D. Daniels, 
 O. Farkas, J. B. Foresman, J. V. Ortiz, J. Cioslowski, 
 and D. J. Fox, Gaussian, Inc., Wallingford CT, 2013.
 
 ******************************************
 Gaussian 09:  EM64L-G09RevD.01 24-Apr-2013
                 8-Mar-2018 
 ******************************************
 %mem=6000MB
 %chk=P_ng_correct1ginp018.chk
 --------------------------------------------------------
 #mPW1PW91/6-311g(d) nmr=(giao) scrf=(solvent=chloroform)
 --------------------------------------------------------
 1/38=1/1;
 2/12=2,17=6,18=5,40=1/2;
 3/5=4,6=6,7=1,11=2,16=1,25=1,30=1,70=2201,72=7,74=-7/1,2,8,3;
 4//1;
 5/5=2,38=5,53=7/2;
 8/6=1,10=90,11=11/1;
 10/13=100,45=16/2;
 6/7=2,8=2,9=2,10=2,28=1/1;
 99/9=1/99;
 --------------------
 P_ng_correct1ginp018
 --------------------
 Symbolic Z-matrix:
 Charge =  0 Multiplicity = 1
 C                     1.02073  -0.47958   0.54218 
 C                    -0.49087  -0.50582   0.25865 
 C                    -1.26535   0.57427   1.08228 
 C                    -0.62053   1.90623   0.69527 
 C                     0.84977   1.96392   0.95985 
 H                     1.23734  -1.08155   1.43296 
 H                    -0.64259  -0.26043  -0.80413 
 H                    -0.77669   2.11878  -0.37012 
 H                    -1.082     2.73551   1.2385 
 O                     1.55989   0.83128   0.82059 
 O                     1.40928   3.0234    1.22901 
 C                     1.83348  -1.06391  -0.6285 
 C                     3.32324  -1.15631  -0.3184 
 C                    -1.06049  -1.9252    0.43984 
 O                    -2.59903   0.47933   0.53392 
 Si                   -3.99335   1.30681   0.92135 
 C                    -4.86905   0.53639   2.39612 
 C                    -3.77202   3.14296   1.20644 
 C                    -5.19135   1.14137  -0.54712 
 H                    -4.74588   3.6285    1.3244 
 H                    -3.19093   3.3488    2.10814 
 H                    -3.26711   3.60996   0.3556 
 H                    -4.7511    1.58747  -1.44342 
 H                    -5.39942   0.08622  -0.74598 
 H                    -6.13389   1.65061  -0.32696 
 H                    -4.29005   0.64817   3.31509 
 H                    -5.84279   1.01088   2.55098 
 H                    -5.03361  -0.53162   2.22473 
 H                    -0.58575  -2.63203  -0.24733 
 H                    -0.90129  -2.29656   1.45718 
 H                    -2.13482  -1.95677   0.23321 
 H                     1.71012  -0.42792  -1.51366 
 H                     1.47284  -2.06401  -0.88859 
 H                     3.85505  -1.60883  -1.16149 
 H                     3.75845  -0.16803  -0.14106 
 H                     3.50066  -1.77601   0.56626 
 C                    -1.20376   0.23505   2.60953 
 C                    -1.34566   1.38702   3.57104 
 C                    -0.33866   1.87471   4.30775 
 H                    -0.25633  -0.26277   2.84485 
 H                    -1.98449  -0.49648   2.85355 
 H                    -2.32894   1.82893   3.69839 
 H                    -0.50146   2.701     4.99415 
 H                     0.67098   1.47907   4.24347 
 
                          Input orientation:                          
 ---------------------------------------------------------------------
 Center     Atomic      Atomic             Coordinates (Angstroms)
 Number     Number       Type             X           Y           Z
 ---------------------------------------------------------------------
      1          6           0        1.020725   -0.479583    0.542179
      2          6           0       -0.490872   -0.505817    0.258653
      3          6           0       -1.265352    0.574266    1.082276
      4          6           0       -0.620526    1.906230    0.695274
      5          6           0        0.849765    1.963915    0.959847
      6          1           0        1.237336   -1.081552    1.432962
      7          1           0       -0.642590   -0.260426   -0.804127
      8          1           0       -0.776687    2.118778   -0.370119
      9          1           0       -1.082002    2.735511    1.238502
     10          8           0        1.559888    0.831281    0.820593
     11          8           0        1.409278    3.023405    1.229008
     12          6           0        1.833483   -1.063915   -0.628504
     13          6           0        3.323241   -1.156309   -0.318402
     14          6           0       -1.060494   -1.925203    0.439840
     15          8           0       -2.599029    0.479331    0.533918
     16         14           0       -3.993345    1.306807    0.921346
     17          6           0       -4.869046    0.536390    2.396120
     18          6           0       -3.772018    3.142963    1.206445
     19          6           0       -5.191353    1.141374   -0.547123
     20          1           0       -4.745883    3.628504    1.324397
     21          1           0       -3.190934    3.348804    2.108136
     22          1           0       -3.267109    3.609958    0.355600
     23          1           0       -4.751100    1.587471   -1.443424
     24          1           0       -5.399420    0.086217   -0.745981
     25          1           0       -6.133889    1.650607   -0.326959
     26          1           0       -4.290055    0.648169    3.315094
     27          1           0       -5.842788    1.010884    2.550977
     28          1           0       -5.033609   -0.531615    2.224734
     29          1           0       -0.585748   -2.632029   -0.247330
     30          1           0       -0.901287   -2.296556    1.457181
     31          1           0       -2.134815   -1.956766    0.233209
     32          1           0        1.710119   -0.427915   -1.513663
     33          1           0        1.472837   -2.064009   -0.888588
     34          1           0        3.855051   -1.608832   -1.161493
     35          1           0        3.758451   -0.168028   -0.141057
     36          1           0        3.500657   -1.776006    0.566256
     37          6           0       -1.203758    0.235046    2.609529
     38          6           0       -1.345656    1.387016    3.571040
     39          6           0       -0.338661    1.874711    4.307753
     40          1           0       -0.256333   -0.262766    2.844846
     41          1           0       -1.984489   -0.496476    2.853552
     42          1           0       -2.328939    1.828930    3.698388
     43          1           0       -0.501464    2.701003    4.994153
     44          1           0        0.670982    1.479065    4.243466
 ---------------------------------------------------------------------
                    Distance matrix (angstroms):
                    1          2          3          4          5
     1  C    0.000000
     2  C    1.538181   0.000000
     3  C    2.574578   1.563571   0.000000
     4  C    2.899870   2.454673   1.529608   0.000000
     5  C    2.484825   2.896301   2.533739   1.495019   0.000000
     6  H    1.096714   2.167297   3.021285   3.594812   3.106271
     7  H    2.151090   1.101243   2.154776   2.634974   3.207245
     8  H    3.288534   2.713953   2.175721   1.097554   2.106689
     9  H    3.904248   3.437404   2.174627   1.093510   2.098746
    10  O    1.444498   2.511817   2.848950   2.434220   1.344071
    11  O    3.590770   4.124023   3.629526   2.377616   1.228015
    12  C    1.540298   2.549735   3.900408   4.073857   3.557853
    13  C    2.549537   3.911980   5.100194   5.095094   4.181842
    14  C    2.536092   1.540115   2.588829   3.865061   4.364027
    15  O    3.744623   2.343206   1.445131   2.444698   3.778834
    16  Si   5.336277   3.999010   2.829216   3.433122   4.887636
    17  C    6.257691   4.982306   3.835913   4.776951   6.066754
    18  C    6.044375   4.997782   3.591239   3.423844   4.776175
    19  C    6.511835   5.045496   4.288361   4.798022   6.280337
    20  H    7.123343   6.027731   4.636927   4.514487   5.849361
    21  H    5.903121   5.056582   3.529634   3.268669   4.423091
    22  H    5.928295   4.965531   3.708169   3.165828   4.474732
    23  H    6.444323   5.042664   4.422237   4.662325   6.106317
    24  H    6.572499   5.045160   4.546563   5.312955   6.744473
    25  H    7.515425   6.069328   5.181419   5.613152   7.108126
    26  H    6.096332   5.010719   3.760288   4.680985   5.804836
    27  H    7.305106   6.016489   4.827073   5.614027   6.944799
    28  H    6.284000   4.950010   4.089981   5.268552   6.514729
    29  H    2.799483   2.187647   3.536954   4.635246   4.963937
    30  H    2.798705   2.193549   2.917999   4.280507   4.633048
    31  H    3.497851   2.192818   2.807669   4.174843   4.980709
    32  H    2.168967   2.826930   4.073904   3.969829   3.546733
    33  H    2.182179   2.756860   4.282812   4.759578   4.475389
    34  H    3.494439   4.703244   6.001578   5.986154   5.127997
    35  H    2.838842   4.281427   5.223614   4.917056   3.770627
    36  H    2.798456   4.200036   5.338998   5.528079   4.600995
    37  C    3.119768   2.565873   1.565684   2.607180   3.150777
    38  C    4.272932   3.909652   2.619343   3.010885   3.459915
    39  C    4.644371   4.699499   3.599113   3.623596   3.553701
    40  H    2.642000   2.608156   2.196678   3.075360   3.120061
    41  H    3.791311   2.994074   2.191133   3.505931   4.203884
    42  H    5.148897   4.545471   3.090217   3.455914   4.197855
    43  H    5.679195   5.719158   4.517667   4.373351   4.317956
    44  H    4.202160   4.600913   3.815910   3.800017   3.324033
                    6          7          8          9         10
     6  H    0.000000
     7  H    3.035282   0.000000
     8  H    4.189213   2.422180   0.000000
     9  H    4.470695   3.652541   1.749639   0.000000
    10  O    2.034199   2.946599   2.921477   3.283340   0.000000
    11  O    4.113616   4.373482   2.855521   2.507877   2.234926
    12  C    2.146007   2.609095   4.124231   5.140175   2.401355
    13  C    2.724677   4.094673   5.247693   6.080821   2.890889
    14  C    2.641602   2.119807   4.134049   4.728697   3.822248
    15  O    4.238199   2.482994   2.612661   2.808586   4.183616
    16  Si   5.772870   4.081793   3.560066   3.258481   5.574466
    17  C    6.390095   5.360917   5.186852   4.529671   6.625741
    18  C    6.556788   5.041704   3.536455   2.720888   5.824258
    19  C    7.084503   4.766795   4.525033   4.755680   6.895365
    20  H    7.615466   6.040812   4.572218   3.772113   6.916721
    21  H    6.300277   5.291680   3.671961   2.362199   5.528653
    22  H    6.592496   4.817981   2.992071   2.513735   5.589022
    23  H    7.159514   4.550086   4.150931   4.687537   6.747308
    24  H    7.082232   4.769798   5.063816   5.440315   7.172255
    25  H    8.055866   5.833875   5.377793   5.399004   7.821916
    26  H    6.089861   5.576516   5.299740   4.354404   6.362224
    27  H    7.467021   6.317833   5.951942   5.230871   7.604347
    28  H    6.344611   5.341216   5.646170   5.221299   6.877739
    29  H    2.924209   2.436751   4.756228   5.591462   4.211737
    30  H    2.459782   3.053893   4.780139   5.040057   4.030632
    31  H    3.684672   2.486035   4.338038   4.912890   4.665732
    32  H    3.055055   2.463074   3.738655   5.037620   2.656482
    33  H    2.531852   2.781201   4.777539   5.838416   3.363270
    34  H    3.723124   4.709000   5.997862   7.000556   3.892376
    35  H    3.109354   4.451669   5.084233   5.810655   2.599436
    36  H    2.521124   4.619678   5.860189   6.465792   3.260248
    37  C    3.012753   3.494775   3.550935   2.854271   3.345673
    38  C    4.163779   4.727627   4.048696   2.707155   4.039305
    39  C    4.414485   5.548198   4.704670   3.273199   4.105304
    40  H    2.212436   3.669360   4.034665   3.500248   2.931416
    41  H    3.569390   3.903207   4.323239   3.724058   4.296332
    42  H    5.130436   5.242311   4.364201   2.903064   4.939634
    43  H    5.478433   6.512298   5.402791   3.800412   5.016337
    44  H    3.844015   5.498136   4.877514   3.698840   3.595252
                   11         12         13         14         15
    11  O    0.000000
    12  C    4.509599   0.000000
    13  C    4.850540   1.524493   0.000000
    14  C    5.586706   3.202855   4.514783   0.000000
    15  O    4.798123   4.835287   6.202826   2.856173   0.000000
    16  Si   5.677121   6.478756   7.818973   4.390826   1.667014
    17  C    6.853083   7.525505   8.794739   4.938779   2.936670
    18  C    5.182724   7.244757   8.435141   5.798823   2.987161
    19  C    7.089782   7.363304   8.822130   5.238510   2.885671
    20  H    6.185568   8.313884   9.523864   6.723704   3.892445
    21  H    4.694752   7.225376   8.283635   5.927659   3.326017
    22  H    4.793275   6.987817   8.161145   5.959384   3.206081
    23  H    6.866881   7.144976   8.601685   5.431955   3.125582
    24  H    7.673723   7.324718   8.821083   4.927298   3.104009
    25  H    7.823361   8.422504   9.864895   6.254097   3.822072
    26  H    6.517354   7.482039   8.626744   5.031838   3.259297
    27  H    7.641355   8.563821   9.846124   5.995652   3.856559
    28  H    7.425660   7.455284   8.757552   4.573136   3.131781
    29  H    6.176053   2.908084   4.178875   1.094161   3.787375
    30  H    5.804546   3.653553   4.722234   1.094638   3.382350
    31  H    6.193086   4.157778   5.543950   1.094467   2.498097
    32  H    4.418638   1.096914   2.135736   3.705987   4.856381
    33  H    5.510901   1.094485   2.138464   2.863870   5.007214
    34  H    5.757944   2.160497   1.094715   5.179473   6.992138
    35  H    4.192963   2.178467   1.094330   5.162106   6.425902
    36  H    5.277069   2.171173   1.094587   4.565341   6.503365
    37  C    4.063095   4.625688   5.567977   3.065086   2.512890
    38  C    3.968947   5.809489   6.587478   4.566895   3.408658
    39  C    3.722024   6.141691   6.633093   5.470022   4.614995
    40  H    4.022948   4.131989   4.859826   3.032231   3.373325
    41  H    5.152316   5.198424   6.218414   2.953140   2.590475
    42  H    4.636688   6.664556   7.549397   5.130361   3.450831
    43  H    4.234524   7.158272   7.598057   6.515832   5.406413
    44  H    3.466558   5.617317   5.898331   5.390234   5.045115
                   16         17         18         19         20
    16  Si   0.000000
    17  C    1.880253   0.000000
    18  C    1.871293   3.068065   0.000000
    19  C    1.902365   3.022014   3.015936   0.000000
    20  H    2.473669   3.274894   1.094566   3.144336   0.000000
    21  H    2.494411   3.287654   1.092280   3.990592   1.763617
    22  H    2.480321   4.022032   1.094054   3.257534   1.767960
    23  H    2.499020   3.982560   3.224897   1.093700   3.438993
    24  H    2.499373   3.218191   3.975437   1.093706   4.154681
    25  H    2.501678   3.202572   3.186987   1.093693   2.926707
    26  H    2.500374   1.091897   3.307380   3.996537   3.612901
    27  H    2.482681   1.094211   3.262149   3.168536   3.091866
    28  H    2.482089   1.094116   4.016348   3.241445   4.266144
    29  H    5.337785   5.947550   6.753985   5.961547   7.679279
    30  H    4.778302   4.964907   6.155675   5.851603   7.064339
    31  H    3.818190   4.286027   5.443791   4.421517   6.261278
    32  H    6.439568   7.713734   7.085477   7.143331   8.135667
    33  H    6.672137   7.600715   7.681811   7.402872   8.716334
    34  H    8.627658   9.662735   9.292947   9.475152  10.372338
    35  H    7.962046   9.020376   8.335849   9.054193   9.427879
    36  H    8.111097   8.873979   8.803289   9.235895   9.888828
    37  C    3.432263   3.683841   4.125601   5.165926   5.070875
    38  C    3.746674   3.810286   3.816005   5.639946   4.651152
    39  C    5.014677   5.096060   4.797345   6.903349   5.603553
    40  H    4.486499   4.702885   5.161723   6.150730   6.132683
    41  H    3.319752   3.097858   4.376498   4.952890   5.194138
    42  H    3.279455   3.133481   3.165271   5.166286   3.836133
    43  H    5.542993   5.523685   5.023802   7.425176   5.687043
    44  H    5.729058   5.915508   5.633143   7.578308   6.517935
                   21         22         23         24         25
    21  H    0.000000
    22  H    1.773524   0.000000
    23  H    4.260281   3.086935   0.000000
    24  H    4.864963   4.263447   1.777782   0.000000
    25  H    4.180257   3.538837   1.778366   1.778297   0.000000
    26  H    3.155669   4.310130   4.872201   4.247212   4.203469
    27  H    3.562907   4.267199   4.180846   3.452755   2.962516
    28  H    4.297290   4.875122   4.245671   3.056253   3.533249
    29  H    6.935818   6.820236   6.048552   5.550581   7.009221
    30  H    6.126689   6.457360   6.190334   5.546596   6.792892
    31  H    5.725366   5.682032   4.713561   3.973693   5.414750
    32  H    7.169474   6.676179   6.768609   7.169324   8.201035
    33  H    7.747881   7.497266   7.237302   7.202203   8.483872
    34  H    9.214908   8.958934   9.184861   9.417594  10.540366
    35  H    8.106845   7.992393   8.785806   9.181349  10.059840
    36  H    8.568457   8.651915   9.134730   9.187013  10.264696
    37  C    3.727701   4.552762   5.553298   5.374493   5.910412
    38  C    3.064923   4.355744   6.064823   6.063147   6.179891
    39  C    3.891880   5.215976   7.254527   7.372260   7.423978
    40  H    4.711482   5.500828   6.481942   6.282290   6.947446
    41  H    4.098455   4.974704   5.519146   4.995790   5.651826
    42  H    2.362616   3.902109   5.688884   5.676030   5.541919
    43  H    3.997748   5.476419   7.793700   7.986001   7.819321
    44  H    4.792698   5.929989   7.858209   7.980250   8.199054
                   26         27         28         29         30
    26  H    0.000000
    27  H    1.768168   0.000000
    28  H    1.770211   1.772148   0.000000
    29  H    6.096922   6.981247   5.505116   0.000000
    30  H    4.858703   6.045989   4.558535   1.765634   0.000000
    31  H    4.574796   5.284700   3.794764   1.756846   1.770637
    32  H    7.776692   8.697002   7.711306   3.425306   4.374606
    33  H    7.631368   8.648927   7.373930   2.229715   3.345620
    34  H    9.564342  10.709502   9.572628   4.647937   5.472949
    35  H    8.797136  10.040950   9.112051   4.995464   5.366391
    36  H    8.609758   9.950168   8.782526   4.253634   4.521264
    37  C    3.192761   4.703823   3.924741   4.094350   2.797928
    38  C    3.046455   4.626683   4.369746   5.595546   4.270195
    39  C    4.254796   5.841907   5.672029   6.412530   5.083481
    40  H    4.161953   5.737336   4.824851   3.909408   2.545168
    41  H    2.615123   4.153331   3.113484   4.016532   2.522591
    42  H    2.321010   3.785880   3.880602   6.205446   4.907223
    43  H    4.624585   6.111903   6.217704   7.478066   6.135603
    44  H    5.115091   6.746326   6.376556   6.216728   4.948811
                   31         32         33         34         35
    31  H    0.000000
    32  H    4.491377   0.000000
    33  H    3.779561   1.767435   0.000000
    34  H    6.159931   2.473726   2.440616   0.000000
    35  H    6.170109   2.479365   3.062283   1.768202   0.000000
    36  H    5.648198   3.057685   2.512284   1.771626   1.775484
    37  C    3.364194   5.092240   4.968565   6.573587   5.687856
    38  C    4.790069   6.203704   6.304106   7.643254   6.499980
    39  C    5.874376   6.586993   6.767348   7.722366   6.383653
    40  H    3.635791   4.784434   4.491440   5.896281   5.004306
    41  H    3.003538   5.720786   5.330467   7.173434   6.485131
    42  H    5.135820   6.969420   7.116799   8.583611   7.468969
    43  H    6.857786   7.552013   7.823672   8.685959   7.262823
    44  H    5.979932   6.153122   6.287633   6.991923   5.609761
                   36         37         38         39         40
    36  H    0.000000
    37  C    5.509157   0.000000
    38  C    6.520750   1.507207   0.000000
    39  C    6.485900   2.514132   1.339639   0.000000
    40  H    4.647240   1.095812   2.106125   2.591463   0.000000
    41  H    6.079124   1.097366   2.114341   3.232024   1.743909
    42  H    7.535914   2.234304   1.085519   2.081977   3.065848
    43  H    7.461022   3.501513   2.112930   1.086466   3.669269
    44  H    5.667841   2.780644   2.127783   1.086300   2.418683
                   41         42         43         44
    41  H    0.000000
    42  H    2.497981   0.000000
    43  H    4.123761   2.403993   0.000000
    44  H    3.589728   3.069046   1.852375   0.000000
 Stoichiometry    C14H26O3Si
 Framework group  C1[X(C14H26O3Si)]
 Deg. of freedom   126
 Full point group                 C1      NOp   1
 Largest Abelian subgroup         C1      NOp   1
 Largest concise Abelian subgroup C1      NOp   1
                         Standard orientation:                         
 ---------------------------------------------------------------------
 Center     Atomic      Atomic             Coordinates (Angstroms)
 Number     Number       Type             X           Y           Z
 ---------------------------------------------------------------------
      1          6           0        2.456259   -0.605459    0.271133
      2          6           0        1.053981   -1.232507    0.190959
      3          6           0       -0.073374   -0.151511    0.118362
      4          6           0        0.262539    0.690039   -1.113976
      5          6           0        1.619949    1.314712   -1.065986
      6          1           0        2.692320   -0.367105    1.315280
      7          1           0        0.993550   -1.814064   -0.742248
      8          1           0        0.206477    0.082803   -2.026526
      9          1           0       -0.463173    1.497526   -1.244627
     10          8           0        2.604441    0.636104   -0.452151
     11          8           0        1.852160    2.381997   -1.627236
     12          6           0        3.543418   -1.564698   -0.248928
     13          6           0        4.950961   -1.007981   -0.067357
     14          6           0        0.840509   -2.250913    1.326404
     15          8           0       -1.251383   -0.953326   -0.122036
     16         14           0       -2.848737   -0.510072   -0.297875
     17          6           0       -3.697231   -0.301862    1.367075
     18          6           0       -3.138132    1.010782   -1.349061
     19          6           0       -3.752075   -1.936804   -1.173895
     20          1           0       -4.209490    1.154656   -1.521017
     21          1           0       -2.757722    1.915998   -0.870576
     22          1           0       -2.654573    0.906137   -2.324855
     23          1           0       -3.318920   -2.104175   -2.164119
     24          1           0       -3.658417   -2.856597   -0.589599
     25          1           0       -4.813488   -1.699662   -1.289350
     26          1           0       -3.297540    0.549286    1.922081
     27          1           0       -4.770784   -0.140969    1.229609
     28          1           0       -3.562457   -1.200128    1.977029
     29          1           0        1.567980   -3.066104    1.267772
     30          1           0        0.946083   -1.784659    2.311134
     31          1           0       -0.152159   -2.708916    1.274423
     32          1           0        3.387341   -1.749882   -1.318773
     33          1           0        3.485508   -2.529648    0.264311
     34          1           0        5.690616   -1.735571   -0.416532
     35          1           0        5.094688   -0.085690   -0.638566
     36          1           0        5.154783   -0.796851    0.987158
     37          6           0       -0.139758    0.650041    1.461669
     38          6           0       -0.698262    2.048383    1.395444
     39          6           0        0.041979    3.156627    1.531348
     40          1           0        0.860612    0.726030    1.902455
     41          1           0       -0.737229    0.090399    2.192450
     42          1           0       -1.768959    2.165755    1.260603
     43          1           0       -0.416630    4.140506    1.485871
     44          1           0        1.117582    3.120629    1.679098
 ---------------------------------------------------------------------
 Rotational constants (GHZ):      0.5642729      0.2531148      0.2199968
 Standard basis: 6-311G(d) (5D, 7F)
 There are   428 symmetry adapted cartesian basis functions of A   symmetry.
 There are   410 symmetry adapted basis functions of A   symmetry.
   410 basis functions,   720 primitive gaussians,   428 cartesian basis functions
    74 alpha electrons       74 beta electrons
       nuclear repulsion energy      1627.5492999586 Hartrees.
 NAtoms=   44 NActive=   44 NUniq=   44 SFac= 1.00D+00 NAtFMM=   60 NAOKFM=F Big=F
 Integral buffers will be    131072 words long.
 Raffenetti 2 integral format.
 Two-electron integral symmetry is turned on.
 ------------------------------------------------------------------------------
 Polarizable Continuum Model (PCM)
 =================================
 Model                : PCM (using non-symmetric T matrix).
 Atomic radii         : UFF (Universal Force Field).
 Polarization charges : Total charges.
 Charge compensation  : None.
 Solution method      : On-the-fly selection.
 Cavity type          : Scaled VdW (van der Waals Surface) (Alpha=1.100).
 Cavity algorithm     : GePol (No added spheres)
                        Default sphere list used, NSphG=   44.
                        Lebedev-Laikov grids with approx.  5.0 points / Ang**2.
                        Smoothing algorithm: Karplus/York (Gamma=1.0000).
                        Polarization charges: spherical gaussians, with
                                              point-specific exponents (IZeta= 3).
                        Self-potential: point-specific (ISelfS= 7).
                        Self-field    : sphere-specific E.n sum rule (ISelfD= 2).
 Solvent              : Chloroform, Eps=   4.711300 Eps(inf)=   2.090627
 ------------------------------------------------------------------------------
 One-electron integrals computed using PRISM.
 NBasis=   410 RedAO= T EigKep=  8.62D-04  NBF=   410
 NBsUse=   410 1.00D-06 EigRej= -1.00D+00 NBFU=   410
 ExpMin= 6.54D-02 ExpMax= 6.94D+04 ExpMxC= 2.33D+03 IAcc=2 IRadAn=         4 AccDes= 0.00D+00
 Harris functional with IExCor=  908 and IRadAn=       4 diagonalized for initial guess.
 HarFok:  IExCor=  908 AccDes= 0.00D+00 IRadAn=         4 IDoV= 1 UseB2=F ITyADJ=14
 ICtDFT=  3500011 ScaDFX=  1.000000  1.000000  1.000000  1.000000
 FoFCou: FMM=F IPFlag=           0 FMFlag=      100000 FMFlg1=           0
         NFxFlg=           0 DoJE=T BraDBF=F KetDBF=T FulRan=T
         wScrn=  0.000000 ICntrl=     500 IOpCl=  0 I1Cent=   200000004 NGrid=           0
         NMat0=    1 NMatS0=      1 NMatT0=    0 NMatD0=    1 NMtDS0=    0 NMtDT0=    0
 Petite list used in FoFCou.
 Requested convergence on RMS density matrix=1.00D-08 within 128 cycles.
 Requested convergence on MAX density matrix=1.00D-06.
 Requested convergence on             energy=1.00D-06.
 No special actions if energy rises.
 Inv3:  Mode=1 IEnd=    24196800.
 Iteration    1 A*A^-1 deviation from unit magnitude is 9.55D-15 for   2506.
 Iteration    1 A*A^-1 deviation from orthogonality  is 7.55D-15 for   2604   1222.
 Iteration    1 A^-1*A deviation from unit magnitude is 9.44D-15 for    299.
 Iteration    1 A^-1*A deviation from orthogonality  is 7.51D-12 for   2305   2288.
 Error on total polarization charges =  0.01148
 SCF Done:  E(RmPW1PW91) =  -1064.37392690     A.U. after   13 cycles
            NFock= 13  Conv=0.29D-08     -V/T= 2.0036
 DoSCS=F DFT=T ScalE2(SS,OS)=  1.000000  1.000000
 Range of M.O.s used for correlation:     1   410
 NBasis=   410 NAE=    74 NBE=    74 NFC=     0 NFV=     0
 NROrb=    410 NOA=    74 NOB=    74 NVA=   336 NVB=   336
 NEqPCM:  Using equilibrium solvation (IEInf=0, Eps=   4.7113, EpsInf=   2.0906)
          Differentiating once with respect to magnetic field using GIAOs.
          Electric field/nuclear overlap derivatives assumed to be zero.
 FoFJK:  IHMeth= 1 ICntrl=    6127 DoSepK=F KAlg= 0 I1Cent=   0 FoldK=F
 IRaf=         1 NMat=   1 IRICut=       1 DoRegI=T DoRafI=F ISym2E= 0.
          There are     3 degrees of freedom in the 1st order CPHF.  IDoFFX=0 NUNeed=     3.
      3 vectors produced by pass  0 Test12= 8.29D-13 3.33D-08 XBig12= 3.93D+01 8.58D-01.
 AX will form     3 AO Fock derivatives at one time.
      3 vectors produced by pass  1 Test12= 8.29D-13 3.33D-08 XBig12= 7.91D-02 1.07D-01.
      3 vectors produced by pass  2 Test12= 8.29D-13 3.33D-08 XBig12= 9.40D-04 1.25D-02.
      3 vectors produced by pass  3 Test12= 8.29D-13 3.33D-08 XBig12= 4.52D-06 4.34D-04.
      3 vectors produced by pass  4 Test12= 8.29D-13 3.33D-08 XBig12= 2.31D-08 3.42D-05.
      3 vectors produced by pass  5 Test12= 8.29D-13 3.33D-08 XBig12= 7.82D-11 1.65D-06.
      2 vectors produced by pass  6 Test12= 8.29D-13 3.33D-08 XBig12= 2.64D-13 9.57D-08.
 InvSVY:  IOpt=1 It=  1 EMax= 8.88D-16
 Solved reduced A of dimension    20 with     3 vectors.
 Calculating GIAO nuclear magnetic shielding tensors.
 SCF GIAO Magnetic shielding tensor (ppm):
      1  C    Isotropic =   101.7264   Anisotropy =    47.8880
   XX=    95.5170   YX=     9.3007   ZX=   -10.1168
   XY=    -4.0386   YY=   113.0391   ZY=   -27.7371
   XZ=    -1.7107   YZ=   -25.7718   ZZ=    96.6231
   Eigenvalues:    76.3000    95.2276   133.6517
      2  C    Isotropic =   136.0695   Anisotropy =    33.0563
   XX=   152.1177   YX=   -12.9032   ZX=     1.7802
   XY=   -13.8555   YY=   127.6282   ZY=    15.8306
   XZ=     3.9467   YZ=     5.1412   ZZ=   128.4626
   Eigenvalues:   113.8145   136.2869   158.1071
      3  C    Isotropic =   107.2631   Anisotropy =    56.0770
   XX=   131.0178   YX=    21.8640   ZX=    11.1437
   XY=    19.5214   YY=   100.8748   ZY=     7.1083
   XZ=    11.4337   YZ=     5.9894   ZZ=    89.8969
   Eigenvalues:    86.6630    90.4786   144.6478
      4  C    Isotropic =   142.6926   Anisotropy =    29.5458
   XX=   147.9368   YX=    12.3820   ZX=    -5.9433
   XY=    14.6378   YY=   143.5079   ZY=   -10.1883
   XZ=    -4.0079   YZ=    -5.0341   ZZ=   136.6332
   Eigenvalues:   130.2631   135.4250   162.3898
      5  C    Isotropic =    11.0813   Anisotropy =    92.6430
   XX=   -59.5191   YX=    16.3296   ZX=   -44.0710
   XY=    26.4473   YY=    44.9807   ZY=    21.4710
   XZ=   -51.2333   YZ=    21.7106   ZZ=    47.7822
   Eigenvalues:   -83.6254    44.0260    72.8433
      6  H    Isotropic =    28.1395   Anisotropy =     1.7578
   XX=    29.1116   YX=    -0.2497   ZX=     0.0162
   XY=     0.1307   YY=    26.6686   ZY=    -1.3121
   XZ=     0.5698   YZ=    -0.1123   ZZ=    28.6383
   Eigenvalues:    26.4377    28.6694    29.3114
      7  H    Isotropic =    30.0920   Anisotropy =     3.8806
   XX=    30.5715   YX=    -1.3582   ZX=    -0.2216
   XY=    -1.5460   YY=    28.9687   ZY=     2.3798
   XZ=    -0.1996   YZ=     1.8946   ZZ=    30.7358
   Eigenvalues:    27.1694    30.4276    32.6791
      8  H    Isotropic =    29.8193   Anisotropy =     4.4269
   XX=    29.7088   YX=     0.3455   ZX=     0.4991
   XY=     0.4820   YY=    27.1653   ZY=     0.3254
   XZ=     0.7304   YZ=     0.6932   ZZ=    32.5838
   Eigenvalues:    27.0687    29.6187    32.7705
      9  H    Isotropic =    29.2363   Anisotropy =     4.3187
   XX=    31.8271   YX=    -1.4075   ZX=     0.3102
   XY=    -0.2653   YY=    28.8531   ZY=    -2.3862
   XZ=    -0.5370   YZ=    -2.3789   ZZ=    27.0288
   Eigenvalues:    25.3395    30.2540    32.1154
     10  O    Isotropic =   104.1736   Anisotropy =   209.6375
   XX=   167.5499   YX=   -74.8376   ZX=    21.4201
   XY=   -90.5496   YY=   -32.4037   ZY=   141.5448
   XZ=    30.2118   YZ=   122.2336   ZZ=   177.3746
   Eigenvalues:  -121.4756   190.0645   243.9320
     11  O    Isotropic =  -113.1004   Anisotropy =   560.9864
   XX=  -212.1175   YX=    19.2952   ZX=  -130.1743
   XY=     4.3440   YY=  -208.1702   ZY=   268.2523
   XZ=  -135.6299   YZ=   255.4127   ZZ=    80.9866
   Eigenvalues:  -398.6516  -201.5401   260.8906
     12  C    Isotropic =   155.0844   Anisotropy =    27.9790
   XX=   162.9604   YX=   -12.3908   ZX=    -4.3357
   XY=    -9.5384   YY=   154.2844   ZY=     7.6291
   XZ=    -5.9058   YZ=     9.7557   ZZ=   148.0083
   Eigenvalues:   141.5829   149.9332   173.7370
     13  C    Isotropic =   174.6551   Anisotropy =    22.1574
   XX=   187.8212   YX=     2.5458   ZX=     2.7355
   XY=     5.9722   YY=   165.3598   ZY=     6.0522
   XZ=     2.6081   YZ=     6.7003   ZZ=   170.7844
   Eigenvalues:   160.9726   173.5661   189.4267
     14  C    Isotropic =   175.4148   Anisotropy =    23.0441
   XX=   169.3486   YX=    -0.0270   ZX=    -2.1220
   XY=     4.6363   YY=   173.9135   ZY=   -10.1262
   XZ=    -3.8079   YZ=   -11.3910   ZZ=   182.9824
   Eigenvalues:   166.7338   168.7332   190.7776
     15  O    Isotropic =   230.8243   Anisotropy =    52.2665
   XX=   201.8295   YX=    24.4501   ZX=    -1.9556
   XY=    23.4403   YY=   238.1556   ZY=    12.6758
   XZ=    -0.1416   YZ=    19.3482   ZZ=   252.4877
   Eigenvalues:   188.8637   237.9406   265.6686
     16  Si   Isotropic =   334.9354   Anisotropy =    56.1591
   XX=   367.9343   YX=   -21.6085   ZX=     6.8920
   XY=    -5.3051   YY=   321.8015   ZY=     2.2874
   XZ=     7.2953   YZ=    -1.7259   ZZ=   315.0702
   Eigenvalues:   313.3467   319.0846   372.3748
     17  C    Isotropic =   185.8350   Anisotropy =    10.8670
   XX=   188.6939   YX=    -2.7681   ZX=    -3.0091
   XY=    -2.3737   YY=   176.9300   ZY=     0.4670
   XZ=    -0.9374   YZ=     1.4862   ZZ=   191.8811
   Eigenvalues:   176.3726   188.0527   193.0797
     18  C    Isotropic =   185.2770   Anisotropy =     9.0679
   XX=   189.7881   YX=    -0.2908   ZX=     0.5300
   XY=     3.0143   YY=   185.8113   ZY=    -5.9238
   XZ=    -0.9371   YZ=    -7.5133   ZZ=   180.2315
   Eigenvalues:   175.7220   188.7867   191.3222
     19  C    Isotropic =   185.1261   Anisotropy =    14.1551
   XX=   187.4814   YX=     1.7261   ZX=     3.2165
   XY=    -0.1575   YY=   189.3482   ZY=     8.4018
   XZ=     1.6662   YZ=     8.6984   ZZ=   178.5488
   Eigenvalues:   173.6101   187.2054   194.5629
     20  H    Isotropic =    32.1372   Anisotropy =    10.4255
   XX=    37.5744   YX=    -2.5771   ZX=     2.9877
   XY=    -1.8844   YY=    29.9128   ZY=    -1.4151
   XZ=     2.5602   YZ=    -1.3404   ZZ=    28.9246
   Eigenvalues:    27.7932    29.5309    39.0876
     21  H    Isotropic =    31.8438   Anisotropy =     7.0202
   XX=    30.8798   YX=     1.1266   ZX=     2.4225
   XY=     1.9644   YY=    35.3204   ZY=     1.9724
   XZ=     2.4423   YZ=     1.0750   ZZ=    29.3313
   Eigenvalues:    27.5382    31.4693    36.5239
     22  H    Isotropic =    31.9082   Anisotropy =     7.0876
   XX=    31.2658   YX=    -0.5210   ZX=    -1.5440
   XY=     0.4541   YY=    28.4122   ZY=    -1.5367
   XZ=    -1.4335   YZ=    -0.8727   ZZ=    36.0465
   Eigenvalues:    28.2025    30.8888    36.6332
     23  H    Isotropic =    32.1146   Anisotropy =     8.3306
   XX=    30.1165   YX=     0.6974   ZX=    -1.2964
   XY=     0.1652   YY=    30.2736   ZY=     3.7646
   XZ=    -1.3947   YZ=     2.9833   ZZ=    35.9536
   Eigenvalues:    28.1946    30.4807    37.6683
     24  H    Isotropic =    31.9987   Anisotropy =     8.4932
   XX=    29.3929   YX=     1.2715   ZX=     0.8642
   XY=     1.1322   YY=    36.8607   ZY=    -2.8553
   XZ=     0.8184   YZ=    -1.8160   ZZ=    29.7425
   Eigenvalues:    28.0177    30.3176    37.6609
     25  H    Isotropic =    32.3703   Anisotropy =     9.6153
   XX=    38.2704   YX=     0.4505   ZX=     2.2983
   XY=     0.0695   YY=    29.7879   ZY=     0.5796
   XZ=     2.0772   YZ=     0.6923   ZZ=    29.0528
   Eigenvalues:    28.3387    29.9918    38.7805
     26  H    Isotropic =    31.9488   Anisotropy =     6.8677
   XX=    31.5786   YX=     2.0852   ZX=    -0.3945
   XY=     2.4285   YY=    32.3013   ZY=     3.6218
   XZ=     0.0435   YZ=     4.1697   ZZ=    31.9665
   Eigenvalues:    27.4893    31.8298    36.5273
     27  H    Isotropic =    32.2778   Anisotropy =    10.1980
   XX=    38.8055   YX=    -1.2445   ZX=    -1.2022
   XY=    -1.3130   YY=    28.4844   ZY=     0.3539
   XZ=    -0.8313   YZ=     0.2534   ZZ=    29.5434
   Eigenvalues:    28.3004    29.4564    39.0764
     28  H    Isotropic =    31.8896   Anisotropy =     8.0166
   XX=    29.9852   YX=     0.1656   ZX=    -1.0342
   XY=     0.1331   YY=    32.8284   ZY=    -3.8429
   XZ=    -0.6749   YZ=    -4.8015   ZZ=    32.8552
   Eigenvalues:    28.3615    30.0733    37.2340
     29  H    Isotropic =    31.2726   Anisotropy =     9.7480
   XX=    31.5903   YX=    -3.8768   ZX=    -1.3314
   XY=    -3.7690   YY=    35.0233   ZY=    -2.5256
   XZ=    -0.8038   YZ=    -2.7856   ZZ=    27.2040
   Eigenvalues:    25.4751    30.5713    37.7713
     30  H    Isotropic =    31.5148   Anisotropy =     7.3492
   XX=    28.4105   YX=    -1.1102   ZX=     0.5219
   XY=    -0.9299   YY=    29.8042   ZY=    -0.9583
   XZ=     0.3844   YZ=    -0.1620   ZZ=    36.3297
   Eigenvalues:    27.8696    30.2605    36.4142
     31  H    Isotropic =    30.3534   Anisotropy =     7.8833
   XX=    33.6685   YX=     2.2915   ZX=     0.9253
   XY=     2.9051   YY=    31.4882   ZY=    -3.2803
   XZ=     0.1495   YZ=    -3.1108   ZZ=    25.9035
   Eigenvalues:    24.1794    31.2719    35.6089
     32  H    Isotropic =    30.5527   Anisotropy =     5.3580
   XX=    32.0282   YX=    -0.4692   ZX=    -0.1997
   XY=    -0.3718   YY=    27.2391   ZY=     3.5546
   XZ=    -0.1667   YZ=     3.2082   ZZ=    32.3908
   Eigenvalues:    25.5507    31.9827    34.1247
     33  H    Isotropic =    30.2094   Anisotropy =     5.9388
   XX=    32.6497   YX=    -0.5471   ZX=    -1.3431
   XY=    -0.8314   YY=    33.1858   ZY=    -3.0534
   XZ=    -1.2721   YZ=    -2.8358   ZZ=    24.7928
   Eigenvalues:    23.6281    32.8315    34.1687
     34  H    Isotropic =    30.9865   Anisotropy =    11.3241
   XX=    36.3112   YX=    -4.0494   ZX=    -2.0484
   XY=    -3.3141   YY=    29.6338   ZY=     1.6547
   XZ=    -2.0690   YZ=     1.9260   ZZ=    27.0145
   Eigenvalues:    26.1013    28.3223    38.5360
     35  H    Isotropic =    30.4832   Anisotropy =     7.7455
   XX=    32.8020   YX=     2.4577   ZX=    -1.3772
   XY=     1.5262   YY=    31.4313   ZY=    -3.8453
   XZ=    -1.6285   YZ=    -3.3328   ZZ=    27.2163
   Eigenvalues:    25.1474    30.6553    35.6469
     36  H    Isotropic =    31.1895   Anisotropy =     8.9479
   XX=    32.8094   YX=     1.1382   ZX=     4.0781
   XY=     0.6470   YY=    27.1537   ZY=     1.7605
   XZ=     3.1947   YZ=     1.2042   ZZ=    33.6054
   Eigenvalues:    26.8271    29.5866    37.1547
     37  C    Isotropic =   146.7767   Anisotropy =    23.3577
   XX=   135.5024   YX=    -5.5823   ZX=    -2.4845
   XY=    -1.8221   YY=   154.3491   ZY=     9.2955
   XZ=     3.8128   YZ=     9.7310   ZZ=   150.4786
   Eigenvalues:   134.3145   143.6671   162.3485
     38  C    Isotropic =    46.7875   Anisotropy =   175.0526
   XX=   -41.3565   YX=    54.9703   ZX=   -26.4482
   XY=    56.6360   YY=    21.8823   ZY=     5.9488
   XZ=   -28.0412   YZ=     5.0703   ZZ=   159.8368
   Eigenvalues:   -76.8092    53.6826   163.4893
     39  C    Isotropic =    59.7785   Anisotropy =   146.9915
   XX=   -12.2158   YX=    64.9870   ZX=   -23.0549
   XY=    60.6556   YY=    36.9140   ZY=     5.7074
   XZ=   -22.1495   YZ=     3.8678   ZZ=   154.6374
   Eigenvalues:   -57.2643    78.8271   157.7728
     40  H    Isotropic =    29.6931   Anisotropy =     5.3477
   XX=    30.0376   YX=    -0.4093   ZX=     2.1864
   XY=    -1.8495   YY=    29.8075   ZY=     3.8902
   XZ=     2.7253   YZ=     2.9594   ZZ=    29.2341
   Eigenvalues:    24.8001    31.0209    33.2582
     41  H    Isotropic =    29.4697   Anisotropy =     3.8982
   XX=    29.5893   YX=    -0.1420   ZX=    -1.6857
   XY=    -0.0215   YY=    28.5693   ZY=    -0.0535
   XZ=    -2.3766   YZ=    -1.5484   ZZ=    30.2503
   Eigenvalues:    27.5179    28.8225    32.0685
     42  H    Isotropic =    25.7602   Anisotropy =     5.8774
   XX=    24.4606   YX=     1.1234   ZX=    -0.0872
   XY=     2.5581   YY=    28.3571   ZY=     1.8533
   XZ=    -0.4795   YZ=     2.0853   ZZ=    24.4629
   Eigenvalues:    22.8576    24.7445    29.6785
     43  H    Isotropic =    26.6148   Anisotropy =     6.7193
   XX=    24.1948   YX=     3.4211   ZX=    -0.1251
   XY=     0.8307   YY=    30.0918   ZY=     1.2977
   XZ=    -0.2418   YZ=     1.5885   ZZ=    25.5580
   Eigenvalues:    23.3180    25.4322    31.0944
     44  H    Isotropic =    26.7340   Anisotropy =     7.3072
   XX=    24.3435   YX=     1.5844   ZX=    -0.1102
   XY=     4.0718   YY=    29.2456   ZY=     2.7530
   XZ=    -0.0438   YZ=     2.3197   ZZ=    26.6127
   Eigenvalues:    22.6680    25.9284    31.6054
 End of Minotr F.D. properties file   721 does not exist.
 End of Minotr F.D. properties file   722 does not exist.
 End of Minotr F.D. properties file   788 does not exist.

 **********************************************************************

            Population analysis using the SCF density.

 **********************************************************************

 Orbital symmetries:
       Occupied  (A) (A) (A) (A) (A) (A) (A) (A) (A) (A) (A) (A)
                 (A) (A) (A) (A) (A) (A) (A) (A) (A) (A) (A) (A)
                 (A) (A) (A) (A) (A) (A) (A) (A) (A) (A) (A) (A)
                 (A) (A) (A) (A) (A) (A) (A) (A) (A) (A) (A) (A)
                 (A) (A) (A) (A) (A) (A) (A) (A) (A) (A) (A) (A)
                 (A) (A) (A) (A) (A) (A) (A) (A) (A) (A) (A) (A)
                 (A) (A)
       Virtual   (A) (A) (A) (A) (A) (A) (A) (A) (A) (A) (A) (A)
                 (A) (A) (A) (A) (A) (A) (A) (A) (A) (A) (A) (A)
                 (A) (A) (A) (A) (A) (A) (A) (A) (A) (A) (A) (A)
                 (A) (A) (A) (A) (A) (A) (A) (A) (A) (A) (A) (A)
                 (A) (A) (A) (A) (A) (A) (A) (A) (A) (A) (A) (A)
                 (A) (A) (A) (A) (A) (A) (A) (A) (A) (A) (A) (A)
                 (A) (A) (A) (A) (A) (A) (A) (A) (A) (A) (A) (A)
                 (A) (A) (A) (A) (A) (A) (A) (A) (A) (A) (A) (A)
                 (A) (A) (A) (A) (A) (A) (A) (A) (A) (A) (A) (A)
                 (A) (A) (A) (A) (A) (A) (A) (A) (A) (A) (A) (A)
                 (A) (A) (A) (A) (A) (A) (A) (A) (A) (A) (A) (A)
                 (A) (A) (A) (A) (A) (A) (A) (A) (A) (A) (A) (A)
                 (A) (A) (A) (A) (A) (A) (A) (A) (A) (A) (A) (A)
                 (A) (A) (A) (A) (A) (A) (A) (A) (A) (A) (A) (A)
                 (A) (A) (A) (A) (A) (A) (A) (A) (A) (A) (A) (A)
                 (A) (A) (A) (A) (A) (A) (A) (A) (A) (A) (A) (A)
                 (A) (A) (A) (A) (A) (A) (A) (A) (A) (A) (A) (A)
                 (A) (A) (A) (A) (A) (A) (A) (A) (A) (A) (A) (A)
                 (A) (A) (A) (A) (A) (A) (A) (A) (A) (A) (A) (A)
                 (A) (A) (A) (A) (A) (A) (A) (A) (A) (A) (A) (A)
                 (A) (A) (A) (A) (A) (A) (A) (A) (A) (A) (A) (A)
                 (A) (A) (A) (A) (A) (A) (A) (A) (A) (A) (A) (A)
                 (A) (A) (A) (A) (A) (A) (A) (A) (A) (A) (A) (A)
                 (A) (A) (A) (A) (A) (A) (A) (A) (A) (A) (A) (A)
                 (A) (A) (A) (A) (A) (A) (A) (A) (A) (A) (A) (A)
                 (A) (A) (A) (A) (A) (A) (A) (A) (A) (A) (A) (A)
                 (A) (A) (A) (A) (A) (A) (A) (A) (A) (A) (A) (A)
                 (A) (A) (A) (A) (A) (A) (A) (A) (A) (A) (A) (A)
 The electronic state is 1-A.
 Alpha  occ. eigenvalues --  -66.26972 -19.26421 -19.21374 -19.19531 -10.37183
 Alpha  occ. eigenvalues --  -10.32240 -10.30804 -10.25292 -10.24931 -10.24874
 Alpha  occ. eigenvalues --  -10.24594 -10.23846 -10.23265 -10.22630 -10.21954
 Alpha  occ. eigenvalues --  -10.20809 -10.20586 -10.20422  -5.32804  -3.66651
 Alpha  occ. eigenvalues --   -3.66423  -3.66382  -1.13495  -1.04591  -1.04254
 Alpha  occ. eigenvalues --   -0.86069  -0.83586  -0.80928  -0.77874  -0.73982
 Alpha  occ. eigenvalues --   -0.72941  -0.72204  -0.70384  -0.69791  -0.66670
 Alpha  occ. eigenvalues --   -0.64374  -0.61773  -0.59080  -0.55875  -0.53555
 Alpha  occ. eigenvalues --   -0.52815  -0.50339  -0.49366  -0.49079  -0.47900
 Alpha  occ. eigenvalues --   -0.46485  -0.45383  -0.45005  -0.44273  -0.43706
 Alpha  occ. eigenvalues --   -0.42624  -0.42533  -0.42114  -0.41945  -0.41266
 Alpha  occ. eigenvalues --   -0.41089  -0.40307  -0.39710  -0.39438  -0.38873
 Alpha  occ. eigenvalues --   -0.38566  -0.37916  -0.36899  -0.36517  -0.35992
 Alpha  occ. eigenvalues --   -0.35651  -0.34504  -0.33883  -0.31663  -0.31034
 Alpha  occ. eigenvalues --   -0.30303  -0.29577  -0.28385  -0.27353
 Alpha virt. eigenvalues --    0.00094   0.00452   0.04073   0.05656   0.06066
 Alpha virt. eigenvalues --    0.06594   0.07191   0.07856   0.08412   0.08716
 Alpha virt. eigenvalues --    0.09145   0.09988   0.10664   0.10842   0.11209
 Alpha virt. eigenvalues --    0.11812   0.12497   0.13019   0.13381   0.13778
 Alpha virt. eigenvalues --    0.13908   0.14190   0.14697   0.15302   0.15743
 Alpha virt. eigenvalues --    0.16191   0.16843   0.17370   0.17535   0.17834
 Alpha virt. eigenvalues --    0.19064   0.19419   0.19543   0.21134   0.21329
 Alpha virt. eigenvalues --    0.22133   0.22731   0.23496   0.23863   0.24439
 Alpha virt. eigenvalues --    0.25429   0.26429   0.26531   0.27051   0.27700
 Alpha virt. eigenvalues --    0.29244   0.29738   0.31650   0.31814   0.32174
 Alpha virt. eigenvalues --    0.33086   0.33393   0.34192   0.34447   0.35497
 Alpha virt. eigenvalues --    0.36218   0.37930   0.38327   0.39146   0.40287
 Alpha virt. eigenvalues --    0.41017   0.42693   0.43505   0.43591   0.44123
 Alpha virt. eigenvalues --    0.45097   0.45715   0.46880   0.47041   0.48196
 Alpha virt. eigenvalues --    0.49980   0.50749   0.50968   0.52068   0.52947
 Alpha virt. eigenvalues --    0.53965   0.54383   0.54748   0.55124   0.56520
 Alpha virt. eigenvalues --    0.56806   0.57590   0.57708   0.58071   0.59109
 Alpha virt. eigenvalues --    0.59728   0.60020   0.60321   0.60525   0.60981
 Alpha virt. eigenvalues --    0.61304   0.62108   0.62280   0.62744   0.63050
 Alpha virt. eigenvalues --    0.63135   0.63457   0.64101   0.65055   0.65615
 Alpha virt. eigenvalues --    0.65723   0.66594   0.67967   0.68182   0.68513
 Alpha virt. eigenvalues --    0.69039   0.69890   0.70169   0.70560   0.71506
 Alpha virt. eigenvalues --    0.72362   0.72590   0.73191   0.74013   0.74239
 Alpha virt. eigenvalues --    0.75294   0.76735   0.78478   0.80048   0.80249
 Alpha virt. eigenvalues --    0.82917   0.83692   0.84940   0.86504   0.88548
 Alpha virt. eigenvalues --    0.89488   0.91433   0.91786   0.92791   0.94100
 Alpha virt. eigenvalues --    0.95964   0.97079   0.98766   0.98936   0.99604
 Alpha virt. eigenvalues --    1.02795   1.04063   1.07367   1.08277   1.09520
 Alpha virt. eigenvalues --    1.12882   1.14275   1.16431   1.18837   1.21134
 Alpha virt. eigenvalues --    1.22048   1.23148   1.24292   1.24773   1.26241
 Alpha virt. eigenvalues --    1.28446   1.29972   1.30829   1.32019   1.32893
 Alpha virt. eigenvalues --    1.34817   1.38448   1.39640   1.40138   1.41207
 Alpha virt. eigenvalues --    1.42267   1.43311   1.45897   1.47267   1.48901
 Alpha virt. eigenvalues --    1.50159   1.50708   1.51782   1.52646   1.53401
 Alpha virt. eigenvalues --    1.54459   1.54680   1.56353   1.57447   1.57935
 Alpha virt. eigenvalues --    1.58601   1.59288   1.59572   1.60317   1.61146
 Alpha virt. eigenvalues --    1.61530   1.61997   1.62229   1.63413   1.63946
 Alpha virt. eigenvalues --    1.64619   1.65586   1.66514   1.68384   1.69227
 Alpha virt. eigenvalues --    1.69821   1.72047   1.72569   1.74208   1.75120
 Alpha virt. eigenvalues --    1.76212   1.76868   1.78224   1.79473   1.80845
 Alpha virt. eigenvalues --    1.81125   1.82009   1.83764   1.87499   1.87927
 Alpha virt. eigenvalues --    1.89313   1.90040   1.93782   1.96367   1.97350
 Alpha virt. eigenvalues --    1.98420   2.04490   2.05630   2.07063   2.13510
 Alpha virt. eigenvalues --    2.15705   2.17836   2.20264   2.23317   2.25705
 Alpha virt. eigenvalues --    2.27189   2.29429   2.33285   2.37194   2.40737
 Alpha virt. eigenvalues --    2.41316   2.41547   2.42382   2.42939   2.43661
 Alpha virt. eigenvalues --    2.44200   2.45197   2.45593   2.46711   2.47394
 Alpha virt. eigenvalues --    2.47913   2.48838   2.49859   2.50774   2.51150
 Alpha virt. eigenvalues --    2.52977   2.53418   2.56077   2.58908   2.59957
 Alpha virt. eigenvalues --    2.60488   2.62606   2.66333   2.72976   2.79900
 Alpha virt. eigenvalues --    2.82213   2.87555   2.89341   2.90658   2.91269
 Alpha virt. eigenvalues --    2.92131   2.94046   2.94572   2.96486   2.97093
 Alpha virt. eigenvalues --    2.99616   3.00067   3.01478   3.03766   3.04647
 Alpha virt. eigenvalues --    3.07720   3.10716   3.11722   3.12227   3.14779
 Alpha virt. eigenvalues --    3.15182   3.16890   3.17744   3.18422   3.20018
 Alpha virt. eigenvalues --    3.22348   3.22946   3.23427   3.23875   3.24703
 Alpha virt. eigenvalues --    3.27291   3.27928   3.28441   3.28883   3.31125
 Alpha virt. eigenvalues --    3.33242   3.34716   3.38118   3.40192   3.41163
 Alpha virt. eigenvalues --    3.43772   3.51289   3.57776   3.61160   3.62564
 Alpha virt. eigenvalues --    3.77739   3.88096   3.90580   3.97655   4.05291
 Alpha virt. eigenvalues --    4.10658   4.11121   4.16381   4.23453   4.24789
 Alpha virt. eigenvalues --    4.94208   5.00673   5.02789   5.08653   5.16350
 Alpha virt. eigenvalues --    5.23538   5.52167   5.55035   5.77519   5.87286
 Alpha virt. eigenvalues --   11.51339  11.54418  11.59118  23.42396  23.49231
 Alpha virt. eigenvalues --   23.54459  23.55202  23.58646  23.59981  23.71116
 Alpha virt. eigenvalues --   23.73772  23.78383  23.80092  23.82017  23.84490
 Alpha virt. eigenvalues --   23.90196  24.26654  49.98778  50.04436  50.12545
 Alpha virt. eigenvalues --  141.29601
          Condensed to atoms (all electrons):
               1          2          3          4          5          6
     1  C    5.241372   0.242520  -0.043095  -0.005653  -0.048277   0.381974
     2  C    0.242520   5.588851   0.282089  -0.098730  -0.009810  -0.039697
     3  C   -0.043095   0.282089   5.237281   0.236342  -0.019559  -0.012126
     4  C   -0.005653  -0.098730   0.236342   5.844829   0.241374   0.002103
     5  C   -0.048277  -0.009810  -0.019559   0.241374   4.384460  -0.000768
     6  H    0.381974  -0.039697  -0.012126   0.002103  -0.000768   0.489300
     7  H   -0.045777   0.410774  -0.059869  -0.004784   0.001035   0.006939
     8  H    0.001443  -0.007468  -0.031868   0.373571  -0.025134  -0.000025
     9  H   -0.000759   0.008119  -0.030058   0.355214  -0.027656   0.000226
    10  O    0.217085  -0.032975   0.006227  -0.111807   0.350269  -0.034059
    11  O    0.002049  -0.000162   0.004440  -0.101765   0.656894  -0.000121
    12  C    0.316931  -0.064279   0.008251  -0.002297   0.000577  -0.051183
    13  C   -0.074381   0.007762  -0.000178   0.000062   0.000136  -0.004906
    14  C   -0.069010   0.306168  -0.061268   0.007367   0.000111  -0.002681
    15  O    0.004778  -0.064071   0.213218  -0.028952   0.001651  -0.000063
    16  Si   0.000279   0.001123  -0.043832  -0.009811   0.001678  -0.000147
    17  C    0.000006  -0.000149  -0.000252  -0.000203   0.000006   0.000000
    18  C    0.000010  -0.000272   0.000230  -0.003751  -0.000232   0.000000
    19  C   -0.000002  -0.000025   0.002674  -0.000395  -0.000005   0.000000
    20  H    0.000000   0.000008  -0.000108   0.000399  -0.000002   0.000000
    21  H    0.000004  -0.000071   0.000742  -0.001413  -0.000160  -0.000001
    22  H    0.000002  -0.000103   0.000247   0.000337  -0.000111   0.000000
    23  H   -0.000001   0.000010  -0.000024   0.000010  -0.000002   0.000000
    24  H   -0.000001   0.000037  -0.000129  -0.000018   0.000000   0.000000
    25  H    0.000000   0.000001  -0.000072   0.000000   0.000000   0.000000
    26  H    0.000002  -0.000033   0.000587   0.000012   0.000005   0.000000
    27  H    0.000000   0.000002  -0.000077  -0.000001   0.000000   0.000000
    28  H    0.000001   0.000016   0.000296  -0.000023   0.000001   0.000000
    29  H   -0.006116  -0.036055   0.007745  -0.000316   0.000009  -0.000975
    30  H   -0.005799  -0.037392  -0.011484  -0.000041   0.000001   0.005629
    31  H    0.006782  -0.035455  -0.005972   0.000308  -0.000056   0.000088
    32  H   -0.042484  -0.007092  -0.001096   0.000267   0.000053   0.007860
    33  H   -0.039902  -0.003597   0.000007   0.000087   0.000034   0.000291
    34  H    0.008396  -0.000255   0.000012   0.000000  -0.000004  -0.000250
    35  H   -0.011614   0.000451  -0.000049   0.000381   0.000840   0.000183
    36  H   -0.004381  -0.000181  -0.000008  -0.000004  -0.000092   0.005295
    37  C   -0.000044  -0.084555   0.260776  -0.068623  -0.003213   0.002063
    38  C   -0.000351   0.006252  -0.055702  -0.011752  -0.003671   0.000077
    39  C   -0.000013   0.000191  -0.005471   0.000842   0.000595   0.000157
    40  H    0.000649  -0.009153  -0.030441   0.001120  -0.000663   0.002203
    41  H    0.000421  -0.005213  -0.039742   0.004224  -0.000018  -0.000179
    42  H    0.000058  -0.000638   0.003356  -0.001786   0.000195   0.000011
    43  H   -0.000003   0.000034  -0.000268   0.000029   0.000073  -0.000002
    44  H   -0.000041  -0.000140  -0.000003   0.000323   0.001182  -0.000009
               7          8          9         10         11         12
     1  C   -0.045777   0.001443  -0.000759   0.217085   0.002049   0.316931
     2  C    0.410774  -0.007468   0.008119  -0.032975  -0.000162  -0.064279
     3  C   -0.059869  -0.031868  -0.030058   0.006227   0.004440   0.008251
     4  C   -0.004784   0.373571   0.355214  -0.111807  -0.101765  -0.002297
     5  C    0.001035  -0.025134  -0.027656   0.350269   0.656894   0.000577
     6  H    0.006939  -0.000025   0.000226  -0.034059  -0.000121  -0.051183
     7  H    0.470137   0.002937   0.000149   0.001726  -0.000065  -0.008198
     8  H    0.002937   0.408034  -0.015874   0.000364   0.000247  -0.000029
     9  H    0.000149  -0.015874   0.418278   0.005467   0.014704   0.000037
    10  O    0.001726   0.000364   0.005467   8.024266  -0.070502  -0.051657
    11  O   -0.000065   0.000247   0.014704  -0.070502   7.888660  -0.000118
    12  C   -0.008198  -0.000029   0.000037  -0.051657  -0.000118   5.322826
    13  C    0.000204   0.000005  -0.000004  -0.004958  -0.000006   0.314900
    14  C   -0.039445  -0.000043  -0.000152   0.003122   0.000004  -0.004552
    15  O    0.004118  -0.001183  -0.002197  -0.000006  -0.000021  -0.000122
    16  Si  -0.000144  -0.000500  -0.004101  -0.000145  -0.000372   0.000011
    17  C    0.000045   0.000049  -0.000092   0.000000   0.000000   0.000000
    18  C   -0.000027   0.000233  -0.003738  -0.000002  -0.000027   0.000000
    19  C   -0.000072  -0.000118   0.000003   0.000000   0.000000   0.000000
    20  H    0.000000  -0.000031   0.000468   0.000000  -0.000001   0.000000
    21  H   -0.000005  -0.000068   0.001352  -0.000004  -0.000086   0.000000
    22  H   -0.000009   0.000690  -0.001490  -0.000001  -0.000015   0.000000
    23  H   -0.000019  -0.000006   0.000000   0.000000   0.000000   0.000000
    24  H   -0.000020  -0.000014  -0.000008   0.000000   0.000000   0.000000
    25  H   -0.000001  -0.000001  -0.000001   0.000000   0.000000   0.000000
    26  H    0.000005   0.000000  -0.000025   0.000000   0.000000   0.000000
    27  H    0.000000   0.000000  -0.000002   0.000000   0.000000   0.000000
    28  H    0.000006   0.000001  -0.000013   0.000000   0.000000   0.000000
    29  H   -0.007093  -0.000033   0.000015   0.000017   0.000000   0.002253
    30  H    0.007023  -0.000017   0.000020   0.000003   0.000001   0.000081
    31  H   -0.002816   0.000042  -0.000023  -0.000108   0.000000  -0.000340
    32  H    0.005019   0.000056   0.000044   0.002850  -0.000151   0.387972
    33  H    0.000080  -0.000010  -0.000001   0.003488   0.000005   0.387148
    34  H   -0.000046  -0.000001   0.000000  -0.000171   0.000000  -0.038343
    35  H    0.000000  -0.000013  -0.000009   0.011977   0.000196  -0.037712
    36  H    0.000013   0.000000   0.000000  -0.000438  -0.000003  -0.043158
    37  C    0.008455   0.005655  -0.006223  -0.000629  -0.000105   0.000218
    38  C   -0.000189   0.000619   0.002756  -0.000193  -0.000547  -0.000008
    39  C   -0.000013   0.000078   0.001704  -0.000359   0.000508   0.000000
    40  H    0.000213  -0.000164  -0.000199   0.001654  -0.000167   0.000951
    41  H   -0.000330  -0.000093   0.000122   0.000052  -0.000007  -0.000031
    42  H    0.000033   0.000080  -0.001381  -0.000010   0.000062   0.000000
    43  H   -0.000001  -0.000007   0.000196  -0.000004   0.000081   0.000000
    44  H    0.000006   0.000019  -0.000340   0.000399   0.000600  -0.000002
              13         14         15         16         17         18
     1  C   -0.074381  -0.069010   0.004778   0.000279   0.000006   0.000010
     2  C    0.007762   0.306168  -0.064071   0.001123  -0.000149  -0.000272
     3  C   -0.000178  -0.061268   0.213218  -0.043832  -0.000252   0.000230
     4  C    0.000062   0.007367  -0.028952  -0.009811  -0.000203  -0.003751
     5  C    0.000136   0.000111   0.001651   0.001678   0.000006  -0.000232
     6  H   -0.004906  -0.002681  -0.000063  -0.000147   0.000000   0.000000
     7  H    0.000204  -0.039445   0.004118  -0.000144   0.000045  -0.000027
     8  H    0.000005  -0.000043  -0.001183  -0.000500   0.000049   0.000233
     9  H   -0.000004  -0.000152  -0.002197  -0.004101  -0.000092  -0.003738
    10  O   -0.004958   0.003122  -0.000006  -0.000145   0.000000  -0.000002
    11  O   -0.000006   0.000004  -0.000021  -0.000372   0.000000  -0.000027
    12  C    0.314900  -0.004552  -0.000122   0.000011   0.000000   0.000000
    13  C    5.343472  -0.000361   0.000001   0.000002   0.000000   0.000000
    14  C   -0.000361   5.386397  -0.006081   0.000365  -0.000023   0.000002
    15  O    0.000001  -0.006081   8.246348   0.362640  -0.025954  -0.022383
    16  Si   0.000002   0.000365   0.362640  11.533293   0.312435   0.317768
    17  C    0.000000  -0.000023  -0.025954   0.312435   5.793164  -0.054107
    18  C    0.000000   0.000002  -0.022383   0.317768  -0.054107   5.807577
    19  C    0.000000  -0.000007  -0.023633   0.333152  -0.057595  -0.053222
    20  H    0.000000   0.000000   0.000728  -0.009794   0.000124   0.366280
    21  H    0.000000   0.000001  -0.000545  -0.027054  -0.002126   0.361643
    22  H    0.000000   0.000003  -0.002032  -0.025278   0.002274   0.368332
    23  H    0.000000   0.000003  -0.001509  -0.028175   0.002536  -0.000410
    24  H    0.000000   0.000008  -0.001330  -0.026062  -0.000806   0.002668
    25  H    0.000000   0.000000   0.000939  -0.012603   0.000461  -0.000286
    26  H    0.000000  -0.000008  -0.001409  -0.030322   0.365009  -0.001966
    27  H    0.000000   0.000000   0.000920  -0.010926   0.363844   0.000578
    28  H    0.000000   0.000048  -0.002048  -0.025774   0.371254   0.002346
    29  H   -0.000090   0.390070  -0.000020   0.000085  -0.000005   0.000000
    30  H   -0.000049   0.383748   0.000237  -0.000341   0.000026   0.000002
    31  H    0.000022   0.385284   0.007962   0.001292   0.000160   0.000027
    32  H   -0.043342   0.001384  -0.000030  -0.000035   0.000000   0.000000
    33  H   -0.039642  -0.000136  -0.000008  -0.000003   0.000000   0.000000
    34  H    0.392442  -0.000002   0.000000   0.000000   0.000000   0.000000
    35  H    0.385540  -0.000090   0.000000   0.000001   0.000000   0.000000
    36  H    0.386085   0.000126   0.000000   0.000000   0.000000   0.000000
    37  C    0.000007  -0.012119  -0.043533  -0.021751   0.000251  -0.000512
    38  C   -0.000001   0.000312   0.000807   0.007543  -0.001621  -0.003404
    39  C    0.000000  -0.000034   0.000125   0.000001   0.000254  -0.000141
    40  H   -0.000041   0.001373   0.003118   0.002302  -0.000077  -0.000050
    41  H    0.000001   0.000328  -0.003030  -0.002925  -0.000113   0.000013
    42  H    0.000000  -0.000001  -0.001129   0.002775   0.002530   0.001622
    43  H    0.000000   0.000000   0.000013   0.000040  -0.000007   0.000003
    44  H    0.000002  -0.000023  -0.000002   0.000119  -0.000004  -0.000008
              19         20         21         22         23         24
     1  C   -0.000002   0.000000   0.000004   0.000002  -0.000001  -0.000001
     2  C   -0.000025   0.000008  -0.000071  -0.000103   0.000010   0.000037
     3  C    0.002674  -0.000108   0.000742   0.000247  -0.000024  -0.000129
     4  C   -0.000395   0.000399  -0.001413   0.000337   0.000010  -0.000018
     5  C   -0.000005  -0.000002  -0.000160  -0.000111  -0.000002   0.000000
     6  H    0.000000   0.000000  -0.000001   0.000000   0.000000   0.000000
     7  H   -0.000072   0.000000  -0.000005  -0.000009  -0.000019  -0.000020
     8  H   -0.000118  -0.000031  -0.000068   0.000690  -0.000006  -0.000014
     9  H    0.000003   0.000468   0.001352  -0.001490   0.000000  -0.000008
    10  O    0.000000   0.000000  -0.000004  -0.000001   0.000000   0.000000
    11  O    0.000000  -0.000001  -0.000086  -0.000015   0.000000   0.000000
    12  C    0.000000   0.000000   0.000000   0.000000   0.000000   0.000000
    13  C    0.000000   0.000000   0.000000   0.000000   0.000000   0.000000
    14  C   -0.000007   0.000000   0.000001   0.000003   0.000003   0.000008
    15  O   -0.023633   0.000728  -0.000545  -0.002032  -0.001509  -0.001330
    16  Si   0.333152  -0.009794  -0.027054  -0.025278  -0.028175  -0.026062
    17  C   -0.057595   0.000124  -0.002126   0.002274   0.002536  -0.000806
    18  C   -0.053222   0.366280   0.361643   0.368332  -0.000410   0.002668
    19  C    5.731161  -0.001210   0.003185  -0.000561   0.369468   0.370187
    20  H   -0.001210   0.434250  -0.019831  -0.020188  -0.000023  -0.000036
    21  H    0.003185  -0.019831   0.444673  -0.019058  -0.000077  -0.000097
    22  H   -0.000561  -0.020188  -0.019058   0.446423   0.001263  -0.000060
    23  H    0.369468  -0.000023  -0.000077   0.001263   0.460676  -0.018246
    24  H    0.370187  -0.000036  -0.000097  -0.000060  -0.018246   0.459055
    25  H    0.364354   0.000661  -0.000080  -0.000055  -0.020682  -0.021227
    26  H    0.002914   0.000034  -0.000018  -0.000034  -0.000120  -0.000108
    27  H   -0.000621   0.000368   0.000172  -0.000019   0.000016  -0.000073
    28  H   -0.001133  -0.000062   0.000005  -0.000093  -0.000071   0.001290
    29  H    0.000000   0.000000   0.000000   0.000000   0.000001   0.000002
    30  H    0.000000   0.000000   0.000000   0.000000   0.000000  -0.000003
    31  H    0.000032   0.000000   0.000000   0.000001  -0.000012   0.000106
    32  H    0.000000   0.000000   0.000000   0.000000   0.000000   0.000000
    33  H    0.000000   0.000000   0.000000   0.000000   0.000000   0.000000
    34  H    0.000000   0.000000   0.000000   0.000000   0.000000   0.000000
    35  H    0.000000   0.000000   0.000000   0.000000   0.000000   0.000000
    36  H    0.000000   0.000000   0.000000   0.000000   0.000000   0.000000
    37  C   -0.000238   0.000013  -0.000642   0.000117  -0.000021  -0.000040
    38  C    0.000008   0.000056   0.003254  -0.000027   0.000003   0.000005
    39  C    0.000000  -0.000004   0.000854  -0.000032   0.000000   0.000000
    40  H    0.000008   0.000000   0.000012   0.000015   0.000002   0.000001
    41  H   -0.000079   0.000005   0.000160  -0.000012  -0.000004  -0.000015
    42  H   -0.000007  -0.000004   0.003319   0.000014   0.000001   0.000000
    43  H    0.000000  -0.000001   0.000055   0.000000   0.000000   0.000000
    44  H    0.000000   0.000000  -0.000006   0.000001   0.000000   0.000000
              25         26         27         28         29         30
     1  C    0.000000   0.000002   0.000000   0.000001  -0.006116  -0.005799
     2  C    0.000001  -0.000033   0.000002   0.000016  -0.036055  -0.037392
     3  C   -0.000072   0.000587  -0.000077   0.000296   0.007745  -0.011484
     4  C    0.000000   0.000012  -0.000001  -0.000023  -0.000316  -0.000041
     5  C    0.000000   0.000005   0.000000   0.000001   0.000009   0.000001
     6  H    0.000000   0.000000   0.000000   0.000000  -0.000975   0.005629
     7  H   -0.000001   0.000005   0.000000   0.000006  -0.007093   0.007023
     8  H   -0.000001   0.000000   0.000000   0.000001  -0.000033  -0.000017
     9  H   -0.000001  -0.000025  -0.000002  -0.000013   0.000015   0.000020
    10  O    0.000000   0.000000   0.000000   0.000000   0.000017   0.000003
    11  O    0.000000   0.000000   0.000000   0.000000   0.000000   0.000001
    12  C    0.000000   0.000000   0.000000   0.000000   0.002253   0.000081
    13  C    0.000000   0.000000   0.000000   0.000000  -0.000090  -0.000049
    14  C    0.000000  -0.000008   0.000000   0.000048   0.390070   0.383748
    15  O    0.000939  -0.001409   0.000920  -0.002048  -0.000020   0.000237
    16  Si  -0.012603  -0.030322  -0.010926  -0.025774   0.000085  -0.000341
    17  C    0.000461   0.365009   0.363844   0.371254  -0.000005   0.000026
    18  C   -0.000286  -0.001966   0.000578   0.002346   0.000000   0.000002
    19  C    0.364354   0.002914  -0.000621  -0.001133   0.000000   0.000000
    20  H    0.000661   0.000034   0.000368  -0.000062   0.000000   0.000000
    21  H   -0.000080  -0.000018   0.000172   0.000005   0.000000   0.000000
    22  H   -0.000055  -0.000034  -0.000019  -0.000093   0.000000   0.000000
    23  H   -0.020682  -0.000120   0.000016  -0.000071   0.000001   0.000000
    24  H   -0.021227  -0.000108  -0.000073   0.001290   0.000002  -0.000003
    25  H    0.454701  -0.000121   0.000822  -0.000043   0.000000   0.000000
    26  H   -0.000121   0.449056  -0.021379  -0.018814  -0.000001  -0.000003
    27  H    0.000822  -0.021379   0.448011  -0.021559   0.000000  -0.000001
    28  H   -0.000043  -0.018814  -0.021559   0.451924  -0.000005   0.000018
    29  H    0.000000  -0.000001   0.000000  -0.000005   0.461469  -0.027182
    30  H    0.000000  -0.000003  -0.000001   0.000018  -0.027182   0.474163
    31  H   -0.000005  -0.000004  -0.000003   0.000219  -0.025229  -0.023861
    32  H    0.000000   0.000000   0.000000   0.000000   0.000161   0.000013
    33  H    0.000000   0.000000   0.000000   0.000000   0.003110   0.000190
    34  H    0.000000   0.000000   0.000000   0.000000   0.000012   0.000000
    35  H    0.000000   0.000000   0.000000   0.000000  -0.000022   0.000004
    36  H    0.000000   0.000000   0.000000   0.000000   0.000071  -0.000023
    37  C    0.000000  -0.000802   0.000195  -0.000039  -0.000559   0.005168
    38  C    0.000002   0.000625  -0.000052   0.000205   0.000006   0.000338
    39  C    0.000000   0.000549  -0.000009  -0.000002   0.000000  -0.000015
    40  H    0.000000  -0.000017  -0.000003  -0.000043  -0.000134   0.001381
    41  H    0.000005   0.000289   0.000202   0.000074   0.000171  -0.001152
    42  H    0.000007   0.004735  -0.000087  -0.000098  -0.000002   0.000010
    43  H    0.000000  -0.000025   0.000000  -0.000001   0.000000   0.000000
    44  H    0.000000  -0.000001   0.000000   0.000001   0.000000  -0.000010
              31         32         33         34         35         36
     1  C    0.006782  -0.042484  -0.039902   0.008396  -0.011614  -0.004381
     2  C   -0.035455  -0.007092  -0.003597  -0.000255   0.000451  -0.000181
     3  C   -0.005972  -0.001096   0.000007   0.000012  -0.000049  -0.000008
     4  C    0.000308   0.000267   0.000087   0.000000   0.000381  -0.000004
     5  C   -0.000056   0.000053   0.000034  -0.000004   0.000840  -0.000092
     6  H    0.000088   0.007860   0.000291  -0.000250   0.000183   0.005295
     7  H   -0.002816   0.005019   0.000080  -0.000046   0.000000   0.000013
     8  H    0.000042   0.000056  -0.000010  -0.000001  -0.000013   0.000000
     9  H   -0.000023   0.000044  -0.000001   0.000000  -0.000009   0.000000
    10  O   -0.000108   0.002850   0.003488  -0.000171   0.011977  -0.000438
    11  O    0.000000  -0.000151   0.000005   0.000000   0.000196  -0.000003
    12  C   -0.000340   0.387972   0.387148  -0.038343  -0.037712  -0.043158
    13  C    0.000022  -0.043342  -0.039642   0.392442   0.385540   0.386085
    14  C    0.385284   0.001384  -0.000136  -0.000002  -0.000090   0.000126
    15  O    0.007962  -0.000030  -0.000008   0.000000   0.000000   0.000000
    16  Si   0.001292  -0.000035  -0.000003   0.000000   0.000001   0.000000
    17  C    0.000160   0.000000   0.000000   0.000000   0.000000   0.000000
    18  C    0.000027   0.000000   0.000000   0.000000   0.000000   0.000000
    19  C    0.000032   0.000000   0.000000   0.000000   0.000000   0.000000
    20  H    0.000000   0.000000   0.000000   0.000000   0.000000   0.000000
    21  H    0.000000   0.000000   0.000000   0.000000   0.000000   0.000000
    22  H    0.000001   0.000000   0.000000   0.000000   0.000000   0.000000
    23  H   -0.000012   0.000000   0.000000   0.000000   0.000000   0.000000
    24  H    0.000106   0.000000   0.000000   0.000000   0.000000   0.000000
    25  H   -0.000005   0.000000   0.000000   0.000000   0.000000   0.000000
    26  H   -0.000004   0.000000   0.000000   0.000000   0.000000   0.000000
    27  H   -0.000003   0.000000   0.000000   0.000000   0.000000   0.000000
    28  H    0.000219   0.000000   0.000000   0.000000   0.000000   0.000000
    29  H   -0.025229   0.000161   0.003110   0.000012  -0.000022   0.000071
    30  H   -0.023861   0.000013   0.000190   0.000000   0.000004  -0.000023
    31  H    0.430550  -0.000061   0.000214  -0.000002   0.000004  -0.000005
    32  H   -0.000061   0.483308  -0.024784  -0.004552  -0.005068   0.007409
    33  H    0.000214  -0.024784   0.474820  -0.005551   0.007191  -0.004578
    34  H   -0.000002  -0.004552  -0.005551   0.473350  -0.026251  -0.026911
    35  H    0.000004  -0.005068   0.007191  -0.026251   0.462508  -0.027239
    36  H   -0.000005   0.007409  -0.004578  -0.026911  -0.027239   0.486083
    37  C    0.000316  -0.000032   0.000015   0.000000   0.000001  -0.000019
    38  C   -0.000086   0.000001   0.000000   0.000000   0.000000   0.000000
    39  C    0.000000   0.000001   0.000000   0.000000   0.000000   0.000000
    40  H   -0.000083  -0.000028  -0.000044   0.000002  -0.000011  -0.000040
    41  H    0.000272   0.000000  -0.000004   0.000000   0.000000   0.000001
    42  H    0.000018   0.000000   0.000000   0.000000   0.000000   0.000000
    43  H    0.000000   0.000000   0.000000   0.000000   0.000000   0.000000
    44  H    0.000002   0.000000   0.000000   0.000000   0.000004   0.000000
              37         38         39         40         41         42
     1  C   -0.000044  -0.000351  -0.000013   0.000649   0.000421   0.000058
     2  C   -0.084555   0.006252   0.000191  -0.009153  -0.005213  -0.000638
     3  C    0.260776  -0.055702  -0.005471  -0.030441  -0.039742   0.003356
     4  C   -0.068623  -0.011752   0.000842   0.001120   0.004224  -0.001786
     5  C   -0.003213  -0.003671   0.000595  -0.000663  -0.000018   0.000195
     6  H    0.002063   0.000077   0.000157   0.002203  -0.000179   0.000011
     7  H    0.008455  -0.000189  -0.000013   0.000213  -0.000330   0.000033
     8  H    0.005655   0.000619   0.000078  -0.000164  -0.000093   0.000080
     9  H   -0.006223   0.002756   0.001704  -0.000199   0.000122  -0.001381
    10  O   -0.000629  -0.000193  -0.000359   0.001654   0.000052  -0.000010
    11  O   -0.000105  -0.000547   0.000508  -0.000167  -0.000007   0.000062
    12  C    0.000218  -0.000008   0.000000   0.000951  -0.000031   0.000000
    13  C    0.000007  -0.000001   0.000000  -0.000041   0.000001   0.000000
    14  C   -0.012119   0.000312  -0.000034   0.001373   0.000328  -0.000001
    15  O   -0.043533   0.000807   0.000125   0.003118  -0.003030  -0.001129
    16  Si  -0.021751   0.007543   0.000001   0.002302  -0.002925   0.002775
    17  C    0.000251  -0.001621   0.000254  -0.000077  -0.000113   0.002530
    18  C   -0.000512  -0.003404  -0.000141  -0.000050   0.000013   0.001622
    19  C   -0.000238   0.000008   0.000000   0.000008  -0.000079  -0.000007
    20  H    0.000013   0.000056  -0.000004   0.000000   0.000005  -0.000004
    21  H   -0.000642   0.003254   0.000854   0.000012   0.000160   0.003319
    22  H    0.000117  -0.000027  -0.000032   0.000015  -0.000012   0.000014
    23  H   -0.000021   0.000003   0.000000   0.000002  -0.000004   0.000001
    24  H   -0.000040   0.000005   0.000000   0.000001  -0.000015   0.000000
    25  H    0.000000   0.000002   0.000000   0.000000   0.000005   0.000007
    26  H   -0.000802   0.000625   0.000549  -0.000017   0.000289   0.004735
    27  H    0.000195  -0.000052  -0.000009  -0.000003   0.000202  -0.000087
    28  H   -0.000039   0.000205  -0.000002  -0.000043   0.000074  -0.000098
    29  H   -0.000559   0.000006   0.000000  -0.000134   0.000171  -0.000002
    30  H    0.005168   0.000338  -0.000015   0.001381  -0.001152   0.000010
    31  H    0.000316  -0.000086   0.000000  -0.000083   0.000272   0.000018
    32  H   -0.000032   0.000001   0.000001  -0.000028   0.000000   0.000000
    33  H    0.000015   0.000000   0.000000  -0.000044  -0.000004   0.000000
    34  H    0.000000   0.000000   0.000000   0.000002   0.000000   0.000000
    35  H    0.000001   0.000000   0.000000  -0.000011   0.000000   0.000000
    36  H   -0.000019   0.000000   0.000000  -0.000040   0.000001   0.000000
    37  C    5.494338   0.329133  -0.056030   0.386400   0.403084  -0.050684
    38  C    0.329133   5.092700   0.623616  -0.048194  -0.043467   0.390875
    39  C   -0.056030   0.623616   5.132598  -0.001646   0.001925  -0.037820
    40  H    0.386400  -0.048194  -0.001646   0.439708  -0.024218   0.004589
    41  H    0.403084  -0.043467   0.001925  -0.024218   0.435465  -0.005125
    42  H   -0.050684   0.390875  -0.037820   0.004589  -0.005125   0.465908
    43  H    0.006129  -0.034988   0.389170   0.000233  -0.000339  -0.008479
    44  H   -0.008035  -0.043304   0.390323   0.004117   0.000066   0.005950
              43         44
     1  C   -0.000003  -0.000041
     2  C    0.000034  -0.000140
     3  C   -0.000268  -0.000003
     4  C    0.000029   0.000323
     5  C    0.000073   0.001182
     6  H   -0.000002  -0.000009
     7  H   -0.000001   0.000006
     8  H   -0.000007   0.000019
     9  H    0.000196  -0.000340
    10  O   -0.000004   0.000399
    11  O    0.000081   0.000600
    12  C    0.000000  -0.000002
    13  C    0.000000   0.000002
    14  C    0.000000  -0.000023
    15  O    0.000013  -0.000002
    16  Si   0.000040   0.000119
    17  C   -0.000007  -0.000004
    18  C    0.000003  -0.000008
    19  C    0.000000   0.000000
    20  H   -0.000001   0.000000
    21  H    0.000055  -0.000006
    22  H    0.000000   0.000001
    23  H    0.000000   0.000000
    24  H    0.000000   0.000000
    25  H    0.000000   0.000000
    26  H   -0.000025  -0.000001
    27  H    0.000000   0.000000
    28  H   -0.000001   0.000001
    29  H    0.000000   0.000000
    30  H    0.000000  -0.000010
    31  H    0.000000   0.000002
    32  H    0.000000   0.000000
    33  H    0.000000   0.000000
    34  H    0.000000   0.000000
    35  H    0.000000   0.000004
    36  H    0.000000   0.000000
    37  C    0.006129  -0.008035
    38  C   -0.034988  -0.043304
    39  C    0.389170   0.390323
    40  H    0.000233   0.004117
    41  H   -0.000339   0.000066
    42  H   -0.008479   0.005950
    43  H    0.450731  -0.032216
    44  H   -0.032216   0.452880
 Mulliken charges:
               1
     1  C   -0.027056
     2  C   -0.316837
     3  C    0.188231
     4  C   -0.617075
     5  C    0.498253
     6  H    0.242791
     7  H    0.250009
     8  H    0.288578
     9  H    0.285470
    10  O   -0.320940
    11  O   -0.394209
    12  C   -0.440127
    13  C   -0.662685
    14  C   -0.670189
    15  O   -0.616314
    16  Si   1.403192
    17  C   -1.071292
    18  C   -1.084796
    19  C   -1.038222
    20  H    0.247899
    21  H    0.251910
    22  H    0.249458
    23  H    0.235413
    24  H    0.234932
    25  H    0.233225
    26  H    0.251391
    27  H    0.239680
    28  H    0.242118
    29  H    0.238641
    30  H    0.229317
    31  H    0.260418
    32  H    0.232360
    33  H    0.241582
    34  H    0.228124
    35  H    0.238799
    36  H    0.221995
    37  C   -0.543889
    38  C   -0.211640
    39  C   -0.441905
    40  H    0.265365
    41  H    0.279216
    42  H    0.221103
    43  H    0.229554
    44  H    0.228152
 Sum of Mulliken charges =   0.00000
 Mulliken charges with hydrogens summed into heavy atoms:
               1
     1  C    0.215735
     2  C   -0.066828
     3  C    0.188231
     4  C   -0.043027
     5  C    0.498253
    10  O   -0.320940
    11  O   -0.394209
    12  C    0.033814
    13  C    0.026233
    14  C    0.058187
    15  O   -0.616314
    16  Si   1.403192
    17  C   -0.338103
    18  C   -0.335528
    19  C   -0.334652
    37  C    0.000693
    38  C    0.009463
    39  C    0.015801
 Electronic spatial extent (au):  <R**2>=           5625.0418
 Charge=              0.0000 electrons
 Dipole moment (field-independent basis, Debye):
    X=             -1.8113    Y=             -3.5518    Z=              2.3621  Tot=              4.6342
 Quadrupole moment (field-independent basis, Debye-Ang):
   XX=           -118.1513   YY=           -126.8156   ZZ=           -121.0249
   XY=            -13.8706   XZ=              6.4610   YZ=              6.3423
 Traceless Quadrupole moment (field-independent basis, Debye-Ang):
   XX=              3.8460   YY=             -4.8184   ZZ=              0.9724
   XY=            -13.8706   XZ=              6.4610   YZ=              6.3423
 Octapole moment (field-independent basis, Debye-Ang**2):
  XXX=            -13.0380  YYY=            -12.7917  ZZZ=            -12.5831  XYY=             -5.7809
  XXY=            -22.4050  XXZ=              8.8407  XZZ=              5.4262  YZZ=            -15.8941
  YYZ=             23.7964  XYZ=             18.3440
 Hexadecapole moment (field-independent basis, Debye-Ang**3):
 XXXX=          -4805.5782 YYYY=          -1789.1421 ZZZZ=          -1009.8111 XXXY=            -91.5655
 XXXZ=             26.7808 YYYX=            -62.4707 YYYZ=             42.3736 ZZZX=             13.2212
 ZZZY=            -11.5799 XXYY=          -1143.7191 XXZZ=          -1002.9190 YYZZ=           -512.9883
 XXYZ=             17.9278 YYXZ=             15.3942 ZZXY=            -12.0887
 N-N= 1.627549299959D+03 E-N=-5.750252849533D+03  KE= 1.060549595374D+03
 1\1\GINC-SWANNODE-0-9\SP\RmPW1PW91\6-311G(d)\C14H26O3Si1\ROOT\08-Mar-2
 018\0\\#mPW1PW91/6-311g(d) nmr=(giao) scrf=(solvent=chloroform)\\P_ng_
 correct1ginp018\\0,1\C,0,1.020725,-0.479583,0.542179\C,0,-0.490872,-0.
 505817,0.258653\C,0,-1.265352,0.574266,1.082276\C,0,-0.620526,1.90623,
 0.695274\C,0,0.849765,1.963915,0.959847\H,0,1.237336,-1.081552,1.43296
 2\H,0,-0.64259,-0.260426,-0.804127\H,0,-0.776687,2.118778,-0.370119\H,
 0,-1.082002,2.735511,1.238502\O,0,1.559888,0.831281,0.820593\O,0,1.409
 278,3.023405,1.229008\C,0,1.833483,-1.063915,-0.628504\C,0,3.323241,-1
 .156309,-0.318402\C,0,-1.060494,-1.925203,0.43984\O,0,-2.599029,0.4793
 31,0.533918\Si,0,-3.993345,1.306807,0.921346\C,0,-4.869046,0.53639,2.3
 9612\C,0,-3.772018,3.142963,1.206445\C,0,-5.191353,1.141374,-0.547123\
 H,0,-4.745883,3.628504,1.324397\H,0,-3.190934,3.348804,2.108136\H,0,-3
 .267109,3.609958,0.3556\H,0,-4.7511,1.587471,-1.443424\H,0,-5.39942,0.
 086217,-0.745981\H,0,-6.133889,1.650607,-0.326959\H,0,-4.290055,0.6481
 69,3.315094\H,0,-5.842788,1.010884,2.550977\H,0,-5.033609,-0.531615,2.
 224734\H,0,-0.585748,-2.632029,-0.24733\H,0,-0.901287,-2.296556,1.4571
 81\H,0,-2.134815,-1.956766,0.233209\H,0,1.710119,-0.427915,-1.513663\H
 ,0,1.472837,-2.064009,-0.888588\H,0,3.855051,-1.608832,-1.161493\H,0,3
 .758451,-0.168028,-0.141057\H,0,3.500657,-1.776006,0.566256\C,0,-1.203
 758,0.235046,2.609529\C,0,-1.345656,1.387016,3.57104\C,0,-0.338661,1.8
 74711,4.307753\H,0,-0.256333,-0.262766,2.844846\H,0,-1.984489,-0.49647
 6,2.853552\H,0,-2.328939,1.82893,3.698388\H,0,-0.501464,2.701003,4.994
 153\H,0,0.670982,1.479065,4.243466\\Version=EM64L-G09RevD.01\State=1-A
 \HF=-1064.3739269\RMSD=2.908e-09\Dipole=-1.1380601,-1.4161072,-0.15364
 71\Quadrupole=-3.9921501,-0.3892667,4.3814168,-11.6018556,-3.128556,0.
 6227764\PG=C01 [X(C14H26O3Si1)]\\@


 SACRED COWS MAKE GREAT HAMBURGERS -- ROBERT REISNER
 Job cpu time:       0 days  1 hours 16 minutes 23.6 seconds.
 File lengths (MBytes):  RWF=    233 Int=      0 D2E=      0 Chk=     11 Scr=      1
 Normal termination of Gaussian 09 at Thu Mar  8 13:17:11 2018.
