 Entering Gaussian System, Link 0=/usr/local/shared/gaussian/em64t/09-D01/g09/g09
 Initial command:
 /usr/local/shared/gaussian/em64t/09-D01/g09/l1.exe "/scratch/ah809/P_ng_3ginp002/Gau-30248.inp" -scrdir="/scratch/ah809/P_ng_3ginp002/"
 Entering Link 1 = /usr/local/shared/gaussian/em64t/09-D01/g09/l1.exe PID=     30270.
  
 Copyright (c) 1988,1990,1992,1993,1995,1998,2003,2009,2013,
            Gaussian, Inc.  All Rights Reserved.
  
 This is part of the Gaussian(R) 09 program.  It is based on
 the Gaussian(R) 03 system (copyright 2003, Gaussian, Inc.),
 the Gaussian(R) 98 system (copyright 1998, Gaussian, Inc.),
 the Gaussian(R) 94 system (copyright 1995, Gaussian, Inc.),
 the Gaussian 92(TM) system (copyright 1992, Gaussian, Inc.),
 the Gaussian 90(TM) system (copyright 1990, Gaussian, Inc.),
 the Gaussian 88(TM) system (copyright 1988, Gaussian, Inc.),
 the Gaussian 86(TM) system (copyright 1986, Carnegie Mellon
 University), and the Gaussian 82(TM) system (copyright 1983,
 Carnegie Mellon University). Gaussian is a federally registered
 trademark of Gaussian, Inc.
  
 This software contains proprietary and confidential information,
 including trade secrets, belonging to Gaussian, Inc.
  
 This software is provided under written license and may be
 used, copied, transmitted, or stored only in accord with that
 written license.
  
 The following legend is applicable only to US Government
 contracts under FAR:
  
                    RESTRICTED RIGHTS LEGEND
  
 Use, reproduction and disclosure by the US Government is
 subject to restrictions as set forth in subparagraphs (a)
 and (c) of the Commercial Computer Software - Restricted
 Rights clause in FAR 52.227-19.
  
 Gaussian, Inc.
 340 Quinnipiac St., Bldg. 40, Wallingford CT 06492
  
  
 ---------------------------------------------------------------
 Warning -- This program may not be used in any manner that
 competes with the business of Gaussian, Inc. or will provide
 assistance to any competitor of Gaussian, Inc.  The licensee
 of this program is prohibited from giving any competitor of
 Gaussian, Inc. access to this program.  By using this program,
 the user acknowledges that Gaussian, Inc. is engaged in the
 business of creating and licensing software in the field of
 computational chemistry and represents and warrants to the
 licensee that it is not a competitor of Gaussian, Inc. and that
 it will not use this program in any manner prohibited above.
 ---------------------------------------------------------------
  

 Cite this work as:
 Gaussian 09, Revision D.01,
 M. J. Frisch, G. W. Trucks, H. B. Schlegel, G. E. Scuseria, 
 M. A. Robb, J. R. Cheeseman, G. Scalmani, V. Barone, B. Mennucci, 
 G. A. Petersson, H. Nakatsuji, M. Caricato, X. Li, H. P. Hratchian, 
 A. F. Izmaylov, J. Bloino, G. Zheng, J. L. Sonnenberg, M. Hada, 
 M. Ehara, K. Toyota, R. Fukuda, J. Hasegawa, M. Ishida, T. Nakajima, 
 Y. Honda, O. Kitao, H. Nakai, T. Vreven, J. A. Montgomery, Jr., 
 J. E. Peralta, F. Ogliaro, M. Bearpark, J. J. Heyd, E. Brothers, 
 K. N. Kudin, V. N. Staroverov, T. Keith, R. Kobayashi, J. Normand, 
 K. Raghavachari, A. Rendell, J. C. Burant, S. S. Iyengar, J. Tomasi, 
 M. Cossi, N. Rega, J. M. Millam, M. Klene, J. E. Knox, J. B. Cross, 
 V. Bakken, C. Adamo, J. Jaramillo, R. Gomperts, R. E. Stratmann, 
 O. Yazyev, A. J. Austin, R. Cammi, C. Pomelli, J. W. Ochterski, 
 R. L. Martin, K. Morokuma, V. G. Zakrzewski, G. A. Voth, 
 P. Salvador, J. J. Dannenberg, S. Dapprich, A. D. Daniels, 
 O. Farkas, J. B. Foresman, J. V. Ortiz, J. Cioslowski, 
 and D. J. Fox, Gaussian, Inc., Wallingford CT, 2013.
 
 ******************************************
 Gaussian 09:  EM64L-G09RevD.01 24-Apr-2013
                 8-Mar-2018 
 ******************************************
 %mem=6000MB
 %chk=P_ng_3ginp002.chk
 --------------------------------------------------------
 #mPW1PW91/6-311g(d) nmr=(giao) scrf=(solvent=chloroform)
 --------------------------------------------------------
 1/38=1/1;
 2/12=2,17=6,18=5,40=1/2;
 3/5=4,6=6,7=1,11=2,16=1,25=1,30=1,70=2201,72=7,74=-7/1,2,8,3;
 4//1;
 5/5=2,38=5,53=7/2;
 8/6=1,10=90,11=11/1;
 10/13=100,45=16/2;
 6/7=2,8=2,9=2,10=2,28=1/1;
 99/9=1/99;
 -------------
 P_ng_3ginp002
 -------------
 Symbolic Z-matrix:
 Charge =  0 Multiplicity = 1
 C                    -0.16765   0.57339  -0.20935 
 C                    -1.47326   0.07104   0.42198 
 C                    -1.77629   0.90903   1.70849 
 C                    -1.86666   2.38055   1.28757 
 C                    -0.72376   2.86006   0.43455 
 H                     0.66896   0.41129   0.4791 
 H                    -1.35889  -0.98174   0.70889 
 H                    -2.78603   2.57759   0.7252 
 H                    -1.90155   3.02216   2.1763 
 O                    -0.20951   1.99402  -0.46427 
 O                    -0.35361   4.02994   0.46781 
 C                     0.23568  -0.09879  -1.53154 
 C                     0.4446   -1.59991  -1.41484 
 C                    -2.64608   0.0964   -0.58167 
 O                    -3.01794   0.37253   2.21956 
 Si                   -4.11743   1.07246   3.2689 
 C                    -3.3393    1.86644   4.77748 
 C                    -5.17677   2.35949   2.39632 
 C                    -5.28897  -0.277     3.89316 
 H                    -6.01442   2.65907   3.03334 
 H                    -4.59555   3.25521   2.16159 
 H                    -5.58183   1.95447   1.46438 
 H                    -6.03533   0.14788   4.57051 
 H                    -5.80788  -0.74738   3.053 
 H                    -4.72791  -1.04681   4.4308 
 H                    -4.11458   2.24458   5.45104 
 H                    -2.73711   1.14115   5.33241 
 H                    -2.70063   2.70879   4.49801 
 H                    -3.59066  -0.18672  -0.10739 
 H                    -2.77754   1.08126  -1.03975 
 H                    -2.48193  -0.62266  -1.39056 
 H                     1.17013   0.3592   -1.88217 
 H                    -0.49581   0.12178  -2.31766 
 H                     0.82074  -2.00108  -2.36142 
 H                     1.17556  -1.83422  -0.63447 
 H                    -0.48815  -2.12114  -1.18199 
 C                    -0.65702   0.74011   2.7937 
 C                    -0.38885  -0.68612   3.20055 
 C                     0.81298  -1.27396   3.14534 
 H                    -0.94118   1.27674   3.70386 
 H                     0.27444   1.21589   2.46485 
 H                    -1.23941  -1.25808   3.56866 
 H                     0.93868  -2.30607   3.45992 
 H                     1.69637  -0.74776   2.79715 
 
                          Input orientation:                          
 ---------------------------------------------------------------------
 Center     Atomic      Atomic             Coordinates (Angstroms)
 Number     Number       Type             X           Y           Z
 ---------------------------------------------------------------------
      1          6           0       -0.167646    0.573392   -0.209346
      2          6           0       -1.473255    0.071041    0.421977
      3          6           0       -1.776291    0.909027    1.708492
      4          6           0       -1.866656    2.380548    1.287574
      5          6           0       -0.723756    2.860056    0.434549
      6          1           0        0.668959    0.411289    0.479096
      7          1           0       -1.358886   -0.981740    0.708889
      8          1           0       -2.786026    2.577590    0.725199
      9          1           0       -1.901554    3.022163    2.176296
     10          8           0       -0.209508    1.994015   -0.464270
     11          8           0       -0.353605    4.029941    0.467813
     12          6           0        0.235683   -0.098789   -1.531537
     13          6           0        0.444603   -1.599910   -1.414838
     14          6           0       -2.646076    0.096398   -0.581672
     15          8           0       -3.017937    0.372532    2.219555
     16         14           0       -4.117427    1.072459    3.268904
     17          6           0       -3.339303    1.866438    4.777476
     18          6           0       -5.176766    2.359485    2.396318
     19          6           0       -5.288965   -0.276999    3.893160
     20          1           0       -6.014417    2.659069    3.033338
     21          1           0       -4.595552    3.255206    2.161592
     22          1           0       -5.581832    1.954469    1.464382
     23          1           0       -6.035330    0.147877    4.570509
     24          1           0       -5.807883   -0.747376    3.052996
     25          1           0       -4.727911   -1.046810    4.430797
     26          1           0       -4.114575    2.244583    5.451042
     27          1           0       -2.737112    1.141151    5.332409
     28          1           0       -2.700627    2.708789    4.498006
     29          1           0       -3.590663   -0.186722   -0.107390
     30          1           0       -2.777539    1.081261   -1.039751
     31          1           0       -2.481934   -0.622657   -1.390564
     32          1           0        1.170130    0.359200   -1.882174
     33          1           0       -0.495813    0.121777   -2.317660
     34          1           0        0.820735   -2.001081   -2.361422
     35          1           0        1.175562   -1.834220   -0.634471
     36          1           0       -0.488145   -2.121137   -1.181986
     37          6           0       -0.657017    0.740109    2.793698
     38          6           0       -0.388846   -0.686118    3.200547
     39          6           0        0.812984   -1.273957    3.145344
     40          1           0       -0.941180    1.276741    3.703863
     41          1           0        0.274439    1.215893    2.464850
     42          1           0       -1.239414   -1.258077    3.568659
     43          1           0        0.938684   -2.306072    3.459917
     44          1           0        1.696366   -0.747764    2.797151
 ---------------------------------------------------------------------
                    Distance matrix (angstroms):
                    1          2          3          4          5
     1  C    0.000000
     2  C    1.534777   0.000000
     3  C    2.525568   1.564983   0.000000
     4  C    2.897105   2.497568   1.533203   0.000000
     5  C    2.439814   2.887994   2.556810   1.504593   0.000000
     6  H    1.095508   2.169818   2.781799   3.310734   2.817463
     7  H    2.163480   1.097154   2.179090   3.449302   3.903594
     8  H    3.427258   2.845716   2.184155   1.095597   2.101719
     9  H    3.833302   3.459797   2.167920   1.096683   2.108831
    10  O    1.443921   2.465830   2.890139   2.442234   1.349946
    11  O    3.527160   4.114439   3.647386   2.383659   1.227497
    12  C    1.537105   2.601063   3.944809   4.302828   3.679780
    13  C    2.559551   3.137538   4.580647   5.337508   4.967554
    14  C    2.551228   1.543847   2.581035   3.052690   3.516507
    15  O    3.750208   2.389189   1.445924   2.495228   3.825871
    16  Si   5.286593   4.012415   2.818247   3.271504   4.769284
    17  C    6.049774   5.067145   3.574676   3.822619   5.166176
    18  C    5.922069   4.780271   3.760341   3.490929   4.891667
    19  C    6.616769   5.170095   4.303291   5.056069   6.530256
    20  H    7.003555   5.842880   4.772795   4.508790   5.897897
    21  H    5.693841   4.786847   3.695685   2.995965   4.257890
    22  H    5.832851   4.638353   3.954071   3.743706   5.047925
    23  H    7.580092   6.166745   5.187476   5.756763   7.257747
    24  H    6.648276   5.136250   4.561260   5.332344   6.761522
    25  H    6.704625   5.283277   4.466352   5.460166   6.875090
    26  H    7.100079   6.082134   4.610636   4.733507   6.086186
    27  H    6.134782   5.182163   3.756306   4.319084   5.567519
    28  H    5.756307   5.007811   3.446002   3.333185   4.521348
    29  H    3.507879   2.197746   2.791064   3.392492   4.218496
    30  H    2.785506   2.204166   2.930017   2.816788   3.091229
    31  H    2.860374   2.187225   3.528192   4.070655   4.307147
    32  H    2.152644   3.518470   4.677242   4.832724   3.899781
    33  H    2.180972   2.909223   4.297591   4.469784   3.889060
    34  H    3.498034   4.159734   5.637151   6.303643   5.816662
    35  H    2.789540   3.429626   4.661364   5.541987   5.175562
    36  H    2.882574   2.889426   4.381333   5.316407   5.242231
    37  C    3.047220   2.595950   1.568113   2.534300   3.172414
    38  C    3.641794   3.077285   2.587609   3.904847   4.509796
    39  C    3.953262   3.801662   3.678900   4.897672   5.176876
    40  H    4.050464   3.536607   2.194112   2.813067   3.639035
    41  H    2.785601   2.922063   2.207201   2.706786   2.796746
    42  H    4.333161   3.423864   2.905993   4.340089   5.200728
    43  H    4.793618   4.549417   4.558008   5.878215   6.213327
    44  H    3.776112   4.044551   3.998685   4.975971   4.945224
                    6          7          8          9         10
     6  H    0.000000
     7  H    2.470929   0.000000
     8  H    4.085382   3.834817   0.000000
     9  H    4.037906   4.298722   1.756593   0.000000
    10  O    2.041241   3.398895   2.897213   3.300409   0.000000
    11  O    3.760373   5.117192   2.844687   2.516084   2.243777
    12  C    2.119092   2.888211   4.624563   5.296806   2.391042
    13  C    2.771686   2.853931   5.698090   6.305890   3.774618
    14  C    3.494831   2.117732   2.807813   4.089108   3.090566
    15  O    4.077242   2.620804   2.673792   2.875539   4.209441
    16  Si   5.579397   4.287535   3.241679   3.147258   5.482489
    17  C    6.054725   5.346734   4.151241   3.188881   6.106373
    18  C    6.453194   5.346719   2.925038   3.348816   5.743708
    19  C    6.901191   5.107031   4.944629   5.030571   7.067219
    20  H    7.499612   6.350789   3.969465   4.216871   6.809738
    21  H    6.215604   5.526126   2.407649   2.704099   5.265276
    22  H    6.513415   5.198593   2.958243   3.897594   5.708163
    23  H    7.858533   6.169058   5.589981   5.575113   7.918171
    24  H    7.065193   5.034217   5.060203   5.498857   7.157387
    25  H    6.846035   5.020674   5.535219   5.443125   7.322859
    26  H    7.138866   6.363254   4.920318   4.028158   7.092478
    27  H    5.973999   5.270969   4.826192   3.767945   6.381038
    28  H    5.725754   5.456893   3.776053   2.475290   5.598282
    29  H    4.341194   2.505832   2.997010   4.285470   4.039206
    30  H    3.825455   3.053898   2.313897   3.857124   2.785513
    31  H    3.806941   2.407879   3.848442   5.132645   3.587327
    32  H    2.414432   3.861043   5.231713   5.744371   2.566412
    33  H    3.043412   3.335063   4.531565   5.530279   2.649962
    34  H    3.729760   3.900848   6.595467   7.296213   4.541077
    35  H    2.557145   2.992451   6.083334   6.399493   4.074650
    36  H    3.242108   2.373146   5.567373   6.303120   4.186554
    37  C    2.687697   2.793530   3.491089   2.671671   3.519503
    38  C    3.119223   2.690117   4.746115   4.133851   4.543804
    39  C    3.157479   3.276999   5.800378   5.173434   4.975384
    40  H    3.706842   3.774266   3.737393   2.510434   4.292221
    41  H    2.178590   3.252805   3.774527   2.842678   3.069108
    42  H    3.996757   2.875573   5.018926   4.549457   5.282170
    43  H    4.042536   3.821104   6.723266   6.172902   5.933661
    44  H    2.787893   3.708119   5.953386   5.248127   4.667609
                   11         12         13         14         15
    11  O    0.000000
    12  C    4.625048   0.000000
    13  C    5.989719   1.520076   0.000000
    14  C    4.672216   3.040539   3.622696   0.000000
    15  O    4.852206   4.987873   5.393378   2.839261   0.000000
    16  Si   5.546095   6.585258   7.063364   4.236095   1.673293
    17  C    5.671713   7.513074   8.042280   5.686306   2.979596
    18  C    5.456412   7.125009   7.861394   4.516014   2.939349
    19  C    7.391922   7.744729   7.924565   5.210414   2.894894
    20  H    6.364433   8.216302   8.924355   5.566085   3.856084
    21  H    4.632841   6.944733   7.859145   4.615628   3.286645
    22  H    5.712713   6.858198   7.565807   4.032050   3.105860
    23  H    8.011525   8.753366   8.992701   6.167225   3.831725
    24  H    7.697732   7.613363   7.731878   4.890786   3.119714
    25  H    7.785448   7.815717   7.825105   5.546693   3.134985
    26  H    6.493456   8.554095   9.094314   6.569994   3.892261
    27  H    6.139260   7.582131   7.947457   6.006343   3.218617
    28  H    4.847310   7.270474   7.963610   5.712328   3.278738
    29  H    5.346929   4.083730   4.471006   1.094233   2.460783
    30  H    4.104013   3.273206   4.208511   1.094109   3.344124
    31  H    5.443346   2.771237   3.085487   1.094664   3.782943
    32  H    4.617201   1.098131   2.140772   4.040272   5.862104
    33  H    4.801336   1.096232   2.159555   2.763680   5.197144
    34  H    6.764383   2.156319   1.094730   4.425574   6.430769
    35  H    6.159689   2.167907   1.094612   4.281938   5.531786
    36  H    6.369906   2.176236   1.093580   3.151905   4.918202
    37  C    4.040395   4.495367   4.939740   3.970371   2.457376
    38  C    5.450715   4.809117   4.778225   4.473544   2.999201
    39  C    6.054869   4.856698   4.586634   5.266272   4.271296
    40  H    4.289216   5.539540   6.032961   4.760850   2.708078
    41  H    3.507344   4.207256   4.796841   4.366231   3.407516
    42  H    6.193790   5.434322   5.271433   4.586780   2.764437
    43  H    7.125150   5.502810   4.950355   5.912428   4.936422
    44  H    5.696899   4.614358   4.475926   5.566494   4.879891
                   16         17         18         19         20
    16  Si   0.000000
    17  C    1.873945   0.000000
    18  C    1.881500   3.047832   0.000000
    19  C    1.892943   3.029442   3.033838   0.000000
    20  H    2.484229   3.290367   1.094168   3.144212   0.000000
    21  H    2.493818   3.217093   1.093262   3.994449   1.768756
    22  H    2.485704   4.001659   1.093902   3.311221   1.773475
    23  H    2.495472   3.203880   3.217988   1.093792   2.944387
    24  H    2.493202   3.987448   3.237610   1.093803   3.412757
    25  H    2.492787   3.245833   3.992921   1.093821   4.164316
    26  H    2.477016   1.094409   3.236169   3.188191   3.102659
    27  H    2.483554   1.093904   4.007104   3.254926   4.281417
    28  H    2.489094   1.093419   3.266553   3.997532   3.623386
    29  H    3.641755   5.304768   3.907358   4.347043   4.882344
    30  H    4.512193   5.896797   4.381406   5.699626   5.436627
    31  H    5.221005   6.706370   5.522297   5.993049   6.543628
    32  H    7.416239   8.182768   7.911367   8.687873   9.003853
    33  H    6.725294   7.840295   7.010010   7.855419   8.094814
    34  H    8.095225   9.122910   8.810258   8.911829   9.876221
    35  H    7.190330   7.960405   8.192980   8.044532   9.237871
    36  H    6.571238   7.716544   7.406983   7.225360   8.435580
    37  C    3.508663   3.521172   4.817512   4.868087   5.695750
    38  C    4.123055   4.208021   5.731201   4.965708   6.547158
    39  C    5.461674   5.455953   7.045569   6.227916   7.880015
    40  H    3.212392   2.692839   4.563135   4.620950   5.300771
    41  H    4.467165   4.339422   5.570290   5.934666   6.477318
    42  H    3.715402   3.953905   5.473927   4.179316   6.199295
    43  H    6.084013   6.119393   7.765140   6.564179   8.554543
    44  H    6.110315   6.009468   7.553516   7.086445   8.433177
                   21         22         23         24         25
    21  H    0.000000
    22  H    1.775040   0.000000
    23  H    4.187044   3.621803   0.000000
    24  H    4.276098   3.142413   1.776529   0.000000
    25  H    4.865609   4.305401   1.776553   1.776045   0.000000
    26  H    3.474648   4.257989   2.976712   4.191627   3.500050
    27  H    4.239942   4.869861   3.527793   4.265195   3.092468
    28  H    3.057473   4.251260   4.205208   4.867049   4.268363
    29  H    4.243224   3.319627   5.288770   3.901082   4.756913
    30  H    4.275489   3.859693   6.554344   5.410866   6.185429
    31  H    5.667717   4.939804   6.982459   5.551821   6.254004
    32  H    7.614590   7.702812   9.674731   8.618183   8.753134
    33  H    6.833003   6.597741   8.839333   7.603779   8.050958
    34  H    8.798998   8.442512   9.983753   8.650218   8.822264
    35  H    8.186940   8.026314   9.111393   7.971646   7.818436
    36  H    7.546878   7.039849   8.307279   6.936995   7.115696
    37  C    4.715647   5.243620   5.695090   5.367613   4.737652
    38  C    5.857460   6.078986   5.869849   5.421392   4.524500
    39  C    7.122735   7.358127   7.138075   6.642416   5.692583
    40  H    4.432534   5.197138   5.289213   5.310883   4.501850
    41  H    5.288438   5.986847   6.737035   6.418332   5.831662
    42  H    5.797691   5.796984   5.097178   4.625758   3.599657
    43  H    7.952435   8.040616   7.476105   6.936230   5.885461
    44  H    7.484379   7.877214   7.982863   7.508609   6.635478
                   26         27         28         29         30
    26  H    0.000000
    27  H    1.768909   0.000000
    28  H    1.767205   1.776246   0.000000
    29  H    6.089490   5.664204   5.512333   0.000000
    30  H    6.728401   6.372570   5.772479   1.771510   0.000000
    31  H    7.595667   6.955178   6.769167   1.750958   1.764593
    32  H    9.233571   8.241856   7.823684   5.110092   4.100627
    33  H    8.829183   8.036548   7.616242   3.815568   2.785666
    34  H   10.169442   9.040295   9.035188   5.275698   4.918864
    35  H    9.036352   7.730815   7.874395   5.070401   4.928619
    36  H    8.729695   7.624809   7.777247   3.810818   3.939151
    37  C    4.612985   3.306461   3.310092   4.228665   4.394124
    38  C    5.247361   3.660342   4.307334   4.630710   5.177800
    39  C    6.478982   4.818629   5.480641   5.581619   5.996159
    40  H    3.749638   2.428151   2.403555   4.866943   5.090413
    41  H    5.407309   4.159077   3.900446   4.850027   4.649185
    42  H    4.906989   3.333198   4.328378   4.493274   5.392196
    43  H    7.085793   5.375970   6.282599   6.142663   6.747692
    44  H    7.054383   5.445297   5.845872   6.058366   6.171141
                   31         32         33         34         35
    31  H    0.000000
    32  H    3.813567   0.000000
    33  H    2.314814   1.738213   0.000000
    34  H    3.708132   2.433656   2.498347   0.000000
    35  H    3.926428   2.523467   3.074499   1.770905   0.000000
    36  H    2.502827   3.064671   2.514056   1.765970   1.774828
    37  C    4.763980   5.034614   5.151146   6.022718   4.662388
    38  C    5.046122   5.418224   5.578059   5.841893   4.298008
    39  C    5.644036   5.298178   5.788388   5.554569   3.838276
    40  H    5.651090   6.041798   6.147441   7.115908   5.742806
    41  H    5.083510   4.520266   4.966163   5.825827   4.440834
    42  H    5.151845   6.175198   6.091444   6.321561   4.881634
    43  H    6.169415   5.974544   6.429046   5.830516   4.128289
    44  H    5.916992   4.837187   5.632321   5.380373   3.636984
                   36         37         38         39         40
    36  H    0.000000
    37  C    4.901154   0.000000
    38  C    4.612563   1.507171   0.000000
    39  C    4.597438   2.518138   1.339029   0.000000
    40  H    5.968445   1.094131   2.100289   3.145647   0.000000
    41  H    5.001671   1.096413   2.144491   2.636751   1.736832
    42  H    4.886502   2.220923   1.089087   2.095659   2.555881
    43  H    4.859764   3.502760   2.110417   1.086286   4.053387
    44  H    4.742549   2.784275   2.124768   1.085579   3.446360
                   41         42         43         44
    41  H    0.000000
    42  H    3.103333   0.000000
    43  H    3.719626   2.419551   0.000000
    44  H    2.447090   3.078059   1.855172   0.000000
 Stoichiometry    C14H26O3Si
 Framework group  C1[X(C14H26O3Si)]
 Deg. of freedom   126
 Full point group                 C1      NOp   1
 Largest Abelian subgroup         C1      NOp   1
 Largest concise Abelian subgroup C1      NOp   1
                         Standard orientation:                         
 ---------------------------------------------------------------------
 Center     Atomic      Atomic             Coordinates (Angstroms)
 Number     Number       Type             X           Y           Z
 ---------------------------------------------------------------------
      1          6           0        2.429849   -0.164702    0.073840
      2          6           0        1.138709    0.262318    0.785284
      3          6           0       -0.076861    0.022534   -0.170784
      4          6           0       -0.085065   -1.465748   -0.539107
      5          6           0        1.241606   -2.004753   -1.000861
      6          1           0        2.594712    0.459249   -0.811396
      7          1           0        1.190078    1.331804    1.024671
      8          1           0       -0.400096   -2.083607    0.309031
      9          1           0       -0.808480   -1.647980   -1.342958
     10          8           0        2.352574   -1.525792   -0.401947
     11          8           0        1.306161   -2.931326   -1.803385
     12          6           0        3.716347   -0.063301    0.908903
     13          6           0        4.019881    1.344690    1.394762
     14          6           0        0.964694   -0.452732    2.142445
     15          8           0       -1.235449    0.441169    0.586259
     16         14           0       -2.844950    0.044483    0.358098
     17          6           0       -3.422743    0.176495   -1.419653
     18          6           0       -3.219857   -1.691095    0.980394
     19          6           0       -3.903944    1.237928    1.376653
     20          1           0       -4.300511   -1.859713    1.011375
     21          1           0       -2.779907   -2.448279    0.325917
     22          1           0       -2.821480   -1.830753    1.989558
     23          1           0       -4.965185    0.997361    1.265846
     24          1           0       -3.639597    1.170288    2.435875
     25          1           0       -3.742703    2.266957    1.042669
     26          1           0       -4.495105   -0.031220   -1.487672
     27          1           0       -3.250322    1.183149   -1.811500
     28          1           0       -2.902898   -0.540901   -2.060488
     29          1           0        0.006374   -0.206354    2.609634
     30          1           0        1.026879   -1.540966    2.047825
     31          1           0        1.739541   -0.139849    2.849556
     32          1           0        4.557011   -0.410982    0.293847
     33          1           0        3.684249   -0.757726    1.756529
     34          1           0        4.991674    1.366485    1.898329
     35          1           0        4.057592    2.048505    0.557267
     36          1           0        3.269621    1.696837    2.108217
     37          6           0        0.025614    0.886702   -1.475273
     38          6           0        0.164724    2.368260   -1.236112
     39          6           0        1.160435    3.121221   -1.720477
     40          1           0       -0.876083    0.750888   -2.079939
     41          1           0        0.846681    0.532282   -2.109589
     42          1           0       -0.609586    2.841485   -0.633941
     43          1           0        1.198147    4.187149   -1.514578
     44          1           0        1.952063    2.703823   -2.334956
 ---------------------------------------------------------------------
 Rotational constants (GHZ):      0.5110533      0.2619447      0.2358706
 Standard basis: 6-311G(d) (5D, 7F)
 There are   428 symmetry adapted cartesian basis functions of A   symmetry.
 There are   410 symmetry adapted basis functions of A   symmetry.
   410 basis functions,   720 primitive gaussians,   428 cartesian basis functions
    74 alpha electrons       74 beta electrons
       nuclear repulsion energy      1631.1778083274 Hartrees.
 NAtoms=   44 NActive=   44 NUniq=   44 SFac= 1.00D+00 NAtFMM=   60 NAOKFM=F Big=F
 Integral buffers will be    131072 words long.
 Raffenetti 2 integral format.
 Two-electron integral symmetry is turned on.
 ------------------------------------------------------------------------------
 Polarizable Continuum Model (PCM)
 =================================
 Model                : PCM (using non-symmetric T matrix).
 Atomic radii         : UFF (Universal Force Field).
 Polarization charges : Total charges.
 Charge compensation  : None.
 Solution method      : On-the-fly selection.
 Cavity type          : Scaled VdW (van der Waals Surface) (Alpha=1.100).
 Cavity algorithm     : GePol (No added spheres)
                        Default sphere list used, NSphG=   44.
                        Lebedev-Laikov grids with approx.  5.0 points / Ang**2.
                        Smoothing algorithm: Karplus/York (Gamma=1.0000).
                        Polarization charges: spherical gaussians, with
                                              point-specific exponents (IZeta= 3).
                        Self-potential: point-specific (ISelfS= 7).
                        Self-field    : sphere-specific E.n sum rule (ISelfD= 2).
 Solvent              : Chloroform, Eps=   4.711300 Eps(inf)=   2.090627
 ------------------------------------------------------------------------------
 One-electron integrals computed using PRISM.
 NBasis=   410 RedAO= T EigKep=  1.14D-03  NBF=   410
 NBsUse=   410 1.00D-06 EigRej= -1.00D+00 NBFU=   410
 ExpMin= 6.54D-02 ExpMax= 6.94D+04 ExpMxC= 2.33D+03 IAcc=2 IRadAn=         4 AccDes= 0.00D+00
 Harris functional with IExCor=  908 and IRadAn=       4 diagonalized for initial guess.
 HarFok:  IExCor=  908 AccDes= 0.00D+00 IRadAn=         4 IDoV= 1 UseB2=F ITyADJ=14
 ICtDFT=  3500011 ScaDFX=  1.000000  1.000000  1.000000  1.000000
 FoFCou: FMM=F IPFlag=           0 FMFlag=      100000 FMFlg1=           0
         NFxFlg=           0 DoJE=T BraDBF=F KetDBF=T FulRan=T
         wScrn=  0.000000 ICntrl=     500 IOpCl=  0 I1Cent=   200000004 NGrid=           0
         NMat0=    1 NMatS0=      1 NMatT0=    0 NMatD0=    1 NMtDS0=    0 NMtDT0=    0
 Petite list used in FoFCou.
 Requested convergence on RMS density matrix=1.00D-08 within 128 cycles.
 Requested convergence on MAX density matrix=1.00D-06.
 Requested convergence on             energy=1.00D-06.
 No special actions if energy rises.
 Inv3:  Mode=1 IEnd=    24624675.
 Iteration    1 A*A^-1 deviation from unit magnitude is 7.33D-15 for   2093.
 Iteration    1 A*A^-1 deviation from orthogonality  is 1.04D-14 for   2509   1429.
 Iteration    1 A^-1*A deviation from unit magnitude is 7.77D-15 for   2161.
 Iteration    1 A^-1*A deviation from orthogonality  is 3.57D-12 for   2718   2696.
 Error on total polarization charges =  0.01114
 SCF Done:  E(RmPW1PW91) =  -1064.37728665     A.U. after   13 cycles
            NFock= 13  Conv=0.31D-08     -V/T= 2.0036
 DoSCS=F DFT=T ScalE2(SS,OS)=  1.000000  1.000000
 Range of M.O.s used for correlation:     1   410
 NBasis=   410 NAE=    74 NBE=    74 NFC=     0 NFV=     0
 NROrb=    410 NOA=    74 NOB=    74 NVA=   336 NVB=   336
 NEqPCM:  Using equilibrium solvation (IEInf=0, Eps=   4.7113, EpsInf=   2.0906)
          Differentiating once with respect to magnetic field using GIAOs.
          Electric field/nuclear overlap derivatives assumed to be zero.
 FoFJK:  IHMeth= 1 ICntrl=    6127 DoSepK=F KAlg= 0 I1Cent=   0 FoldK=F
 IRaf=         1 NMat=   1 IRICut=       1 DoRegI=T DoRafI=F ISym2E= 0.
          There are     3 degrees of freedom in the 1st order CPHF.  IDoFFX=0 NUNeed=     3.
      3 vectors produced by pass  0 Test12= 8.29D-13 3.33D-08 XBig12= 3.72D+01 1.03D+00.
 AX will form     3 AO Fock derivatives at one time.
      3 vectors produced by pass  1 Test12= 8.29D-13 3.33D-08 XBig12= 7.75D-02 1.04D-01.
      3 vectors produced by pass  2 Test12= 8.29D-13 3.33D-08 XBig12= 8.11D-04 1.20D-02.
      3 vectors produced by pass  3 Test12= 8.29D-13 3.33D-08 XBig12= 5.76D-06 9.12D-04.
      3 vectors produced by pass  4 Test12= 8.29D-13 3.33D-08 XBig12= 3.26D-08 4.05D-05.
      3 vectors produced by pass  5 Test12= 8.29D-13 3.33D-08 XBig12= 7.13D-11 1.43D-06.
      2 vectors produced by pass  6 Test12= 8.29D-13 3.33D-08 XBig12= 1.86D-13 8.82D-08.
 InvSVY:  IOpt=1 It=  1 EMax= 4.44D-16
 Solved reduced A of dimension    20 with     3 vectors.
 Calculating GIAO nuclear magnetic shielding tensors.
 SCF GIAO Magnetic shielding tensor (ppm):
      1  C    Isotropic =   107.0782   Anisotropy =    60.2604
   XX=    98.4775   YX=    13.3147   ZX=     6.9531
   XY=     2.8036   YY=   138.3825   ZY=    20.4103
   XZ=     6.9483   YZ=    20.4892   ZZ=    84.3746
   Eigenvalues:    76.7100    97.2727   147.2518
      2  C    Isotropic =   148.2168   Anisotropy =    21.3484
   XX=   162.2584   YX=     1.0588   ZX=    -2.1101
   XY=     1.1159   YY=   136.1192   ZY=    -5.0900
   XZ=     5.6132   YZ=   -12.2583   ZZ=   146.2727
   Eigenvalues:   131.0397   151.1615   162.4490
      3  C    Isotropic =   104.8540   Anisotropy =    56.6145
   XX=   131.2957   YX=   -10.6042   ZX=   -22.0603
   XY=    -5.2288   YY=    83.2509   ZY=     2.4914
   XZ=   -18.8980   YZ=     3.1316   ZZ=   100.0155
   Eigenvalues:    81.9571    90.0079   142.5971
      4  C    Isotropic =   144.1064   Anisotropy =    34.9879
   XX=   152.7866   YX=   -12.7090   ZX=    -5.4550
   XY=   -11.5133   YY=   148.1556   ZY=     3.2249
   XZ=   -11.2568   YZ=    16.9979   ZZ=   131.3770
   Eigenvalues:   126.3136   138.5740   167.4317
      5  C    Isotropic =     8.6932   Anisotropy =    95.5556
   XX=   -79.9632   YX=    -9.3664   ZX=   -19.3935
   XY=   -16.2527   YY=    51.8375   ZY=   -20.5389
   XZ=   -32.5872   YZ=   -16.5753   ZZ=    54.2054
   Eigenvalues:   -86.6936    40.3763    72.3970
      6  H    Isotropic =    27.9814   Anisotropy =     2.9392
   XX=    29.0129   YX=     0.5354   ZX=    -0.2752
   XY=     1.0842   YY=    27.4414   ZY=    -2.2836
   XZ=     0.5091   YZ=    -2.1002   ZZ=    27.4897
   Eigenvalues:    25.1596    28.8437    29.9408
      7  H    Isotropic =    29.8901   Anisotropy =     4.3832
   XX=    29.2355   YX=     1.0305   ZX=     2.4048
   XY=     0.4262   YY=    32.5133   ZY=    -0.7483
   XZ=     1.9854   YZ=    -1.6069   ZZ=    27.9214
   Eigenvalues:    25.9951    30.8629    32.8122
      8  H    Isotropic =    29.2440   Anisotropy =     4.6534
   XX=    30.4987   YX=     1.3385   ZX=    -1.3195
   XY=     1.8137   YY=    30.1873   ZY=    -1.2824
   XZ=    -1.1388   YZ=    -0.4422   ZZ=    27.0461
   Eigenvalues:    26.6123    28.7735    32.3463
      9  H    Isotropic =    29.5441   Anisotropy =     3.7634
   XX=    30.9762   YX=    -0.1375   ZX=     2.0540
   XY=    -1.4052   YY=    29.5943   ZY=     2.9347
   XZ=     0.8138   YZ=     3.1036   ZZ=    28.0619
   Eigenvalues:    25.2614    31.3180    32.0530
     10  O    Isotropic =   113.7021   Anisotropy =   186.0161
   XX=   204.6294   YX=    34.0427   ZX=    36.9292
   XY=    52.2337   YY=     1.2542   ZY=  -115.2866
   XZ=    53.1263   YZ=  -174.4835   ZZ=   135.2227
   Eigenvalues:  -103.3316   206.7251   237.7128
     11  O    Isotropic =  -136.1478   Anisotropy =   601.3697
   XX=  -285.6510   YX=   -49.6381   ZX=   -83.9497
   XY=   -50.2430   YY=   -81.8979   ZY=  -298.2938
   XZ=   -90.3063   YZ=  -349.5212   ZZ=   -40.8944
   Eigenvalues:  -444.4775  -228.7312   264.7654
     12  C    Isotropic =   159.7907   Anisotropy =    26.1631
   XX=   167.1099   YX=     3.7346   ZX=    14.2611
   XY=     0.4147   YY=   161.1500   ZY=     6.2447
   XZ=    13.3967   YZ=     9.3646   ZZ=   151.1121
   Eigenvalues:   141.3921   160.7472   177.2327
     13  C    Isotropic =   178.3587   Anisotropy =    15.0938
   XX=   176.0163   YX=     3.0827   ZX=     2.9575
   XY=     5.0783   YY=   185.6235   ZY=     3.9843
   XZ=     2.8199   YZ=     3.2433   ZZ=   173.4362
   Eigenvalues:   171.4939   175.1609   188.4212
     14  C    Isotropic =   179.7347   Anisotropy =    15.0571
   XX=   177.8275   YX=     2.3521   ZX=     1.3141
   XY=     1.8874   YY=   177.9866   ZY=    -9.1342
   XZ=     1.2666   YZ=    -8.2043   ZZ=   183.3898
   Eigenvalues:   170.7446   178.6866   189.7727
     15  O    Isotropic =   245.1133   Anisotropy =    19.4608
   XX=   238.7109   YX=   -13.1004   ZX=     4.3809
   XY=    -7.7972   YY=   251.3308   ZY=     6.0030
   XZ=    13.7608   YZ=     9.9712   ZZ=   245.2983
   Eigenvalues:   225.6321   251.6207   258.0872
     16  Si   Isotropic =   334.1910   Anisotropy =    54.5311
   XX=   367.6990   YX=    14.7342   ZX=    11.7985
   XY=     5.2706   YY=   320.5118   ZY=     6.6773
   XZ=    -0.3933   YZ=     4.8528   ZZ=   314.3623
   Eigenvalues:   310.9019   321.1261   370.5451
     17  C    Isotropic =   185.2160   Anisotropy =     6.7839
   XX=   188.1550   YX=     1.3205   ZX=     1.6454
   XY=     3.2244   YY=   177.9850   ZY=    -1.9857
   XZ=    -1.1919   YZ=    -1.2591   ZZ=   189.5081
   Eigenvalues:   177.2819   188.6275   189.7386
     18  C    Isotropic =   184.6615   Anisotropy =    11.1041
   XX=   187.7603   YX=     2.8002   ZX=    -0.3533
   XY=     0.4066   YY=   189.6928   ZY=    -5.2383
   XZ=     0.6229   YZ=    -5.3598   ZZ=   176.5315
   Eigenvalues:   174.6297   187.2906   192.0642
     19  C    Isotropic =   186.3126   Anisotropy =    13.2670
   XX=   189.2400   YX=    -1.5761   ZX=    -3.0077
   XY=     0.4520   YY=   187.7106   ZY=     9.0836
   XZ=    -1.3638   YZ=     9.6220   ZZ=   181.9870
   Eigenvalues:   174.9250   188.8554   195.1572
     20  H    Isotropic =    32.2762   Anisotropy =    10.4271
   XX=    37.9047   YX=     3.2425   ZX=    -1.3728
   XY=     2.9334   YY=    30.6980   ZY=    -0.7426
   XZ=    -1.1302   YZ=    -0.6173   ZZ=    28.2258
   Eigenvalues:    28.0186    29.5823    39.2275
     21  H    Isotropic =    32.0264   Anisotropy =     6.3439
   XX=    31.6727   YX=    -0.2814   ZX=    -2.3900
   XY=    -1.1914   YY=    34.5785   ZY=     2.8985
   XZ=    -2.3642   YZ=     2.0289   ZZ=    29.8280
   Eigenvalues:    27.7709    32.0526    36.2556
     22  H    Isotropic =    31.9489   Anisotropy =     7.3968
   XX=    30.7219   YX=     0.5291   ZX=     1.3712
   XY=     0.0887   YY=    29.7327   ZY=    -3.4109
   XZ=     1.4141   YZ=    -2.5136   ZZ=    35.3921
   Eigenvalues:    28.1761    30.7906    36.8801
     23  H    Isotropic =    32.3392   Anisotropy =     9.7811
   XX=    38.8022   YX=    -0.1038   ZX=    -0.9092
   XY=     0.4035   YY=    29.2629   ZY=     0.7453
   XZ=    -0.5917   YZ=     0.8015   ZZ=    28.9525
   Eigenvalues:    28.2751    29.8825    38.8599
     24  H    Isotropic =    31.9596   Anisotropy =     8.5778
   XX=    29.7304   YX=    -1.2558   ZX=    -0.0922
   XY=    -0.8678   YY=    28.7243   ZY=     1.9432
   XZ=     0.1822   YZ=     1.0592   ZZ=    37.4242
   Eigenvalues:    27.8732    30.3276    37.6782
     25  H    Isotropic =    32.0121   Anisotropy =     8.5915
   XX=    29.6399   YX=    -0.8872   ZX=    -1.3130
   XY=    -0.5723   YY=    37.6441   ZY=    -1.1070
   XZ=    -1.0980   YZ=    -0.1356   ZZ=    28.7522
   Eigenvalues:    27.8237    30.4728    37.7397
     26  H    Isotropic =    32.1520   Anisotropy =    10.4973
   XX=    38.2830   YX=     1.2738   ZX=     2.7822
   XY=     1.5081   YY=    28.1717   ZY=     0.3296
   XZ=     2.1623   YZ=     0.3119   ZZ=    30.0011
   Eigenvalues:    27.9838    29.3220    39.1502
     27  H    Isotropic =    31.8791   Anisotropy =     7.2779
   XX=    30.5495   YX=     0.3176   ZX=     0.6721
   XY=     0.1877   YY=    34.1023   ZY=    -3.5789
   XZ=     0.5551   YZ=    -4.1873   ZZ=    30.9855
   Eigenvalues:    28.1813    30.7250    36.7310
     28  H    Isotropic =    31.9428   Anisotropy =     6.4892
   XX=    32.1107   YX=    -1.8222   ZX=    -0.2405
   XY=    -1.9179   YY=    30.4648   ZY=     3.0125
   XZ=    -1.2155   YZ=     3.9053   ZZ=    33.2529
   Eigenvalues:    27.8000    31.7595    36.2689
     29  H    Isotropic =    30.7110   Anisotropy =     8.1316
   XX=    34.3638   YX=    -1.7201   ZX=    -2.1015
   XY=    -1.1123   YY=    24.5318   ZY=    -0.3587
   XZ=    -2.2856   YZ=    -0.4604   ZZ=    33.2374
   Eigenvalues:    24.2724    31.7286    36.1320
     30  H    Isotropic =    31.4331   Anisotropy =     7.5541
   XX=    28.6049   YX=     0.0654   ZX=     0.4437
   XY=     0.1983   YY=    35.0811   ZY=    -2.9132
   XZ=     0.4701   YZ=    -2.7867   ZZ=    30.6133
   Eigenvalues:    28.3527    29.4774    36.4691
     31  H    Isotropic =    31.1564   Anisotropy =     9.6952
   XX=    32.3517   YX=     2.1913   ZX=     3.2276
   XY=     2.0092   YY=    25.9047   ZY=     0.1874
   XZ=     3.5401   YZ=     0.3015   ZZ=    35.2130
   Eigenvalues:    25.2188    30.6306    37.6199
     32  H    Isotropic =    30.1727   Anisotropy =     9.2436
   XX=    34.7579   YX=    -1.7974   ZX=    -2.4000
   XY=    -2.1154   YY=    28.3302   ZY=     3.6136
   XZ=    -1.9040   YZ=     2.5882   ZZ=    27.4300
   Eigenvalues:    24.7329    29.4501    36.3351
     33  H    Isotropic =    30.3174   Anisotropy =     5.8745
   XX=    30.9671   YX=    -0.7321   ZX=     2.2524
   XY=    -0.4342   YY=    30.3317   ZY=    -3.5632
   XZ=     1.6394   YZ=    -2.9514   ZZ=    29.6534
   Eigenvalues:    26.4449    30.2736    34.2337
     34  H    Isotropic =    30.9850   Anisotropy =    11.9982
   XX=    35.5517   YX=     2.1246   ZX=     4.7455
   XY=     2.8917   YY=    28.6990   ZY=     1.9837
   XZ=     5.0096   YZ=     1.5259   ZZ=    28.7042
   Eigenvalues:    26.0821    27.8890    38.9838
     35  H    Isotropic =    31.3788   Anisotropy =     8.4112
   XX=    29.7411   YX=     2.6995   ZX=     0.4004
   XY=     3.0245   YY=    34.0402   ZY=    -3.9820
   XZ=     0.4737   YZ=    -3.2890   ZZ=    30.3551
   Eigenvalues:    26.7251    30.4251    36.9863
     36  H    Isotropic =    31.3144   Anisotropy =     5.8844
   XX=    32.1958   YX=     0.7628   ZX=    -1.3592
   XY=     0.2598   YY=    30.6416   ZY=     4.5963
   XZ=    -1.5283   YZ=     3.7737   ZZ=    31.1057
   Eigenvalues:    26.3604    32.3454    35.2373
     37  C    Isotropic =   141.3984   Anisotropy =    35.4655
   XX=   124.0730   YX=     5.2242   ZX=    -1.3409
   XY=     8.1774   YY=   159.6211   ZY=    -9.8873
   XZ=    -3.1057   YZ=    -9.9395   ZZ=   140.5010
   Eigenvalues:   122.8406   136.3124   165.0420
     38  C    Isotropic =    44.8396   Anisotropy =   180.3395
   XX=    53.8772   YX=    33.9092   ZX=    77.3197
   XY=    35.8156   YY=   -21.8882   ZY=   -63.7855
   XZ=    77.0595   YZ=   -63.9996   ZZ=   102.5297
   Eigenvalues:   -81.2002    50.6530   165.0659
     39  C    Isotropic =    64.5993   Anisotropy =   141.9006
   XX=    84.3122   YX=    35.5824   ZX=    57.2955
   XY=    37.2832   YY=     0.6012   ZY=   -59.8764
   XZ=    54.6403   YZ=   -63.7358   ZZ=   108.8844
   Eigenvalues:   -51.9149    86.5131   159.1997
     40  H    Isotropic =    29.4584   Anisotropy =     6.4624
   XX=    32.3008   YX=     2.2929   ZX=     1.4353
   XY=     2.0205   YY=    27.0955   ZY=    -1.4825
   XZ=     2.9915   YZ=    -0.5333   ZZ=    28.9788
   Eigenvalues:    25.4091    29.1994    33.7666
     41  H    Isotropic =    29.8276   Anisotropy =     5.3117
   XX=    29.1179   YX=     0.4228   ZX=    -2.2112
   XY=    -0.7296   YY=    28.5035   ZY=    -0.9855
   XZ=    -2.0570   YZ=    -2.0792   ZZ=    31.8616
   Eigenvalues:    27.2096    28.9046    33.3688
     42  H    Isotropic =    25.7093   Anisotropy =     7.0836
   XX=    25.7187   YX=     1.3533   ZX=     0.0293
   XY=     2.6576   YY=    28.5582   ZY=    -3.0505
   XZ=    -0.0168   YZ=    -2.5169   ZZ=    22.8511
   Eigenvalues:    21.5628    25.1335    30.4317
     43  H    Isotropic =    26.7009   Anisotropy =     6.8991
   XX=    26.5673   YX=     3.7640   ZX=     0.1323
   XY=     1.8467   YY=    28.3309   ZY=    -1.9315
   XZ=    -0.3463   YZ=    -3.5849   ZZ=    25.2046
   Eigenvalues:    22.9589    25.8436    31.3003
     44  H    Isotropic =    26.7701   Anisotropy =     7.2374
   XX=    27.3647   YX=     1.7645   ZX=    -0.9268
   XY=     3.9849   YY=    26.2405   ZY=    -4.3522
   XZ=    -0.2659   YZ=    -2.9231   ZZ=    26.7050
   Eigenvalues:    22.1871    26.5281    31.5950
 End of Minotr F.D. properties file   721 does not exist.
 End of Minotr F.D. properties file   722 does not exist.
 End of Minotr F.D. properties file   788 does not exist.

 **********************************************************************

            Population analysis using the SCF density.

 **********************************************************************

 Orbital symmetries:
       Occupied  (A) (A) (A) (A) (A) (A) (A) (A) (A) (A) (A) (A)
                 (A) (A) (A) (A) (A) (A) (A) (A) (A) (A) (A) (A)
                 (A) (A) (A) (A) (A) (A) (A) (A) (A) (A) (A) (A)
                 (A) (A) (A) (A) (A) (A) (A) (A) (A) (A) (A) (A)
                 (A) (A) (A) (A) (A) (A) (A) (A) (A) (A) (A) (A)
                 (A) (A) (A) (A) (A) (A) (A) (A) (A) (A) (A) (A)
                 (A) (A)
       Virtual   (A) (A) (A) (A) (A) (A) (A) (A) (A) (A) (A) (A)
                 (A) (A) (A) (A) (A) (A) (A) (A) (A) (A) (A) (A)
                 (A) (A) (A) (A) (A) (A) (A) (A) (A) (A) (A) (A)
                 (A) (A) (A) (A) (A) (A) (A) (A) (A) (A) (A) (A)
                 (A) (A) (A) (A) (A) (A) (A) (A) (A) (A) (A) (A)
                 (A) (A) (A) (A) (A) (A) (A) (A) (A) (A) (A) (A)
                 (A) (A) (A) (A) (A) (A) (A) (A) (A) (A) (A) (A)
                 (A) (A) (A) (A) (A) (A) (A) (A) (A) (A) (A) (A)
                 (A) (A) (A) (A) (A) (A) (A) (A) (A) (A) (A) (A)
                 (A) (A) (A) (A) (A) (A) (A) (A) (A) (A) (A) (A)
                 (A) (A) (A) (A) (A) (A) (A) (A) (A) (A) (A) (A)
                 (A) (A) (A) (A) (A) (A) (A) (A) (A) (A) (A) (A)
                 (A) (A) (A) (A) (A) (A) (A) (A) (A) (A) (A) (A)
                 (A) (A) (A) (A) (A) (A) (A) (A) (A) (A) (A) (A)
                 (A) (A) (A) (A) (A) (A) (A) (A) (A) (A) (A) (A)
                 (A) (A) (A) (A) (A) (A) (A) (A) (A) (A) (A) (A)
                 (A) (A) (A) (A) (A) (A) (A) (A) (A) (A) (A) (A)
                 (A) (A) (A) (A) (A) (A) (A) (A) (A) (A) (A) (A)
                 (A) (A) (A) (A) (A) (A) (A) (A) (A) (A) (A) (A)
                 (A) (A) (A) (A) (A) (A) (A) (A) (A) (A) (A) (A)
                 (A) (A) (A) (A) (A) (A) (A) (A) (A) (A) (A) (A)
                 (A) (A) (A) (A) (A) (A) (A) (A) (A) (A) (A) (A)
                 (A) (A) (A) (A) (A) (A) (A) (A) (A) (A) (A) (A)
                 (A) (A) (A) (A) (A) (A) (A) (A) (A) (A) (A) (A)
                 (A) (A) (A) (A) (A) (A) (A) (A) (A) (A) (A) (A)
                 (A) (A) (A) (A) (A) (A) (A) (A) (A) (A) (A) (A)
                 (A) (A) (A) (A) (A) (A) (A) (A) (A) (A) (A) (A)
                 (A) (A) (A) (A) (A) (A) (A) (A) (A) (A) (A) (A)
 The electronic state is 1-A.
 Alpha  occ. eigenvalues --  -66.27040 -19.26264 -19.21387 -19.20300 -10.37601
 Alpha  occ. eigenvalues --  -10.32292 -10.30537 -10.25521 -10.25146 -10.24647
 Alpha  occ. eigenvalues --  -10.24446 -10.23726 -10.23053 -10.22577 -10.22324
 Alpha  occ. eigenvalues --  -10.20882 -10.20619 -10.20547  -5.32870  -3.66717
 Alpha  occ. eigenvalues --   -3.66484  -3.66451  -1.13585  -1.05076  -1.04164
 Alpha  occ. eigenvalues --   -0.86011  -0.83291  -0.81075  -0.77556  -0.74072
 Alpha  occ. eigenvalues --   -0.73481  -0.71858  -0.70318  -0.69994  -0.66970
 Alpha  occ. eigenvalues --   -0.63316  -0.62142  -0.58721  -0.54994  -0.53511
 Alpha  occ. eigenvalues --   -0.53274  -0.51480  -0.51052  -0.47940  -0.47332
 Alpha  occ. eigenvalues --   -0.46959  -0.45448  -0.45034  -0.44491  -0.43796
 Alpha  occ. eigenvalues --   -0.42821  -0.42785  -0.42408  -0.41422  -0.41073
 Alpha  occ. eigenvalues --   -0.40593  -0.40358  -0.39717  -0.39377  -0.38968
 Alpha  occ. eigenvalues --   -0.38645  -0.37894  -0.37375  -0.37129  -0.36573
 Alpha  occ. eigenvalues --   -0.35345  -0.34500  -0.33302  -0.31938  -0.31254
 Alpha  occ. eigenvalues --   -0.30335  -0.29681  -0.28586  -0.27344
 Alpha virt. eigenvalues --   -0.00730   0.00704   0.03797   0.05314   0.06013
 Alpha virt. eigenvalues --    0.06483   0.07071   0.07928   0.08362   0.08987
 Alpha virt. eigenvalues --    0.09544   0.09898   0.10756   0.10839   0.11530
 Alpha virt. eigenvalues --    0.12001   0.12429   0.13446   0.13688   0.13792
 Alpha virt. eigenvalues --    0.14448   0.14806   0.14988   0.15499   0.15897
 Alpha virt. eigenvalues --    0.16455   0.16796   0.17005   0.17768   0.18085
 Alpha virt. eigenvalues --    0.18308   0.19250   0.19817   0.20429   0.21010
 Alpha virt. eigenvalues --    0.21840   0.22247   0.23408   0.24540   0.24617
 Alpha virt. eigenvalues --    0.25279   0.26240   0.26347   0.27658   0.27686
 Alpha virt. eigenvalues --    0.29610   0.29891   0.30977   0.31587   0.32264
 Alpha virt. eigenvalues --    0.32816   0.33246   0.34666   0.35456   0.36107
 Alpha virt. eigenvalues --    0.36963   0.37809   0.38539   0.39877   0.40528
 Alpha virt. eigenvalues --    0.40711   0.42224   0.43515   0.43723   0.44671
 Alpha virt. eigenvalues --    0.44918   0.46435   0.46947   0.47289   0.47416
 Alpha virt. eigenvalues --    0.48908   0.50360   0.50801   0.51703   0.52325
 Alpha virt. eigenvalues --    0.53151   0.53255   0.54855   0.56078   0.56219
 Alpha virt. eigenvalues --    0.56520   0.57339   0.57575   0.58422   0.59081
 Alpha virt. eigenvalues --    0.59667   0.60125   0.60253   0.60708   0.61063
 Alpha virt. eigenvalues --    0.61291   0.61888   0.62190   0.62772   0.63382
 Alpha virt. eigenvalues --    0.63631   0.64259   0.65078   0.65613   0.66127
 Alpha virt. eigenvalues --    0.66366   0.67127   0.67370   0.67596   0.68198
 Alpha virt. eigenvalues --    0.68935   0.69046   0.69842   0.70340   0.70987
 Alpha virt. eigenvalues --    0.71920   0.72467   0.73091   0.74132   0.75160
 Alpha virt. eigenvalues --    0.75481   0.76436   0.78692   0.79761   0.81063
 Alpha virt. eigenvalues --    0.82790   0.83426   0.85676   0.86536   0.88436
 Alpha virt. eigenvalues --    0.89769   0.90836   0.91366   0.93219   0.94550
 Alpha virt. eigenvalues --    0.96161   0.96532   0.98898   1.00667   1.00689
 Alpha virt. eigenvalues --    1.01995   1.03670   1.06077   1.06809   1.08038
 Alpha virt. eigenvalues --    1.11404   1.12537   1.15219   1.17207   1.18425
 Alpha virt. eigenvalues --    1.18964   1.21369   1.25666   1.26400   1.27814
 Alpha virt. eigenvalues --    1.28652   1.29832   1.30451   1.32430   1.33274
 Alpha virt. eigenvalues --    1.34050   1.35009   1.36623   1.39522   1.41258
 Alpha virt. eigenvalues --    1.41911   1.45068   1.45619   1.47220   1.49366
 Alpha virt. eigenvalues --    1.49860   1.51824   1.52591   1.53585   1.54066
 Alpha virt. eigenvalues --    1.54752   1.55667   1.56206   1.57335   1.57761
 Alpha virt. eigenvalues --    1.58984   1.59327   1.59688   1.59963   1.60919
 Alpha virt. eigenvalues --    1.61646   1.62236   1.62863   1.63354   1.64520
 Alpha virt. eigenvalues --    1.64826   1.65640   1.66833   1.68693   1.69822
 Alpha virt. eigenvalues --    1.70168   1.71414   1.72295   1.73142   1.73572
 Alpha virt. eigenvalues --    1.74978   1.76836   1.77806   1.80063   1.80880
 Alpha virt. eigenvalues --    1.81236   1.81521   1.83896   1.85121   1.87393
 Alpha virt. eigenvalues --    1.90314   1.92124   1.93632   1.95704   1.96739
 Alpha virt. eigenvalues --    2.00760   2.03825   2.07137   2.10405   2.12606
 Alpha virt. eigenvalues --    2.13246   2.15755   2.19589   2.21148   2.24009
 Alpha virt. eigenvalues --    2.28036   2.29655   2.33971   2.36691   2.41301
 Alpha virt. eigenvalues --    2.41754   2.41947   2.42171   2.42630   2.43181
 Alpha virt. eigenvalues --    2.44458   2.44948   2.46192   2.46388   2.48238
 Alpha virt. eigenvalues --    2.48604   2.48836   2.50091   2.50781   2.52457
 Alpha virt. eigenvalues --    2.53181   2.54195   2.55971   2.58574   2.59226
 Alpha virt. eigenvalues --    2.62452   2.64620   2.66423   2.72287   2.80737
 Alpha virt. eigenvalues --    2.82736   2.86668   2.88320   2.90055   2.90641
 Alpha virt. eigenvalues --    2.92833   2.93303   2.95151   2.96436   2.96698
 Alpha virt. eigenvalues --    2.99987   3.00954   3.02007   3.05316   3.07351
 Alpha virt. eigenvalues --    3.09191   3.10841   3.11760   3.13575   3.14912
 Alpha virt. eigenvalues --    3.15816   3.17274   3.18546   3.19421   3.20985
 Alpha virt. eigenvalues --    3.22265   3.22783   3.23279   3.23700   3.25797
 Alpha virt. eigenvalues --    3.27419   3.27905   3.28353   3.30700   3.32968
 Alpha virt. eigenvalues --    3.34248   3.34879   3.37433   3.39921   3.40797
 Alpha virt. eigenvalues --    3.44067   3.51205   3.56259   3.59386   3.63224
 Alpha virt. eigenvalues --    3.77334   3.89357   3.90592   3.98901   4.01066
 Alpha virt. eigenvalues --    4.07978   4.10821   4.19845   4.21025   4.24482
 Alpha virt. eigenvalues --    4.94624   4.99363   5.02022   5.09366   5.13319
 Alpha virt. eigenvalues --    5.23695   5.50276   5.53487   5.77126   5.85162
 Alpha virt. eigenvalues --   11.52457  11.54537  11.59088  23.41724  23.48931
 Alpha virt. eigenvalues --   23.54667  23.55287  23.57435  23.60942  23.70072
 Alpha virt. eigenvalues --   23.76131  23.77835  23.77962  23.80617  23.86036
 Alpha virt. eigenvalues --   23.88728  24.27072  49.98229  50.05733  50.11560
 Alpha virt. eigenvalues --  141.28985
          Condensed to atoms (all electrons):
               1          2          3          4          5          6
     1  C    5.234960   0.232037  -0.052879  -0.005404  -0.054412   0.398644
     2  C    0.232037   5.622402   0.285037  -0.076793  -0.017948  -0.052355
     3  C   -0.052879   0.285037   5.202860   0.223846  -0.012678  -0.017101
     4  C   -0.005404  -0.076793   0.223846   5.893130   0.233146   0.003172
     5  C   -0.054412  -0.017948  -0.012678   0.233146   4.407642  -0.002811
     6  H    0.398644  -0.052355  -0.017101   0.003172  -0.002811   0.476652
     7  H   -0.023190   0.387706  -0.039319   0.008206   0.000179  -0.000741
     8  H    0.002165  -0.008544  -0.028480   0.371688  -0.021414  -0.000270
     9  H   -0.001088   0.007677  -0.031652   0.352203  -0.025087   0.000159
    10  O    0.215921  -0.040586   0.000419  -0.107242   0.345684  -0.033298
    11  O    0.000937  -0.000265   0.003624  -0.104620   0.664124   0.000361
    12  C    0.343708  -0.053237   0.008990  -0.001755   0.003666  -0.049527
    13  C   -0.075250   0.002532  -0.000511   0.000119  -0.000151   0.001697
    14  C   -0.083228   0.290811  -0.078742  -0.007952   0.000501   0.007640
    15  O    0.003573  -0.061490   0.222698  -0.024224   0.001618  -0.000034
    16  Si   0.000287   0.001908  -0.048842  -0.009324   0.000898  -0.000131
    17  C    0.000008  -0.000251  -0.000128  -0.002101   0.000072   0.000002
    18  C    0.000000  -0.000070  -0.000932   0.000666   0.000138   0.000001
    19  C   -0.000001  -0.000021   0.002306  -0.000139   0.000001   0.000000
    20  H    0.000000   0.000001  -0.000035   0.000155  -0.000001   0.000000
    21  H   -0.000001   0.000015  -0.000128   0.001430   0.000081   0.000001
    22  H   -0.000002   0.000086   0.000570  -0.000190  -0.000038   0.000000
    23  H    0.000000   0.000001  -0.000078  -0.000002   0.000000   0.000000
    24  H   -0.000001   0.000045  -0.000154  -0.000042   0.000000   0.000000
    25  H    0.000000  -0.000010  -0.000081  -0.000020   0.000000   0.000000
    26  H    0.000000   0.000007  -0.000075   0.000051   0.000000   0.000000
    27  H    0.000003  -0.000094   0.000098   0.000176   0.000004  -0.000001
    28  H    0.000007  -0.000087   0.000352   0.001284  -0.000051  -0.000002
    29  H    0.006411  -0.033745  -0.006221  -0.000034  -0.000099  -0.000137
    30  H   -0.006326  -0.039949  -0.011456   0.006948  -0.001704   0.000588
    31  H   -0.007149  -0.033108   0.007328  -0.000584   0.000004  -0.000311
    32  H   -0.046937   0.009332  -0.000132   0.000270  -0.000243  -0.007956
    33  H   -0.038942  -0.013037  -0.000468   0.000132  -0.000066   0.007470
    34  H    0.007789  -0.000125   0.000009  -0.000001   0.000005  -0.000293
    35  H   -0.002122  -0.002873  -0.000220   0.000002  -0.000003   0.005352
    36  H   -0.009728   0.004800   0.000180  -0.000009  -0.000003  -0.000490
    37  C    0.002021  -0.093389   0.324263  -0.105437   0.002281   0.004006
    38  C   -0.002349  -0.014364  -0.060065   0.008602  -0.000202  -0.000088
    39  C   -0.000836   0.000036  -0.003028  -0.000050  -0.000043   0.003182
    40  H   -0.000401   0.007464  -0.039830  -0.004592  -0.000063   0.000664
    41  H   -0.000377  -0.002412  -0.025608  -0.005847   0.004407  -0.000955
    42  H    0.000124  -0.000867  -0.001709  -0.000037  -0.000004   0.000014
    43  H    0.000047   0.000008  -0.000329   0.000017   0.000000   0.000011
    44  H    0.000046  -0.000173   0.000259  -0.000061  -0.000022   0.001255
               7          8          9         10         11         12
     1  C   -0.023190   0.002165  -0.001088   0.215921   0.000937   0.343708
     2  C    0.387706  -0.008544   0.007677  -0.040586  -0.000265  -0.053237
     3  C   -0.039319  -0.028480  -0.031652   0.000419   0.003624   0.008990
     4  C    0.008206   0.371688   0.352203  -0.107242  -0.104620  -0.001755
     5  C    0.000179  -0.021414  -0.025087   0.345684   0.664124   0.003666
     6  H   -0.000741  -0.000270   0.000159  -0.033298   0.000361  -0.049527
     7  H    0.440432  -0.000147  -0.000035   0.003019   0.000022  -0.007586
     8  H   -0.000147   0.394685  -0.016547  -0.000620   0.001274   0.000011
     9  H   -0.000035  -0.016547   0.427308   0.005687   0.014979   0.000048
    10  O    0.003019  -0.000620   0.005687   8.026759  -0.069758  -0.047613
    11  O    0.000022   0.001274   0.014979  -0.069758   7.869928  -0.000156
    12  C   -0.007586   0.000011   0.000048  -0.047613  -0.000156   5.318075
    13  C    0.001868  -0.000010  -0.000002   0.003751   0.000001   0.285208
    14  C   -0.038618   0.000316   0.000111  -0.000094  -0.000003  -0.008699
    15  O    0.003668  -0.001451  -0.001490  -0.000027  -0.000016  -0.000059
    16  Si  -0.000364  -0.006207  -0.001271  -0.000471  -0.001083   0.000030
    17  C    0.000007   0.000220   0.002520   0.000000   0.000007   0.000000
    18  C    0.000034  -0.001874  -0.000457  -0.000001   0.000008   0.000000
    19  C   -0.000036  -0.000071  -0.000015   0.000000   0.000000   0.000000
    20  H   -0.000001   0.000356   0.000007   0.000000   0.000000   0.000000
    21  H    0.000004   0.000098   0.000252   0.000000  -0.000011   0.000000
    22  H    0.000003   0.000122   0.000060   0.000001   0.000002   0.000000
    23  H    0.000000   0.000001  -0.000004   0.000000   0.000000   0.000000
    24  H   -0.000008  -0.000019  -0.000008   0.000000   0.000000   0.000000
    25  H   -0.000018  -0.000007  -0.000009   0.000000   0.000000   0.000000
    26  H    0.000000   0.000000   0.000034   0.000000   0.000000   0.000000
    27  H   -0.000009   0.000012  -0.000232   0.000000   0.000000   0.000000
    28  H    0.000001  -0.000133   0.003177  -0.000003  -0.000078   0.000000
    29  H   -0.002175   0.000363  -0.000122  -0.000132   0.000002   0.000101
    30  H    0.006597  -0.000205   0.000477   0.009250  -0.000241  -0.003606
    31  H   -0.006309   0.000198   0.000014  -0.000086   0.000001   0.001983
    32  H   -0.000299   0.000013  -0.000011   0.004129  -0.000030   0.403281
    33  H    0.000178  -0.000065   0.000001   0.002977  -0.000014   0.390586
    34  H    0.000232   0.000000   0.000000  -0.000121   0.000000  -0.033571
    35  H    0.000247  -0.000001   0.000000  -0.000028   0.000000  -0.043435
    36  H   -0.000140   0.000000   0.000000  -0.000048   0.000000  -0.034739
    37  C   -0.009816   0.005545  -0.006604  -0.003077  -0.000025  -0.000505
    38  C    0.008391  -0.000187   0.000164   0.000284  -0.000002  -0.000115
    39  C    0.002436   0.000001  -0.000004  -0.000018   0.000000  -0.000108
    40  H    0.000214  -0.000189   0.002567  -0.000105   0.000035   0.000001
    41  H   -0.000101   0.000169   0.000003   0.000004   0.000424   0.000520
    42  H   -0.000074   0.000020  -0.000011   0.000003   0.000000   0.000016
    43  H    0.000146  -0.000001   0.000001   0.000000   0.000000  -0.000009
    44  H   -0.000067   0.000002   0.000001  -0.000018   0.000000   0.000054
              13         14         15         16         17         18
     1  C   -0.075250  -0.083228   0.003573   0.000287   0.000008   0.000000
     2  C    0.002532   0.290811  -0.061490   0.001908  -0.000251  -0.000070
     3  C   -0.000511  -0.078742   0.222698  -0.048842  -0.000128  -0.000932
     4  C    0.000119  -0.007952  -0.024224  -0.009324  -0.002101   0.000666
     5  C   -0.000151   0.000501   0.001618   0.000898   0.000072   0.000138
     6  H    0.001697   0.007640  -0.000034  -0.000131   0.000002   0.000001
     7  H    0.001868  -0.038618   0.003668  -0.000364   0.000007   0.000034
     8  H   -0.000010   0.000316  -0.001451  -0.006207   0.000220  -0.001874
     9  H   -0.000002   0.000111  -0.001490  -0.001271   0.002520  -0.000457
    10  O    0.003751  -0.000094  -0.000027  -0.000471   0.000000  -0.000001
    11  O    0.000001  -0.000003  -0.000016  -0.001083   0.000007   0.000008
    12  C    0.285208  -0.008699  -0.000059   0.000030   0.000000   0.000000
    13  C    5.369095  -0.002706  -0.000002  -0.000007   0.000000   0.000000
    14  C   -0.002706   5.433926  -0.005965  -0.000877  -0.000001   0.000094
    15  O   -0.000002  -0.005965   8.262055   0.349838  -0.021801  -0.024361
    16  Si  -0.000007  -0.000877   0.349838  11.529661   0.316142   0.318200
    17  C    0.000000  -0.000001  -0.021801   0.316142   5.801929  -0.058509
    18  C    0.000000   0.000094  -0.024361   0.318200  -0.058509   5.779104
    19  C    0.000000  -0.000029  -0.021538   0.336491  -0.051095  -0.053779
    20  H    0.000000   0.000002   0.000892  -0.011725   0.000853   0.364672
    21  H    0.000000   0.000005  -0.001165  -0.029681  -0.001540   0.370567
    22  H    0.000000   0.000261  -0.002206  -0.025823   0.002300   0.369965
    23  H    0.000000  -0.000002   0.000901  -0.014330  -0.000133   0.000633
    24  H    0.000000   0.000000  -0.001186  -0.026881   0.002609  -0.000537
    25  H    0.000000  -0.000001  -0.001309  -0.028314  -0.000550   0.002581
    26  H    0.000000   0.000000   0.000758  -0.009914   0.366080   0.000234
    27  H    0.000000   0.000003  -0.001848  -0.027164   0.369806   0.002462
    28  H    0.000000   0.000002  -0.001039  -0.028575   0.365005  -0.001408
    29  H   -0.000050   0.386512   0.006653   0.001261   0.000040   0.000275
    30  H    0.000616   0.385218   0.000170  -0.000900   0.000004   0.000149
    31  H   -0.000678   0.388298   0.000265   0.000248   0.000000  -0.000006
    32  H   -0.038151  -0.000415   0.000004   0.000002   0.000000   0.000000
    33  H   -0.036599   0.005408  -0.000002  -0.000005   0.000000   0.000000
    34  H    0.389675  -0.000087   0.000000   0.000000   0.000000   0.000000
    35  H    0.384795   0.000518   0.000000   0.000000   0.000000   0.000000
    36  H    0.383997   0.000107  -0.000020  -0.000007   0.000000   0.000000
    37  C    0.000046   0.008080  -0.059414  -0.013672  -0.003254  -0.000420
    38  C   -0.000035  -0.000122   0.002499  -0.000448   0.000781   0.000021
    39  C   -0.000019  -0.000009   0.000535   0.000395   0.000010   0.000000
    40  H    0.000000  -0.000135  -0.003151  -0.004520  -0.002510  -0.000120
    41  H   -0.000036  -0.000258   0.003608   0.001962  -0.000061   0.000018
    42  H   -0.000001  -0.000065   0.004490   0.002210  -0.000050   0.000021
    43  H    0.000021  -0.000002   0.000015   0.000010   0.000000   0.000000
    44  H    0.000061   0.000004  -0.000010  -0.000005  -0.000001   0.000000
              19         20         21         22         23         24
     1  C   -0.000001   0.000000  -0.000001  -0.000002   0.000000  -0.000001
     2  C   -0.000021   0.000001   0.000015   0.000086   0.000001   0.000045
     3  C    0.002306  -0.000035  -0.000128   0.000570  -0.000078  -0.000154
     4  C   -0.000139   0.000155   0.001430  -0.000190  -0.000002  -0.000042
     5  C    0.000001  -0.000001   0.000081  -0.000038   0.000000   0.000000
     6  H    0.000000   0.000000   0.000001   0.000000   0.000000   0.000000
     7  H   -0.000036  -0.000001   0.000004   0.000003   0.000000  -0.000008
     8  H   -0.000071   0.000356   0.000098   0.000122   0.000001  -0.000019
     9  H   -0.000015   0.000007   0.000252   0.000060  -0.000004  -0.000008
    10  O    0.000000   0.000000   0.000000   0.000001   0.000000   0.000000
    11  O    0.000000   0.000000  -0.000011   0.000002   0.000000   0.000000
    12  C    0.000000   0.000000   0.000000   0.000000   0.000000   0.000000
    13  C    0.000000   0.000000   0.000000   0.000000   0.000000   0.000000
    14  C   -0.000029   0.000002   0.000005   0.000261  -0.000002   0.000000
    15  O   -0.021538   0.000892  -0.001165  -0.002206   0.000901  -0.001186
    16  Si   0.336491  -0.011725  -0.029681  -0.025823  -0.014330  -0.026881
    17  C   -0.051095   0.000853  -0.001540   0.002300  -0.000133   0.002609
    18  C   -0.053779   0.364672   0.370567   0.369965   0.000633  -0.000537
    19  C    5.723953  -0.000974   0.002782  -0.000396   0.364083   0.369433
    20  H   -0.000974   0.447405  -0.022429  -0.020024   0.000831  -0.000086
    21  H    0.002782  -0.022429   0.456079  -0.019020  -0.000078  -0.000085
    22  H   -0.000396  -0.020024  -0.019020   0.450380  -0.000029   0.001070
    23  H    0.364083   0.000831  -0.000078  -0.000029   0.452966  -0.020553
    24  H    0.369433  -0.000086  -0.000085   0.001070  -0.020553   0.457189
    25  H    0.368722   0.000006  -0.000116  -0.000104  -0.020403  -0.018127
    26  H   -0.000974   0.000317   0.000064  -0.000029   0.000635  -0.000060
    27  H   -0.000478  -0.000049  -0.000026  -0.000104  -0.000104  -0.000073
    28  H    0.003036  -0.000009   0.001229  -0.000046  -0.000054  -0.000098
    29  H    0.000026   0.000006  -0.000008   0.000573  -0.000007   0.000124
    30  H    0.000001  -0.000005  -0.000002   0.000097   0.000000  -0.000005
    31  H   -0.000001   0.000000  -0.000002  -0.000010   0.000000   0.000000
    32  H    0.000000   0.000000   0.000000   0.000000   0.000000   0.000000
    33  H    0.000000   0.000000   0.000000   0.000000   0.000000   0.000000
    34  H    0.000000   0.000000   0.000000   0.000000   0.000000   0.000000
    35  H    0.000000   0.000000   0.000000   0.000000   0.000000   0.000000
    36  H    0.000000   0.000000   0.000000   0.000000   0.000000   0.000000
    37  C   -0.000253   0.000011  -0.000043  -0.000054   0.000006  -0.000016
    38  C   -0.000036   0.000000   0.000002   0.000003  -0.000004  -0.000005
    39  C    0.000000   0.000000   0.000000   0.000000   0.000000   0.000000
    40  H   -0.000037   0.000004  -0.000047  -0.000004   0.000004  -0.000007
    41  H    0.000000   0.000000   0.000009   0.000004   0.000000   0.000001
    42  H    0.000146   0.000000   0.000001   0.000001  -0.000008  -0.000011
    43  H    0.000000   0.000000   0.000000   0.000000   0.000000   0.000000
    44  H    0.000000   0.000000   0.000000   0.000000   0.000000   0.000000
              25         26         27         28         29         30
     1  C    0.000000   0.000000   0.000003   0.000007   0.006411  -0.006326
     2  C   -0.000010   0.000007  -0.000094  -0.000087  -0.033745  -0.039949
     3  C   -0.000081  -0.000075   0.000098   0.000352  -0.006221  -0.011456
     4  C   -0.000020   0.000051   0.000176   0.001284  -0.000034   0.006948
     5  C    0.000000   0.000000   0.000004  -0.000051  -0.000099  -0.001704
     6  H    0.000000   0.000000  -0.000001  -0.000002  -0.000137   0.000588
     7  H   -0.000018   0.000000  -0.000009   0.000001  -0.002175   0.006597
     8  H   -0.000007   0.000000   0.000012  -0.000133   0.000363  -0.000205
     9  H   -0.000009   0.000034  -0.000232   0.003177  -0.000122   0.000477
    10  O    0.000000   0.000000   0.000000  -0.000003  -0.000132   0.009250
    11  O    0.000000   0.000000   0.000000  -0.000078   0.000002  -0.000241
    12  C    0.000000   0.000000   0.000000   0.000000   0.000101  -0.003606
    13  C    0.000000   0.000000   0.000000   0.000000  -0.000050   0.000616
    14  C   -0.000001   0.000000   0.000003   0.000002   0.386512   0.385218
    15  O   -0.001309   0.000758  -0.001848  -0.001039   0.006653   0.000170
    16  Si  -0.028314  -0.009914  -0.027164  -0.028575   0.001261  -0.000900
    17  C   -0.000550   0.366080   0.369806   0.365005   0.000040   0.000004
    18  C    0.002581   0.000234   0.002462  -0.001408   0.000275   0.000149
    19  C    0.368722  -0.000974  -0.000478   0.003036   0.000026   0.000001
    20  H    0.000006   0.000317  -0.000049  -0.000009   0.000006  -0.000005
    21  H   -0.000116   0.000064  -0.000026   0.001229  -0.000008  -0.000002
    22  H   -0.000104  -0.000029  -0.000104  -0.000046   0.000573   0.000097
    23  H   -0.020403   0.000635  -0.000104  -0.000054  -0.000007   0.000000
    24  H   -0.018127  -0.000060  -0.000073  -0.000098   0.000124  -0.000005
    25  H    0.458722  -0.000079   0.001273  -0.000081  -0.000016  -0.000001
    26  H   -0.000079   0.434653  -0.020655  -0.019843   0.000000   0.000000
    27  H    0.001273  -0.020655   0.449688  -0.019677   0.000001   0.000000
    28  H   -0.000081  -0.019843  -0.019677   0.450370   0.000004  -0.000003
    29  H   -0.000016   0.000000   0.000001   0.000004   0.429176  -0.023786
    30  H   -0.000001   0.000000   0.000000  -0.000003  -0.023786   0.475228
    31  H    0.000001   0.000000   0.000000   0.000000  -0.026609  -0.026941
    32  H    0.000000   0.000000   0.000000   0.000000   0.000018  -0.000240
    33  H    0.000000   0.000000   0.000000   0.000000   0.000177   0.001389
    34  H    0.000000   0.000000   0.000000   0.000000  -0.000004   0.000005
    35  H    0.000000   0.000000   0.000000   0.000000   0.000008  -0.000007
    36  H    0.000000   0.000000   0.000000   0.000000  -0.000051  -0.000099
    37  C   -0.000002   0.000390  -0.000497  -0.000853   0.000256  -0.000063
    38  C    0.000019  -0.000051   0.000844   0.000167   0.000009  -0.000047
    39  C   -0.000003  -0.000001   0.000088  -0.000009   0.000001  -0.000004
    40  H   -0.000021   0.000707  -0.000601   0.000688  -0.000031   0.000014
    41  H   -0.000001  -0.000010  -0.000040  -0.000128  -0.000022  -0.000008
    42  H    0.000408   0.000002   0.000203   0.000000   0.000004  -0.000005
    43  H   -0.000001   0.000000  -0.000002   0.000000   0.000000   0.000000
    44  H    0.000000   0.000000   0.000001   0.000001  -0.000001   0.000000
              31         32         33         34         35         36
     1  C   -0.007149  -0.046937  -0.038942   0.007789  -0.002122  -0.009728
     2  C   -0.033108   0.009332  -0.013037  -0.000125  -0.002873   0.004800
     3  C    0.007328  -0.000132  -0.000468   0.000009  -0.000220   0.000180
     4  C   -0.000584   0.000270   0.000132  -0.000001   0.000002  -0.000009
     5  C    0.000004  -0.000243  -0.000066   0.000005  -0.000003  -0.000003
     6  H   -0.000311  -0.007956   0.007470  -0.000293   0.005352  -0.000490
     7  H   -0.006309  -0.000299   0.000178   0.000232   0.000247  -0.000140
     8  H    0.000198   0.000013  -0.000065   0.000000  -0.000001   0.000000
     9  H    0.000014  -0.000011   0.000001   0.000000   0.000000   0.000000
    10  O   -0.000086   0.004129   0.002977  -0.000121  -0.000028  -0.000048
    11  O    0.000001  -0.000030  -0.000014   0.000000   0.000000   0.000000
    12  C    0.001983   0.403281   0.390586  -0.033571  -0.043435  -0.034739
    13  C   -0.000678  -0.038151  -0.036599   0.389675   0.384795   0.383997
    14  C    0.388298  -0.000415   0.005408  -0.000087   0.000518   0.000107
    15  O    0.000265   0.000004  -0.000002   0.000000   0.000000  -0.000020
    16  Si   0.000248   0.000002  -0.000005   0.000000   0.000000  -0.000007
    17  C    0.000000   0.000000   0.000000   0.000000   0.000000   0.000000
    18  C   -0.000006   0.000000   0.000000   0.000000   0.000000   0.000000
    19  C   -0.000001   0.000000   0.000000   0.000000   0.000000   0.000000
    20  H    0.000000   0.000000   0.000000   0.000000   0.000000   0.000000
    21  H   -0.000002   0.000000   0.000000   0.000000   0.000000   0.000000
    22  H   -0.000010   0.000000   0.000000   0.000000   0.000000   0.000000
    23  H    0.000000   0.000000   0.000000   0.000000   0.000000   0.000000
    24  H    0.000000   0.000000   0.000000   0.000000   0.000000   0.000000
    25  H    0.000001   0.000000   0.000000   0.000000   0.000000   0.000000
    26  H    0.000000   0.000000   0.000000   0.000000   0.000000   0.000000
    27  H    0.000000   0.000000   0.000000   0.000000   0.000000   0.000000
    28  H    0.000000   0.000000   0.000000   0.000000   0.000000   0.000000
    29  H   -0.026609   0.000018   0.000177  -0.000004   0.000008  -0.000051
    30  H   -0.026941  -0.000240   0.001389   0.000005  -0.000007  -0.000099
    31  H    0.458931   0.000289  -0.001748   0.000007  -0.000077   0.003453
    32  H    0.000289   0.474729  -0.033338  -0.006237  -0.004869   0.006520
    33  H   -0.001748  -0.033338   0.478506  -0.004257   0.007045  -0.006093
    34  H    0.000007  -0.006237  -0.004257   0.462288  -0.025224  -0.026678
    35  H   -0.000077  -0.004869   0.007045  -0.025224   0.475440  -0.027084
    36  H    0.003453   0.006520  -0.006093  -0.026678  -0.027084   0.473884
    37  C   -0.000117   0.000009  -0.000006  -0.000001  -0.000066   0.000016
    38  C   -0.000031  -0.000007  -0.000017   0.000003   0.000402   0.000011
    39  C    0.000000  -0.000003  -0.000003   0.000003   0.001136   0.000041
    40  H    0.000010  -0.000003   0.000002   0.000000   0.000006   0.000001
    41  H   -0.000008  -0.000012  -0.000023   0.000002  -0.000069   0.000010
    42  H    0.000005   0.000000  -0.000001   0.000000  -0.000001   0.000001
    43  H   -0.000001   0.000000   0.000000  -0.000001   0.000030   0.000002
    44  H    0.000001  -0.000005   0.000001  -0.000002   0.000085   0.000004
              37         38         39         40         41         42
     1  C    0.002021  -0.002349  -0.000836  -0.000401  -0.000377   0.000124
     2  C   -0.093389  -0.014364   0.000036   0.007464  -0.002412  -0.000867
     3  C    0.324263  -0.060065  -0.003028  -0.039830  -0.025608  -0.001709
     4  C   -0.105437   0.008602  -0.000050  -0.004592  -0.005847  -0.000037
     5  C    0.002281  -0.000202  -0.000043  -0.000063   0.004407  -0.000004
     6  H    0.004006  -0.000088   0.003182   0.000664  -0.000955   0.000014
     7  H   -0.009816   0.008391   0.002436   0.000214  -0.000101  -0.000074
     8  H    0.005545  -0.000187   0.000001  -0.000189   0.000169   0.000020
     9  H   -0.006604   0.000164  -0.000004   0.002567   0.000003  -0.000011
    10  O   -0.003077   0.000284  -0.000018  -0.000105   0.000004   0.000003
    11  O   -0.000025  -0.000002   0.000000   0.000035   0.000424   0.000000
    12  C   -0.000505  -0.000115  -0.000108   0.000001   0.000520   0.000016
    13  C    0.000046  -0.000035  -0.000019   0.000000  -0.000036  -0.000001
    14  C    0.008080  -0.000122  -0.000009  -0.000135  -0.000258  -0.000065
    15  O   -0.059414   0.002499   0.000535  -0.003151   0.003608   0.004490
    16  Si  -0.013672  -0.000448   0.000395  -0.004520   0.001962   0.002210
    17  C   -0.003254   0.000781   0.000010  -0.002510  -0.000061  -0.000050
    18  C   -0.000420   0.000021   0.000000  -0.000120   0.000018   0.000021
    19  C   -0.000253  -0.000036   0.000000  -0.000037   0.000000   0.000146
    20  H    0.000011   0.000000   0.000000   0.000004   0.000000   0.000000
    21  H   -0.000043   0.000002   0.000000  -0.000047   0.000009   0.000001
    22  H   -0.000054   0.000003   0.000000  -0.000004   0.000004   0.000001
    23  H    0.000006  -0.000004   0.000000   0.000004   0.000000  -0.000008
    24  H   -0.000016  -0.000005   0.000000  -0.000007   0.000001  -0.000011
    25  H   -0.000002   0.000019  -0.000003  -0.000021  -0.000001   0.000408
    26  H    0.000390  -0.000051  -0.000001   0.000707  -0.000010   0.000002
    27  H   -0.000497   0.000844   0.000088  -0.000601  -0.000040   0.000203
    28  H   -0.000853   0.000167  -0.000009   0.000688  -0.000128   0.000000
    29  H    0.000256   0.000009   0.000001  -0.000031  -0.000022   0.000004
    30  H   -0.000063  -0.000047  -0.000004   0.000014  -0.000008  -0.000005
    31  H   -0.000117  -0.000031   0.000000   0.000010  -0.000008   0.000005
    32  H    0.000009  -0.000007  -0.000003  -0.000003  -0.000012   0.000000
    33  H   -0.000006  -0.000017  -0.000003   0.000002  -0.000023  -0.000001
    34  H   -0.000001   0.000003   0.000003   0.000000   0.000002   0.000000
    35  H   -0.000066   0.000402   0.001136   0.000006  -0.000069  -0.000001
    36  H    0.000016   0.000011   0.000041   0.000001   0.000010   0.000001
    37  C    5.457300   0.325949  -0.058397   0.395884   0.383392  -0.044789
    38  C    0.325949   5.057779   0.620011  -0.042087  -0.044797   0.397620
    39  C   -0.058397   0.620011   5.146500  -0.000897   0.001597  -0.039860
    40  H    0.395884  -0.042087  -0.000897   0.444354  -0.026821  -0.001733
    41  H    0.383392  -0.044797   0.001597  -0.026821   0.452813   0.004632
    42  H   -0.044789   0.397620  -0.039860  -0.001733   0.004632   0.456231
    43  H    0.006406  -0.039534   0.392570  -0.000381   0.000153  -0.007772
    44  H   -0.008967  -0.039687   0.387325   0.000134   0.004230   0.005681
              43         44
     1  C    0.000047   0.000046
     2  C    0.000008  -0.000173
     3  C   -0.000329   0.000259
     4  C    0.000017  -0.000061
     5  C    0.000000  -0.000022
     6  H    0.000011   0.001255
     7  H    0.000146  -0.000067
     8  H   -0.000001   0.000002
     9  H    0.000001   0.000001
    10  O    0.000000  -0.000018
    11  O    0.000000   0.000000
    12  C   -0.000009   0.000054
    13  C    0.000021   0.000061
    14  C   -0.000002   0.000004
    15  O    0.000015  -0.000010
    16  Si   0.000010  -0.000005
    17  C    0.000000  -0.000001
    18  C    0.000000   0.000000
    19  C    0.000000   0.000000
    20  H    0.000000   0.000000
    21  H    0.000000   0.000000
    22  H    0.000000   0.000000
    23  H    0.000000   0.000000
    24  H    0.000000   0.000000
    25  H   -0.000001   0.000000
    26  H    0.000000   0.000000
    27  H   -0.000002   0.000001
    28  H    0.000000   0.000001
    29  H    0.000000  -0.000001
    30  H    0.000000   0.000000
    31  H   -0.000001   0.000001
    32  H    0.000000  -0.000005
    33  H    0.000000   0.000001
    34  H   -0.000001  -0.000002
    35  H    0.000030   0.000085
    36  H    0.000002   0.000004
    37  C    0.006406  -0.008967
    38  C   -0.039534  -0.039687
    39  C    0.392570   0.387325
    40  H   -0.000381   0.000134
    41  H    0.000153   0.004230
    42  H   -0.007772   0.005681
    43  H    0.453837  -0.032843
    44  H   -0.032843   0.459131
 Mulliken charges:
               1
     1  C   -0.038066
     2  C   -0.306112
     3  C    0.178041
     4  C   -0.648777
     5  C    0.472591
     6  H    0.255633
     7  H    0.265462
     8  H    0.309184
     9  H    0.267198
    10  O   -0.314542
    11  O   -0.379427
    12  C   -0.471559
    13  C   -0.669275
    14  C   -0.679806
    15  O   -0.630430
    16  Si   1.430999
    17  C   -1.086412
    18  C   -1.067370
    19  C   -1.041106
    20  H    0.239821
    21  H    0.241763
    22  H    0.242579
    23  H    0.235727
    24  H    0.237491
    25  H    0.237541
    26  H    0.247761
    27  H    0.246990
    28  H    0.246858
    29  H    0.261251
    30  H    0.228852
    31  H    0.242738
    32  H    0.240293
    33  H    0.240810
    34  H    0.236585
    35  H    0.231011
    36  H    0.232161
    37  C   -0.506124
    38  C   -0.179280
    39  C   -0.452575
    40  H    0.275532
    41  H    0.249635
    42  H    0.225164
    43  H    0.227603
    44  H    0.223585
 Sum of Mulliken charges =   0.00000
 Mulliken charges with hydrogens summed into heavy atoms:
               1
     1  C    0.217568
     2  C   -0.040650
     3  C    0.178041
     4  C   -0.072395
     5  C    0.472591
    10  O   -0.314542
    11  O   -0.379427
    12  C    0.009544
    13  C    0.030482
    14  C    0.053034
    15  O   -0.630430
    16  Si   1.430999
    17  C   -0.344802
    18  C   -0.343207
    19  C   -0.330346
    37  C    0.019043
    38  C    0.045884
    39  C   -0.001387
 Electronic spatial extent (au):  <R**2>=           5472.5947
 Charge=              0.0000 electrons
 Dipole moment (field-independent basis, Debye):
    X=             -1.3300    Y=              3.6780    Z=              1.9693  Tot=              4.3789
 Quadrupole moment (field-independent basis, Debye-Ang):
   XX=           -112.9529   YY=           -131.8192   ZZ=           -123.1204
   XY=             10.7899   XZ=              5.6915   YZ=             -9.3438
 Traceless Quadrupole moment (field-independent basis, Debye-Ang):
   XX=              9.6780   YY=             -9.1884   ZZ=             -0.4896
   XY=             10.7899   XZ=              5.6915   YZ=             -9.3438
 Octapole moment (field-independent basis, Debye-Ang**2):
  XXX=              5.6455  YYY=             39.6328  ZZZ=             13.8807  XYY=            -16.8861
  XXY=             13.2690  XXZ=              6.7438  XZZ=              6.7654  YZZ=              8.0961
  YYZ=             26.4158  XYZ=            -15.8814
 Hexadecapole moment (field-independent basis, Debye-Ang**3):
 XXXX=          -4235.5533 YYYY=          -1819.1016 ZZZZ=          -1273.8626 XXXY=             44.4604
 XXXZ=             36.1598 YYYX=             41.4477 YYYZ=            -73.4522 ZZZX=             -6.5652
 ZZZY=              4.9160 XXYY=          -1094.6382 XXZZ=           -953.8722 YYZZ=           -575.3973
 XXYZ=            -28.3468 YYXZ=             39.2484 ZZXY=             30.8681
 N-N= 1.631177808327D+03 E-N=-5.757287308169D+03  KE= 1.060515150872D+03
 1\1\GINC-SWANNODE-0-8\SP\RmPW1PW91\6-311G(d)\C14H26O3Si1\AH809\08-Mar-
 2018\0\\#mPW1PW91/6-311g(d) nmr=(giao) scrf=(solvent=chloroform)\\P_ng
 _3ginp002\\0,1\C,0,-0.167646,0.573392,-0.209346\C,0,-1.473255,0.071041
 ,0.421977\C,0,-1.776291,0.909027,1.708492\C,0,-1.866656,2.380548,1.287
 574\C,0,-0.723756,2.860056,0.434549\H,0,0.668959,0.411289,0.479096\H,0
 ,-1.358886,-0.98174,0.708889\H,0,-2.786026,2.57759,0.725199\H,0,-1.901
 554,3.022163,2.176296\O,0,-0.209508,1.994015,-0.46427\O,0,-0.353605,4.
 029941,0.467813\C,0,0.235683,-0.098789,-1.531537\C,0,0.444603,-1.59991
 ,-1.414838\C,0,-2.646076,0.096398,-0.581672\O,0,-3.017937,0.372532,2.2
 19555\Si,0,-4.117427,1.072459,3.268904\C,0,-3.339303,1.866438,4.777476
 \C,0,-5.176766,2.359485,2.396318\C,0,-5.288965,-0.276999,3.89316\H,0,-
 6.014417,2.659069,3.033338\H,0,-4.595552,3.255206,2.161592\H,0,-5.5818
 32,1.954469,1.464382\H,0,-6.03533,0.147877,4.570509\H,0,-5.807883,-0.7
 47376,3.052996\H,0,-4.727911,-1.04681,4.430797\H,0,-4.114575,2.244583,
 5.451042\H,0,-2.737112,1.141151,5.332409\H,0,-2.700627,2.708789,4.4980
 06\H,0,-3.590663,-0.186722,-0.10739\H,0,-2.777539,1.081261,-1.039751\H
 ,0,-2.481934,-0.622657,-1.390564\H,0,1.17013,0.3592,-1.882174\H,0,-0.4
 95813,0.121777,-2.31766\H,0,0.820735,-2.001081,-2.361422\H,0,1.175562,
 -1.83422,-0.634471\H,0,-0.488145,-2.121137,-1.181986\C,0,-0.657017,0.7
 40109,2.793698\C,0,-0.388846,-0.686118,3.200547\C,0,0.812984,-1.273957
 ,3.145344\H,0,-0.94118,1.276741,3.703863\H,0,0.274439,1.215893,2.46485
 \H,0,-1.239414,-1.258077,3.568659\H,0,0.938684,-2.306072,3.459917\H,0,
 1.696366,-0.747764,2.797151\\Version=EM64L-G09RevD.01\State=1-A\HF=-10
 64.3772867\RMSD=3.143e-09\Dipole=-0.5691732,-1.5411131,0.5186764\Quadr
 upole=3.793792,-7.9598864,4.1660945,-9.1975469,-0.0298176,6.9032197\PG
 =C01 [X(C14H26O3Si1)]\\@


 IF IT'S NOT TRUE, IT'S WELL INVENTED -- DANTE
 Job cpu time:       0 days  1 hours 16 minutes 42.0 seconds.
 File lengths (MBytes):  RWF=    235 Int=      0 D2E=      0 Chk=     11 Scr=      1
 Normal termination of Gaussian 09 at Thu Mar  8 13:22:34 2018.
