 Entering Gaussian System, Link 0=/usr/local/shared/gaussian/em64t/09-D01/g09/g09
 Initial command:
 /usr/local/shared/gaussian/em64t/09-D01/g09/l1.exe "/scratch/ah809/P_ng_4ginp006/Gau-30421.inp" -scrdir="/scratch/ah809/P_ng_4ginp006/"
 Entering Link 1 = /usr/local/shared/gaussian/em64t/09-D01/g09/l1.exe PID=     30448.
  
 Copyright (c) 1988,1990,1992,1993,1995,1998,2003,2009,2013,
            Gaussian, Inc.  All Rights Reserved.
  
 This is part of the Gaussian(R) 09 program.  It is based on
 the Gaussian(R) 03 system (copyright 2003, Gaussian, Inc.),
 the Gaussian(R) 98 system (copyright 1998, Gaussian, Inc.),
 the Gaussian(R) 94 system (copyright 1995, Gaussian, Inc.),
 the Gaussian 92(TM) system (copyright 1992, Gaussian, Inc.),
 the Gaussian 90(TM) system (copyright 1990, Gaussian, Inc.),
 the Gaussian 88(TM) system (copyright 1988, Gaussian, Inc.),
 the Gaussian 86(TM) system (copyright 1986, Carnegie Mellon
 University), and the Gaussian 82(TM) system (copyright 1983,
 Carnegie Mellon University). Gaussian is a federally registered
 trademark of Gaussian, Inc.
  
 This software contains proprietary and confidential information,
 including trade secrets, belonging to Gaussian, Inc.
  
 This software is provided under written license and may be
 used, copied, transmitted, or stored only in accord with that
 written license.
  
 The following legend is applicable only to US Government
 contracts under FAR:
  
                    RESTRICTED RIGHTS LEGEND
  
 Use, reproduction and disclosure by the US Government is
 subject to restrictions as set forth in subparagraphs (a)
 and (c) of the Commercial Computer Software - Restricted
 Rights clause in FAR 52.227-19.
  
 Gaussian, Inc.
 340 Quinnipiac St., Bldg. 40, Wallingford CT 06492
  
  
 ---------------------------------------------------------------
 Warning -- This program may not be used in any manner that
 competes with the business of Gaussian, Inc. or will provide
 assistance to any competitor of Gaussian, Inc.  The licensee
 of this program is prohibited from giving any competitor of
 Gaussian, Inc. access to this program.  By using this program,
 the user acknowledges that Gaussian, Inc. is engaged in the
 business of creating and licensing software in the field of
 computational chemistry and represents and warrants to the
 licensee that it is not a competitor of Gaussian, Inc. and that
 it will not use this program in any manner prohibited above.
 ---------------------------------------------------------------
  

 Cite this work as:
 Gaussian 09, Revision D.01,
 M. J. Frisch, G. W. Trucks, H. B. Schlegel, G. E. Scuseria, 
 M. A. Robb, J. R. Cheeseman, G. Scalmani, V. Barone, B. Mennucci, 
 G. A. Petersson, H. Nakatsuji, M. Caricato, X. Li, H. P. Hratchian, 
 A. F. Izmaylov, J. Bloino, G. Zheng, J. L. Sonnenberg, M. Hada, 
 M. Ehara, K. Toyota, R. Fukuda, J. Hasegawa, M. Ishida, T. Nakajima, 
 Y. Honda, O. Kitao, H. Nakai, T. Vreven, J. A. Montgomery, Jr., 
 J. E. Peralta, F. Ogliaro, M. Bearpark, J. J. Heyd, E. Brothers, 
 K. N. Kudin, V. N. Staroverov, T. Keith, R. Kobayashi, J. Normand, 
 K. Raghavachari, A. Rendell, J. C. Burant, S. S. Iyengar, J. Tomasi, 
 M. Cossi, N. Rega, J. M. Millam, M. Klene, J. E. Knox, J. B. Cross, 
 V. Bakken, C. Adamo, J. Jaramillo, R. Gomperts, R. E. Stratmann, 
 O. Yazyev, A. J. Austin, R. Cammi, C. Pomelli, J. W. Ochterski, 
 R. L. Martin, K. Morokuma, V. G. Zakrzewski, G. A. Voth, 
 P. Salvador, J. J. Dannenberg, S. Dapprich, A. D. Daniels, 
 O. Farkas, J. B. Foresman, J. V. Ortiz, J. Cioslowski, 
 and D. J. Fox, Gaussian, Inc., Wallingford CT, 2013.
 
 ******************************************
 Gaussian 09:  EM64L-G09RevD.01 24-Apr-2013
                 8-Mar-2018 
 ******************************************
 %mem=6000MB
 %chk=P_ng_4ginp006.chk
 --------------------------------------------------------
 #mPW1PW91/6-311g(d) nmr=(giao) scrf=(solvent=chloroform)
 --------------------------------------------------------
 1/38=1/1;
 2/12=2,17=6,18=5,40=1/2;
 3/5=4,6=6,7=1,11=2,16=1,25=1,30=1,70=2201,72=7,74=-7/1,2,8,3;
 4//1;
 5/5=2,38=5,53=7/2;
 8/6=1,10=90,11=11/1;
 10/13=100,45=16/2;
 6/7=2,8=2,9=2,10=2,28=1/1;
 99/9=1/99;
 -------------
 P_ng_4ginp006
 -------------
 Symbolic Z-matrix:
 Charge =  0 Multiplicity = 1
 C                     0.69138   1.82155  -0.0252 
 C                    -0.42366   0.90629   0.5064 
 C                    -1.38936   1.67977   1.46768 
 C                    -1.48795   3.16154   1.04799 
 C                    -1.07848   3.44767  -0.36842 
 H                     1.25854   1.24187  -0.76548 
 H                    -0.99171   0.6199   -0.38768 
 H                    -2.51338   3.52778   1.17817 
 H                    -0.86628   3.80711   1.67891 
 O                     0.08396   2.8914   -0.78166 
 O                    -1.70735   4.21844  -1.08598 
 C                     1.6998    2.37184   0.99339 
 C                     2.80812   3.17358   0.31975 
 C                     0.13436  -0.39754   1.09087 
 O                    -0.74981   1.60194   2.76615 
 Si                   -1.38225   2.00657   4.2638 
 C                     0.05034   2.32985   5.45393 
 C                    -2.44588   3.55072   4.23944 
 C                    -2.38926   0.58597   4.97435 
 H                    -2.79847   3.78488   5.24866 
 H                    -1.87652   4.41057   3.87498 
 H                    -3.32335   3.42156   3.60039 
 H                    -1.79899  -0.33507   4.98054 
 H                    -2.6898    0.80765   6.00275 
 H                    -3.29461   0.40999   4.38748 
 H                     0.66306   3.16118   5.09334 
 H                    -0.32743   2.58163   6.44906 
 H                     0.68401   1.44208   5.53634 
 H                     0.74968  -0.91545   0.34698 
 H                     0.75826  -0.2302    1.97358 
 H                    -0.67432  -1.07785   1.3748 
 H                     2.15737   1.55021   1.55392 
 H                     1.21691   3.03248   1.71779 
 H                     3.34723   2.56121  -0.41 
 H                     2.40744   4.05244  -0.19489 
 H                     3.5282    3.52163   1.06723 
 C                    -2.79726   0.99096   1.47062 
 C                    -3.51939   0.93596   0.14933 
 C                    -4.58394   1.68841  -0.15707 
 H                    -3.45015   1.495     2.19278 
 H                    -2.70467  -0.03398   1.85146 
 H                    -3.17029   0.21335  -0.58574 
 H                    -5.06967   1.59519  -1.1245 
 H                    -4.9936    2.41837   0.53445 
 
                          Input orientation:                          
 ---------------------------------------------------------------------
 Center     Atomic      Atomic             Coordinates (Angstroms)
 Number     Number       Type             X           Y           Z
 ---------------------------------------------------------------------
      1          6           0        0.691376    1.821551   -0.025201
      2          6           0       -0.423657    0.906287    0.506397
      3          6           0       -1.389359    1.679769    1.467684
      4          6           0       -1.487948    3.161537    1.047992
      5          6           0       -1.078476    3.447673   -0.368416
      6          1           0        1.258542    1.241872   -0.765480
      7          1           0       -0.991705    0.619895   -0.387678
      8          1           0       -2.513375    3.527780    1.178173
      9          1           0       -0.866284    3.807107    1.678910
     10          8           0        0.083960    2.891402   -0.781664
     11          8           0       -1.707354    4.218441   -1.085983
     12          6           0        1.699798    2.371836    0.993393
     13          6           0        2.808124    3.173581    0.319745
     14          6           0        0.134362   -0.397537    1.090870
     15          8           0       -0.749812    1.601939    2.766148
     16         14           0       -1.382246    2.006571    4.263803
     17          6           0        0.050342    2.329854    5.453926
     18          6           0       -2.445877    3.550724    4.239444
     19          6           0       -2.389264    0.585969    4.974345
     20          1           0       -2.798470    3.784883    5.248658
     21          1           0       -1.876516    4.410569    3.874983
     22          1           0       -3.323348    3.421559    3.600389
     23          1           0       -1.798993   -0.335072    4.980538
     24          1           0       -2.689799    0.807652    6.002753
     25          1           0       -3.294606    0.409990    4.387484
     26          1           0        0.663064    3.161181    5.093342
     27          1           0       -0.327431    2.581627    6.449063
     28          1           0        0.684005    1.442075    5.536338
     29          1           0        0.749682   -0.915454    0.346979
     30          1           0        0.758257   -0.230202    1.973575
     31          1           0       -0.674322   -1.077848    1.374803
     32          1           0        2.157366    1.550205    1.553919
     33          1           0        1.216911    3.032480    1.717793
     34          1           0        3.347233    2.561211   -0.409998
     35          1           0        2.407436    4.052436   -0.194890
     36          1           0        3.528197    3.521631    1.067226
     37          6           0       -2.797259    0.990959    1.470620
     38          6           0       -3.519387    0.935964    0.149329
     39          6           0       -4.583937    1.688413   -0.157071
     40          1           0       -3.450154    1.495000    2.192777
     41          1           0       -2.704670   -0.033976    1.851461
     42          1           0       -3.170290    0.213347   -0.585741
     43          1           0       -5.069674    1.595193   -1.124500
     44          1           0       -4.993603    2.418366    0.534453
 ---------------------------------------------------------------------
                    Distance matrix (angstroms):
                    1          2          3          4          5
     1  C    0.000000
     2  C    1.537401   0.000000
     3  C    2.564813   1.566821   0.000000
     4  C    2.774303   2.551900   1.543210   0.000000
     5  C    2.427848   2.766357   2.567761   1.501916   0.000000
     6  H    1.098052   2.135435   3.491440   3.810118   3.238035
     7  H    2.099554   1.097301   2.173437   2.960971   2.829175
     8  H    3.824886   3.419127   2.182286   1.096623   2.111229
     9  H    3.045116   3.159978   2.200861   1.096031   2.089441
    10  O    1.444220   2.420219   2.949286   2.427243   1.353318
    11  O    3.553061   3.892803   3.614857   2.391450   1.226570
    12  C    1.535338   2.625654   3.201062   3.284560   3.275783
    13  C    2.535270   3.952198   4.600881   4.357376   3.956558
    14  C    2.545630   1.533933   2.603635   3.911616   4.287905
    15  O    3.149108   2.386794   1.449513   2.435005   3.652430
    16  Si   4.767567   4.030833   2.815161   3.418561   4.860710
    17  C    5.539867   5.170035   4.287829   4.740283   6.035182
    18  C    5.569524   5.001806   3.507044   3.354767   4.807575
    19  C    6.001039   4.891705   3.806952   4.781440   6.201017
    20  H    6.621728   6.034492   4.551139   4.444280   5.884183
    21  H    5.339337   5.073279   3.672830   3.114955   4.423853
    22  H    5.641182   4.930273   3.364904   3.154526   4.559775
    23  H    5.992527   4.842567   4.070323   5.271427   6.590873
    24  H    6.985454   5.946012   4.797769   5.615592   7.082222
    25  H    6.111657   4.852988   3.710463   4.689054   6.062783
    26  H    5.291020   5.225474   4.421812   4.581671   5.739847
    27  H    6.597862   6.175055   5.172541   5.554697   6.913185
    28  H    5.574475   5.178252   4.572667   5.274389   6.480346
    29  H    2.762809   2.172758   3.544948   4.703218   4.784436
    30  H    2.865182   2.200259   2.918248   4.172054   4.731308
    31  H    3.497379   2.180310   2.850326   4.329108   4.866466
    32  H    2.171722   2.858953   3.550138   4.017545   4.215024
    33  H    2.186450   2.946123   2.947037   2.789543   3.129450
    34  H    2.783656   4.218787   5.170874   5.085774   4.513806
    35  H    2.819664   4.290122   4.775914   4.184791   3.542235
    36  H    3.482990   4.771971   5.266420   5.029090   4.825761
    37  C    3.885606   2.563373   1.567370   2.569887   3.517344
    38  C    4.306420   3.116396   2.613106   3.144442   3.540450
    39  C    5.278640   4.284838   3.584025   3.634201   3.927839
    40  H    4.709388   3.514277   2.192436   2.817469   3.999687
    41  H    4.300927   2.810038   2.194140   3.512446   4.437819
    42  H    4.220544   3.035939   3.088473   3.767119   3.857950
    43  H    5.869361   4.971910   4.502365   4.472350   4.464640
    44  H    5.743552   4.813686   3.795658   3.620172   4.147634
                    6          7          8          9         10
     6  H    0.000000
     7  H    2.364995   0.000000
     8  H    4.819805   3.636367   0.000000
     9  H    4.131629   3.800636   1.744038   0.000000
    10  O    2.025057   2.544017   3.315432   2.792115   0.000000
    11  O    4.214169   3.734878   2.500617   2.919114   2.249989
    12  C    2.136623   3.495832   4.372777   3.019058   2.455954
    13  C    2.703778   4.632544   5.401917   3.968622   2.951914
    14  C    2.719830   2.118797   4.735636   4.361893   3.784976
    15  O    4.078668   3.312030   3.056253   2.461385   3.865858
    16  Si   5.731685   4.869463   3.621414   3.192150   5.328173
    17  C    6.428411   6.175286   5.127352   4.156107   6.260914
    18  C    6.640993   5.666977   3.062101   3.019467   5.660946
    19  C    6.832444   5.541265   4.804225   4.853359   6.675590
    20  H    7.687399   6.711917   4.088549   4.059179   6.743255
    21  H    6.434526   5.772554   2.908211   2.491480   5.275954
    22  H    6.693696   5.402829   2.556261   3.142911   5.576128
    23  H    6.697163   5.511934   5.467170   5.378507   6.867213
    24  H    7.847734   6.614861   5.541371   5.569341   7.619978
    25  H    6.926487   5.305618   4.542094   4.977301   6.655239
    26  H    6.193879   6.264022   5.054969   3.796640   5.909639
    27  H    7.507322   7.143576   5.784102   4.954445   7.249042
    28  H    6.331120   6.211115   5.793704   4.782941   6.509820
    29  H    2.480032   2.435045   5.575011   5.166040   4.026062
    30  H    3.149557   3.059501   5.045658   4.361860   4.217870
    31  H    3.701064   2.467671   4.963123   4.898175   4.580424
    32  H    2.506505   3.814698   5.086041   3.775141   3.398937
    33  H    3.061806   3.889930   3.801519   2.222895   2.747866
    34  H    2.495927   4.753482   6.148436   4.865133   3.300926
    35  H    3.089466   4.834632   5.135654   3.780021   2.662864
    36  H    3.702357   5.564740   6.042594   4.446023   3.959590
    37  C    4.638170   2.617439   2.569353   3.420927   4.121394
    38  C    4.874327   2.603354   2.964471   4.197861   4.204116
    39  C    5.891020   3.754869   3.074634   4.656247   4.860716
    40  H    5.566613   3.669949   2.457472   3.505179   4.825681
    41  H    4.917644   2.894052   3.629878   4.261849   4.823654
    42  H    4.550244   2.225026   3.811613   4.832411   4.219065
    43  H    6.348232   4.257223   3.946120   5.515447   5.325189
    44  H    6.493326   4.483304   2.792258   4.502571   5.266647
                   11         12         13         14         15
    11  O    0.000000
    12  C    4.398004   0.000000
    13  C    4.843278   1.524790   0.000000
    14  C    5.425667   3.182690   4.527308   0.000000
    15  O    4.754144   3.120255   4.594981   2.754310   0.000000
    16  Si   5.798127   4.508658   5.871687   4.259969   1.675312
    17  C    7.030410   4.755925   5.888722   5.146064   2.897284
    18  C    5.417696   5.395669   6.565882   5.670971   2.974055
    19  C    7.098410   5.979777   7.441363   4.734696   2.931916
    20  H    6.442529   6.351252   7.490111   6.586451   3.889100
    21  H    4.967566   5.024939   6.009635   5.908705   3.222946
    22  H    5.020811   5.755896   6.958381   5.730527   3.260378
    23  H    7.585879   5.955352   7.433651   4.344109   3.123510
    24  H    7.927727   6.841705   8.253566   5.792664   3.856171
    25  H    6.854379   6.349233   7.837554   4.824685   3.244295
    26  H    6.702293   4.302030   5.233418   5.381801   3.137401
    27  H    7.833279   5.823917   6.910185   6.148081   3.834326
    28  H    7.568483   4.747066   5.892609   4.842362   3.123354
    29  H    5.869181   3.482362   4.578005   1.095550   3.799754
    30  H    5.935533   2.935619   4.303818   1.093807   2.501836
    31  H    5.930708   4.205025   5.596001   1.094263   3.020397
    32  H    5.387451   1.094822   2.140566   2.846166   3.150216
    33  H    4.221254   1.092880   2.122830   3.651022   2.648300
    34  H    5.362109   2.172421   1.094605   4.618369   5.271991
    35  H    4.213443   2.176507   1.094434   5.159681   4.974022
    36  H    5.703757   2.161139   1.094702   5.184453   4.987275
    37  C    4.259196   4.728434   6.124432   3.265966   2.498745
    38  C    3.947672   5.478509   6.713670   4.001825   3.868050
    39  C    3.941909   6.424637   7.554842   5.307626   4.822157
    40  H    4.604862   5.359978   6.744770   4.200554   2.762614
    41  H    5.263674   5.091517   6.559381   2.961550   2.708199
    42  H    4.293158   5.556122   6.732334   3.755653   4.361429
    43  H    4.264752   7.135432   8.163140   5.996735   5.813639
    44  H    4.082342   6.709278   7.841135   5.876643   4.863823
                   16         17         18         19         20
    16  Si   0.000000
    17  C    1.890294   0.000000
    18  C    1.875183   3.032590   0.000000
    19  C    1.880709   3.036908   3.055005   0.000000
    20  H    2.477503   3.205460   1.094379   3.236626   0.000000
    21  H    2.484892   3.245800   1.093772   4.012365   1.768747
    22  H    2.492025   4.001150   1.093174   3.286463   1.767567
    23  H    2.484085   3.278104   4.008377   1.093972   4.247926
    24  H    2.484160   3.182245   3.270046   1.094115   3.073170
    25  H    2.494291   4.001481   3.256757   1.093169   3.518192
    26  H    2.490894   1.093871   3.247522   3.995320   3.520702
    27  H    2.493729   1.093801   3.210822   3.226236   2.999138
    28  H    2.491464   1.093834   3.990551   3.239404   4.207035
    29  H    5.331497   6.091142   6.731243   5.789626   7.662180
    30  H    3.850981   4.378113   5.449407   4.424663   6.284694
    31  H    4.284988   5.364403   5.724356   4.320418   6.570001
    32  H    4.481138   4.500829   5.692448   5.770694   6.573066
    33  H    3.780248   3.976589   4.476976   5.440133   5.399667
    34  H    6.672332   6.731168   7.493769   8.111728   8.443188
    35  H    6.198967   6.358640   6.593154   7.857844   7.536926
    36  H    6.051939   5.723543   6.764124   7.674636   7.588174
    37  C    3.291747   5.076239   3.787117   3.550573   4.698892
    38  C    4.758410   6.544054   4.971764   4.967943   5.885509
    39  C    5.467740   7.305565   5.231524   5.688884   6.066711
    40  H    2.971043   4.856495   3.069759   3.112707   3.873844
    41  H    3.425205   5.114248   4.315033   3.199409   5.112087
    42  H    5.470908   7.164471   5.911452   5.627025   6.850864
    43  H    6.542184   8.368392   6.283336   6.737881   7.111276
    44  H    5.207641   7.046306   4.636820   5.463781   5.376775
                   21         22         23         24         25
    21  H    0.000000
    22  H    1.773941   0.000000
    23  H    4.873333   4.282610   0.000000
    24  H    4.262610   3.606279   1.773211   0.000000
    25  H    4.275309   3.112859   1.773045   1.770034   0.000000
    26  H    3.081369   4.264761   4.277644   4.196167   4.871390
    27  H    3.517184   4.218524   3.581786   2.987802   4.215477
    28  H    4.257737   4.870845   3.103618   3.464475   4.267834
    29  H    6.907261   6.781145   5.320005   6.840095   5.868454
    30  H    5.665169   5.713264   3.948715   5.403749   4.760515
    31  H    6.149707   5.675847   3.849406   5.388430   4.260962
    32  H    5.462712   6.142331   5.563161   6.621066   6.249254
    33  H    4.015207   4.930467   5.575086   6.210727   5.861612
    34  H    7.004908   7.830712   7.995622   8.980206   8.470986
    35  H    5.919829   6.902466   7.983065   8.655704   8.171833
    36  H    6.155049   7.305518   7.652916   8.389790   8.201040
    37  C    4.280474   3.274218   3.882579   4.537111   3.015456
    38  C    5.352794   4.257514   5.283547   5.913311   4.276580
    39  C    5.567560   4.325666   6.184289   6.504378   4.893845
    40  H    3.715736   2.389368   3.721170   3.945441   2.453198
    41  H    4.953227   3.922019   3.271396   4.235774   2.641315
    42  H    6.260078   5.276337   5.758878   6.632671   4.978663
    43  H    6.566386   5.358157   7.189907   7.555247   5.910799
    44  H    4.984400   3.632645   6.128183   6.148513   4.665406
                   26         27         28         29         30
    26  H    0.000000
    27  H    1.776216   0.000000
    28  H    1.775390   1.776133   0.000000
    29  H    6.257349   7.115137   5.700149   0.000000
    30  H    4.609066   5.395840   3.936407   1.765066   0.000000
    31  H    5.795300   6.265796   5.051083   1.763684   1.768987
    32  H    4.166017   5.585739   4.247605   3.085086   2.302926
    33  H    3.423104   4.997317   4.170691   4.205189   3.304676
    34  H    6.152356   7.781407   6.610912   4.405393   4.491793
    35  H    5.639376   7.333818   6.529255   5.265140   5.075729
    36  H    4.954646   6.686826   5.690953   5.284565   4.750820
    37  C    5.459653   5.780586   5.371477   4.180642   3.792874
    38  C    6.847463   7.251444   6.851607   4.657442   4.794377
    39  C    7.567490   7.909278   7.760593   5.956650   6.062984
    40  H    5.301698   5.389631   5.317280   5.182266   4.553580
    41  H    5.662195   5.799189   5.219211   3.869498   3.470631
    42  H    7.458975   7.948526   7.337930   4.184536   4.709598
    43  H    8.601056   8.990038   8.803126   6.506420   6.847986
    44  H    7.302953   7.535412   7.629366   6.643405   6.493834
                   31         32         33         34         35
    31  H    0.000000
    32  H    3.867454   0.000000
    33  H    4.537532   1.763080   0.000000
    34  H    5.709743   2.508961   3.047599   0.000000
    35  H    6.187163   3.063010   2.473058   1.775737   0.000000
    36  H    6.237866   2.450014   2.450418   1.771255   1.769406
    37  C    2.965806   4.986783   4.510262   6.614922   6.263818
    38  C    3.694810   5.880110   5.411837   7.078471   6.705081
    39  C    5.028313   6.956418   6.242713   7.983057   7.380334
    40  H    3.872192   5.644065   4.936694   7.356338   6.822961
    41  H    2.332206   5.122261   4.979941   6.962379   6.857109
    42  H    3.426481   5.894850   5.700992   6.929752   6.782507
    43  H    5.719334   7.707533   7.047381   8.502237   7.925238
    44  H    5.620132   7.275258   6.352001   8.395352   7.614296
                   36         37         38         39         40
    36  H    0.000000
    37  C    6.824839   0.000000
    38  C    7.562847   1.506753   0.000000
    39  C    8.406326   2.515559   1.339152   0.000000
    40  H    7.353331   1.096285   2.119668   2.616230   0.000000
    41  H    7.218448   1.097317   2.121745   3.245377   1.734938
    42  H    7.651586   2.229900   1.088289   2.087576   3.072641
    43  H    9.079549   3.501945   2.112016   1.086531   3.692859
    44  H    8.609420   2.781695   2.125829   1.085755   2.446401
                   41         42         43         44
    41  H    0.000000
    42  H    2.493577   0.000000
    43  H    4.135672   2.409859   0.000000
    44  H    3.603846   3.072688   1.853517   0.000000
 Stoichiometry    C14H26O3Si
 Framework group  C1[X(C14H26O3Si)]
 Deg. of freedom   126
 Full point group                 C1      NOp   1
 Largest Abelian subgroup         C1      NOp   1
 Largest concise Abelian subgroup C1      NOp   1
                         Standard orientation:                         
 ---------------------------------------------------------------------
 Center     Atomic      Atomic             Coordinates (Angstroms)
 Number     Number       Type             X           Y           Z
 ---------------------------------------------------------------------
      1          6           0       -2.143087   -0.948502    0.661601
      2          6           0       -1.126779   -0.013779    1.337629
      3          6           0       -0.027939    0.463207    0.327696
      4          6           0       -0.615810    0.559965   -1.095871
      5          6           0       -2.113195    0.658700   -1.157864
      6          1           0       -2.931650   -1.153477    1.397721
      7          1           0       -1.717064    0.861757    1.636072
      8          1           0       -0.203150    1.429745   -1.621016
      9          1           0       -0.344074   -0.306318   -1.709871
     10          8           0       -2.805130   -0.218391   -0.394055
     11          8           0       -2.684955    1.424088   -1.927113
     12          6           0       -1.628836   -2.303367    0.154504
     13          6           0       -2.756729   -3.169908   -0.394993
     14          6           0       -0.570632   -0.613561    2.635286
     15          8           0        0.969968   -0.587823    0.352280
     16         14           0        2.510293   -0.576196   -0.306455
     17          6           0        3.074611   -2.364124   -0.547435
     18          6           0        2.607955    0.269099   -1.977459
     19          6           0        3.734935    0.243628    0.861965
     20          1           0        3.626889    0.212375   -2.372706
     21          1           0        1.941218   -0.213310   -2.697931
     22          1           0        2.334846    1.325301   -1.907615
     23          1           0        3.684001   -0.216580    1.853120
     24          1           0        4.755878    0.132914    0.484467
     25          1           0        3.527048    1.311612    0.967860
     26          1           0        2.401165   -2.885395   -1.233949
     27          1           0        4.086313   -2.394152   -0.962110
     28          1           0        3.074325   -2.895163    0.408844
     29          1           0       -1.388640   -0.868004    3.318186
     30          1           0        0.008757   -1.525237    2.463326
     31          1           0        0.074850    0.102337    3.153216
     32          1           0       -1.136292   -2.848488    0.966217
     33          1           0       -0.896413   -2.178894   -0.647025
     34          1           0       -3.520836   -3.349402    0.367950
     35          1           0       -3.235092   -2.699632   -1.259745
     36          1           0       -2.363809   -4.140180   -0.715241
     37          6           0        0.562595    1.836950    0.797536
     38          6           0       -0.407497    2.985834    0.893923
     39          6           0       -0.446781    4.010413    0.032516
     40          1           0        1.375437    2.135423    0.125195
     41          1           0        1.044839    1.714962    1.775628
     42          1           0       -1.094499    2.995483    1.737906
     43          1           0       -1.163412    4.816867    0.161444
     44          1           0        0.219344    4.071878   -0.822681
 ---------------------------------------------------------------------
 Rotational constants (GHZ):      0.4336809      0.3215484      0.2502325
 Standard basis: 6-311G(d) (5D, 7F)
 There are   428 symmetry adapted cartesian basis functions of A   symmetry.
 There are   410 symmetry adapted basis functions of A   symmetry.
   410 basis functions,   720 primitive gaussians,   428 cartesian basis functions
    74 alpha electrons       74 beta electrons
       nuclear repulsion energy      1647.2641290763 Hartrees.
 NAtoms=   44 NActive=   44 NUniq=   44 SFac= 1.00D+00 NAtFMM=   60 NAOKFM=F Big=F
 Integral buffers will be    131072 words long.
 Raffenetti 2 integral format.
 Two-electron integral symmetry is turned on.
 ------------------------------------------------------------------------------
 Polarizable Continuum Model (PCM)
 =================================
 Model                : PCM (using non-symmetric T matrix).
 Atomic radii         : UFF (Universal Force Field).
 Polarization charges : Total charges.
 Charge compensation  : None.
 Solution method      : On-the-fly selection.
 Cavity type          : Scaled VdW (van der Waals Surface) (Alpha=1.100).
 Cavity algorithm     : GePol (No added spheres)
                        Default sphere list used, NSphG=   44.
                        Lebedev-Laikov grids with approx.  5.0 points / Ang**2.
                        Smoothing algorithm: Karplus/York (Gamma=1.0000).
                        Polarization charges: spherical gaussians, with
                                              point-specific exponents (IZeta= 3).
                        Self-potential: point-specific (ISelfS= 7).
                        Self-field    : sphere-specific E.n sum rule (ISelfD= 2).
 Solvent              : Chloroform, Eps=   4.711300 Eps(inf)=   2.090627
 ------------------------------------------------------------------------------
 One-electron integrals computed using PRISM.
 NBasis=   410 RedAO= T EigKep=  6.90D-04  NBF=   410
 NBsUse=   410 1.00D-06 EigRej= -1.00D+00 NBFU=   410
 ExpMin= 6.54D-02 ExpMax= 6.94D+04 ExpMxC= 2.33D+03 IAcc=2 IRadAn=         4 AccDes= 0.00D+00
 Harris functional with IExCor=  908 and IRadAn=       4 diagonalized for initial guess.
 HarFok:  IExCor=  908 AccDes= 0.00D+00 IRadAn=         4 IDoV= 1 UseB2=F ITyADJ=14
 ICtDFT=  3500011 ScaDFX=  1.000000  1.000000  1.000000  1.000000
 FoFCou: FMM=F IPFlag=           0 FMFlag=      100000 FMFlg1=           0
         NFxFlg=           0 DoJE=T BraDBF=F KetDBF=T FulRan=T
         wScrn=  0.000000 ICntrl=     500 IOpCl=  0 I1Cent=   200000004 NGrid=           0
         NMat0=    1 NMatS0=      1 NMatT0=    0 NMatD0=    1 NMtDS0=    0 NMtDT0=    0
 Petite list used in FoFCou.
 Requested convergence on RMS density matrix=1.00D-08 within 128 cycles.
 Requested convergence on MAX density matrix=1.00D-06.
 Requested convergence on             energy=1.00D-06.
 No special actions if energy rises.
 Inv3:  Mode=1 IEnd=    25038963.
 Iteration    1 A*A^-1 deviation from unit magnitude is 6.88D-15 for   1832.
 Iteration    1 A*A^-1 deviation from orthogonality  is 9.55D-15 for   2449   1053.
 Iteration    1 A^-1*A deviation from unit magnitude is 8.77D-15 for   1802.
 Iteration    1 A^-1*A deviation from orthogonality  is 6.37D-11 for   2624   2619.
 Error on total polarization charges =  0.01112
 SCF Done:  E(RmPW1PW91) =  -1064.37373034     A.U. after   13 cycles
            NFock= 13  Conv=0.34D-08     -V/T= 2.0036
 DoSCS=F DFT=T ScalE2(SS,OS)=  1.000000  1.000000
 Range of M.O.s used for correlation:     1   410
 NBasis=   410 NAE=    74 NBE=    74 NFC=     0 NFV=     0
 NROrb=    410 NOA=    74 NOB=    74 NVA=   336 NVB=   336
 NEqPCM:  Using equilibrium solvation (IEInf=0, Eps=   4.7113, EpsInf=   2.0906)
          Differentiating once with respect to magnetic field using GIAOs.
          Electric field/nuclear overlap derivatives assumed to be zero.
 FoFJK:  IHMeth= 1 ICntrl=    6127 DoSepK=F KAlg= 0 I1Cent=   0 FoldK=F
 IRaf=         1 NMat=   1 IRICut=       1 DoRegI=T DoRafI=F ISym2E= 0.
          There are     3 degrees of freedom in the 1st order CPHF.  IDoFFX=0 NUNeed=     3.
      3 vectors produced by pass  0 Test12= 8.29D-13 3.33D-08 XBig12= 2.99D+01 9.74D-01.
 AX will form     3 AO Fock derivatives at one time.
      3 vectors produced by pass  1 Test12= 8.29D-13 3.33D-08 XBig12= 6.87D-02 9.67D-02.
      3 vectors produced by pass  2 Test12= 8.29D-13 3.33D-08 XBig12= 5.61D-04 7.77D-03.
      3 vectors produced by pass  3 Test12= 8.29D-13 3.33D-08 XBig12= 2.15D-06 3.05D-04.
      3 vectors produced by pass  4 Test12= 8.29D-13 3.33D-08 XBig12= 6.80D-09 1.73D-05.
      3 vectors produced by pass  5 Test12= 8.29D-13 3.33D-08 XBig12= 2.83D-11 9.85D-07.
      2 vectors produced by pass  6 Test12= 8.29D-13 3.33D-08 XBig12= 1.04D-13 5.84D-08.
 InvSVY:  IOpt=1 It=  1 EMax= 1.79D-17
 Solved reduced A of dimension    20 with     3 vectors.
 Calculating GIAO nuclear magnetic shielding tensors.
 SCF GIAO Magnetic shielding tensor (ppm):
      1  C    Isotropic =   100.5514   Anisotropy =    44.2237
   XX=    88.2125   YX=   -10.1006   ZX=    20.0776
   XY=     0.5813   YY=    97.1258   ZY=    -6.1160
   XZ=    16.7818   YZ=   -16.6067   ZZ=   116.3158
   Eigenvalues:    79.0482    92.5721   130.0339
      2  C    Isotropic =   142.5243   Anisotropy =     8.0825
   XX=   145.0743   YX=    -0.4336   ZX=     5.5214
   XY=     1.4884   YY=   144.5517   ZY=    -8.9734
   XZ=    -3.4179   YZ=    -2.5971   ZZ=   137.9470
   Eigenvalues:   134.4580   145.2023   147.9127
      3  C    Isotropic =   104.7905   Anisotropy =    48.7880
   XX=   116.7469   YX=   -20.9195   ZX=    -2.1218
   XY=   -23.1429   YY=   113.3931   ZY=     1.2244
   XZ=    -4.7042   YZ=    -0.2704   ZZ=    84.2314
   Eigenvalues:    83.6650    93.3906   137.3158
      4  C    Isotropic =   140.1963   Anisotropy =    30.0961
   XX=   151.6969   YX=    -7.8933   ZX=    10.3768
   XY=    -6.9677   YY=   130.9135   ZY=    -8.5328
   XZ=    11.9394   YZ=     1.2647   ZZ=   137.9785
   Eigenvalues:   128.5295   131.7989   160.2604
      5  C    Isotropic =     8.5389   Anisotropy =   101.9705
   XX=   -39.6108   YX=   -39.5815   ZX=    34.6079
   XY=   -50.3367   YY=    27.7507   ZY=    43.4656
   XZ=    43.9564   YZ=    43.7919   ZZ=    37.4769
   Eigenvalues:   -86.8053    35.9029    76.5193
      6  H    Isotropic =    27.8608   Anisotropy =     5.0117
   XX=    29.5652   YX=     1.4085   ZX=    -0.9001
   XY=     1.1777   YY=    25.4340   ZY=    -0.4802
   XZ=    -2.6559   YZ=    -0.3229   ZZ=    28.5831
   Eigenvalues:    25.0588    27.3216    31.2019
      7  H    Isotropic =    30.0305   Anisotropy =     6.3225
   XX=    30.0037   YX=    -1.6206   ZX=    -2.4163
   XY=    -2.2975   YY=    32.1805   ZY=     1.6483
   XZ=    -1.4054   YZ=     1.6288   ZZ=    27.9075
   Eigenvalues:    26.7337    29.1123    34.2456
      8  H    Isotropic =    29.2143   Anisotropy =     3.8288
   XX=    29.1365   YX=     0.6296   ZX=     0.7560
   XY=    -0.4732   YY=    29.2222   ZY=    -2.4789
   XZ=     1.0813   YZ=    -2.2644   ZZ=    29.2843
   Eigenvalues:    26.6756    29.2005    31.7669
      9  H    Isotropic =    29.3936   Anisotropy =     2.9796
   XX=    30.3473   YX=    -0.3343   ZX=    -0.3591
   XY=    -0.0956   YY=    27.8663   ZY=     0.8304
   XZ=    -1.4859   YZ=     1.6439   ZZ=    29.9671
   Eigenvalues:    27.2806    29.5202    31.3800
     10  O    Isotropic =    91.6236   Anisotropy =   211.4736
   XX=    67.8363   YX=    69.9568   ZX=   -99.0383
   XY=   106.6734   YY=   131.4633   ZY=   140.9559
   XZ=  -101.0802   YZ=   110.2512   ZZ=    75.5713
   Eigenvalues:  -119.8853   162.1501   232.6060
     11  O    Isotropic =  -118.3340   Anisotropy =   585.0259
   XX=  -217.1606   YX=   -25.0342   ZX=    -6.5589
   XY=   -11.2518   YY=   -96.7039   ZY=   356.4428
   XZ=    21.1567   YZ=   322.2980   ZZ=   -41.1374
   Eigenvalues:  -411.1511  -215.5341   271.6833
     12  C    Isotropic =   161.5950   Anisotropy =    10.1584
   XX=   161.6568   YX=     0.3251   ZX=     0.9942
   XY=    -4.1591   YY=   166.6176   ZY=     1.7459
   XZ=    -2.1682   YZ=     5.4525   ZZ=   156.5105
   Eigenvalues:   155.3597   161.0580   168.3672
     13  C    Isotropic =   174.3850   Anisotropy =    23.7821
   XX=   180.8101   YX=    12.7404   ZX=     0.2232
   XY=     9.3646   YY=   175.0133   ZY=     6.0968
   XZ=    -1.2287   YZ=     9.5013   ZZ=   167.3315
   Eigenvalues:   160.0999   172.8153   190.2397
     14  C    Isotropic =   175.2430   Anisotropy =    18.6286
   XX=   173.3566   YX=     0.4327   ZX=     3.2128
   XY=    -1.5119   YY=   167.5055   ZY=    -6.4411
   XZ=     4.2026   YZ=    -5.4340   ZZ=   184.8670
   Eigenvalues:   165.6217   172.4453   187.6621
     15  O    Isotropic =   230.0770   Anisotropy =    52.3774
   XX=   197.1574   YX=    -9.0682   ZX=    20.1019
   XY=    -4.8352   YY=   247.1037   ZY=    18.6917
   XZ=    13.2991   YZ=    16.7443   ZZ=   245.9698
   Eigenvalues:   189.3845   235.8512   264.9953
     16  Si   Isotropic =   334.2657   Anisotropy =    52.9110
   XX=   359.6860   YX=     7.9062   ZX=   -25.4239
   XY=    -5.8005   YY=   322.1465   ZY=     5.7365
   XZ=   -18.3303   YZ=    -1.9143   ZZ=   320.9646
   Eigenvalues:   310.6984   322.5590   369.5397
     17  C    Isotropic =   186.4019   Anisotropy =    12.5182
   XX=   187.7977   YX=    -1.4023   ZX=    -3.4316
   XY=     1.3127   YY=   194.6619   ZY=     1.0367
   XZ=    -3.3337   YZ=     1.2806   ZZ=   176.7462
   Eigenvalues:   175.7287   188.7297   194.7474
     18  C    Isotropic =   185.4493   Anisotropy =     6.1679
   XX=   188.3309   YX=    -1.6936   ZX=    -2.7401
   XY=    -4.0963   YY=   181.2636   ZY=    -3.7476
   XZ=    -0.0618   YZ=    -5.5298   ZZ=   186.7533
   Eigenvalues:   177.6538   189.1328   189.5612
     19  C    Isotropic =   184.4209   Anisotropy =    12.4560
   XX=   190.0536   YX=     3.2567   ZX=     2.8147
   XY=     2.0686   YY=   179.1843   ZY=     6.1422
   XZ=     1.6732   YZ=     6.6114   ZZ=   184.0247
   Eigenvalues:   174.7259   185.8119   192.7249
     20  H    Isotropic =    32.1530   Anisotropy =    10.5867
   XX=    36.3105   YX=     0.0828   ZX=    -5.0185
   XY=    -0.3486   YY=    28.4728   ZY=    -0.6739
   XZ=    -4.3115   YZ=    -0.9234   ZZ=    31.6756
   Eigenvalues:    27.8586    29.3895    39.2108
     21  H    Isotropic =    31.9142   Anisotropy =     6.7473
   XX=    32.0543   YX=     1.3956   ZX=     1.7407
   XY=     0.8290   YY=    29.0043   ZY=     1.6761
   XZ=     2.2687   YZ=     2.0941   ZZ=    34.6839
   Eigenvalues:    28.3561    30.9740    36.4123
     22  H    Isotropic =    31.9262   Anisotropy =     6.9157
   XX=    30.1600   YX=    -1.6799   ZX=    -2.0473
   XY=    -2.1649   YY=    35.8576   ZY=    -0.7730
   XZ=    -1.3582   YZ=    -1.8396   ZZ=    29.7609
   Eigenvalues:    27.6231    31.6187    36.5367
     23  H    Isotropic =    31.9646   Anisotropy =     7.9353
   XX=    30.6259   YX=    -0.1957   ZX=     1.8786
   XY=    -0.1187   YY=    29.0433   ZY=    -1.8559
   XZ=     1.2898   YZ=    -2.6940   ZZ=    36.2246
   Eigenvalues:    28.3411    30.2979    37.2548
     24  H    Isotropic =    32.3539   Anisotropy =    10.2869
   XX=    39.0713   YX=     0.0896   ZX=    -1.1085
   XY=    -0.0095   YY=    28.7539   ZY=     0.6607
   XZ=    -1.2586   YZ=     0.5626   ZZ=    29.2365
   Eigenvalues:    28.2894    29.5605    39.2118
     25  H    Isotropic =    32.0571   Anisotropy =     6.3697
   XX=    31.8887   YX=    -0.2088   ZX=     1.1378
   XY=    -1.0387   YY=    35.7606   ZY=     1.7685
   XZ=     0.8951   YZ=     2.2245   ZZ=    28.5220
   Eigenvalues:    27.6968    32.1709    36.3036
     26  H    Isotropic =    32.0986   Anisotropy =     7.9898
   XX=    31.8791   YX=     1.3313   ZX=     2.2099
   XY=     2.0496   YY=    33.5995   ZY=     4.0154
   XZ=     2.1166   YZ=     3.4023   ZZ=    30.8171
   Eigenvalues:    28.0262    30.8444    37.4251
     27  H    Isotropic =    32.3506   Anisotropy =     9.9584
   XX=    36.9412   YX=    -2.5990   ZX=    -3.4430
   XY=    -2.0943   YY=    30.5823   ZY=     0.7336
   XZ=    -3.3295   YZ=     0.9080   ZZ=    29.5283
   Eigenvalues:    28.2103    29.8519    38.9895
     28  H    Isotropic =    31.9651   Anisotropy =     8.4228
   XX=    29.2022   YX=    -1.5192   ZX=    -0.0382
   XY=    -1.4281   YY=    33.5007   ZY=    -4.5534
   XZ=     0.1076   YZ=    -3.6229   ZZ=    33.1924
   Eigenvalues:    28.1640    30.1510    37.5803
     29  H    Isotropic =    31.3701   Anisotropy =    10.9956
   XX=    30.9842   YX=     1.5168   ZX=    -3.8503
   XY=     1.7208   YY=    27.3379   ZY=    -2.3397
   XZ=    -4.1587   YZ=    -2.0446   ZZ=    35.7882
   Eigenvalues:    26.6445    28.7653    38.7005
     30  H    Isotropic =    30.7669   Anisotropy =     5.7311
   XX=    29.6758   YX=    -2.9977   ZX=    -0.3022
   XY=    -2.9722   YY=    32.1550   ZY=    -1.5873
   XZ=     0.0429   YZ=    -1.7611   ZZ=    30.4700
   Eigenvalues:    27.3125    30.4006    34.5877
     31  H    Isotropic =    30.9319   Anisotropy =     8.4194
   XX=    29.4071   YX=     3.4148   ZX=     2.5051
   XY=     2.7543   YY=    29.0102   ZY=     1.3783
   XZ=     2.7205   YZ=     1.8420   ZZ=    34.3785
   Eigenvalues:    26.0630    30.1879    36.5448
     32  H    Isotropic =    30.3287   Anisotropy =     4.8508
   XX=    29.5147   YX=     0.5728   ZX=     4.3254
   XY=     0.8129   YY=    32.6456   ZY=    -1.2295
   XZ=     4.2369   YZ=    -1.0527   ZZ=    28.8258
   Eigenvalues:    24.6606    32.7629    33.5626
     33  H    Isotropic =    30.0981   Anisotropy =     8.8801
   XX=    32.7980   YX=     4.0129   ZX=    -3.3941
   XY=     3.9389   YY=    30.2366   ZY=     1.8096
   XZ=    -3.2637   YZ=     2.1027   ZZ=    27.2597
   Eigenvalues:    23.6577    30.6185    36.0182
     34  H    Isotropic =    31.2764   Anisotropy =    10.2493
   XX=    33.9491   YX=     4.1255   ZX=    -3.7049
   XY=     4.6850   YY=    30.1392   ZY=    -1.1582
   XZ=    -2.6707   YZ=    -0.9416   ZZ=    29.7409
   Eigenvalues:    26.8342    28.8857    38.1093
     35  H    Isotropic =    30.7324   Anisotropy =     7.9140
   XX=    30.1475   YX=     1.1774   ZX=     4.9674
   XY=     1.9279   YY=    30.2395   ZY=    -0.4438
   XZ=     4.7185   YZ=    -0.0704   ZZ=    31.8103
   Eigenvalues:    25.6599    30.5289    36.0085
     36  H    Isotropic =    30.9496   Anisotropy =    10.6382
   XX=    28.9759   YX=     0.7930   ZX=     0.3115
   XY=     0.0610   YY=    36.4940   ZY=     3.6965
   XZ=    -0.0790   YZ=     4.3638   ZZ=    27.3789
   Eigenvalues:    25.8520    28.9551    38.0417
     37  C    Isotropic =   140.3396   Anisotropy =    26.6976
   XX=   143.4203   YX=    -0.3585   ZX=    -5.5183
   XY=    -3.8762   YY=   155.4911   ZY=     7.7567
   XZ=     6.4106   YZ=    10.7413   ZZ=   122.1075
   Eigenvalues:   119.6772   143.2037   158.1380
     38  C    Isotropic =    47.6541   Anisotropy =   169.9922
   XX=    31.9008   YX=    68.8401   ZX=    96.4399
   XY=    70.6774   YY=    67.6177   ZY=     2.0288
   XZ=    91.7734   YZ=     0.6344   ZZ=    43.4438
   Eigenvalues:   -75.5223    57.5023   160.9822
     39  C    Isotropic =    60.1926   Anisotropy =   146.2878
   XX=    40.4274   YX=    61.7566   ZX=    84.2551
   XY=    68.7726   YY=    74.7831   ZY=    -7.8658
   XZ=    81.6711   YZ=    -5.2256   ZZ=    65.3673
   Eigenvalues:   -54.6531    77.5131   157.7178
     40  H    Isotropic =    29.8749   Anisotropy =     4.3116
   XX=    32.1037   YX=    -0.0897   ZX=    -3.1387
   XY=    -0.2833   YY=    31.7146   ZY=     0.0332
   XZ=    -0.9565   YZ=     0.1104   ZZ=    25.8065
   Eigenvalues:    25.1992    31.6763    32.7493
     41  H    Isotropic =    29.3856   Anisotropy =     3.5311
   XX=    29.0699   YX=    -0.5681   ZX=     2.1358
   XY=     0.7848   YY=    29.0787   ZY=     1.5958
   XZ=     1.5730   YZ=     0.4245   ZZ=    30.0081
   Eigenvalues:    27.4305    28.9866    31.7396
     42  H    Isotropic =    26.1033   Anisotropy =     6.4257
   XX=    23.1843   YX=    -1.3721   ZX=     0.6100
   XY=    -0.7237   YY=    30.2339   ZY=    -0.3624
   XZ=    -0.1511   YZ=     0.5563   ZZ=    24.8916
   Eigenvalues:    23.0011    24.9217    30.3871
     43  H    Isotropic =    26.7030   Anisotropy =     6.3930
   XX=    24.4392   YX=    -0.2158   ZX=     0.6835
   XY=    -0.9050   YY=    30.2263   ZY=    -1.2045
   XZ=     1.9039   YZ=    -2.3868   ZZ=    25.4435
   Eigenvalues:    23.4991    25.6450    30.9650
     44  H    Isotropic =    26.5958   Anisotropy =     7.2972
   XX=    23.8282   YX=     0.2845   ZX=     1.8600
   XY=     1.7671   YY=    30.3738   ZY=    -3.6113
   XZ=     0.6723   YZ=    -1.3662   ZZ=    25.5854
   Eigenvalues:    22.5582    25.7686    31.4606
 End of Minotr F.D. properties file   721 does not exist.
 End of Minotr F.D. properties file   722 does not exist.
 End of Minotr F.D. properties file   788 does not exist.

 **********************************************************************

            Population analysis using the SCF density.

 **********************************************************************

 Orbital symmetries:
       Occupied  (A) (A) (A) (A) (A) (A) (A) (A) (A) (A) (A) (A)
                 (A) (A) (A) (A) (A) (A) (A) (A) (A) (A) (A) (A)
                 (A) (A) (A) (A) (A) (A) (A) (A) (A) (A) (A) (A)
                 (A) (A) (A) (A) (A) (A) (A) (A) (A) (A) (A) (A)
                 (A) (A) (A) (A) (A) (A) (A) (A) (A) (A) (A) (A)
                 (A) (A) (A) (A) (A) (A) (A) (A) (A) (A) (A) (A)
                 (A) (A)
       Virtual   (A) (A) (A) (A) (A) (A) (A) (A) (A) (A) (A) (A)
                 (A) (A) (A) (A) (A) (A) (A) (A) (A) (A) (A) (A)
                 (A) (A) (A) (A) (A) (A) (A) (A) (A) (A) (A) (A)
                 (A) (A) (A) (A) (A) (A) (A) (A) (A) (A) (A) (A)
                 (A) (A) (A) (A) (A) (A) (A) (A) (A) (A) (A) (A)
                 (A) (A) (A) (A) (A) (A) (A) (A) (A) (A) (A) (A)
                 (A) (A) (A) (A) (A) (A) (A) (A) (A) (A) (A) (A)
                 (A) (A) (A) (A) (A) (A) (A) (A) (A) (A) (A) (A)
                 (A) (A) (A) (A) (A) (A) (A) (A) (A) (A) (A) (A)
                 (A) (A) (A) (A) (A) (A) (A) (A) (A) (A) (A) (A)
                 (A) (A) (A) (A) (A) (A) (A) (A) (A) (A) (A) (A)
                 (A) (A) (A) (A) (A) (A) (A) (A) (A) (A) (A) (A)
                 (A) (A) (A) (A) (A) (A) (A) (A) (A) (A) (A) (A)
                 (A) (A) (A) (A) (A) (A) (A) (A) (A) (A) (A) (A)
                 (A) (A) (A) (A) (A) (A) (A) (A) (A) (A) (A) (A)
                 (A) (A) (A) (A) (A) (A) (A) (A) (A) (A) (A) (A)
                 (A) (A) (A) (A) (A) (A) (A) (A) (A) (A) (A) (A)
                 (A) (A) (A) (A) (A) (A) (A) (A) (A) (A) (A) (A)
                 (A) (A) (A) (A) (A) (A) (A) (A) (A) (A) (A) (A)
                 (A) (A) (A) (A) (A) (A) (A) (A) (A) (A) (A) (A)
                 (A) (A) (A) (A) (A) (A) (A) (A) (A) (A) (A) (A)
                 (A) (A) (A) (A) (A) (A) (A) (A) (A) (A) (A) (A)
                 (A) (A) (A) (A) (A) (A) (A) (A) (A) (A) (A) (A)
                 (A) (A) (A) (A) (A) (A) (A) (A) (A) (A) (A) (A)
                 (A) (A) (A) (A) (A) (A) (A) (A) (A) (A) (A) (A)
                 (A) (A) (A) (A) (A) (A) (A) (A) (A) (A) (A) (A)
                 (A) (A) (A) (A) (A) (A) (A) (A) (A) (A) (A) (A)
                 (A) (A) (A) (A) (A) (A) (A) (A) (A) (A) (A) (A)
 The electronic state is 1-A.
 Alpha  occ. eigenvalues --  -66.26961 -19.25958 -19.21042 -19.19620 -10.36932
 Alpha  occ. eigenvalues --  -10.32361 -10.30229 -10.25221 -10.25014 -10.24797
 Alpha  occ. eigenvalues --  -10.24659 -10.23351 -10.23329 -10.22597 -10.21869
 Alpha  occ. eigenvalues --  -10.20905 -10.20646 -10.20475  -5.32795  -3.66642
 Alpha  occ. eigenvalues --   -3.66411  -3.66375  -1.13118  -1.04601  -1.03878
 Alpha  occ. eigenvalues --   -0.85684  -0.83071  -0.80313  -0.78334  -0.73940
 Alpha  occ. eigenvalues --   -0.73077  -0.71906  -0.70360  -0.69980  -0.66312
 Alpha  occ. eigenvalues --   -0.63932  -0.62486  -0.58133  -0.54548  -0.54207
 Alpha  occ. eigenvalues --   -0.51965  -0.51449  -0.49588  -0.48575  -0.46991
 Alpha  occ. eigenvalues --   -0.46015  -0.45737  -0.45137  -0.43748  -0.43423
 Alpha  occ. eigenvalues --   -0.42787  -0.42576  -0.42229  -0.42065  -0.41105
 Alpha  occ. eigenvalues --   -0.40811  -0.40372  -0.39853  -0.39602  -0.39113
 Alpha  occ. eigenvalues --   -0.38148  -0.37922  -0.37792  -0.36381  -0.35606
 Alpha  occ. eigenvalues --   -0.35137  -0.34738  -0.33676  -0.31729  -0.30756
 Alpha  occ. eigenvalues --   -0.30089  -0.29682  -0.28460  -0.27032
 Alpha virt. eigenvalues --   -0.00735   0.01311   0.03832   0.04961   0.06031
 Alpha virt. eigenvalues --    0.06401   0.07043   0.07765   0.08286   0.09184
 Alpha virt. eigenvalues --    0.09266   0.10230   0.10796   0.11319   0.11474
 Alpha virt. eigenvalues --    0.11823   0.12280   0.12868   0.13133   0.13504
 Alpha virt. eigenvalues --    0.14218   0.14894   0.15116   0.15542   0.16031
 Alpha virt. eigenvalues --    0.16358   0.16753   0.17243   0.17853   0.18689
 Alpha virt. eigenvalues --    0.19227   0.19727   0.20170   0.20796   0.21806
 Alpha virt. eigenvalues --    0.22441   0.22790   0.24096   0.24162   0.24679
 Alpha virt. eigenvalues --    0.24978   0.25958   0.26559   0.27405   0.28017
 Alpha virt. eigenvalues --    0.29181   0.29818   0.30877   0.31761   0.32209
 Alpha virt. eigenvalues --    0.32598   0.33663   0.34467   0.35235   0.35311
 Alpha virt. eigenvalues --    0.36548   0.38117   0.38958   0.39678   0.40619
 Alpha virt. eigenvalues --    0.41463   0.42195   0.42954   0.43923   0.44622
 Alpha virt. eigenvalues --    0.44863   0.45558   0.46682   0.47833   0.48680
 Alpha virt. eigenvalues --    0.49566   0.51326   0.51756   0.52539   0.52987
 Alpha virt. eigenvalues --    0.53867   0.54038   0.55203   0.55459   0.55990
 Alpha virt. eigenvalues --    0.56419   0.56980   0.57632   0.58136   0.59123
 Alpha virt. eigenvalues --    0.59309   0.59626   0.60266   0.60719   0.61148
 Alpha virt. eigenvalues --    0.61794   0.61919   0.62047   0.63088   0.63273
 Alpha virt. eigenvalues --    0.63303   0.63784   0.64271   0.65330   0.65765
 Alpha virt. eigenvalues --    0.66171   0.66241   0.67090   0.67987   0.68341
 Alpha virt. eigenvalues --    0.68833   0.69173   0.70285   0.70828   0.71266
 Alpha virt. eigenvalues --    0.72701   0.72912   0.73431   0.73598   0.74958
 Alpha virt. eigenvalues --    0.76675   0.78040   0.79321   0.80038   0.81500
 Alpha virt. eigenvalues --    0.82376   0.82534   0.84496   0.86362   0.88283
 Alpha virt. eigenvalues --    0.88954   0.89924   0.91119   0.93671   0.94346
 Alpha virt. eigenvalues --    0.95380   0.95938   0.97572   0.97712   1.01372
 Alpha virt. eigenvalues --    1.02072   1.04465   1.06311   1.07986   1.11232
 Alpha virt. eigenvalues --    1.12862   1.14239   1.17712   1.18243   1.20258
 Alpha virt. eigenvalues --    1.22683   1.22859   1.24795   1.27059   1.27707
 Alpha virt. eigenvalues --    1.29353   1.29696   1.30902   1.31837   1.33146
 Alpha virt. eigenvalues --    1.34921   1.37369   1.40226   1.41088   1.41731
 Alpha virt. eigenvalues --    1.42581   1.43611   1.45701   1.47219   1.49137
 Alpha virt. eigenvalues --    1.50644   1.52025   1.53405   1.53652   1.54159
 Alpha virt. eigenvalues --    1.54423   1.54938   1.55711   1.57192   1.58124
 Alpha virt. eigenvalues --    1.59205   1.59574   1.60329   1.60587   1.61026
 Alpha virt. eigenvalues --    1.62050   1.62502   1.62868   1.64922   1.65454
 Alpha virt. eigenvalues --    1.65841   1.66888   1.67291   1.67880   1.69019
 Alpha virt. eigenvalues --    1.69379   1.71699   1.73463   1.74289   1.74929
 Alpha virt. eigenvalues --    1.76346   1.77241   1.78923   1.81357   1.81759
 Alpha virt. eigenvalues --    1.82186   1.83195   1.85486   1.86198   1.86363
 Alpha virt. eigenvalues --    1.88638   1.92538   1.92633   1.93965   1.97223
 Alpha virt. eigenvalues --    2.03117   2.05424   2.06229   2.08048   2.10583
 Alpha virt. eigenvalues --    2.15737   2.17012   2.18286   2.22081   2.24003
 Alpha virt. eigenvalues --    2.25033   2.29184   2.32691   2.36730   2.40320
 Alpha virt. eigenvalues --    2.41001   2.41670   2.42348   2.42790   2.43112
 Alpha virt. eigenvalues --    2.44879   2.45438   2.46326   2.47114   2.47800
 Alpha virt. eigenvalues --    2.48465   2.48640   2.49586   2.51546   2.52469
 Alpha virt. eigenvalues --    2.53905   2.54756   2.57134   2.58526   2.62041
 Alpha virt. eigenvalues --    2.62207   2.63390   2.64049   2.72741   2.79115
 Alpha virt. eigenvalues --    2.84583   2.87782   2.88027   2.89794   2.91221
 Alpha virt. eigenvalues --    2.92352   2.93053   2.93608   2.95726   2.96762
 Alpha virt. eigenvalues --    2.99071   3.01934   3.03539   3.04580   3.07454
 Alpha virt. eigenvalues --    3.08682   3.12138   3.13158   3.14796   3.15480
 Alpha virt. eigenvalues --    3.16384   3.17242   3.18891   3.20117   3.22526
 Alpha virt. eigenvalues --    3.22658   3.22997   3.23977   3.24212   3.25704
 Alpha virt. eigenvalues --    3.27242   3.27641   3.29463   3.29596   3.31910
 Alpha virt. eigenvalues --    3.33239   3.34063   3.35117   3.38790   3.42733
 Alpha virt. eigenvalues --    3.43576   3.51591   3.56076   3.57754   3.61770
 Alpha virt. eigenvalues --    3.77889   3.89375   3.91171   3.98427   4.00321
 Alpha virt. eigenvalues --    4.10469   4.12242   4.14837   4.17364   4.26484
 Alpha virt. eigenvalues --    4.95505   5.00399   5.03004   5.10673   5.18441
 Alpha virt. eigenvalues --    5.24282   5.51462   5.52993   5.77981   5.85415
 Alpha virt. eigenvalues --   11.53359  11.53865  11.59443  23.41151  23.48783
 Alpha virt. eigenvalues --   23.54514  23.55344  23.58583  23.61023  23.71049
 Alpha virt. eigenvalues --   23.76764  23.78738  23.80968  23.83176  23.84477
 Alpha virt. eigenvalues --   23.91175  24.26893  49.99353  50.05264  50.11142
 Alpha virt. eigenvalues --  141.30414
          Condensed to atoms (all electrons):
               1          2          3          4          5          6
     1  C    5.182830   0.374587  -0.053770  -0.018567  -0.052578   0.404360
     2  C    0.374587   5.484236   0.281945  -0.060753  -0.021230  -0.039553
     3  C   -0.053770   0.281945   5.179434   0.196089  -0.018852   0.007348
     4  C   -0.018567  -0.060753   0.196089   5.906924   0.244269  -0.000503
     5  C   -0.052578  -0.021230  -0.018852   0.244269   4.392378   0.002379
     6  H    0.404360  -0.039553   0.007348  -0.000503   0.002379   0.467822
     7  H   -0.063451   0.410286  -0.050338   0.004569  -0.001130  -0.010284
     8  H   -0.000284   0.004817  -0.039826   0.359840  -0.024877   0.000161
     9  H   -0.000823  -0.000550  -0.027390   0.366503  -0.026181  -0.000026
    10  O    0.201375  -0.031979   0.000709  -0.108356   0.336847  -0.026240
    11  O    0.002893  -0.001718   0.006228  -0.107012   0.676203  -0.000152
    12  C    0.289596  -0.071391  -0.015755   0.000081  -0.010248  -0.054424
    13  C   -0.080183   0.008723  -0.000509   0.000150   0.000833  -0.007958
    14  C   -0.072936   0.291088  -0.067318   0.005707   0.000495  -0.004324
    15  O   -0.004571  -0.067878   0.206833  -0.040630   0.000923  -0.000436
    16  Si  -0.000471   0.006415  -0.046097  -0.013224   0.001097  -0.000043
    17  C    0.000015   0.000029   0.002468  -0.000377  -0.000005   0.000000
    18  C   -0.000019  -0.000351   0.000260  -0.009131  -0.000092  -0.000001
    19  C    0.000003  -0.000165  -0.000312  -0.000370  -0.000001   0.000000
    20  H    0.000000   0.000007  -0.000088   0.000307   0.000001   0.000000
    21  H   -0.000003  -0.000094   0.000030   0.000068  -0.000070   0.000000
    22  H   -0.000001  -0.000037   0.000551  -0.000160  -0.000137   0.000000
    23  H    0.000003   0.000056   0.000411  -0.000033   0.000000   0.000000
    24  H    0.000000   0.000007  -0.000057   0.000003   0.000000   0.000000
    25  H    0.000000  -0.000015  -0.000166  -0.000032   0.000003   0.000000
    26  H   -0.000011  -0.000009  -0.000029   0.000002  -0.000001   0.000002
    27  H   -0.000001   0.000003  -0.000070   0.000000   0.000000   0.000000
    28  H   -0.000001   0.000049  -0.000111  -0.000025   0.000000   0.000001
    29  H   -0.004279  -0.039578   0.008494  -0.000233   0.000010   0.005215
    30  H   -0.008016  -0.031688  -0.009992   0.000394  -0.000046  -0.000724
    31  H    0.006833  -0.031464  -0.006840   0.000082  -0.000067  -0.000209
    32  H   -0.034571  -0.004680   0.000389  -0.000163   0.000342  -0.000112
    33  H   -0.033315  -0.004287  -0.000320   0.000335  -0.000304   0.006351
    34  H   -0.004021  -0.000148   0.000016  -0.000001  -0.000031   0.006012
    35  H   -0.011447   0.000244  -0.000082   0.000408   0.000594  -0.000200
    36  H    0.008007  -0.000270   0.000009   0.000027  -0.000044  -0.000136
    37  C    0.006153  -0.099136   0.331074  -0.062976   0.000905  -0.000486
    38  C   -0.000287  -0.004419  -0.051693  -0.005928  -0.001617   0.000033
    39  C   -0.000097   0.000978  -0.004357   0.001836   0.000112   0.000006
    40  H   -0.000142   0.005577  -0.027944  -0.009130   0.000177   0.000008
    41  H   -0.000012  -0.008815  -0.043486   0.007325  -0.000267  -0.000006
    42  H    0.000385  -0.000002  -0.001284  -0.000683   0.000014   0.000035
    43  H   -0.000004   0.000037  -0.000183   0.000034   0.000071   0.000001
    44  H    0.000002   0.000042  -0.000282  -0.000114   0.000057   0.000000
               7          8          9         10         11         12
     1  C   -0.063451  -0.000284  -0.000823   0.201375   0.002893   0.289596
     2  C    0.410286   0.004817  -0.000550  -0.031979  -0.001718  -0.071391
     3  C   -0.050338  -0.039826  -0.027390   0.000709   0.006228  -0.015755
     4  C    0.004569   0.359840   0.366503  -0.108356  -0.107012   0.000081
     5  C   -0.001130  -0.024877  -0.026181   0.336847   0.676203  -0.010248
     6  H   -0.010284   0.000161  -0.000026  -0.026240  -0.000152  -0.054424
     7  H    0.472013  -0.000641   0.000065   0.003357  -0.000791   0.010642
     8  H   -0.000641   0.425232  -0.017326   0.005390   0.010724   0.000098
     9  H    0.000065  -0.017326   0.404619   0.000475   0.001269   0.000426
    10  O    0.003357   0.005390   0.000475   8.035944  -0.069298  -0.044020
    11  O   -0.000791   0.010724   0.001269  -0.069298   7.869345  -0.000237
    12  C    0.010642   0.000098   0.000426  -0.044020  -0.000237   5.370783
    13  C   -0.000328  -0.000040   0.000279  -0.003216   0.000014   0.304267
    14  C   -0.031613  -0.000188  -0.000243   0.004480  -0.000008   0.002469
    15  O    0.003832   0.001661  -0.007090  -0.000016  -0.000022   0.006814
    16  Si  -0.000226   0.000597  -0.000960  -0.000374  -0.000158  -0.000700
    17  C    0.000003   0.000015  -0.000344   0.000000   0.000000  -0.000013
    18  C    0.000009  -0.002274   0.000534  -0.000002  -0.000006   0.000027
    19  C    0.000004  -0.000004   0.000014   0.000000   0.000000   0.000005
    20  H    0.000000   0.000115   0.000090   0.000000   0.000000  -0.000001
    21  H    0.000001  -0.000878   0.003168   0.000003   0.000005  -0.000018
    22  H    0.000002   0.001166  -0.000852  -0.000004  -0.000043  -0.000001
    23  H    0.000000   0.000000  -0.000006   0.000000   0.000000  -0.000001
    24  H    0.000000  -0.000004   0.000003   0.000000   0.000000   0.000000
    25  H    0.000002   0.000001   0.000002   0.000000   0.000000   0.000000
    26  H    0.000000   0.000004  -0.000017   0.000001   0.000000   0.000167
    27  H    0.000000  -0.000001   0.000007   0.000000   0.000000   0.000001
    28  H    0.000000   0.000000  -0.000013   0.000000   0.000000   0.000036
    29  H   -0.006011   0.000017   0.000013   0.000060   0.000001  -0.000929
    30  H    0.006494  -0.000022   0.000005  -0.000005  -0.000001   0.003105
    31  H   -0.004898   0.000000   0.000000  -0.000160   0.000000  -0.000076
    32  H   -0.000285   0.000001   0.000143   0.003455   0.000006   0.386549
    33  H   -0.000425   0.000764   0.002492   0.000523  -0.000114   0.385870
    34  H   -0.000047   0.000003  -0.000022  -0.000329   0.000000  -0.041769
    35  H   -0.000024  -0.000017   0.000130   0.010480  -0.000138  -0.036444
    36  H    0.000024  -0.000001  -0.000009  -0.000097   0.000000  -0.038019
    37  C   -0.008584  -0.005878   0.002815   0.000241  -0.000314   0.000289
    38  C    0.005953  -0.000247   0.000451  -0.000309  -0.000237  -0.000035
    39  C    0.000868   0.004362   0.000053  -0.000045   0.000324  -0.000001
    40  H    0.000273   0.000487   0.000000   0.000005  -0.000016   0.000003
    41  H    0.000351   0.000739  -0.000121   0.000014  -0.000004  -0.000004
    42  H    0.001122   0.000011   0.000007  -0.000090   0.000111  -0.000022
    43  H   -0.000033   0.000096  -0.000001  -0.000003   0.000121   0.000000
    44  H   -0.000002   0.000628   0.000011  -0.000003   0.000114   0.000000
              13         14         15         16         17         18
     1  C   -0.080183  -0.072936  -0.004571  -0.000471   0.000015  -0.000019
     2  C    0.008723   0.291088  -0.067878   0.006415   0.000029  -0.000351
     3  C   -0.000509  -0.067318   0.206833  -0.046097   0.002468   0.000260
     4  C    0.000150   0.005707  -0.040630  -0.013224  -0.000377  -0.009131
     5  C    0.000833   0.000495   0.000923   0.001097  -0.000005  -0.000092
     6  H   -0.007958  -0.004324  -0.000436  -0.000043   0.000000  -0.000001
     7  H   -0.000328  -0.031613   0.003832  -0.000226   0.000003   0.000009
     8  H   -0.000040  -0.000188   0.001661   0.000597   0.000015  -0.002274
     9  H    0.000279  -0.000243  -0.007090  -0.000960  -0.000344   0.000534
    10  O   -0.003216   0.004480  -0.000016  -0.000374   0.000000  -0.000002
    11  O    0.000014  -0.000008  -0.000022  -0.000158   0.000000  -0.000006
    12  C    0.304267   0.002469   0.006814  -0.000700  -0.000013   0.000027
    13  C    5.367613  -0.000370   0.000372   0.000415  -0.000008   0.000000
    14  C   -0.000370   5.373457  -0.001569  -0.000946  -0.000049   0.000019
    15  O    0.000372  -0.001569   8.281275   0.344013  -0.022000  -0.022397
    16  Si   0.000415  -0.000946   0.344013  11.522763   0.330914   0.319523
    17  C   -0.000008  -0.000049  -0.022000   0.330914   5.728034  -0.049859
    18  C    0.000000   0.000019  -0.022397   0.319523  -0.049859   5.798028
    19  C    0.000000   0.000046  -0.024287   0.320332  -0.054574  -0.057184
    20  H    0.000000   0.000000   0.000791  -0.010757  -0.000444   0.367133
    21  H   -0.000001   0.000002  -0.001837  -0.026823  -0.000374   0.366603
    22  H    0.000000   0.000002  -0.000801  -0.030605   0.003023   0.365578
    23  H    0.000000   0.000096  -0.001969  -0.025565  -0.000674   0.002373
    24  H    0.000000   0.000000   0.001010  -0.012802  -0.000065   0.000616
    25  H    0.000000  -0.000026  -0.001498  -0.030617   0.002730  -0.001832
    26  H   -0.000012  -0.000004  -0.001396  -0.027332   0.368193  -0.000509
    27  H    0.000000  -0.000002   0.000880  -0.012972   0.363999  -0.000336
    28  H   -0.000004  -0.000002  -0.001244  -0.025818   0.369739   0.002595
    29  H   -0.000159   0.386772   0.000523   0.000299  -0.000001   0.000001
    30  H    0.000136   0.386286   0.005179  -0.000231   0.000139   0.000013
    31  H    0.000019   0.384497  -0.000613  -0.000899  -0.000005   0.000003
    32  H   -0.041371  -0.000886  -0.000185  -0.000434   0.000017   0.000000
    33  H   -0.051809   0.000074   0.001091   0.000123   0.000288  -0.000197
    34  H    0.383428   0.000018  -0.000012  -0.000019   0.000000   0.000000
    35  H    0.385244  -0.000079  -0.000001  -0.000007   0.000000   0.000000
    36  H    0.393315   0.000006  -0.000004  -0.000010   0.000002   0.000000
    37  C    0.000018  -0.000616  -0.032893  -0.004035  -0.000116  -0.003695
    38  C   -0.000001   0.000378   0.003645   0.002247   0.000004   0.000057
    39  C    0.000000  -0.000064  -0.000035  -0.000241   0.000000  -0.000051
    40  H    0.000000   0.000001  -0.003182   0.007351  -0.000019   0.002203
    41  H    0.000000   0.002236  -0.000107  -0.003161  -0.000030   0.000262
    42  H    0.000000   0.000321  -0.000083  -0.000033   0.000000  -0.000006
    43  H    0.000000   0.000000   0.000004   0.000032   0.000000  -0.000001
    44  H    0.000000  -0.000004  -0.000018  -0.000189   0.000000  -0.000015
              19         20         21         22         23         24
     1  C    0.000003   0.000000  -0.000003  -0.000001   0.000003   0.000000
     2  C   -0.000165   0.000007  -0.000094  -0.000037   0.000056   0.000007
     3  C   -0.000312  -0.000088   0.000030   0.000551   0.000411  -0.000057
     4  C   -0.000370   0.000307   0.000068  -0.000160  -0.000033   0.000003
     5  C   -0.000001   0.000001  -0.000070  -0.000137   0.000000   0.000000
     6  H    0.000000   0.000000   0.000000   0.000000   0.000000   0.000000
     7  H    0.000004   0.000000   0.000001   0.000002   0.000000   0.000000
     8  H   -0.000004   0.000115  -0.000878   0.001166   0.000000  -0.000004
     9  H    0.000014   0.000090   0.003168  -0.000852  -0.000006   0.000003
    10  O    0.000000   0.000000   0.000003  -0.000004   0.000000   0.000000
    11  O    0.000000   0.000000   0.000005  -0.000043   0.000000   0.000000
    12  C    0.000005  -0.000001  -0.000018  -0.000001  -0.000001   0.000000
    13  C    0.000000   0.000000  -0.000001   0.000000   0.000000   0.000000
    14  C    0.000046   0.000000   0.000002   0.000002   0.000096   0.000000
    15  O   -0.024287   0.000791  -0.001837  -0.000801  -0.001969   0.001010
    16  Si   0.320332  -0.010757  -0.026823  -0.030605  -0.025565  -0.012802
    17  C   -0.054574  -0.000444  -0.000374   0.003023  -0.000674  -0.000065
    18  C   -0.057184   0.367133   0.366603   0.365578   0.002373   0.000616
    19  C    5.770338  -0.000145   0.002367  -0.001625   0.371153   0.363347
    20  H   -0.000145   0.434599  -0.020126  -0.019397  -0.000047   0.000493
    21  H    0.002367  -0.020126   0.447393  -0.018153  -0.000096  -0.000027
    22  H   -0.001625  -0.019397  -0.018153   0.446452  -0.000026   0.000127
    23  H    0.371153  -0.000047  -0.000096  -0.000026   0.453048  -0.021136
    24  H    0.363347   0.000493  -0.000027   0.000127  -0.021136   0.455351
    25  H    0.371015   0.000057  -0.000051   0.000573  -0.018424  -0.022631
    26  H    0.002518  -0.000088   0.001430  -0.000112  -0.000087   0.000002
    27  H    0.000682   0.000555  -0.000057  -0.000078  -0.000029   0.000836
    28  H   -0.000711  -0.000076  -0.000056  -0.000104   0.001262  -0.000104
    29  H   -0.000006   0.000000   0.000000   0.000000  -0.000008   0.000000
    30  H    0.000066  -0.000001   0.000000   0.000000   0.000100  -0.000004
    31  H    0.000202   0.000000   0.000000  -0.000001   0.000203  -0.000005
    32  H   -0.000003   0.000000   0.000001   0.000000  -0.000004   0.000000
    33  H    0.000001   0.000002  -0.000091  -0.000009   0.000001   0.000000
    34  H    0.000000   0.000000   0.000000   0.000000   0.000000   0.000000
    35  H    0.000000   0.000000  -0.000001   0.000000   0.000000   0.000000
    36  H    0.000000   0.000000   0.000000   0.000000   0.000000   0.000000
    37  C   -0.002418   0.000090   0.000363  -0.000061  -0.000085   0.000164
    38  C    0.000205   0.000000   0.000004   0.000051  -0.000051  -0.000004
    39  C   -0.000003   0.000000  -0.000002   0.000116   0.000002   0.000000
    40  H    0.000310   0.000016  -0.000242   0.005279  -0.000030  -0.000054
    41  H   -0.001294  -0.000010  -0.000015   0.000085   0.000030   0.000171
    42  H   -0.000008   0.000000   0.000001   0.000003   0.000000   0.000000
    43  H    0.000000   0.000000   0.000000  -0.000008   0.000000   0.000000
    44  H   -0.000011   0.000002   0.000007   0.000289   0.000000   0.000001
              25         26         27         28         29         30
     1  C    0.000000  -0.000011  -0.000001  -0.000001  -0.004279  -0.008016
     2  C   -0.000015  -0.000009   0.000003   0.000049  -0.039578  -0.031688
     3  C   -0.000166  -0.000029  -0.000070  -0.000111   0.008494  -0.009992
     4  C   -0.000032   0.000002   0.000000  -0.000025  -0.000233   0.000394
     5  C    0.000003  -0.000001   0.000000   0.000000   0.000010  -0.000046
     6  H    0.000000   0.000002   0.000000   0.000001   0.005215  -0.000724
     7  H    0.000002   0.000000   0.000000   0.000000  -0.006011   0.006494
     8  H    0.000001   0.000004  -0.000001   0.000000   0.000017  -0.000022
     9  H    0.000002  -0.000017   0.000007  -0.000013   0.000013   0.000005
    10  O    0.000000   0.000001   0.000000   0.000000   0.000060  -0.000005
    11  O    0.000000   0.000000   0.000000   0.000000   0.000001  -0.000001
    12  C    0.000000   0.000167   0.000001   0.000036  -0.000929   0.003105
    13  C    0.000000  -0.000012   0.000000  -0.000004  -0.000159   0.000136
    14  C   -0.000026  -0.000004  -0.000002  -0.000002   0.386772   0.386286
    15  O   -0.001498  -0.001396   0.000880  -0.001244   0.000523   0.005179
    16  Si  -0.030617  -0.027332  -0.012972  -0.025818   0.000299  -0.000231
    17  C    0.002730   0.368193   0.363999   0.369739  -0.000001   0.000139
    18  C   -0.001832  -0.000509  -0.000336   0.002595   0.000001   0.000013
    19  C    0.371015   0.002518   0.000682  -0.000711  -0.000006   0.000066
    20  H    0.000057  -0.000088   0.000555  -0.000076   0.000000  -0.000001
    21  H   -0.000051   0.001430  -0.000057  -0.000056   0.000000   0.000000
    22  H    0.000573  -0.000112  -0.000078  -0.000104   0.000000   0.000000
    23  H   -0.018424  -0.000087  -0.000029   0.001262  -0.000008   0.000100
    24  H   -0.022631   0.000002   0.000836  -0.000104   0.000000  -0.000004
    25  H    0.455132  -0.000120  -0.000091  -0.000098   0.000000   0.000001
    26  H   -0.000120   0.458988  -0.020794  -0.018168   0.000001  -0.000017
    27  H   -0.000091  -0.020794   0.452595  -0.020886   0.000000  -0.000010
    28  H   -0.000098  -0.018168  -0.020886   0.456528   0.000000   0.000143
    29  H    0.000000   0.000001   0.000000   0.000000   0.473383  -0.028589
    30  H    0.000001  -0.000017  -0.000010   0.000143  -0.028589   0.448274
    31  H   -0.000016  -0.000001   0.000000  -0.000006  -0.025970  -0.023740
    32  H    0.000000   0.000017   0.000001   0.000040   0.000309   0.001397
    33  H   -0.000001   0.000621   0.000005  -0.000011   0.000057   0.000039
    34  H    0.000000   0.000000   0.000000   0.000000  -0.000001   0.000023
    35  H    0.000000   0.000000   0.000000   0.000000  -0.000004  -0.000011
    36  H    0.000000   0.000009   0.000000   0.000001   0.000001   0.000017
    37  C    0.000791  -0.000010   0.000007  -0.000019  -0.000377   0.000400
    38  C    0.000169   0.000001   0.000000   0.000000   0.000010  -0.000043
    39  C    0.000013   0.000000   0.000000   0.000000   0.000004   0.000001
    40  H    0.002147  -0.000001   0.000012   0.000004   0.000009  -0.000020
    41  H   -0.000053  -0.000002   0.000000  -0.000010   0.000027   0.000008
    42  H   -0.000008   0.000000   0.000000   0.000000   0.000030  -0.000032
    43  H   -0.000001   0.000000   0.000000   0.000000   0.000000   0.000000
    44  H   -0.000010   0.000000   0.000000   0.000000   0.000000   0.000000
              31         32         33         34         35         36
     1  C    0.006833  -0.034571  -0.033315  -0.004021  -0.011447   0.008007
     2  C   -0.031464  -0.004680  -0.004287  -0.000148   0.000244  -0.000270
     3  C   -0.006840   0.000389  -0.000320   0.000016  -0.000082   0.000009
     4  C    0.000082  -0.000163   0.000335  -0.000001   0.000408   0.000027
     5  C   -0.000067   0.000342  -0.000304  -0.000031   0.000594  -0.000044
     6  H   -0.000209  -0.000112   0.006351   0.006012  -0.000200  -0.000136
     7  H   -0.004898  -0.000285  -0.000425  -0.000047  -0.000024   0.000024
     8  H    0.000000   0.000001   0.000764   0.000003  -0.000017  -0.000001
     9  H    0.000000   0.000143   0.002492  -0.000022   0.000130  -0.000009
    10  O   -0.000160   0.003455   0.000523  -0.000329   0.010480  -0.000097
    11  O    0.000000   0.000006  -0.000114   0.000000  -0.000138   0.000000
    12  C   -0.000076   0.386549   0.385870  -0.041769  -0.036444  -0.038019
    13  C    0.000019  -0.041371  -0.051809   0.383428   0.385244   0.393315
    14  C    0.384497  -0.000886   0.000074   0.000018  -0.000079   0.000006
    15  O   -0.000613  -0.000185   0.001091  -0.000012  -0.000001  -0.000004
    16  Si  -0.000899  -0.000434   0.000123  -0.000019  -0.000007  -0.000010
    17  C   -0.000005   0.000017   0.000288   0.000000   0.000000   0.000002
    18  C    0.000003   0.000000  -0.000197   0.000000   0.000000   0.000000
    19  C    0.000202  -0.000003   0.000001   0.000000   0.000000   0.000000
    20  H    0.000000   0.000000   0.000002   0.000000   0.000000   0.000000
    21  H    0.000000   0.000001  -0.000091   0.000000  -0.000001   0.000000
    22  H   -0.000001   0.000000  -0.000009   0.000000   0.000000   0.000000
    23  H    0.000203  -0.000004   0.000001   0.000000   0.000000   0.000000
    24  H   -0.000005   0.000000   0.000000   0.000000   0.000000   0.000000
    25  H   -0.000016   0.000000  -0.000001   0.000000   0.000000   0.000000
    26  H   -0.000001   0.000017   0.000621   0.000000   0.000000   0.000009
    27  H    0.000000   0.000001   0.000005   0.000000   0.000000   0.000000
    28  H   -0.000006   0.000040  -0.000011   0.000000   0.000000   0.000001
    29  H   -0.025970   0.000309   0.000057  -0.000001  -0.000004   0.000001
    30  H   -0.023740   0.001397   0.000039   0.000023  -0.000011   0.000017
    31  H    0.460156   0.000277  -0.000085  -0.000004   0.000004  -0.000001
    32  H    0.000277   0.475350  -0.023806  -0.004473   0.007275  -0.005052
    33  H   -0.000085  -0.023806   0.472214   0.007984  -0.005511  -0.004952
    34  H   -0.000004  -0.004473   0.007984   0.487256  -0.027599  -0.027317
    35  H    0.000004   0.007275  -0.005511  -0.027599   0.470222  -0.026245
    36  H   -0.000001  -0.005052  -0.004952  -0.027317  -0.026245   0.474018
    37  C    0.003058  -0.000059   0.000074   0.000000  -0.000001  -0.000001
    38  C   -0.000194   0.000005  -0.000009   0.000000   0.000000   0.000000
    39  C   -0.000030   0.000000   0.000000   0.000000   0.000000   0.000000
    40  H    0.000133   0.000000   0.000008   0.000000   0.000000   0.000000
    41  H    0.002562  -0.000003  -0.000008   0.000000   0.000000   0.000000
    42  H    0.000505   0.000002   0.000002   0.000000   0.000000   0.000000
    43  H   -0.000001   0.000000   0.000000   0.000000   0.000000   0.000000
    44  H    0.000002   0.000000   0.000000   0.000000   0.000000   0.000000
              37         38         39         40         41         42
     1  C    0.006153  -0.000287  -0.000097  -0.000142  -0.000012   0.000385
     2  C   -0.099136  -0.004419   0.000978   0.005577  -0.008815  -0.000002
     3  C    0.331074  -0.051693  -0.004357  -0.027944  -0.043486  -0.001284
     4  C   -0.062976  -0.005928   0.001836  -0.009130   0.007325  -0.000683
     5  C    0.000905  -0.001617   0.000112   0.000177  -0.000267   0.000014
     6  H   -0.000486   0.000033   0.000006   0.000008  -0.000006   0.000035
     7  H   -0.008584   0.005953   0.000868   0.000273   0.000351   0.001122
     8  H   -0.005878  -0.000247   0.004362   0.000487   0.000739   0.000011
     9  H    0.002815   0.000451   0.000053   0.000000  -0.000121   0.000007
    10  O    0.000241  -0.000309  -0.000045   0.000005   0.000014  -0.000090
    11  O   -0.000314  -0.000237   0.000324  -0.000016  -0.000004   0.000111
    12  C    0.000289  -0.000035  -0.000001   0.000003  -0.000004  -0.000022
    13  C    0.000018  -0.000001   0.000000   0.000000   0.000000   0.000000
    14  C   -0.000616   0.000378  -0.000064   0.000001   0.002236   0.000321
    15  O   -0.032893   0.003645  -0.000035  -0.003182  -0.000107  -0.000083
    16  Si  -0.004035   0.002247  -0.000241   0.007351  -0.003161  -0.000033
    17  C   -0.000116   0.000004   0.000000  -0.000019  -0.000030   0.000000
    18  C   -0.003695   0.000057  -0.000051   0.002203   0.000262  -0.000006
    19  C   -0.002418   0.000205  -0.000003   0.000310  -0.001294  -0.000008
    20  H    0.000090   0.000000   0.000000   0.000016  -0.000010   0.000000
    21  H    0.000363   0.000004  -0.000002  -0.000242  -0.000015   0.000001
    22  H   -0.000061   0.000051   0.000116   0.005279   0.000085   0.000003
    23  H   -0.000085  -0.000051   0.000002  -0.000030   0.000030   0.000000
    24  H    0.000164  -0.000004   0.000000  -0.000054   0.000171   0.000000
    25  H    0.000791   0.000169   0.000013   0.002147  -0.000053  -0.000008
    26  H   -0.000010   0.000001   0.000000  -0.000001  -0.000002   0.000000
    27  H    0.000007   0.000000   0.000000   0.000012   0.000000   0.000000
    28  H   -0.000019   0.000000   0.000000   0.000004  -0.000010   0.000000
    29  H   -0.000377   0.000010   0.000004   0.000009   0.000027   0.000030
    30  H    0.000400  -0.000043   0.000001  -0.000020   0.000008  -0.000032
    31  H    0.003058  -0.000194  -0.000030   0.000133   0.002562   0.000505
    32  H   -0.000059   0.000005   0.000000   0.000000  -0.000003   0.000002
    33  H    0.000074  -0.000009   0.000000   0.000008  -0.000008   0.000002
    34  H    0.000000   0.000000   0.000000   0.000000   0.000000   0.000000
    35  H   -0.000001   0.000000   0.000000   0.000000   0.000000   0.000000
    36  H   -0.000001   0.000000   0.000000   0.000000   0.000000   0.000000
    37  C    5.451755   0.301812  -0.054489   0.388109   0.401564  -0.049318
    38  C    0.301812   5.080276   0.626072  -0.048172  -0.040505   0.398605
    39  C   -0.054489   0.626072   5.123364  -0.000592   0.002000  -0.035178
    40  H    0.388109  -0.048172  -0.000592   0.445349  -0.029251   0.005075
    41  H    0.401564  -0.040505   0.002000  -0.029251   0.445548  -0.004293
    42  H   -0.049318   0.398605  -0.035178   0.005075  -0.004293   0.462530
    43  H    0.005871  -0.035578   0.389206   0.000121  -0.000358  -0.007985
    44  H   -0.007554  -0.042924   0.390378   0.004436   0.000036   0.005786
              43         44
     1  C   -0.000004   0.000002
     2  C    0.000037   0.000042
     3  C   -0.000183  -0.000282
     4  C    0.000034  -0.000114
     5  C    0.000071   0.000057
     6  H    0.000001   0.000000
     7  H   -0.000033  -0.000002
     8  H    0.000096   0.000628
     9  H   -0.000001   0.000011
    10  O   -0.000003  -0.000003
    11  O    0.000121   0.000114
    12  C    0.000000   0.000000
    13  C    0.000000   0.000000
    14  C    0.000000  -0.000004
    15  O    0.000004  -0.000018
    16  Si   0.000032  -0.000189
    17  C    0.000000   0.000000
    18  C   -0.000001  -0.000015
    19  C    0.000000  -0.000011
    20  H    0.000000   0.000002
    21  H    0.000000   0.000007
    22  H   -0.000008   0.000289
    23  H    0.000000   0.000000
    24  H    0.000000   0.000001
    25  H   -0.000001  -0.000010
    26  H    0.000000   0.000000
    27  H    0.000000   0.000000
    28  H    0.000000   0.000000
    29  H    0.000000   0.000000
    30  H    0.000000   0.000000
    31  H   -0.000001   0.000002
    32  H    0.000000   0.000000
    33  H    0.000000   0.000000
    34  H    0.000000   0.000000
    35  H    0.000000   0.000000
    36  H    0.000000   0.000000
    37  C    0.005871  -0.007554
    38  C   -0.035578  -0.042924
    39  C    0.389206   0.390378
    40  H    0.000121   0.004436
    41  H   -0.000358   0.000036
    42  H   -0.007985   0.005786
    43  H    0.448799  -0.032099
    44  H   -0.032099   0.456482
 Mulliken charges:
               1
     1  C   -0.033183
     2  C   -0.348918
     3  C    0.244862
     4  C   -0.656556
     5  C    0.500067
     6  H    0.246086
     7  H    0.259244
     8  H    0.275580
     9  H    0.298401
    10  O   -0.318813
    11  O   -0.387090
    12  C   -0.447117
    13  C   -0.658857
    14  C   -0.657203
    15  O   -0.622074
    16  Si   1.419626
    17  C   -1.040655
    18  C   -1.077879
    19  C   -1.059486
    20  H    0.246920
    21  H    0.247570
    22  H    0.248916
    23  H    0.239530
    24  H    0.234763
    25  H    0.243055
    26  H    0.236764
    27  H    0.235743
    28  H    0.237070
    29  H    0.230909
    30  H    0.250971
    31  H    0.236747
    32  H    0.240510
    33  H    0.246334
    34  H    0.221053
    35  H    0.233208
    36  H    0.226722
    37  C   -0.562433
    38  C   -0.187725
    39  C   -0.444511
    40  H    0.251699
    41  H    0.268860
    42  H    0.224478
    43  H    0.231862
    44  H    0.224951
 Sum of Mulliken charges =   0.00000
 Mulliken charges with hydrogens summed into heavy atoms:
               1
     1  C    0.212903
     2  C   -0.089675
     3  C    0.244862
     4  C   -0.082575
     5  C    0.500067
    10  O   -0.318813
    11  O   -0.387090
    12  C    0.039726
    13  C    0.022126
    14  C    0.061426
    15  O   -0.622074
    16  Si   1.419626
    17  C   -0.331079
    18  C   -0.334473
    19  C   -0.342139
    37  C   -0.041873
    38  C    0.036753
    39  C    0.012302
 Electronic spatial extent (au):  <R**2>=           5164.3297
 Charge=              0.0000 electrons
 Dipole moment (field-independent basis, Debye):
    X=              3.9875    Y=             -1.4976    Z=              2.8800  Tot=              5.1417
 Quadrupole moment (field-independent basis, Debye-Ang):
   XX=           -130.3616   YY=           -118.1438   ZZ=           -120.1301
   XY=              6.7884   XZ=            -13.9826   YZ=              4.2086
 Traceless Quadrupole moment (field-independent basis, Debye-Ang):
   XX=             -7.4831   YY=              4.7347   ZZ=              2.7484
   XY=              6.7884   XZ=            -13.9826   YZ=              4.2086
 Octapole moment (field-independent basis, Debye-Ang**2):
  XXX=             46.2247  YYY=              6.1612  ZZZ=             12.7511  XYY=             -8.9663
  XXY=            -21.4711  XXZ=             27.3103  XZZ=              5.5561  YZZ=            -13.9117
  YYZ=              3.1281  XYZ=            -16.2228
 Hexadecapole moment (field-independent basis, Debye-Ang**3):
 XXXX=          -3514.2880 YYYY=          -2413.1690 ZZZZ=          -1179.0175 XXXY=             23.5834
 XXXZ=           -131.8826 YYYX=            -26.7472 YYYZ=            -38.5328 ZZZX=            -18.2110
 ZZZY=             19.8375 XXYY=          -1012.9992 XXZZ=           -798.2915 YYZZ=           -611.7019
 XXYZ=             26.1740 YYXZ=            -33.5136 ZZXY=             21.8357
 N-N= 1.647264129076D+03 E-N=-5.789756158591D+03  KE= 1.060536811382D+03
 1\1\GINC-SWANNODE-0-12\SP\RmPW1PW91\6-311G(d)\C14H26O3Si1\ROOT\08-Mar-
 2018\0\\#mPW1PW91/6-311g(d) nmr=(giao) scrf=(solvent=chloroform)\\P_ng
 _4ginp006\\0,1\C,0,0.691376,1.821551,-0.025201\C,0,-0.423657,0.906287,
 0.506397\C,0,-1.389359,1.679769,1.467684\C,0,-1.487948,3.161537,1.0479
 92\C,0,-1.078476,3.447673,-0.368416\H,0,1.258542,1.241872,-0.76548\H,0
 ,-0.991705,0.619895,-0.387678\H,0,-2.513375,3.52778,1.178173\H,0,-0.86
 6284,3.807107,1.67891\O,0,0.08396,2.891402,-0.781664\O,0,-1.707354,4.2
 18441,-1.085983\C,0,1.699798,2.371836,0.993393\C,0,2.808124,3.173581,0
 .319745\C,0,0.134362,-0.397537,1.09087\O,0,-0.749812,1.601939,2.766148
 \Si,0,-1.382246,2.006571,4.263803\C,0,0.050342,2.329854,5.453926\C,0,-
 2.445877,3.550724,4.239444\C,0,-2.389264,0.585969,4.974345\H,0,-2.7984
 7,3.784883,5.248658\H,0,-1.876516,4.410569,3.874983\H,0,-3.323348,3.42
 1559,3.600389\H,0,-1.798993,-0.335072,4.980538\H,0,-2.689799,0.807652,
 6.002753\H,0,-3.294606,0.40999,4.387484\H,0,0.663064,3.161181,5.093342
 \H,0,-0.327431,2.581627,6.449063\H,0,0.684005,1.442075,5.536338\H,0,0.
 749682,-0.915454,0.346979\H,0,0.758257,-0.230202,1.973575\H,0,-0.67432
 2,-1.077848,1.374803\H,0,2.157366,1.550205,1.553919\H,0,1.216911,3.032
 48,1.717793\H,0,3.347233,2.561211,-0.409998\H,0,2.407436,4.052436,-0.1
 9489\H,0,3.528197,3.521631,1.067226\C,0,-2.797259,0.990959,1.47062\C,0
 ,-3.519387,0.935964,0.149329\C,0,-4.583937,1.688413,-0.157071\H,0,-3.4
 50154,1.495,2.192777\H,0,-2.70467,-0.033976,1.851461\H,0,-3.17029,0.21
 3347,-0.585741\H,0,-5.069674,1.595193,-1.1245\H,0,-4.993603,2.418366,0
 .534453\\Version=EM64L-G09RevD.01\State=1-A\HF=-1064.3737303\RMSD=3.35
 4e-09\Dipole=0.1789476,-1.3019756,1.5378531\Quadrupole=5.814697,-0.577
 8778,-5.2368193,0.1996031,-2.4863372,11.4055999\PG=C01 [X(C14H26O3Si1)
 ]\\@


 TIME IS IN FACT THE HERO OF THE PLOT. THE TIME
 WITH WHICH WE HAVE TO DEAL IS OF THE ORDER OF TWO
 BILLION YEARS...GIVEN SO MUCH TIME, THE "IMPOSSIBLE"
 BECOMES POSSIBLE, THE POSSIBLE PROBABLE, THE PROBABLE
 VIRTUALLY CERTAIN.  ONE HAS ONLY TO WAIT, TIME
 ITSELF PERFORMS THE MIRACLES.
 "ORIGIN OF LIFE" LECTURES, GEORGE WALD, 1954
 Job cpu time:       0 days  1 hours 13 minutes  1.6 seconds.
 File lengths (MBytes):  RWF=    237 Int=      0 D2E=      0 Chk=     11 Scr=      1
 Normal termination of Gaussian 09 at Thu Mar  8 13:59:13 2018.
