 Entering Gaussian System, Link 0=/usr/local/shared/gaussian/em64t/09-D01/g09/g09
 Initial command:
 /usr/local/shared/gaussian/em64t/09-D01/g09/l1.exe "/scratch/ah809/P_ng_2ginp010/Gau-30164.inp" -scrdir="/scratch/ah809/P_ng_2ginp010/"
 Entering Link 1 = /usr/local/shared/gaussian/em64t/09-D01/g09/l1.exe PID=     30191.
  
 Copyright (c) 1988,1990,1992,1993,1995,1998,2003,2009,2013,
            Gaussian, Inc.  All Rights Reserved.
  
 This is part of the Gaussian(R) 09 program.  It is based on
 the Gaussian(R) 03 system (copyright 2003, Gaussian, Inc.),
 the Gaussian(R) 98 system (copyright 1998, Gaussian, Inc.),
 the Gaussian(R) 94 system (copyright 1995, Gaussian, Inc.),
 the Gaussian 92(TM) system (copyright 1992, Gaussian, Inc.),
 the Gaussian 90(TM) system (copyright 1990, Gaussian, Inc.),
 the Gaussian 88(TM) system (copyright 1988, Gaussian, Inc.),
 the Gaussian 86(TM) system (copyright 1986, Carnegie Mellon
 University), and the Gaussian 82(TM) system (copyright 1983,
 Carnegie Mellon University). Gaussian is a federally registered
 trademark of Gaussian, Inc.
  
 This software contains proprietary and confidential information,
 including trade secrets, belonging to Gaussian, Inc.
  
 This software is provided under written license and may be
 used, copied, transmitted, or stored only in accord with that
 written license.
  
 The following legend is applicable only to US Government
 contracts under FAR:
  
                    RESTRICTED RIGHTS LEGEND
  
 Use, reproduction and disclosure by the US Government is
 subject to restrictions as set forth in subparagraphs (a)
 and (c) of the Commercial Computer Software - Restricted
 Rights clause in FAR 52.227-19.
  
 Gaussian, Inc.
 340 Quinnipiac St., Bldg. 40, Wallingford CT 06492
  
  
 ---------------------------------------------------------------
 Warning -- This program may not be used in any manner that
 competes with the business of Gaussian, Inc. or will provide
 assistance to any competitor of Gaussian, Inc.  The licensee
 of this program is prohibited from giving any competitor of
 Gaussian, Inc. access to this program.  By using this program,
 the user acknowledges that Gaussian, Inc. is engaged in the
 business of creating and licensing software in the field of
 computational chemistry and represents and warrants to the
 licensee that it is not a competitor of Gaussian, Inc. and that
 it will not use this program in any manner prohibited above.
 ---------------------------------------------------------------
  

 Cite this work as:
 Gaussian 09, Revision D.01,
 M. J. Frisch, G. W. Trucks, H. B. Schlegel, G. E. Scuseria, 
 M. A. Robb, J. R. Cheeseman, G. Scalmani, V. Barone, B. Mennucci, 
 G. A. Petersson, H. Nakatsuji, M. Caricato, X. Li, H. P. Hratchian, 
 A. F. Izmaylov, J. Bloino, G. Zheng, J. L. Sonnenberg, M. Hada, 
 M. Ehara, K. Toyota, R. Fukuda, J. Hasegawa, M. Ishida, T. Nakajima, 
 Y. Honda, O. Kitao, H. Nakai, T. Vreven, J. A. Montgomery, Jr., 
 J. E. Peralta, F. Ogliaro, M. Bearpark, J. J. Heyd, E. Brothers, 
 K. N. Kudin, V. N. Staroverov, T. Keith, R. Kobayashi, J. Normand, 
 K. Raghavachari, A. Rendell, J. C. Burant, S. S. Iyengar, J. Tomasi, 
 M. Cossi, N. Rega, J. M. Millam, M. Klene, J. E. Knox, J. B. Cross, 
 V. Bakken, C. Adamo, J. Jaramillo, R. Gomperts, R. E. Stratmann, 
 O. Yazyev, A. J. Austin, R. Cammi, C. Pomelli, J. W. Ochterski, 
 R. L. Martin, K. Morokuma, V. G. Zakrzewski, G. A. Voth, 
 P. Salvador, J. J. Dannenberg, S. Dapprich, A. D. Daniels, 
 O. Farkas, J. B. Foresman, J. V. Ortiz, J. Cioslowski, 
 and D. J. Fox, Gaussian, Inc., Wallingford CT, 2013.
 
 ******************************************
 Gaussian 09:  EM64L-G09RevD.01 24-Apr-2013
                 8-Mar-2018 
 ******************************************
 %mem=6000MB
 %chk=P_ng_2ginp010.chk
 --------------------------------------------------------
 #mPW1PW91/6-311g(d) nmr=(giao) scrf=(solvent=chloroform)
 --------------------------------------------------------
 1/38=1/1;
 2/12=2,17=6,18=5,40=1/2;
 3/5=4,6=6,7=1,11=2,16=1,25=1,30=1,70=2201,72=7,74=-7/1,2,8,3;
 4//1;
 5/5=2,38=5,53=7/2;
 8/6=1,10=90,11=11/1;
 10/13=100,45=16/2;
 6/7=2,8=2,9=2,10=2,28=1/1;
 99/9=1/99;
 -------------
 P_ng_2ginp010
 -------------
 Symbolic Z-matrix:
 Charge =  0 Multiplicity = 1
 C                    -0.29096  -0.01684   1.22815 
 C                    -0.85478   1.21643   0.50949 
 C                    -1.93672   1.96849   1.34903 
 C                    -1.35691   2.21223   2.74345 
 C                    -0.70289   1.02769   3.38532 
 H                    -1.02337  -0.82833   1.24273 
 H                    -0.0211    1.92584   0.38533 
 H                    -0.60701   3.01335   2.71609 
 H                    -2.14657   2.55086   3.42292 
 O                     0.06568   0.2549    2.59679 
 O                    -0.75832   0.84316   4.59741 
 C                     0.97665  -0.56701   0.54417 
 C                     1.52962  -1.80535   1.24197 
 C                    -1.33693   0.88563  -0.91287 
 O                    -2.0322    3.2441    0.65265 
 Si                   -3.10691   4.50384   0.89158 
 C                    -4.72762   4.1863   -0.01132 
 C                    -3.48211   4.85953   2.69238 
 C                    -2.3612    6.07905   0.1554 
 H                    -4.11535   5.74774   2.78097 
 H                    -4.0119    4.02545   3.16051 
 H                    -2.56145   5.04592   3.25294 
 H                    -3.04984   6.92043   0.27495 
 H                    -1.42088   6.32425   0.65751 
 H                    -2.16047   5.9419   -0.91106 
 H                    -5.36911   5.07148   0.03366 
 H                    -4.539     3.95196  -1.0631 
 H                    -5.27208   3.35029   0.4355 
 H                    -1.8343    1.74137  -1.38027 
 H                    -0.49636   0.62201  -1.5621 
 H                    -2.03557   0.04356  -0.91563 
 H                     1.75906   0.20157   0.54397 
 H                     0.76946  -0.83054  -0.49755 
 H                     1.85007  -1.58147   2.26408 
 H                     0.77803  -2.60018   1.28132 
 H                     2.3986   -2.18702   0.6964 
 C                    -3.32701   1.25012   1.39224 
 C                    -3.42424  -0.10609   2.03304 
 C                    -3.83202  -1.2093    1.39195 
 H                    -3.74116   1.2147    0.37592 
 H                    -4.03146   1.87966   1.94978 
 H                    -3.20295  -0.18123   3.09698 
 H                    -3.91152  -2.15744   1.91678 
 H                    -4.10179  -1.19801   0.34023 
 
                          Input orientation:                          
 ---------------------------------------------------------------------
 Center     Atomic      Atomic             Coordinates (Angstroms)
 Number     Number       Type             X           Y           Z
 ---------------------------------------------------------------------
      1          6           0       -0.290960   -0.016840    1.228149
      2          6           0       -0.854783    1.216434    0.509492
      3          6           0       -1.936722    1.968486    1.349031
      4          6           0       -1.356913    2.212234    2.743448
      5          6           0       -0.702887    1.027694    3.385319
      6          1           0       -1.023373   -0.828328    1.242734
      7          1           0       -0.021103    1.925840    0.385334
      8          1           0       -0.607009    3.013348    2.716093
      9          1           0       -2.146567    2.550860    3.422917
     10          8           0        0.065680    0.254901    2.596793
     11          8           0       -0.758316    0.843157    4.597410
     12          6           0        0.976647   -0.567014    0.544173
     13          6           0        1.529616   -1.805352    1.241974
     14          6           0       -1.336925    0.885629   -0.912868
     15          8           0       -2.032203    3.244104    0.652647
     16         14           0       -3.106913    4.503838    0.891578
     17          6           0       -4.727620    4.186302   -0.011322
     18          6           0       -3.482109    4.859531    2.692384
     19          6           0       -2.361200    6.079051    0.155397
     20          1           0       -4.115350    5.747735    2.780969
     21          1           0       -4.011904    4.025450    3.160508
     22          1           0       -2.561449    5.045921    3.252944
     23          1           0       -3.049840    6.920427    0.274947
     24          1           0       -1.420884    6.324254    0.657514
     25          1           0       -2.160469    5.941896   -0.911060
     26          1           0       -5.369114    5.071479    0.033657
     27          1           0       -4.539003    3.951955   -1.063099
     28          1           0       -5.272080    3.350293    0.435502
     29          1           0       -1.834303    1.741370   -1.380267
     30          1           0       -0.496364    0.622011   -1.562100
     31          1           0       -2.035565    0.043557   -0.915632
     32          1           0        1.759061    0.201573    0.543971
     33          1           0        0.769462   -0.830537   -0.497545
     34          1           0        1.850071   -1.581469    2.264077
     35          1           0        0.778034   -2.600175    1.281323
     36          1           0        2.398595   -2.187021    0.696397
     37          6           0       -3.327007    1.250122    1.392242
     38          6           0       -3.424243   -0.106093    2.033045
     39          6           0       -3.832016   -1.209301    1.391946
     40          1           0       -3.741161    1.214703    0.375920
     41          1           0       -4.031457    1.879655    1.949784
     42          1           0       -3.202945   -0.181229    3.096984
     43          1           0       -3.911515   -2.157443    1.916782
     44          1           0       -4.101794   -1.198012    0.340232
 ---------------------------------------------------------------------
                    Distance matrix (angstroms):
                    1          2          3          4          5
     1  C    0.000000
     2  C    1.534708   0.000000
     3  C    2.581601   1.562370   0.000000
     4  C    2.898475   2.496860   1.529703   0.000000
     5  C    2.431896   2.886014   2.560060   1.497626   0.000000
     6  H    1.093231   2.178788   2.944091   3.407111   2.852753
     7  H    2.134752   1.101678   2.144791   2.725273   3.204903
     8  H    3.390561   2.856463   2.174565   1.097674   2.097589
     9  H    3.854007   3.455061   2.164301   1.095399   2.098966
    10  O    1.440216   2.475606   2.915973   2.424135   1.345243
    11  O    3.508552   4.106058   3.634140   2.381148   1.227310
    12  C    1.541863   2.556565   3.945158   4.243410   3.665520
    13  C    2.552149   3.918301   5.125311   5.169862   4.195730
    14  C    2.548028   1.537856   2.578473   3.889592   4.347022
    15  O    3.741241   2.349097   1.456458   2.427390   3.761257
    16  Si   5.336609   4.003137   2.829597   3.426860   4.907307
    17  C    6.235916   4.908180   3.815544   4.779892   6.141046
    18  C    6.008861   4.993998   3.542733   3.395180   4.784058
    19  C    6.526605   5.102913   4.301359   4.760134   6.220820
    20  H    7.089960   6.026906   4.591251   4.484434   5.855675
    21  H    5.824049   4.988574   3.437867   3.242016   4.470646
    22  H    5.906476   5.010410   3.672298   3.120941   4.429213
    23  H    7.526333   6.116275   5.187910   5.579120   7.064482
    24  H    6.466206   5.141226   4.440383   4.611282   6.000832
    25  H    6.601349   5.104192   4.576687   5.283134   6.688258
    26  H    7.287349   5.955416   4.810415   5.622811   7.025632
    27  H    6.248762   4.850731   4.065020   5.257578   6.561670
    28  H    6.064440   4.906255   3.724049   4.685117   5.913832
    29  H    3.503861   2.192306   2.740646   4.177875   4.949772
    30  H    2.869810   2.184787   3.516008   4.669807   4.968318
    31  H    2.764614   2.191088   2.973856   4.307272   4.608984
    32  H    2.172186   2.804160   4.174795   4.311583   3.849276
    33  H    2.182800   2.800426   4.309038   4.927876   4.549447
    34  H    2.846968   4.268848   5.270606   4.990664   3.818705
    35  H    2.796282   4.222359   5.314805   5.463981   4.447624
    36  H    3.496591   4.711996   6.040624   6.135772   5.213817
    37  C    3.293888   2.625314   1.565505   2.575400   3.302701
    38  C    3.236246   3.266866   2.642815   3.186403   3.243439
    39  C    3.740036   3.940410   3.700312   4.433914   4.332335
    40  H    3.761234   2.889468   2.184293   3.504982   4.280486
    41  H    4.255440   3.550431   2.180988   2.809572   3.723705
    42  H    3.463990   3.763302   3.046299   3.043269   2.791939
    43  H    4.262020   4.765199   4.609277   5.128688   4.753629
    44  H    4.087300   4.049849   3.966349   4.993956   5.077292
                    6          7          8          9         10
     6  H    0.000000
     7  H    3.053706   0.000000
     8  H    4.135531   2.637877   0.000000
     9  H    4.175365   3.759675   1.756056   0.000000
    10  O    2.047657   2.773106   2.841790   3.293622   0.000000
    11  O    3.757389   4.411040   2.876104   2.494579   2.242205
    12  C    2.134561   2.689806   4.477074   5.269039   2.391371
    13  C    2.733556   4.130418   5.473396   6.103066   2.867627
    14  C    2.771747   2.121027   4.269581   4.714610   3.831819
    15  O    4.236820   2.419463   2.518380   2.857982   4.137167
    16  Si   5.735542   4.052725   3.435103   3.338273   5.570150
    17  C    6.359294   5.236251   5.078784   4.596793   6.725615
    18  C    6.363852   5.089949   3.416892   2.765377   5.813653
    19  C    7.119267   4.772639   4.362669   4.813615   6.765418
    20  H    7.427725   6.091700   4.448543   3.808965   6.905516
    21  H    6.014012   5.294945   3.579828   2.392228   5.582249
    22  H    6.396360   4.940795   2.870435   2.535024   5.503291
    23  H    8.067613   5.842203   5.214584   5.460653   7.715353
    24  H    7.187484   4.623799   3.982743   4.734192   6.542761
    25  H    7.194981   4.731409   4.913845   5.502970   7.042917
    26  H    7.426645   6.214495   5.840292   5.312759   7.701044
    27  H    6.366131   5.158926   5.533882   5.273628   6.947382
    28  H    6.013652   5.440987   5.203606   4.396882   6.537913
    29  H    3.760464   2.537532   4.461428   4.880918   4.651509
    30  H    3.201299   2.391306   4.902415   5.594106   4.212725
    31  H    2.538358   3.048534   4.904065   5.012175   4.098418
    32  H    3.048099   2.483394   4.268780   5.390864   2.661665
    33  H    2.498566   3.000347   5.195921   5.941977   3.353865
    34  H    3.141185   4.396838   5.230096   5.864484   2.582055
    35  H    2.527053   4.682545   5.957227   6.298641   3.223254
    36  H    3.722149   4.781979   6.336929   7.109144   3.875175
    37  C    3.106290   3.521287   3.501419   2.684958   3.735202
    38  C    2.628762   4.292443   4.258436   3.259386   3.553546
    39  C    2.838288   5.036411   5.475838   4.593952   4.334464
    40  H    3.508805   3.787431   4.305165   3.689476   4.510603
    41  H    4.108730   4.304948   3.687727   2.484642   4.454770
    42  H    2.933857   4.681549   4.133919   2.947283   3.335313
    43  H    3.249962   5.844129   6.188355   5.248962   4.701053
    44  H    3.229218   5.139312   5.966053   5.232581   4.956901
                   11         12         13         14         15
    11  O    0.000000
    12  C    4.628975   0.000000
    13  C    4.848524   1.525183   0.000000
    14  C    5.540736   3.096087   4.483501   0.000000
    15  O    4.790458   4.856909   6.207324   2.914902   0.000000
    16  Si   5.713990   6.519946   7.837478   4.413651   1.673027
    17  C    6.940634   7.445888   8.753495   4.817057   2.931529
    18  C    5.213390   7.344570   8.464144   5.778543   2.978651
    19  C    7.050908   7.447318   8.859058   5.400182   2.896968
    20  H    6.214823   8.414734   9.554228   6.708513   3.890684
    21  H    4.772579   7.267845   8.269672   5.797101   3.289238
    22  H    4.766771   7.166631   8.229262   6.013441   3.207521
    23  H    7.801793   8.505695   9.901807   6.384651   3.833222
    24  H    6.782640   7.297299   8.668191   5.661430   3.140232
    25  H    7.635864   7.370557   8.847154   5.122896   3.120851
    26  H    7.743772   8.504229   9.815463   5.888616   3.854533
    27  H    7.483287   7.309364   8.676871   4.436015   3.119116
    28  H    6.631838   7.375886   8.572872   4.835092   3.248882
    29  H    6.139801   4.115039   5.547192   1.094596   2.535767
    30  H    6.169043   2.831948   4.226052   1.094321   3.760223
    31  H    5.715274   3.402536   4.558974   1.094162   3.564128
    32  H    4.814477   1.096767   2.137195   3.489333   4.862354
    33  H    5.576193   1.094325   2.134016   2.748561   5.076905
    34  H    4.257574   2.179463   1.094308   5.131910   6.399603
    35  H    5.021289   2.171769   1.094608   4.630157   6.515233
    36  H    5.862249   2.160910   1.094737   5.097551   7.009351
    37  C    4.127577   4.747909   5.739799   3.067053   2.489876
    38  C    3.818928   4.668728   5.296602   3.744170   3.881635
    39  C    4.892363   4.924885   5.396746   3.990787   4.859908
    40  H    5.182315   5.045844   6.136112   2.747656   2.667505
    41  H    4.335632   5.748307   6.708637   4.055042   2.746143
    42  H    3.045793   4.912704   5.336288   4.549630   4.367874
    43  H    5.111950   5.320493   5.494110   4.888325   5.857180
    44  H    5.785221   5.121554   5.735397   3.681891   4.910520
                   16         17         18         19         20
    16  Si   0.000000
    17  C    1.882219   0.000000
    18  C    1.873551   3.051977   0.000000
    19  C    1.891916   3.034837   3.029846   0.000000
    20  H    2.476696   3.257274   1.094417   3.174971   0.000000
    21  H    2.489158   3.255553   1.093396   3.996598   1.766640
    22  H    2.483432   4.010820   1.093885   3.271430   1.769156
    23  H    2.494673   3.220611   3.205955   1.093815   2.964905
    24  H    2.492267   3.994081   3.245729   1.093819   3.478733
    25  H    2.492643   3.237577   3.987863   1.093817   4.182145
    26  H    2.485115   1.094110   3.267191   3.174519   3.094668
    27  H    2.485200   1.093951   4.005543   3.279039   4.263938
    28  H    2.495320   1.093160   3.251970   3.999725   3.547812
    29  H    3.796320   4.027777   5.387456   4.631561   6.210477
    30  H    5.282432   5.745660   6.706108   6.017200   7.631013
    31  H    4.930304   5.022676   6.189012   6.138431   7.108306
    32  H    6.504461   7.633050   7.333629   7.188344   8.382886
    33  H    6.738806   7.458083   7.786423   7.613789   8.825174
    34  H    7.967836   9.039394   8.372698   8.992491   9.464178
    35  H    8.106276   8.833993   8.705580   9.297928   9.791923
    36  H    8.666966   9.586608   9.392579   9.553862  10.475556
    37  C    3.299360   3.543002   3.839565   5.077512   4.772690
    38  C    4.759738   4.929795   5.009541   6.550697   5.941744
    39  C    5.780666   5.646574   6.216454   7.537402   7.100001
    40  H    3.389186   3.154910   4.326417   5.061107   5.145159
    41  H    2.976729   3.106638   3.119759   4.862562   3.957265
    42  H    5.179082   5.573287   5.064671   6.967968   6.007076
    43  H    6.787569   6.680323   7.072756   8.564215   7.954886
    44  H    5.814195   5.431950   6.527668   7.484616   7.362118
                   21         22         23         24         25
    21  H    0.000000
    22  H    1.775873   0.000000
    23  H    4.199157   3.552572   0.000000
    24  H    4.273507   3.109868   1.776310   0.000000
    25  H    4.866029   4.278140   1.776265   1.775840   0.000000
    26  H    3.565585   4.271703   2.975880   4.188933   3.456229
    27  H    4.257005   4.871931   3.580475   4.279133   3.104900
    28  H    3.077261   4.261532   4.208323   4.870877   4.267524
    29  H    5.529702   5.737198   5.571346   5.032523   4.239217
    30  H    6.800400   6.857128   7.040243   6.188457   5.611976
    31  H    6.031277   6.532781   7.052487   6.503828   5.899663
    32  H    7.400834   7.033708   8.266856   6.900157   7.101488
    33  H    7.734560   7.726182   8.675324   7.571183   7.390625
    34  H    8.161120   8.022572  10.012392   8.705208   9.097634
    35  H    8.388906   8.573344  10.310542   9.212481   9.295608
    36  H    9.260731   9.135284  10.621143   9.329080   9.457710
    37  C    3.361294   4.296089   5.785977   5.469913   5.355255
    38  C    4.322750   5.364309   7.252797   6.874220   6.844198
    39  C    5.528362   6.648718   8.243298   7.944017   7.696592
    40  H    3.965795   4.934290   5.748339   5.618762   5.147937
    41  H    2.463873   3.726176   5.401669   5.314086   5.309127
    42  H    4.284227   5.268675   7.643353   7.172731   7.392147
    43  H    6.307543   7.449595   9.265302   8.929064   8.755692
    44  H    5.936884   7.059975   8.186570   7.992023   7.504183
                   26         27         28         29         30
    26  H    0.000000
    27  H    1.773497   0.000000
    28  H    1.770135   1.773472   0.000000
    29  H    5.058033   3.507518   4.207608   0.000000
    30  H    6.788807   5.261222   5.851615   1.753884   0.000000
    31  H    6.106857   4.643762   4.820280   1.771711   1.766825
    32  H    8.647964   7.504242   7.704748   4.357285   3.114361
    33  H    8.532179   7.167418   7.406088   3.764770   2.201247
    34  H   10.067429   9.083455   8.853869   6.156063   5.000071
    35  H    9.909509   8.757717   8.528034   5.723406   4.482368
    36  H   10.651871   9.429375   9.464099   6.136955   4.623014
    37  C    4.540784   3.846756   3.018175   3.186894   4.139469
    38  C    5.881099   5.224610   4.232405   4.194249   4.693365
    39  C    6.607255   5.758962   4.876317   4.514696   4.817330
    40  H    4.200250   3.193724   2.628309   2.645313   3.825691
    41  H    3.955832   3.691814   2.448463   3.991973   5.139249
    42  H    6.455014   6.014528   4.882259   5.061160   5.447737
    43  H    7.611049   6.826286   5.863487   5.512357   5.611706
    44  H    6.403640   5.355619   4.697417   4.091650   4.464356
                   31         32         33         34         35
    31  H    0.000000
    32  H    4.068734   0.000000
    33  H    2.967661   1.768986   0.000000
    34  H    5.277256   2.479170   3.059113   0.000000
    35  H    4.442102   3.058741   2.509196   1.775621   0.000000
    36  H    5.218802   2.477422   2.433027   1.767821   1.771737
    37  C    2.906872   5.261854   4.968047   5.964909   5.629250
    38  C    3.262747   5.401726   4.951350   5.481651   4.944154
    39  C    3.181479   5.828359   4.988711   5.760663   4.816568
    40  H    2.439005   5.595276   5.029082   6.530359   5.982990
    41  H    3.945307   6.190506   6.031864   6.831583   6.606582
    42  H    4.185020   5.593381   5.396504   5.309179   4.999612
    43  H    4.047982   6.293250   5.431501   5.800710   4.753072
    44  H    2.718086   6.029094   4.956414   6.266811   5.163762
                   36         37         38         39         40
    36  H    0.000000
    37  C    6.714214   0.000000
    38  C    6.326321   1.503131   0.000000
    39  C    6.345096   2.510736   1.339535   0.000000
    40  H    7.026453   1.098038   2.142662   2.629897   0.000000
    41  H    7.710668   1.097003   2.078181   3.145252   1.733055
    42  H    6.415861   2.229417   1.089305   2.088017   3.105236
    43  H    6.427107   3.496897   2.111632   1.086621   3.711421
    44  H    6.584835   2.774956   2.125318   1.085822   2.439779
                   41         42         43         44
    41  H    0.000000
    42  H    2.499949   0.000000
    43  H    4.039014   2.408396   0.000000
    44  H    3.473851   3.072696   1.855323   0.000000
 Stoichiometry    C14H26O3Si
 Framework group  C1[X(C14H26O3Si)]
 Deg. of freedom   126
 Full point group                 C1      NOp   1
 Largest Abelian subgroup         C1      NOp   1
 Largest concise Abelian subgroup C1      NOp   1
                         Standard orientation:                         
 ---------------------------------------------------------------------
 Center     Atomic      Atomic             Coordinates (Angstroms)
 Number     Number       Type             X           Y           Z
 ---------------------------------------------------------------------
      1          6           0        2.305578   -0.421407   -0.361280
      2          6           0        0.884006   -0.958069   -0.576815
      3          6           0       -0.216936   -0.019202    0.012639
      4          6           0        0.051297    1.394771   -0.505744
      5          6           0        1.470033    1.862151   -0.397912
      6          1           0        2.605098   -0.520313    0.685457
      7          1           0        0.710467   -0.982193   -1.664471
      8          1           0       -0.231829    1.479545   -1.562882
      9          1           0       -0.567175    2.116411    0.038892
     10          8           0        2.429720    0.971339   -0.706345
     11          8           0        1.742560    3.036179   -0.166225
     12          6           0        3.353050   -1.178074   -1.202470
     13          6           0        4.770656   -0.662757   -0.976588
     14          6           0        0.737068   -2.412134   -0.098164
     15          8           0       -1.425056   -0.528554   -0.621614
     16         14           0       -3.022074   -0.112692   -0.346639
     17          6           0       -3.716494   -1.048887    1.131221
     18          6           0       -3.301463    1.720849   -0.081574
     19          6           0       -4.044619   -0.620465   -1.855253
     20          1           0       -4.371615    1.934792    0.000596
     21          1           0       -2.821561    2.067452    0.837705
     22          1           0       -2.906296    2.300694   -0.920744
     23          1           0       -5.100759   -0.382388   -1.699313
     24          1           0       -3.695674   -0.090214   -2.746045
     25          1           0       -3.952318   -1.695910   -2.032266
     26          1           0       -4.793704   -0.878529    1.218807
     27          1           0       -3.546979   -2.123489    1.016222
     28          1           0       -3.245256   -0.723621    2.062423
     29          1           0       -0.301405   -2.753401   -0.155165
     30          1           0        1.322833   -3.093336   -0.722970
     31          1           0        1.078007   -2.532580    0.934523
     32          1           0        3.117687   -1.071056   -2.268327
     33          1           0        3.340096   -2.246231   -0.964942
     34          1           0        4.874204    0.380217   -1.291218
     35          1           0        5.049052   -0.734767    0.079573
     36          1           0        5.483263   -1.258035   -1.556490
     37          6           0       -0.338477   -0.075632    1.572398
     38          6           0        0.829384    0.367619    2.408480
     39          6           0        1.466105   -0.422056    3.283326
     40          1           0       -0.649272   -1.086158    1.868932
     41          1           0       -1.171724    0.566202    1.884107
     42          1           0        1.137525    1.409986    2.337030
     43          1           0        2.285784   -0.036081    3.883239
     44          1           0        1.187679   -1.461252    3.430163
 ---------------------------------------------------------------------
 Rotational constants (GHZ):      0.5713854      0.2343738      0.2302267
 Standard basis: 6-311G(d) (5D, 7F)
 There are   428 symmetry adapted cartesian basis functions of A   symmetry.
 There are   410 symmetry adapted basis functions of A   symmetry.
   410 basis functions,   720 primitive gaussians,   428 cartesian basis functions
    74 alpha electrons       74 beta electrons
       nuclear repulsion energy      1623.6808523551 Hartrees.
 NAtoms=   44 NActive=   44 NUniq=   44 SFac= 1.00D+00 NAtFMM=   60 NAOKFM=F Big=F
 Integral buffers will be    131072 words long.
 Raffenetti 2 integral format.
 Two-electron integral symmetry is turned on.
 ------------------------------------------------------------------------------
 Polarizable Continuum Model (PCM)
 =================================
 Model                : PCM (using non-symmetric T matrix).
 Atomic radii         : UFF (Universal Force Field).
 Polarization charges : Total charges.
 Charge compensation  : None.
 Solution method      : On-the-fly selection.
 Cavity type          : Scaled VdW (van der Waals Surface) (Alpha=1.100).
 Cavity algorithm     : GePol (No added spheres)
                        Default sphere list used, NSphG=   44.
                        Lebedev-Laikov grids with approx.  5.0 points / Ang**2.
                        Smoothing algorithm: Karplus/York (Gamma=1.0000).
                        Polarization charges: spherical gaussians, with
                                              point-specific exponents (IZeta= 3).
                        Self-potential: point-specific (ISelfS= 7).
                        Self-field    : sphere-specific E.n sum rule (ISelfD= 2).
 Solvent              : Chloroform, Eps=   4.711300 Eps(inf)=   2.090627
 ------------------------------------------------------------------------------
 One-electron integrals computed using PRISM.
 NBasis=   410 RedAO= T EigKep=  1.01D-03  NBF=   410
 NBsUse=   410 1.00D-06 EigRej= -1.00D+00 NBFU=   410
 ExpMin= 6.54D-02 ExpMax= 6.94D+04 ExpMxC= 2.33D+03 IAcc=2 IRadAn=         4 AccDes= 0.00D+00
 Harris functional with IExCor=  908 and IRadAn=       4 diagonalized for initial guess.
 HarFok:  IExCor=  908 AccDes= 0.00D+00 IRadAn=         4 IDoV= 1 UseB2=F ITyADJ=14
 ICtDFT=  3500011 ScaDFX=  1.000000  1.000000  1.000000  1.000000
 FoFCou: FMM=F IPFlag=           0 FMFlag=      100000 FMFlg1=           0
         NFxFlg=           0 DoJE=T BraDBF=F KetDBF=T FulRan=T
         wScrn=  0.000000 ICntrl=     500 IOpCl=  0 I1Cent=   200000004 NGrid=           0
         NMat0=    1 NMatS0=      1 NMatT0=    0 NMatD0=    1 NMtDS0=    0 NMtDT0=    0
 Petite list used in FoFCou.
 Requested convergence on RMS density matrix=1.00D-08 within 128 cycles.
 Requested convergence on MAX density matrix=1.00D-06.
 Requested convergence on             energy=1.00D-06.
 No special actions if energy rises.
 Inv3:  Mode=1 IEnd=    24470208.
 Iteration    1 A*A^-1 deviation from unit magnitude is 8.33D-15 for   2519.
 Iteration    1 A*A^-1 deviation from orthogonality  is 6.66D-15 for   2524   1520.
 Iteration    1 A^-1*A deviation from unit magnitude is 9.77D-15 for   1813.
 Iteration    1 A^-1*A deviation from orthogonality  is 1.23D-13 for   2060   2032.
 Error on total polarization charges =  0.01141
 SCF Done:  E(RmPW1PW91) =  -1064.37462538     A.U. after   13 cycles
            NFock= 13  Conv=0.37D-08     -V/T= 2.0036
 DoSCS=F DFT=T ScalE2(SS,OS)=  1.000000  1.000000
 Range of M.O.s used for correlation:     1   410
 NBasis=   410 NAE=    74 NBE=    74 NFC=     0 NFV=     0
 NROrb=    410 NOA=    74 NOB=    74 NVA=   336 NVB=   336
 NEqPCM:  Using equilibrium solvation (IEInf=0, Eps=   4.7113, EpsInf=   2.0906)
          Differentiating once with respect to magnetic field using GIAOs.
          Electric field/nuclear overlap derivatives assumed to be zero.
 FoFJK:  IHMeth= 1 ICntrl=    6127 DoSepK=F KAlg= 0 I1Cent=   0 FoldK=F
 IRaf=         1 NMat=   1 IRICut=       1 DoRegI=T DoRafI=F ISym2E= 0.
          There are     3 degrees of freedom in the 1st order CPHF.  IDoFFX=0 NUNeed=     3.
      3 vectors produced by pass  0 Test12= 8.29D-13 3.33D-08 XBig12= 3.63D+01 6.14D-01.
 AX will form     3 AO Fock derivatives at one time.
      3 vectors produced by pass  1 Test12= 8.29D-13 3.33D-08 XBig12= 8.40D-02 9.41D-02.
      3 vectors produced by pass  2 Test12= 8.29D-13 3.33D-08 XBig12= 1.24D-03 1.25D-02.
      3 vectors produced by pass  3 Test12= 8.29D-13 3.33D-08 XBig12= 5.98D-06 4.27D-04.
      3 vectors produced by pass  4 Test12= 8.29D-13 3.33D-08 XBig12= 2.08D-08 2.11D-05.
      3 vectors produced by pass  5 Test12= 8.29D-13 3.33D-08 XBig12= 5.93D-11 9.05D-07.
      1 vectors produced by pass  6 Test12= 8.29D-13 3.33D-08 XBig12= 2.09D-13 6.30D-08.
 InvSVY:  IOpt=1 It=  1 EMax= 8.88D-16
 Solved reduced A of dimension    19 with     3 vectors.
 Calculating GIAO nuclear magnetic shielding tensors.
 SCF GIAO Magnetic shielding tensor (ppm):
      1  C    Isotropic =   103.4228   Anisotropy =    47.8684
   XX=    97.4574   YX=    10.4514   ZX=    -6.5019
   XY=    -3.5534   YY=   129.6142   ZY=   -15.4226
   XZ=    -3.1061   YZ=   -17.0856   ZZ=    83.1968
   Eigenvalues:    77.4313    97.5020   135.3351
      2  C    Isotropic =   137.7488   Anisotropy =    30.1010
   XX=   154.3754   YX=    -9.6851   ZX=    -2.2215
   XY=   -12.4446   YY=   118.4483   ZY=     8.8374
   XZ=     0.0129   YZ=     0.1222   ZZ=   140.4228
   Eigenvalues:   114.6864   140.7439   157.8161
      3  C    Isotropic =   104.7491   Anisotropy =    55.4738
   XX=   130.0850   YX=    11.6272   ZX=    18.8575
   XY=    10.8652   YY=    90.7925   ZY=     8.3204
   XZ=    19.5540   YZ=     6.3177   ZZ=    93.3699
   Eigenvalues:    83.7650    88.7508   141.7317
      4  C    Isotropic =   139.8210   Anisotropy =    29.8142
   XX=   146.2324   YX=    12.5452   ZX=    -3.3552
   XY=    13.2417   YY=   147.0428   ZY=    -7.9893
   XZ=     2.6076   YZ=     2.2821   ZZ=   126.1878
   Eigenvalues:   125.6650   134.1009   159.6971
      5  C    Isotropic =     7.5264   Anisotropy =   100.9550
   XX=   -68.8887   YX=    35.6497   ZX=    12.9374
   XY=    49.2504   YY=    20.4452   ZY=   -15.1656
   XZ=    22.7633   YZ=   -11.6925   ZZ=    71.0228
   Eigenvalues:   -88.7564    36.5058    74.8298
      6  H    Isotropic =    27.9166   Anisotropy =     4.6870
   XX=    28.2329   YX=    -0.8856   ZX=    -1.7871
   XY=    -0.4503   YY=    25.1721   ZY=    -1.1638
   XZ=    -0.9670   YZ=    -0.1866   ZZ=    30.3449
   Eigenvalues:    24.8576    27.8510    31.0413
      7  H    Isotropic =    29.9980   Anisotropy =     3.9474
   XX=    30.3827   YX=    -1.2143   ZX=    -0.4118
   XY=    -1.2806   YY=    27.1999   ZY=     0.6938
   XZ=    -0.6266   YZ=     0.0946   ZZ=    32.4113
   Eigenvalues:    26.7618    30.6025    32.6296
      8  H    Isotropic =    29.4252   Anisotropy =     4.2542
   XX=    30.1733   YX=     0.2295   ZX=     0.7109
   XY=    -0.2245   YY=    28.3560   ZY=    -2.9773
   XZ=     1.3278   YZ=    -2.6389   ZZ=    29.7464
   Eigenvalues:    26.0592    29.9551    32.2614
      9  H    Isotropic =    29.0764   Anisotropy =     3.8832
   XX=    31.4825   YX=    -0.8369   ZX=    -1.2052
   XY=     1.0256   YY=    31.2950   ZY=     0.6980
   XZ=    -1.0907   YZ=     0.4165   ZZ=    24.4518
   Eigenvalues:    24.2240    31.3400    31.6653
     10  O    Isotropic =   112.8258   Anisotropy =   209.8316
   XX=   161.3103   YX=   -76.7027   ZX=    -2.5906
   XY=   -94.0482   YY=   -74.3274   ZY=    21.8462
   XZ=   -14.4025   YZ=   -58.3264   ZZ=   251.4943
   Eigenvalues:  -103.1333   188.8971   252.7135
     11  O    Isotropic =  -134.8134   Anisotropy =   594.7163
   XX=  -252.0872   YX=    59.1019   ZX=    34.7645
   XY=    63.6599   YY=  -378.0976   ZY=  -126.0271
   XZ=    33.2175   YZ=  -173.9456   ZZ=   225.7447
   Eigenvalues:  -437.9060  -228.1982   261.6642
     12  C    Isotropic =   156.4208   Anisotropy =    26.0661
   XX=   162.9048   YX=    -8.6526   ZX=    -8.6089
   XY=    -5.4238   YY=   149.4994   ZY=     7.1143
   XZ=    -8.4739   YZ=    10.2956   ZZ=   156.8583
   Eigenvalues:   143.6263   151.8379   173.7982
     13  C    Isotropic =   174.9883   Anisotropy =    21.5072
   XX=   187.9090   YX=     2.5885   ZX=     2.1443
   XY=     5.8707   YY=   163.1958   ZY=     3.3913
   XZ=     3.2370   YZ=     4.2101   ZZ=   173.8600
   Eigenvalues:   161.5720   174.0664   189.3264
     14  C    Isotropic =   176.2815   Anisotropy =    16.7491
   XX=   172.4238   YX=    -2.7708   ZX=    -3.2077
   XY=     1.6968   YY=   183.5318   ZY=    -7.9994
   XZ=    -3.1364   YZ=    -6.9405   ZZ=   172.8888
   Eigenvalues:   167.2172   174.1796   187.4476
     15  O    Isotropic =   222.2627   Anisotropy =    62.4098
   XX=   205.5177   YX=    17.2153   ZX=    21.2155
   XY=    13.9218   YY=   210.4304   ZY=     4.1210
   XZ=    25.8282   YZ=     9.7727   ZZ=   250.8399
   Eigenvalues:   188.6487   214.2702   263.8692
     16  Si   Isotropic =   334.8685   Anisotropy =    53.4783
   XX=   365.6703   YX=   -19.9232   ZX=   -12.6158
   XY=    -7.7733   YY=   317.2899   ZY=     5.8126
   XZ=    -0.6624   YZ=     2.9602   ZZ=   321.6452
   Eigenvalues:   312.7895   321.2952   370.5207
     17  C    Isotropic =   184.7960   Anisotropy =    11.2962
   XX=   187.8693   YX=     0.7611   ZX=    -3.7353
   XY=    -1.0173   YY=   180.3776   ZY=    -7.5089
   XZ=    -2.1713   YZ=    -6.8760   ZZ=   186.1410
   Eigenvalues:   175.2580   186.8032   192.3267
     18  C    Isotropic =   185.0540   Anisotropy =     8.5075
   XX=   189.9101   YX=    -1.0205   ZX=    -0.6337
   XY=     3.2368   YY=   189.1451   ZY=     2.1178
   XZ=    -0.6574   YZ=     1.6922   ZZ=   176.1067
   Eigenvalues:   175.7889   188.6473   190.7256
     19  C    Isotropic =   186.0675   Anisotropy =    13.4955
   XX=   188.9349   YX=    -0.0265   ZX=     3.5782
   XY=    -0.5943   YY=   177.3955   ZY=     6.2840
   XZ=     1.5181   YZ=     6.2467   ZZ=   191.8722
   Eigenvalues:   174.9588   188.1793   195.0645
     20  H    Isotropic =    32.1647   Anisotropy =    10.4816
   XX=    37.6946   YX=    -3.8755   ZX=    -0.5454
   XY=    -2.9191   YY=    30.9081   ZY=     0.5686
   XZ=    -0.5660   YZ=     0.6478   ZZ=    27.8914
   Eigenvalues:    27.7718    29.5699    39.1525
     21  H    Isotropic =    31.9467   Anisotropy =     6.2676
   XX=    31.6958   YX=    -0.6087   ZX=     2.3969
   XY=     0.5670   YY=    31.6101   ZY=     3.5837
   XZ=     2.4911   YZ=     2.8029   ZZ=    32.5343
   Eigenvalues:    28.0307    31.6843    36.1251
     22  H    Isotropic =    31.8777   Anisotropy =     7.1348
   XX=    31.0867   YX=     0.2436   ZX=    -1.3366
   XY=     1.0319   YY=    33.1111   ZY=    -4.3164
   XZ=    -0.8936   YZ=    -3.7127   ZZ=    31.4353
   Eigenvalues:    28.0961    30.9029    36.6343
     23  H    Isotropic =    32.3775   Anisotropy =     9.6947
   XX=    38.6070   YX=    -0.9962   ZX=     1.3242
   XY=    -1.1317   YY=    28.8221   ZY=     0.4791
   XZ=     0.8793   YZ=     0.5275   ZZ=    29.7033
   Eigenvalues:    28.3912    29.9006    38.8406
     24  H    Isotropic =    32.1069   Anisotropy =     8.4673
   XX=    29.9360   YX=     1.2294   ZX=     0.1083
   XY=     0.9986   YY=    29.4508   ZY=    -2.1262
   XZ=    -0.3313   YZ=    -2.9981   ZZ=    36.9338
   Eigenvalues:    28.0789    30.4900    37.7517
     25  H    Isotropic =    32.0060   Anisotropy =     8.6706
   XX=    29.4979   YX=     0.6383   ZX=     1.5941
   XY=     0.4757   YY=    36.2758   ZY=     2.6783
   XZ=     1.4452   YZ=     3.6597   ZZ=    30.2442
   Eigenvalues:    27.9262    30.3054    37.7863
     26  H    Isotropic =    32.3524   Anisotropy =    10.2356
   XX=    38.6084   YX=     0.1475   ZX=    -2.4078
   XY=    -0.1689   YY=    28.6732   ZY=    -0.6444
   XZ=    -2.2035   YZ=    -0.6904   ZZ=    29.7756
   Eigenvalues:    28.2363    29.6448    39.1761
     27  H    Isotropic =    31.9413   Anisotropy =     7.9132
   XX=    30.1243   YX=     0.5525   ZX=    -0.6776
   XY=     0.0286   YY=    37.0747   ZY=    -0.6134
   XZ=    -0.3827   YZ=    -1.4535   ZZ=    28.6249
   Eigenvalues:    28.3621    30.2450    37.2168
     28  H    Isotropic =    32.0466   Anisotropy =     6.1978
   XX=    32.2979   YX=     1.8442   ZX=     1.1145
   XY=     1.3192   YY=    28.4228   ZY=     0.0716
   XZ=     1.9317   YZ=     0.8307   ZZ=    35.4190
   Eigenvalues:    27.8581    32.1032    36.1784
     29  H    Isotropic =    30.4481   Anisotropy =     7.2952
   XX=    34.2159   YX=     1.4535   ZX=     0.2335
   XY=     2.0578   YY=    32.4887   ZY=    -0.0696
   XZ=    -0.0319   YZ=     0.3824   ZZ=    24.6396
   Eigenvalues:    24.6360    31.3967    35.3115
     30  H    Isotropic =    31.1425   Anisotropy =     9.7286
   XX=    30.4158   YX=    -2.0873   ZX=    -3.5934
   XY=    -2.1774   YY=    34.9590   ZY=     3.1828
   XZ=    -2.9824   YZ=     2.9888   ZZ=    28.0527
   Eigenvalues:    25.5223    30.2769    37.6282
     31  H    Isotropic =    31.3831   Anisotropy =     7.8049
   XX=    28.2206   YX=    -1.8833   ZX=     1.0868
   XY=    -1.1339   YY=    31.3263   ZY=    -3.2214
   XZ=     1.4506   YZ=    -2.2997   ZZ=    34.6025
   Eigenvalues:    27.6046    29.9584    36.5864
     32  H    Isotropic =    30.6641   Anisotropy =     5.7089
   XX=    31.8959   YX=     0.2650   ZX=    -0.4621
   XY=     0.3256   YY=    25.9025   ZY=     1.6700
   XZ=    -0.1934   YZ=     1.2335   ZZ=    34.1940
   Eigenvalues:    25.6365    31.8858    34.4700
     33  H    Isotropic =    30.2438   Anisotropy =     5.6068
   XX=    32.8126   YX=     0.1772   ZX=    -2.2006
   XY=    -0.0570   YY=    33.9725   ZY=    -0.1628
   XZ=    -1.8893   YZ=    -0.0241   ZZ=    23.9463
   Eigenvalues:    23.4968    33.2529    33.9817
     34  H    Isotropic =    30.5731   Anisotropy =     7.9750
   XX=    32.5007   YX=     2.7461   ZX=    -1.4905
   XY=     1.8942   YY=    33.1436   ZY=    -2.2305
   XZ=    -1.8257   YZ=    -1.9566   ZZ=    26.0749
   Eigenvalues:    25.3470    30.4824    35.8898
     35  H    Isotropic =    31.3285   Anisotropy =     8.6605
   XX=    33.5534   YX=     0.0346   ZX=     3.9419
   XY=    -0.1778   YY=    26.8268   ZY=     0.1617
   XZ=     3.0949   YZ=    -0.6131   ZZ=    33.6054
   Eigenvalues:    26.8189    30.0646    37.1022
     36  H    Isotropic =    31.0392   Anisotropy =    11.3768
   XX=    36.0065   YX=    -2.9776   ZX=    -3.8073
   XY=    -2.2187   YY=    28.4092   ZY=     2.2487
   XZ=    -3.5486   YZ=     2.4975   ZZ=    28.7018
   Eigenvalues:    26.1099    28.3839    38.6237
     37  C    Isotropic =   141.1456   Anisotropy =    27.3649
   XX=   145.0260   YX=     4.9926   ZX=     6.9036
   XY=     8.9641   YY=   123.7333   ZY=     3.8394
   XZ=     8.4195   YZ=    -2.3065   ZZ=   154.6775
   Eigenvalues:   121.5813   142.4666   159.3889
     38  C    Isotropic =    45.5049   Anisotropy =   177.1853
   XX=    59.2978   YX=   -78.1976   ZX=   -66.6581
   XY=   -75.5124   YY=   -26.3759   ZY=    -2.4205
   XZ=   -67.5445   YZ=    -1.5405   ZZ=   103.5926
   Eigenvalues:   -79.2376    52.1238   163.6284
     39  C    Isotropic =    60.7613   Anisotropy =   147.8426
   XX=    63.1154   YX=   -73.4533   ZX=   -59.5580
   XY=   -74.4020   YY=     5.7782   ZY=    -9.7628
   XZ=   -56.1139   YZ=   -13.3947   ZZ=   113.3902
   Eigenvalues:   -56.0310    78.9918   159.3230
     40  H    Isotropic =    29.1658   Anisotropy =     2.9302
   XX=    29.6774   YX=     1.3283   ZX=    -0.1155
   XY=    -0.5753   YY=    27.5967   ZY=    -1.4763
   XZ=    -0.2653   YZ=    -1.8779   ZZ=    30.2233
   Eigenvalues:    26.7574    29.6208    31.1193
     41  H    Isotropic =    29.6250   Anisotropy =     6.3409
   XX=    33.3740   YX=    -2.3277   ZX=     1.1871
   XY=    -1.5094   YY=    26.1570   ZY=     1.0900
   XZ=    -0.4094   YZ=     1.9065   ZZ=    29.3441
   Eigenvalues:    25.1125    29.9102    33.8523
     42  H    Isotropic =    25.9408   Anisotropy =     6.1092
   XX=    24.9510   YX=    -1.4894   ZX=     2.0241
   XY=    -0.4722   YY=    23.5140   ZY=     0.8266
   XZ=     1.6212   YZ=    -0.1100   ZZ=    29.3574
   Eigenvalues:    22.7896    25.0191    30.0136
     43  H    Isotropic =    26.6841   Anisotropy =     6.6820
   XX=    26.1126   YX=    -1.1047   ZX=     1.5546
   XY=    -2.6350   YY=    24.3130   ZY=    -2.0492
   XZ=     2.4461   YZ=    -0.6525   ZZ=    29.6266
   Eigenvalues:    23.1365    25.7770    31.1387
     44  H    Isotropic =    26.5622   Anisotropy =     7.1550
   XX=    25.5403   YX=    -3.6310   ZX=     1.7481
   XY=    -1.2958   YY=    24.1358   ZY=    -0.9076
   XZ=     0.6429   YZ=    -3.2171   ZZ=    30.0105
   Eigenvalues:    22.1529    26.2015    31.3322
 End of Minotr F.D. properties file   721 does not exist.
 End of Minotr F.D. properties file   722 does not exist.
 End of Minotr F.D. properties file   788 does not exist.

 **********************************************************************

            Population analysis using the SCF density.

 **********************************************************************

 Orbital symmetries:
       Occupied  (A) (A) (A) (A) (A) (A) (A) (A) (A) (A) (A) (A)
                 (A) (A) (A) (A) (A) (A) (A) (A) (A) (A) (A) (A)
                 (A) (A) (A) (A) (A) (A) (A) (A) (A) (A) (A) (A)
                 (A) (A) (A) (A) (A) (A) (A) (A) (A) (A) (A) (A)
                 (A) (A) (A) (A) (A) (A) (A) (A) (A) (A) (A) (A)
                 (A) (A) (A) (A) (A) (A) (A) (A) (A) (A) (A) (A)
                 (A) (A)
       Virtual   (A) (A) (A) (A) (A) (A) (A) (A) (A) (A) (A) (A)
                 (A) (A) (A) (A) (A) (A) (A) (A) (A) (A) (A) (A)
                 (A) (A) (A) (A) (A) (A) (A) (A) (A) (A) (A) (A)
                 (A) (A) (A) (A) (A) (A) (A) (A) (A) (A) (A) (A)
                 (A) (A) (A) (A) (A) (A) (A) (A) (A) (A) (A) (A)
                 (A) (A) (A) (A) (A) (A) (A) (A) (A) (A) (A) (A)
                 (A) (A) (A) (A) (A) (A) (A) (A) (A) (A) (A) (A)
                 (A) (A) (A) (A) (A) (A) (A) (A) (A) (A) (A) (A)
                 (A) (A) (A) (A) (A) (A) (A) (A) (A) (A) (A) (A)
                 (A) (A) (A) (A) (A) (A) (A) (A) (A) (A) (A) (A)
                 (A) (A) (A) (A) (A) (A) (A) (A) (A) (A) (A) (A)
                 (A) (A) (A) (A) (A) (A) (A) (A) (A) (A) (A) (A)
                 (A) (A) (A) (A) (A) (A) (A) (A) (A) (A) (A) (A)
                 (A) (A) (A) (A) (A) (A) (A) (A) (A) (A) (A) (A)
                 (A) (A) (A) (A) (A) (A) (A) (A) (A) (A) (A) (A)
                 (A) (A) (A) (A) (A) (A) (A) (A) (A) (A) (A) (A)
                 (A) (A) (A) (A) (A) (A) (A) (A) (A) (A) (A) (A)
                 (A) (A) (A) (A) (A) (A) (A) (A) (A) (A) (A) (A)
                 (A) (A) (A) (A) (A) (A) (A) (A) (A) (A) (A) (A)
                 (A) (A) (A) (A) (A) (A) (A) (A) (A) (A) (A) (A)
                 (A) (A) (A) (A) (A) (A) (A) (A) (A) (A) (A) (A)
                 (A) (A) (A) (A) (A) (A) (A) (A) (A) (A) (A) (A)
                 (A) (A) (A) (A) (A) (A) (A) (A) (A) (A) (A) (A)
                 (A) (A) (A) (A) (A) (A) (A) (A) (A) (A) (A) (A)
                 (A) (A) (A) (A) (A) (A) (A) (A) (A) (A) (A) (A)
                 (A) (A) (A) (A) (A) (A) (A) (A) (A) (A) (A) (A)
                 (A) (A) (A) (A) (A) (A) (A) (A) (A) (A) (A) (A)
                 (A) (A) (A) (A) (A) (A) (A) (A) (A) (A) (A) (A)
 The electronic state is 1-A.
 Alpha  occ. eigenvalues --  -66.26898 -19.25960 -19.21196 -19.20118 -10.37269
 Alpha  occ. eigenvalues --  -10.32312 -10.30124 -10.25089 -10.25050 -10.25021
 Alpha  occ. eigenvalues --  -10.25012 -10.23581 -10.23529 -10.22535 -10.21808
 Alpha  occ. eigenvalues --  -10.20811 -10.20548 -10.20424  -5.32731  -3.66577
 Alpha  occ. eigenvalues --   -3.66347  -3.66313  -1.13522  -1.04919  -1.03854
 Alpha  occ. eigenvalues --   -0.85887  -0.83371  -0.81027  -0.77805  -0.73881
 Alpha  occ. eigenvalues --   -0.73140  -0.71919  -0.70285  -0.69885  -0.66708
 Alpha  occ. eigenvalues --   -0.63565  -0.61976  -0.58504  -0.56974  -0.53497
 Alpha  occ. eigenvalues --   -0.52894  -0.50616  -0.49141  -0.48326  -0.47206
 Alpha  occ. eigenvalues --   -0.46566  -0.45470  -0.45234  -0.44496  -0.43913
 Alpha  occ. eigenvalues --   -0.42921  -0.42531  -0.41892  -0.41618  -0.40908
 Alpha  occ. eigenvalues --   -0.40832  -0.40527  -0.40252  -0.39626  -0.38985
 Alpha  occ. eigenvalues --   -0.37905  -0.37682  -0.37214  -0.36205  -0.35935
 Alpha  occ. eigenvalues --   -0.35421  -0.34685  -0.33714  -0.32179  -0.31061
 Alpha  occ. eigenvalues --   -0.30370  -0.29601  -0.28394  -0.27251
 Alpha virt. eigenvalues --   -0.01400   0.00764   0.03981   0.05647   0.06278
 Alpha virt. eigenvalues --    0.06898   0.07185   0.08039   0.08587   0.08980
 Alpha virt. eigenvalues --    0.09556   0.09941   0.10395   0.10729   0.11161
 Alpha virt. eigenvalues --    0.11938   0.12326   0.13339   0.13605   0.13641
 Alpha virt. eigenvalues --    0.14329   0.14432   0.14792   0.15196   0.15836
 Alpha virt. eigenvalues --    0.16177   0.16455   0.17393   0.17603   0.18000
 Alpha virt. eigenvalues --    0.18696   0.19092   0.19683   0.20499   0.20922
 Alpha virt. eigenvalues --    0.21961   0.22739   0.23804   0.24111   0.24502
 Alpha virt. eigenvalues --    0.24817   0.25954   0.26962   0.27763   0.27894
 Alpha virt. eigenvalues --    0.28307   0.29582   0.30602   0.31620   0.32211
 Alpha virt. eigenvalues --    0.32691   0.33574   0.34202   0.35388   0.36048
 Alpha virt. eigenvalues --    0.36534   0.37588   0.38865   0.39406   0.40201
 Alpha virt. eigenvalues --    0.41339   0.41435   0.42946   0.42997   0.44691
 Alpha virt. eigenvalues --    0.44983   0.45279   0.47221   0.47786   0.49204
 Alpha virt. eigenvalues --    0.49577   0.50486   0.51261   0.52147   0.52815
 Alpha virt. eigenvalues --    0.54105   0.54484   0.55266   0.56177   0.56433
 Alpha virt. eigenvalues --    0.57092   0.57812   0.58520   0.58847   0.59113
 Alpha virt. eigenvalues --    0.59863   0.60045   0.60606   0.61162   0.61212
 Alpha virt. eigenvalues --    0.61710   0.62062   0.62573   0.62709   0.62931
 Alpha virt. eigenvalues --    0.64100   0.64355   0.64409   0.64939   0.65483
 Alpha virt. eigenvalues --    0.66235   0.66887   0.67315   0.67907   0.68334
 Alpha virt. eigenvalues --    0.68639   0.69026   0.69163   0.70064   0.70426
 Alpha virt. eigenvalues --    0.71208   0.71860   0.72997   0.73937   0.75615
 Alpha virt. eigenvalues --    0.75750   0.76578   0.77702   0.79924   0.81247
 Alpha virt. eigenvalues --    0.82393   0.85041   0.86322   0.87478   0.88244
 Alpha virt. eigenvalues --    0.89482   0.90326   0.92307   0.93664   0.95805
 Alpha virt. eigenvalues --    0.96037   0.97830   0.98246   1.00524   1.01702
 Alpha virt. eigenvalues --    1.03100   1.04812   1.05408   1.09077   1.11069
 Alpha virt. eigenvalues --    1.13117   1.15163   1.16232   1.17867   1.19072
 Alpha virt. eigenvalues --    1.19780   1.22750   1.24029   1.26459   1.27263
 Alpha virt. eigenvalues --    1.28187   1.31350   1.31893   1.32123   1.33194
 Alpha virt. eigenvalues --    1.35427   1.37602   1.38939   1.39791   1.41097
 Alpha virt. eigenvalues --    1.41514   1.44374   1.45847   1.46425   1.49001
 Alpha virt. eigenvalues --    1.49471   1.50036   1.51127   1.53296   1.53780
 Alpha virt. eigenvalues --    1.54451   1.55049   1.55721   1.57800   1.58459
 Alpha virt. eigenvalues --    1.58832   1.59233   1.59431   1.60937   1.61164
 Alpha virt. eigenvalues --    1.61496   1.62254   1.62652   1.63265   1.64528
 Alpha virt. eigenvalues --    1.65080   1.66662   1.67136   1.68282   1.68685
 Alpha virt. eigenvalues --    1.69153   1.70888   1.71889   1.72658   1.74979
 Alpha virt. eigenvalues --    1.75626   1.77994   1.78448   1.79264   1.81046
 Alpha virt. eigenvalues --    1.81644   1.81831   1.83869   1.86087   1.88044
 Alpha virt. eigenvalues --    1.89602   1.90430   1.93393   1.96218   1.98016
 Alpha virt. eigenvalues --    2.00001   2.04254   2.05695   2.09488   2.10594
 Alpha virt. eigenvalues --    2.16952   2.18479   2.19452   2.21603   2.24258
 Alpha virt. eigenvalues --    2.26587   2.28495   2.34667   2.36749   2.41254
 Alpha virt. eigenvalues --    2.41395   2.41802   2.42502   2.42606   2.43085
 Alpha virt. eigenvalues --    2.43927   2.44887   2.46235   2.46902   2.47498
 Alpha virt. eigenvalues --    2.48305   2.48519   2.49657   2.50293   2.51464
 Alpha virt. eigenvalues --    2.54070   2.54349   2.55759   2.58127   2.60231
 Alpha virt. eigenvalues --    2.62136   2.65597   2.66249   2.74299   2.79234
 Alpha virt. eigenvalues --    2.82452   2.87469   2.88640   2.89206   2.91604
 Alpha virt. eigenvalues --    2.92502   2.93496   2.95017   2.95909   2.98199
 Alpha virt. eigenvalues --    2.99521   3.01266   3.01897   3.03949   3.06292
 Alpha virt. eigenvalues --    3.07092   3.09653   3.12371   3.14188   3.15536
 Alpha virt. eigenvalues --    3.16093   3.16660   3.18308   3.18666   3.21632
 Alpha virt. eigenvalues --    3.22664   3.22947   3.23333   3.23798   3.25996
 Alpha virt. eigenvalues --    3.26664   3.28045   3.28670   3.29790   3.31597
 Alpha virt. eigenvalues --    3.33372   3.34151   3.36163   3.38968   3.41603
 Alpha virt. eigenvalues --    3.42309   3.52201   3.58755   3.61816   3.65670
 Alpha virt. eigenvalues --    3.77914   3.88829   3.90247   3.98812   4.04015
 Alpha virt. eigenvalues --    4.08342   4.08993   4.19359   4.22498   4.25630
 Alpha virt. eigenvalues --    4.95728   5.00209   5.02984   5.08021   5.15998
 Alpha virt. eigenvalues --    5.25276   5.51254   5.53937   5.78517   5.85478
 Alpha virt. eigenvalues --   11.51723  11.53783  11.59272  23.42474  23.49170
 Alpha virt. eigenvalues --   23.54353  23.55270  23.57540  23.60110  23.71072
 Alpha virt. eigenvalues --   23.74082  23.77765  23.79367  23.82899  23.88026
 Alpha virt. eigenvalues --   23.89956  24.26210  49.99414  50.04626  50.12011
 Alpha virt. eigenvalues --  141.30859
          Condensed to atoms (all electrons):
               1          2          3          4          5          6
     1  C    5.259654   0.248735  -0.033774  -0.004782  -0.055587   0.373317
     2  C    0.248735   5.543285   0.278034  -0.096274  -0.013509  -0.036011
     3  C   -0.033774   0.278034   5.197762   0.240504  -0.015724  -0.012723
     4  C   -0.004782  -0.096274   0.240504   5.820677   0.241512   0.002642
     5  C   -0.055587  -0.013509  -0.015724   0.241512   4.433614  -0.003579
     6  H    0.373317  -0.036011  -0.012723   0.002642  -0.003579   0.472156
     7  H   -0.046228   0.405399  -0.055870  -0.002121   0.000510   0.007260
     8  H    0.001385  -0.005693  -0.029069   0.371718  -0.024847   0.000041
     9  H   -0.001160   0.008529  -0.034241   0.357011  -0.029761   0.000095
    10  O    0.210904  -0.025553  -0.006304  -0.104083   0.340188  -0.034303
    11  O    0.000469  -0.000097   0.003501  -0.102954   0.653812   0.000531
    12  C    0.323006  -0.067334   0.007795  -0.002561   0.003657  -0.049084
    13  C   -0.074720   0.007655  -0.000131   0.000093  -0.000068  -0.007151
    14  C   -0.062084   0.290762  -0.055094   0.007354   0.000222  -0.000355
    15  O    0.004515  -0.065233   0.218563  -0.036939   0.001655  -0.000046
    16  Si   0.000429   0.001631  -0.044868  -0.013263   0.001640  -0.000131
    17  C    0.000004  -0.000170  -0.000725  -0.000226   0.000004  -0.000001
    18  C    0.000012  -0.000294  -0.001488  -0.004299  -0.000204   0.000000
    19  C   -0.000001  -0.000012   0.002497  -0.000382  -0.000005   0.000000
    20  H    0.000000   0.000008  -0.000105   0.000369  -0.000001   0.000000
    21  H    0.000007  -0.000084   0.000570  -0.001053  -0.000155  -0.000001
    22  H    0.000004  -0.000122   0.000010   0.000467  -0.000108   0.000000
    23  H    0.000000   0.000001  -0.000072  -0.000002   0.000000   0.000000
    24  H   -0.000001  -0.000001  -0.000015   0.000025  -0.000002   0.000000
    25  H   -0.000001   0.000041  -0.000128  -0.000023   0.000000   0.000000
    26  H    0.000000   0.000001  -0.000063   0.000002   0.000000   0.000000
    27  H    0.000000   0.000031   0.000421  -0.000032   0.000001   0.000000
    28  H    0.000002  -0.000032  -0.000092  -0.000039   0.000004   0.000000
    29  H    0.006669  -0.038057  -0.004473   0.000504  -0.000083  -0.000206
    30  H   -0.007250  -0.032680   0.006511  -0.000298  -0.000002  -0.000566
    31  H   -0.006339  -0.040458  -0.009224  -0.000179   0.000012   0.004877
    32  H   -0.045319  -0.004960  -0.000794   0.000246  -0.000367   0.008150
    33  H   -0.037056  -0.006561  -0.000221   0.000089  -0.000027  -0.000218
    34  H   -0.010949   0.000347  -0.000066   0.000329   0.000587   0.000425
    35  H   -0.004324  -0.000020   0.000000   0.000000  -0.000118   0.004983
    36  H    0.008377  -0.000226   0.000013  -0.000001   0.000011  -0.000308
    37  C    0.007269  -0.086826   0.307034  -0.092549   0.004114  -0.000630
    38  C   -0.016560   0.001244  -0.037110  -0.001876  -0.001908   0.004058
    39  C   -0.006238   0.002957  -0.001502  -0.000158   0.000071   0.002501
    40  H    0.000736  -0.010156  -0.031251   0.006386  -0.000191  -0.000159
    41  H   -0.000495   0.006553  -0.039808  -0.007873   0.000232   0.000167
    42  H   -0.001218   0.000869  -0.004305   0.001824   0.005409   0.001381
    43  H    0.000079  -0.000077  -0.000116   0.000025  -0.000069  -0.000262
    44  H    0.000094   0.000007  -0.000008   0.000004   0.000006  -0.000064
               7          8          9         10         11         12
     1  C   -0.046228   0.001385  -0.001160   0.210904   0.000469   0.323006
     2  C    0.405399  -0.005693   0.008529  -0.025553  -0.000097  -0.067334
     3  C   -0.055870  -0.029069  -0.034241  -0.006304   0.003501   0.007795
     4  C   -0.002121   0.371718   0.357011  -0.104083  -0.102954  -0.002561
     5  C    0.000510  -0.024847  -0.029761   0.340188   0.653812   0.003657
     6  H    0.007260   0.000041   0.000095  -0.034303   0.000531  -0.049084
     7  H    0.474498   0.002550  -0.000071   0.001938  -0.000026  -0.010367
     8  H    0.002550   0.402245  -0.016247   0.000519  -0.000029  -0.000226
     9  H   -0.000071  -0.016247   0.435509   0.006115   0.014646   0.000111
    10  O    0.001938   0.000519   0.006115   8.034935  -0.070575  -0.049550
    11  O   -0.000026  -0.000029   0.014646  -0.070575   7.878879  -0.000126
    12  C   -0.010367  -0.000226   0.000111  -0.049550  -0.000126   5.330712
    13  C   -0.000201   0.000008  -0.000005  -0.002581  -0.000033   0.315673
    14  C   -0.040099  -0.000166  -0.000138   0.003648   0.000006  -0.005091
    15  O    0.004942  -0.001812  -0.000885  -0.000031  -0.000022  -0.000110
    16  Si  -0.000210   0.000126  -0.003319  -0.000275  -0.000292   0.000003
    17  C    0.000060   0.000067  -0.000094   0.000000   0.000000   0.000000
    18  C    0.000007   0.000241  -0.003584  -0.000002  -0.000024   0.000000
    19  C   -0.000097  -0.000195   0.000008   0.000000   0.000000   0.000000
    20  H    0.000000  -0.000016   0.000387   0.000000   0.000000   0.000000
    21  H   -0.000001  -0.000066   0.001069  -0.000003  -0.000071   0.000000
    22  H   -0.000010   0.000843  -0.001573  -0.000001  -0.000011   0.000000
    23  H   -0.000001   0.000002  -0.000002   0.000000   0.000000   0.000000
    24  H   -0.000022   0.000026   0.000001   0.000000   0.000000   0.000000
    25  H   -0.000023  -0.000020  -0.000005   0.000000   0.000000   0.000000
    26  H   -0.000001   0.000000  -0.000004   0.000000   0.000000   0.000000
    27  H    0.000001  -0.000001  -0.000005   0.000000   0.000000   0.000000
    28  H    0.000006   0.000010  -0.000024   0.000000   0.000000   0.000000
    29  H   -0.002769   0.000052  -0.000042  -0.000109   0.000000  -0.000018
    30  H   -0.007720  -0.000018   0.000016  -0.000008   0.000000   0.001956
    31  H    0.006908  -0.000008   0.000021   0.000031   0.000001  -0.000205
    32  H    0.006202   0.000013   0.000009   0.002520  -0.000021   0.387784
    33  H    0.000451   0.000001  -0.000004   0.003169   0.000008   0.389409
    34  H    0.000060  -0.000004  -0.000010   0.011990   0.000194  -0.039141
    35  H    0.000002   0.000000   0.000000  -0.000412  -0.000002  -0.041916
    36  H   -0.000036  -0.000001   0.000000  -0.000090  -0.000001  -0.038934
    37  C    0.007850   0.006019  -0.008864  -0.000519   0.000121  -0.000667
    38  C   -0.000412  -0.000172   0.000374   0.001094  -0.002431   0.000490
    39  C   -0.000082  -0.000006  -0.000007  -0.000023   0.000018   0.000327
    40  H   -0.000067  -0.000134   0.000167  -0.000040  -0.000001  -0.000040
    41  H   -0.000080  -0.000019   0.002206  -0.000008  -0.000062   0.000018
    42  H    0.000059   0.000252   0.000909  -0.002010   0.005954  -0.000058
    43  H   -0.000003  -0.000002  -0.000003   0.000040  -0.000018   0.000005
    44  H    0.000013   0.000002   0.000004  -0.000012   0.000000  -0.000008
              13         14         15         16         17         18
     1  C   -0.074720  -0.062084   0.004515   0.000429   0.000004   0.000012
     2  C    0.007655   0.290762  -0.065233   0.001631  -0.000170  -0.000294
     3  C   -0.000131  -0.055094   0.218563  -0.044868  -0.000725  -0.001488
     4  C    0.000093   0.007354  -0.036939  -0.013263  -0.000226  -0.004299
     5  C   -0.000068   0.000222   0.001655   0.001640   0.000004  -0.000204
     6  H   -0.007151  -0.000355  -0.000046  -0.000131  -0.000001   0.000000
     7  H   -0.000201  -0.040099   0.004942  -0.000210   0.000060   0.000007
     8  H    0.000008  -0.000166  -0.001812   0.000126   0.000067   0.000241
     9  H   -0.000005  -0.000138  -0.000885  -0.003319  -0.000094  -0.003584
    10  O   -0.002581   0.003648  -0.000031  -0.000275   0.000000  -0.000002
    11  O   -0.000033   0.000006  -0.000022  -0.000292   0.000000  -0.000024
    12  C    0.315673  -0.005091  -0.000110   0.000003   0.000000   0.000000
    13  C    5.340197  -0.000249   0.000001   0.000002   0.000000   0.000000
    14  C   -0.000249   5.416307  -0.006517   0.000282   0.000017  -0.000004
    15  O    0.000001  -0.006517   8.256589   0.352488  -0.025084  -0.022175
    16  Si   0.000002   0.000282   0.352488  11.532567   0.319424   0.317441
    17  C    0.000000   0.000017  -0.025084   0.319424   5.772811  -0.057524
    18  C    0.000000  -0.000004  -0.022175   0.317441  -0.057524   5.797641
    19  C    0.000000   0.000004  -0.022336   0.336235  -0.055213  -0.050614
    20  H    0.000000   0.000000   0.000719  -0.009854   0.000090   0.366182
    21  H    0.000000   0.000002  -0.000919  -0.030036  -0.001465   0.366278
    22  H    0.000000   0.000002  -0.002023  -0.026467   0.002394   0.368404
    23  H    0.000000   0.000000   0.000881  -0.013022   0.000592  -0.000232
    24  H    0.000000   0.000004  -0.001333  -0.026585   0.002577  -0.000558
    25  H    0.000000   0.000002  -0.001360  -0.025474  -0.000763   0.002635
    26  H    0.000000   0.000001   0.000947  -0.011778   0.363008   0.000747
    27  H    0.000000   0.000117  -0.002193  -0.026030   0.370480   0.002343
    28  H    0.000000   0.000008  -0.001558  -0.029880   0.370176  -0.001647
    29  H    0.000018   0.385562   0.007979   0.001588   0.000285   0.000037
    30  H    0.000134   0.391971  -0.000178   0.000005  -0.000005   0.000000
    31  H   -0.000151   0.382783   0.000310  -0.000127  -0.000001   0.000001
    32  H   -0.045277   0.000937  -0.000036  -0.000031   0.000000   0.000000
    33  H   -0.038711   0.001239  -0.000003  -0.000003   0.000000   0.000000
    34  H    0.386304  -0.000070   0.000000   0.000001   0.000000   0.000000
    35  H    0.385241   0.000026   0.000000   0.000000   0.000000   0.000000
    36  H    0.393110  -0.000008   0.000000   0.000000   0.000000   0.000000
    37  C    0.000021  -0.011523  -0.040553  -0.007977  -0.001971  -0.002154
    38  C   -0.000022  -0.000673   0.004083   0.002910   0.000104  -0.000089
    39  C   -0.000015  -0.000990  -0.000059  -0.000252   0.000009   0.000000
    40  H    0.000001   0.000214  -0.000345  -0.003610  -0.001438   0.000280
    41  H   -0.000001  -0.000156  -0.003420   0.007776  -0.000569   0.001354
    42  H   -0.000017  -0.000050  -0.000054  -0.000233  -0.000008   0.000019
    43  H    0.000004   0.000067   0.000003   0.000011   0.000000   0.000000
    44  H   -0.000001   0.000153  -0.000019  -0.000056   0.000004   0.000000
              19         20         21         22         23         24
     1  C   -0.000001   0.000000   0.000007   0.000004   0.000000  -0.000001
     2  C   -0.000012   0.000008  -0.000084  -0.000122   0.000001  -0.000001
     3  C    0.002497  -0.000105   0.000570   0.000010  -0.000072  -0.000015
     4  C   -0.000382   0.000369  -0.001053   0.000467  -0.000002   0.000025
     5  C   -0.000005  -0.000001  -0.000155  -0.000108   0.000000  -0.000002
     6  H    0.000000   0.000000  -0.000001   0.000000   0.000000   0.000000
     7  H   -0.000097   0.000000  -0.000001  -0.000010  -0.000001  -0.000022
     8  H   -0.000195  -0.000016  -0.000066   0.000843   0.000002   0.000026
     9  H    0.000008   0.000387   0.001069  -0.001573  -0.000002   0.000001
    10  O    0.000000   0.000000  -0.000003  -0.000001   0.000000   0.000000
    11  O    0.000000   0.000000  -0.000071  -0.000011   0.000000   0.000000
    12  C    0.000000   0.000000   0.000000   0.000000   0.000000   0.000000
    13  C    0.000000   0.000000   0.000000   0.000000   0.000000   0.000000
    14  C    0.000004   0.000000   0.000002   0.000002   0.000000   0.000004
    15  O   -0.022336   0.000719  -0.000919  -0.002023   0.000881  -0.001333
    16  Si   0.336235  -0.009854  -0.030036  -0.026467  -0.013022  -0.026585
    17  C   -0.055213   0.000090  -0.001465   0.002394   0.000592   0.002577
    18  C   -0.050614   0.366182   0.366278   0.368404  -0.000232  -0.000558
    19  C    5.723313  -0.000952   0.002979  -0.000387   0.363772   0.368059
    20  H   -0.000952   0.434275  -0.019619  -0.020163   0.000570  -0.000043
    21  H    0.002979  -0.019619   0.447853  -0.018976  -0.000073  -0.000102
    22  H   -0.000387  -0.020163  -0.018976   0.447822  -0.000080   0.001209
    23  H    0.363772   0.000570  -0.000073  -0.000080   0.453548  -0.020649
    24  H    0.368059  -0.000043  -0.000102   0.001209  -0.020649   0.458419
    25  H    0.369155  -0.000054  -0.000102  -0.000070  -0.020920  -0.018437
    26  H   -0.000471   0.000348   0.000108  -0.000023   0.000762   0.000009
    27  H   -0.000624  -0.000051  -0.000019  -0.000100  -0.000023  -0.000082
    28  H    0.002733   0.000024   0.000830  -0.000046  -0.000087  -0.000116
    29  H   -0.000020   0.000000   0.000004   0.000002  -0.000002  -0.000003
    30  H    0.000001   0.000000   0.000000   0.000000   0.000000   0.000000
    31  H    0.000001   0.000000  -0.000001   0.000000   0.000000   0.000000
    32  H    0.000000   0.000000   0.000000   0.000000   0.000000   0.000000
    33  H    0.000000   0.000000   0.000000   0.000000   0.000000   0.000000
    34  H    0.000000   0.000000   0.000000   0.000000   0.000000   0.000000
    35  H    0.000000   0.000000   0.000000   0.000000   0.000000   0.000000
    36  H    0.000000   0.000000   0.000000   0.000000   0.000000   0.000000
    37  C   -0.000133   0.000069   0.000160   0.000337   0.000006  -0.000009
    38  C    0.000004  -0.000001   0.000001   0.000014   0.000000   0.000001
    39  C    0.000000   0.000000  -0.000005   0.000000   0.000000   0.000000
    40  H   -0.000061  -0.000005   0.000067  -0.000008   0.000001  -0.000003
    41  H    0.000011   0.000047   0.004041  -0.000273   0.000010   0.000000
    42  H    0.000000  -0.000001   0.000010  -0.000003   0.000000   0.000000
    43  H    0.000000   0.000000   0.000000   0.000000   0.000000   0.000000
    44  H    0.000000   0.000000   0.000000   0.000000   0.000000   0.000000
              25         26         27         28         29         30
     1  C   -0.000001   0.000000   0.000000   0.000002   0.006669  -0.007250
     2  C    0.000041   0.000001   0.000031  -0.000032  -0.038057  -0.032680
     3  C   -0.000128  -0.000063   0.000421  -0.000092  -0.004473   0.006511
     4  C   -0.000023   0.000002  -0.000032  -0.000039   0.000504  -0.000298
     5  C    0.000000   0.000000   0.000001   0.000004  -0.000083  -0.000002
     6  H    0.000000   0.000000   0.000000   0.000000  -0.000206  -0.000566
     7  H   -0.000023  -0.000001   0.000001   0.000006  -0.002769  -0.007720
     8  H   -0.000020   0.000000  -0.000001   0.000010   0.000052  -0.000018
     9  H   -0.000005  -0.000004  -0.000005  -0.000024  -0.000042   0.000016
    10  O    0.000000   0.000000   0.000000   0.000000  -0.000109  -0.000008
    11  O    0.000000   0.000000   0.000000   0.000000   0.000000   0.000000
    12  C    0.000000   0.000000   0.000000   0.000000  -0.000018   0.001956
    13  C    0.000000   0.000000   0.000000   0.000000   0.000018   0.000134
    14  C    0.000002   0.000001   0.000117   0.000008   0.385562   0.391971
    15  O   -0.001360   0.000947  -0.002193  -0.001558   0.007979  -0.000178
    16  Si  -0.025474  -0.011778  -0.026030  -0.029880   0.001588   0.000005
    17  C   -0.000763   0.363008   0.370480   0.370176   0.000285  -0.000005
    18  C    0.002635   0.000747   0.002343  -0.001647   0.000037   0.000000
    19  C    0.369155  -0.000471  -0.000624   0.002733  -0.000020   0.000001
    20  H   -0.000054   0.000348  -0.000051   0.000024   0.000000   0.000000
    21  H   -0.000102   0.000108  -0.000019   0.000830   0.000004   0.000000
    22  H   -0.000070  -0.000023  -0.000100  -0.000046   0.000002   0.000000
    23  H   -0.020920   0.000762  -0.000023  -0.000087  -0.000002   0.000000
    24  H   -0.018437   0.000009  -0.000082  -0.000116  -0.000003   0.000000
    25  H    0.456928  -0.000086   0.001222  -0.000097   0.000027   0.000002
    26  H   -0.000086   0.453167  -0.021123  -0.023010  -0.000001   0.000000
    27  H    0.001222  -0.021123   0.453573  -0.018752   0.000445  -0.000004
    28  H   -0.000097  -0.023010  -0.018752   0.456657  -0.000001  -0.000001
    29  H    0.000027  -0.000001   0.000445  -0.000001   0.433732  -0.025278
    30  H    0.000002   0.000000  -0.000004  -0.000001  -0.025278   0.457410
    31  H    0.000000   0.000000  -0.000003  -0.000009  -0.025413  -0.026557
    32  H    0.000000   0.000000   0.000000   0.000000  -0.000142   0.000311
    33  H    0.000000   0.000000   0.000000   0.000000   0.000387   0.000354
    34  H    0.000000   0.000000   0.000000   0.000000   0.000005  -0.000028
    35  H    0.000000   0.000000   0.000000   0.000000  -0.000004   0.000044
    36  H    0.000000   0.000000   0.000000   0.000000  -0.000002   0.000005
    37  C   -0.000023   0.000178  -0.000115   0.000821  -0.000669  -0.000058
    38  C    0.000000  -0.000003  -0.000055   0.000134   0.000124  -0.000021
    39  C    0.000000   0.000000   0.000002   0.000042  -0.000023   0.000039
    40  H   -0.000016   0.000195   0.000086  -0.000428   0.001017   0.000211
    41  H    0.000005  -0.000026   0.000029   0.001968  -0.000179   0.000007
    42  H    0.000000   0.000000   0.000000   0.000005   0.000000   0.000006
    43  H    0.000000   0.000000   0.000000  -0.000001  -0.000002  -0.000001
    44  H    0.000000   0.000000   0.000003   0.000014  -0.000017   0.000006
              31         32         33         34         35         36
     1  C   -0.006339  -0.045319  -0.037056  -0.010949  -0.004324   0.008377
     2  C   -0.040458  -0.004960  -0.006561   0.000347  -0.000020  -0.000226
     3  C   -0.009224  -0.000794  -0.000221  -0.000066   0.000000   0.000013
     4  C   -0.000179   0.000246   0.000089   0.000329   0.000000  -0.000001
     5  C    0.000012  -0.000367  -0.000027   0.000587  -0.000118   0.000011
     6  H    0.004877   0.008150  -0.000218   0.000425   0.004983  -0.000308
     7  H    0.006908   0.006202   0.000451   0.000060   0.000002  -0.000036
     8  H   -0.000008   0.000013   0.000001  -0.000004   0.000000  -0.000001
     9  H    0.000021   0.000009  -0.000004  -0.000010   0.000000   0.000000
    10  O    0.000031   0.002520   0.003169   0.011990  -0.000412  -0.000090
    11  O    0.000001  -0.000021   0.000008   0.000194  -0.000002  -0.000001
    12  C   -0.000205   0.387784   0.389409  -0.039141  -0.041916  -0.038934
    13  C   -0.000151  -0.045277  -0.038711   0.386304   0.385241   0.393110
    14  C    0.382783   0.000937   0.001239  -0.000070   0.000026  -0.000008
    15  O    0.000310  -0.000036  -0.000003   0.000000   0.000000   0.000000
    16  Si  -0.000127  -0.000031  -0.000003   0.000001   0.000000   0.000000
    17  C   -0.000001   0.000000   0.000000   0.000000   0.000000   0.000000
    18  C    0.000001   0.000000   0.000000   0.000000   0.000000   0.000000
    19  C    0.000001   0.000000   0.000000   0.000000   0.000000   0.000000
    20  H    0.000000   0.000000   0.000000   0.000000   0.000000   0.000000
    21  H   -0.000001   0.000000   0.000000   0.000000   0.000000   0.000000
    22  H    0.000000   0.000000   0.000000   0.000000   0.000000   0.000000
    23  H    0.000000   0.000000   0.000000   0.000000   0.000000   0.000000
    24  H    0.000000   0.000000   0.000000   0.000000   0.000000   0.000000
    25  H    0.000000   0.000000   0.000000   0.000000   0.000000   0.000000
    26  H    0.000000   0.000000   0.000000   0.000000   0.000000   0.000000
    27  H   -0.000003   0.000000   0.000000   0.000000   0.000000   0.000000
    28  H   -0.000009   0.000000   0.000000   0.000000   0.000000   0.000000
    29  H   -0.025413  -0.000142   0.000387   0.000005  -0.000004  -0.000002
    30  H   -0.026557   0.000311   0.000354  -0.000028   0.000044   0.000005
    31  H    0.475185   0.000079   0.000300   0.000000  -0.000008   0.000004
    32  H    0.000079   0.489979  -0.025352  -0.004784   0.007375  -0.004800
    33  H    0.000300  -0.025352   0.471807   0.007274  -0.004497  -0.005659
    34  H    0.000000  -0.004784   0.007274   0.464777  -0.027019  -0.027027
    35  H   -0.000008   0.007375  -0.004497  -0.027019   0.486354  -0.027277
    36  H    0.000004  -0.004800  -0.005659  -0.027027  -0.027277   0.476221
    37  C    0.001361  -0.000034   0.000026   0.000003  -0.000012   0.000000
    38  C    0.000836  -0.000035  -0.000008  -0.000008   0.000035   0.000001
    39  C    0.002840  -0.000016   0.000000  -0.000003   0.000071   0.000000
    40  H   -0.002108   0.000001   0.000004   0.000000   0.000000   0.000000
    41  H    0.000420  -0.000001  -0.000001   0.000000   0.000000   0.000000
    42  H    0.000037   0.000012   0.000004   0.000009   0.000003   0.000000
    43  H   -0.000001   0.000000  -0.000002  -0.000001   0.000013   0.000000
    44  H    0.001746   0.000001   0.000002   0.000000   0.000001   0.000000
              37         38         39         40         41         42
     1  C    0.007269  -0.016560  -0.006238   0.000736  -0.000495  -0.001218
     2  C   -0.086826   0.001244   0.002957  -0.010156   0.006553   0.000869
     3  C    0.307034  -0.037110  -0.001502  -0.031251  -0.039808  -0.004305
     4  C   -0.092549  -0.001876  -0.000158   0.006386  -0.007873   0.001824
     5  C    0.004114  -0.001908   0.000071  -0.000191   0.000232   0.005409
     6  H   -0.000630   0.004058   0.002501  -0.000159   0.000167   0.001381
     7  H    0.007850  -0.000412  -0.000082  -0.000067  -0.000080   0.000059
     8  H    0.006019  -0.000172  -0.000006  -0.000134  -0.000019   0.000252
     9  H   -0.008864   0.000374  -0.000007   0.000167   0.002206   0.000909
    10  O   -0.000519   0.001094  -0.000023  -0.000040  -0.000008  -0.002010
    11  O    0.000121  -0.002431   0.000018  -0.000001  -0.000062   0.005954
    12  C   -0.000667   0.000490   0.000327  -0.000040   0.000018  -0.000058
    13  C    0.000021  -0.000022  -0.000015   0.000001  -0.000001  -0.000017
    14  C   -0.011523  -0.000673  -0.000990   0.000214  -0.000156  -0.000050
    15  O   -0.040553   0.004083  -0.000059  -0.000345  -0.003420  -0.000054
    16  Si  -0.007977   0.002910  -0.000252  -0.003610   0.007776  -0.000233
    17  C   -0.001971   0.000104   0.000009  -0.001438  -0.000569  -0.000008
    18  C   -0.002154  -0.000089   0.000000   0.000280   0.001354   0.000019
    19  C   -0.000133   0.000004   0.000000  -0.000061   0.000011   0.000000
    20  H    0.000069  -0.000001   0.000000  -0.000005   0.000047  -0.000001
    21  H    0.000160   0.000001  -0.000005   0.000067   0.004041   0.000010
    22  H    0.000337   0.000014   0.000000  -0.000008  -0.000273  -0.000003
    23  H    0.000006   0.000000   0.000000   0.000001   0.000010   0.000000
    24  H   -0.000009   0.000001   0.000000  -0.000003   0.000000   0.000000
    25  H   -0.000023   0.000000   0.000000  -0.000016   0.000005   0.000000
    26  H    0.000178  -0.000003   0.000000   0.000195  -0.000026   0.000000
    27  H   -0.000115  -0.000055   0.000002   0.000086   0.000029   0.000000
    28  H    0.000821   0.000134   0.000042  -0.000428   0.001968   0.000005
    29  H   -0.000669   0.000124  -0.000023   0.001017  -0.000179   0.000000
    30  H   -0.000058  -0.000021   0.000039   0.000211   0.000007   0.000006
    31  H    0.001361   0.000836   0.002840  -0.002108   0.000420   0.000037
    32  H   -0.000034  -0.000035  -0.000016   0.000001  -0.000001   0.000012
    33  H    0.000026  -0.000008   0.000000   0.000004  -0.000001   0.000004
    34  H    0.000003  -0.000008  -0.000003   0.000000   0.000000   0.000009
    35  H   -0.000012   0.000035   0.000071   0.000000   0.000000   0.000003
    36  H    0.000000   0.000001   0.000000   0.000000   0.000000   0.000000
    37  C    5.493731   0.278469  -0.057254   0.399574   0.391283  -0.048254
    38  C    0.278469   5.133266   0.628430  -0.043562  -0.047247   0.388943
    39  C   -0.057254   0.628430   5.129089  -0.000084   0.000210  -0.033095
    40  H    0.399574  -0.043562  -0.000084   0.432774  -0.029427   0.004173
    41  H    0.391283  -0.047247   0.000210  -0.029427   0.457939  -0.002559
    42  H   -0.048254   0.388943  -0.033095   0.004173  -0.002559   0.454562
    43  H    0.006009  -0.036835   0.390711   0.000219  -0.000455  -0.008153
    44  H   -0.008142  -0.042671   0.390185   0.004087   0.000090   0.005710
              43         44
     1  C    0.000079   0.000094
     2  C   -0.000077   0.000007
     3  C   -0.000116  -0.000008
     4  C    0.000025   0.000004
     5  C   -0.000069   0.000006
     6  H   -0.000262  -0.000064
     7  H   -0.000003   0.000013
     8  H   -0.000002   0.000002
     9  H   -0.000003   0.000004
    10  O    0.000040  -0.000012
    11  O   -0.000018   0.000000
    12  C    0.000005  -0.000008
    13  C    0.000004  -0.000001
    14  C    0.000067   0.000153
    15  O    0.000003  -0.000019
    16  Si   0.000011  -0.000056
    17  C    0.000000   0.000004
    18  C    0.000000   0.000000
    19  C    0.000000   0.000000
    20  H    0.000000   0.000000
    21  H    0.000000   0.000000
    22  H    0.000000   0.000000
    23  H    0.000000   0.000000
    24  H    0.000000   0.000000
    25  H    0.000000   0.000000
    26  H    0.000000   0.000000
    27  H    0.000000   0.000003
    28  H   -0.000001   0.000014
    29  H   -0.000002  -0.000017
    30  H   -0.000001   0.000006
    31  H   -0.000001   0.001746
    32  H    0.000000   0.000001
    33  H   -0.000002   0.000002
    34  H   -0.000001   0.000000
    35  H    0.000013   0.000001
    36  H    0.000000   0.000000
    37  C    0.006009  -0.008142
    38  C   -0.036835  -0.042671
    39  C    0.390711   0.390185
    40  H    0.000219   0.004087
    41  H   -0.000455   0.000090
    42  H   -0.008153   0.005710
    43  H    0.447169  -0.031799
    44  H   -0.031799   0.453210
 Mulliken charges:
               1
     1  C   -0.031582
     2  C   -0.265649
     3  C    0.156149
     4  C   -0.579813
     5  C    0.459053
     6  H    0.263214
     7  H    0.247801
     8  H    0.292630
     9  H    0.272860
    10  O   -0.320599
    11  O   -0.381341
    12  C   -0.455511
    13  C   -0.659129
    14  C   -0.698423
    15  O   -0.618431
    16  Si   1.399217
    17  C   -1.056848
    18  C   -1.078728
    19  C   -1.037266
    20  H    0.247777
    21  H    0.248772
    22  H    0.248936
    23  H    0.235020
    24  H    0.237634
    25  H    0.237585
    26  H    0.237119
    27  H    0.240460
    28  H    0.242387
    29  H    0.259076
    30  H    0.241682
    31  H    0.233038
    32  H    0.228349
    33  H    0.243798
    34  H    0.236807
    35  H    0.221460
    36  H    0.226627
    37  C   -0.535519
    38  C   -0.212919
    39  C   -0.447688
    40  H    0.272942
    41  H    0.258289
    42  H    0.229866
    43  H    0.233444
    44  H    0.227454
 Sum of Mulliken charges =   0.00000
 Mulliken charges with hydrogens summed into heavy atoms:
               1
     1  C    0.231632
     2  C   -0.017848
     3  C    0.156149
     4  C   -0.014323
     5  C    0.459053
    10  O   -0.320599
    11  O   -0.381341
    12  C    0.016636
    13  C    0.025765
    14  C    0.035373
    15  O   -0.618431
    16  Si   1.399217
    17  C   -0.336882
    18  C   -0.333242
    19  C   -0.327028
    37  C   -0.004288
    38  C    0.016948
    39  C    0.013209
 Electronic spatial extent (au):  <R**2>=           5665.7323
 Charge=              0.0000 electrons
 Dipole moment (field-independent basis, Debye):
    X=             -2.0667    Y=             -4.0405    Z=              0.8799  Tot=              4.6229
 Quadrupole moment (field-independent basis, Debye-Ang):
   XX=           -119.2699   YY=           -130.9239   ZZ=           -116.5748
   XY=            -14.1128   XZ=              1.0809   YZ=             -0.4787
 Traceless Quadrupole moment (field-independent basis, Debye-Ang):
   XX=              2.9863   YY=             -8.6677   ZZ=              5.6814
   XY=            -14.1128   XZ=              1.0809   YZ=             -0.4787
 Octapole moment (field-independent basis, Debye-Ang**2):
  XXX=            -18.3140  YYY=            -47.9219  ZZZ=             -8.5041  XYY=            -20.6473
  XXY=            -19.9635  XXZ=              3.7407  XZZ=             21.2767  YZZ=              5.7734
  YYZ=             -0.9259  XYZ=              5.9683
 Hexadecapole moment (field-independent basis, Debye-Ang**3):
 XXXX=          -4910.7187 YYYY=          -1531.1536 ZZZZ=          -1373.9511 XXXY=            -78.9989
 XXXZ=             -9.2211 YYYX=            -63.9137 YYYZ=              4.6804 ZZZX=             20.6296
 ZZZY=            -23.1711 XXYY=          -1114.4438 XXZZ=          -1056.1593 YYZZ=           -436.9714
 XXYZ=             18.6602 YYXZ=              3.8676 ZZXY=             -9.8036
 N-N= 1.623680852355D+03 E-N=-5.742524459580D+03  KE= 1.060553991703D+03
 1\1\GINC-SWANNODE-0-8\SP\RmPW1PW91\6-311G(d)\C14H26O3Si1\AH809\08-Mar-
 2018\0\\#mPW1PW91/6-311g(d) nmr=(giao) scrf=(solvent=chloroform)\\P_ng
 _2ginp010\\0,1\C,0,-0.29096,-0.01684,1.228149\C,0,-0.854783,1.216434,0
 .509492\C,0,-1.936722,1.968486,1.349031\C,0,-1.356913,2.212234,2.74344
 8\C,0,-0.702887,1.027694,3.385319\H,0,-1.023373,-0.828328,1.242734\H,0
 ,-0.021103,1.92584,0.385334\H,0,-0.607009,3.013348,2.716093\H,0,-2.146
 567,2.55086,3.422917\O,0,0.06568,0.254901,2.596793\O,0,-0.758316,0.843
 157,4.59741\C,0,0.976647,-0.567014,0.544173\C,0,1.529616,-1.805352,1.2
 41974\C,0,-1.336925,0.885629,-0.912868\O,0,-2.032203,3.244104,0.652647
 \Si,0,-3.106913,4.503838,0.891578\C,0,-4.72762,4.186302,-0.011322\C,0,
 -3.482109,4.859531,2.692384\C,0,-2.3612,6.079051,0.155397\H,0,-4.11535
 ,5.747735,2.780969\H,0,-4.011904,4.02545,3.160508\H,0,-2.561449,5.0459
 21,3.252944\H,0,-3.04984,6.920427,0.274947\H,0,-1.420884,6.324254,0.65
 7514\H,0,-2.160469,5.941896,-0.91106\H,0,-5.369114,5.071479,0.033657\H
 ,0,-4.539003,3.951955,-1.063099\H,0,-5.27208,3.350293,0.435502\H,0,-1.
 834303,1.74137,-1.380267\H,0,-0.496364,0.622011,-1.5621\H,0,-2.035565,
 0.043557,-0.915632\H,0,1.759061,0.201573,0.543971\H,0,0.769462,-0.8305
 37,-0.497545\H,0,1.850071,-1.581469,2.264077\H,0,0.778034,-2.600175,1.
 281323\H,0,2.398595,-2.187021,0.696397\C,0,-3.327007,1.250122,1.392242
 \C,0,-3.424243,-0.106093,2.033045\C,0,-3.832016,-1.209301,1.391946\H,0
 ,-3.741161,1.214703,0.37592\H,0,-4.031457,1.879655,1.949784\H,0,-3.202
 945,-0.181229,3.096984\H,0,-3.911515,-2.157443,1.916782\H,0,-4.101794,
 -1.198012,0.340232\\Version=EM64L-G09RevD.01\State=1-A\HF=-1064.374625
 4\RMSD=3.688e-09\Dipole=-0.7197521,0.2798648,-1.646708\Quadrupole=2.96
 60292,5.8407628,-8.806792,0.4950175,-5.3265295,7.3594704\PG=C01 [X(C14
 H26O3Si1)]\\@


 GETTING A SIMPLE ANSWER FROM A PROFESSOR IS LIKE
 GETTING A THIMBLE OF WATER FROM A FIRE HYDRANT.
     -- PROF. LEN SHAPIRO, NDSU
 Job cpu time:       0 days  1 hours 17 minutes  6.4 seconds.
 File lengths (MBytes):  RWF=    234 Int=      0 D2E=      0 Chk=     11 Scr=      1
 Normal termination of Gaussian 09 at Thu Mar  8 13:22:59 2018.
