 Entering Gaussian System, Link 0=/usr/local/shared/gaussian/em64t/09-D01/g09/g09
 Initial command:
 /usr/local/shared/gaussian/em64t/09-D01/g09/l1.exe "/scratch/ah809/P_ng_4ginp005/Gau-30409.inp" -scrdir="/scratch/ah809/P_ng_4ginp005/"
 Entering Link 1 = /usr/local/shared/gaussian/em64t/09-D01/g09/l1.exe PID=     30437.
  
 Copyright (c) 1988,1990,1992,1993,1995,1998,2003,2009,2013,
            Gaussian, Inc.  All Rights Reserved.
  
 This is part of the Gaussian(R) 09 program.  It is based on
 the Gaussian(R) 03 system (copyright 2003, Gaussian, Inc.),
 the Gaussian(R) 98 system (copyright 1998, Gaussian, Inc.),
 the Gaussian(R) 94 system (copyright 1995, Gaussian, Inc.),
 the Gaussian 92(TM) system (copyright 1992, Gaussian, Inc.),
 the Gaussian 90(TM) system (copyright 1990, Gaussian, Inc.),
 the Gaussian 88(TM) system (copyright 1988, Gaussian, Inc.),
 the Gaussian 86(TM) system (copyright 1986, Carnegie Mellon
 University), and the Gaussian 82(TM) system (copyright 1983,
 Carnegie Mellon University). Gaussian is a federally registered
 trademark of Gaussian, Inc.
  
 This software contains proprietary and confidential information,
 including trade secrets, belonging to Gaussian, Inc.
  
 This software is provided under written license and may be
 used, copied, transmitted, or stored only in accord with that
 written license.
  
 The following legend is applicable only to US Government
 contracts under FAR:
  
                    RESTRICTED RIGHTS LEGEND
  
 Use, reproduction and disclosure by the US Government is
 subject to restrictions as set forth in subparagraphs (a)
 and (c) of the Commercial Computer Software - Restricted
 Rights clause in FAR 52.227-19.
  
 Gaussian, Inc.
 340 Quinnipiac St., Bldg. 40, Wallingford CT 06492
  
  
 ---------------------------------------------------------------
 Warning -- This program may not be used in any manner that
 competes with the business of Gaussian, Inc. or will provide
 assistance to any competitor of Gaussian, Inc.  The licensee
 of this program is prohibited from giving any competitor of
 Gaussian, Inc. access to this program.  By using this program,
 the user acknowledges that Gaussian, Inc. is engaged in the
 business of creating and licensing software in the field of
 computational chemistry and represents and warrants to the
 licensee that it is not a competitor of Gaussian, Inc. and that
 it will not use this program in any manner prohibited above.
 ---------------------------------------------------------------
  

 Cite this work as:
 Gaussian 09, Revision D.01,
 M. J. Frisch, G. W. Trucks, H. B. Schlegel, G. E. Scuseria, 
 M. A. Robb, J. R. Cheeseman, G. Scalmani, V. Barone, B. Mennucci, 
 G. A. Petersson, H. Nakatsuji, M. Caricato, X. Li, H. P. Hratchian, 
 A. F. Izmaylov, J. Bloino, G. Zheng, J. L. Sonnenberg, M. Hada, 
 M. Ehara, K. Toyota, R. Fukuda, J. Hasegawa, M. Ishida, T. Nakajima, 
 Y. Honda, O. Kitao, H. Nakai, T. Vreven, J. A. Montgomery, Jr., 
 J. E. Peralta, F. Ogliaro, M. Bearpark, J. J. Heyd, E. Brothers, 
 K. N. Kudin, V. N. Staroverov, T. Keith, R. Kobayashi, J. Normand, 
 K. Raghavachari, A. Rendell, J. C. Burant, S. S. Iyengar, J. Tomasi, 
 M. Cossi, N. Rega, J. M. Millam, M. Klene, J. E. Knox, J. B. Cross, 
 V. Bakken, C. Adamo, J. Jaramillo, R. Gomperts, R. E. Stratmann, 
 O. Yazyev, A. J. Austin, R. Cammi, C. Pomelli, J. W. Ochterski, 
 R. L. Martin, K. Morokuma, V. G. Zakrzewski, G. A. Voth, 
 P. Salvador, J. J. Dannenberg, S. Dapprich, A. D. Daniels, 
 O. Farkas, J. B. Foresman, J. V. Ortiz, J. Cioslowski, 
 and D. J. Fox, Gaussian, Inc., Wallingford CT, 2013.
 
 ******************************************
 Gaussian 09:  EM64L-G09RevD.01 24-Apr-2013
                 8-Mar-2018 
 ******************************************
 %mem=6000MB
 %chk=P_ng_4ginp005.chk
 --------------------------------------------------------
 #mPW1PW91/6-311g(d) nmr=(giao) scrf=(solvent=chloroform)
 --------------------------------------------------------
 1/38=1/1;
 2/12=2,17=6,18=5,40=1/2;
 3/5=4,6=6,7=1,11=2,16=1,25=1,30=1,70=2201,72=7,74=-7/1,2,8,3;
 4//1;
 5/5=2,38=5,53=7/2;
 8/6=1,10=90,11=11/1;
 10/13=100,45=16/2;
 6/7=2,8=2,9=2,10=2,28=1/1;
 99/9=1/99;
 -------------
 P_ng_4ginp005
 -------------
 Symbolic Z-matrix:
 Charge =  0 Multiplicity = 1
 C                     0.58526   1.83872  -0.07328 
 C                    -0.61211   1.02291   0.44298 
 C                    -1.45152   1.83581   1.48771 
 C                    -1.38835   3.3423    1.16527 
 C                    -1.00341   3.66212  -0.25012 
 H                     1.05615   1.24989  -0.87155 
 H                    -1.23967   0.86348  -0.44395 
 H                    -2.35871   3.81489   1.36126 
 H                    -0.67203   3.87082   1.80454 
 O                     0.08595   3.02261  -0.73387 
 O                    -1.59151   4.51541  -0.90607 
 C                     1.68309   2.1968    0.93861 
 C                     2.85568   2.91182   0.27626 
 C                    -0.19232  -0.37202   0.92307 
 O                    -0.79009   1.60129   2.75524 
 Si                   -1.33709   1.96822   4.29566 
 C                     0.14915   2.03264   5.46184 
 C                    -2.20609   3.62611   4.40783 
 C                    -2.49356   0.63148   4.93735 
 H                    -2.50193   3.83085   5.44137 
 H                    -1.54633   4.4349    4.08082 
 H                    -3.10873   3.64594   3.79148 
 H                    -2.7368    0.80942   5.98915 
 H                    -3.4292    0.61275   4.3723 
 H                    -2.0227   -0.35262   4.85605 
 H                    -0.17405   2.25569   6.48273 
 H                     0.67251   1.07214   5.46432 
 H                     0.85001   2.80879   5.14099 
 H                     0.33708  -0.9056    0.12606 
 H                     0.47169  -0.33603   1.79151 
 H                    -1.06589  -0.97341   1.19266 
 H                     2.05903   1.29075   1.42479 
 H                     1.30377   2.85548   1.72391 
 H                     3.63506   3.12106   1.01596 
 H                     3.29572   2.29494  -0.51366 
 H                     2.54461   3.86514  -0.16215 
 C                    -2.92715   1.3086    1.49204 
 C                    -3.6814    1.43188   0.1932 
 C                    -4.17114   0.38822  -0.48836 
 H                    -3.514     1.85832   2.23709 
 H                    -2.9368    0.26705   1.83826 
 H                    -3.85734   2.4342   -0.19546 
 H                    -4.71891   0.53911  -1.41438 
 H                    -4.04168  -0.63394  -0.14596 
 
                          Input orientation:                          
 ---------------------------------------------------------------------
 Center     Atomic      Atomic             Coordinates (Angstroms)
 Number     Number       Type             X           Y           Z
 ---------------------------------------------------------------------
      1          6           0        0.585264    1.838722   -0.073278
      2          6           0       -0.612111    1.022910    0.442984
      3          6           0       -1.451524    1.835812    1.487707
      4          6           0       -1.388351    3.342304    1.165266
      5          6           0       -1.003412    3.662117   -0.250123
      6          1           0        1.056146    1.249886   -0.871546
      7          1           0       -1.239670    0.863483   -0.443945
      8          1           0       -2.358706    3.814891    1.361259
      9          1           0       -0.672028    3.870820    1.804542
     10          8           0        0.085946    3.022607   -0.733865
     11          8           0       -1.591505    4.515411   -0.906071
     12          6           0        1.683090    2.196801    0.938610
     13          6           0        2.855681    2.911823    0.276261
     14          6           0       -0.192320   -0.372019    0.923067
     15          8           0       -0.790092    1.601288    2.755239
     16         14           0       -1.337090    1.968223    4.295660
     17          6           0        0.149153    2.032644    5.461844
     18          6           0       -2.206091    3.626113    4.407828
     19          6           0       -2.493563    0.631479    4.937347
     20          1           0       -2.501931    3.830853    5.441368
     21          1           0       -1.546327    4.434895    4.080821
     22          1           0       -3.108726    3.645943    3.791476
     23          1           0       -2.736799    0.809420    5.989147
     24          1           0       -3.429199    0.612745    4.372303
     25          1           0       -2.022701   -0.352617    4.856052
     26          1           0       -0.174048    2.255687    6.482726
     27          1           0        0.672511    1.072142    5.464316
     28          1           0        0.850007    2.808793    5.140988
     29          1           0        0.337077   -0.905595    0.126061
     30          1           0        0.471687   -0.336034    1.791510
     31          1           0       -1.065889   -0.973413    1.192657
     32          1           0        2.059026    1.290745    1.424788
     33          1           0        1.303767    2.855479    1.723912
     34          1           0        3.635063    3.121062    1.015961
     35          1           0        3.295721    2.294935   -0.513660
     36          1           0        2.544609    3.865138   -0.162153
     37          6           0       -2.927145    1.308600    1.492037
     38          6           0       -3.681402    1.431875    0.193201
     39          6           0       -4.171142    0.388221   -0.488355
     40          1           0       -3.513996    1.858316    2.237087
     41          1           0       -2.936798    0.267048    1.838261
     42          1           0       -3.857344    2.434204   -0.195463
     43          1           0       -4.718908    0.539110   -1.414382
     44          1           0       -4.041684   -0.633942   -0.145956
 ---------------------------------------------------------------------
                    Distance matrix (angstroms):
                    1          2          3          4          5
     1  C    0.000000
     2  C    1.538110   0.000000
     3  C    2.566162   1.567441   0.000000
     4  C    2.773068   2.550260   1.541907   0.000000
     5  C    2.424858   2.756615   2.560517   1.501261   0.000000
     6  H    1.098039   2.136022   3.492534   3.808199   3.232152
     7  H    2.102111   1.098130   2.172921   2.959091   2.815269
     8  H    3.824931   3.418915   2.180762   1.096969   2.111093
     9  H    3.039147   3.157217   2.202103   1.095957   2.091655
    10  O    1.444741   2.423024   2.950878   2.425378   1.352657
    11  O    3.549159   3.869977   3.595834   2.389119   1.226471
    12  C    1.535370   2.625188   3.202753   3.285925   3.282915
    13  C    2.535452   3.952388   4.601893   4.357459   3.966437
    14  C    2.546511   1.533796   2.603638   3.909648   4.278843
    15  O    3.154122   2.390130   1.448838   2.432502   3.650304
    16  Si   4.774917   4.032657   2.813401   3.419078   4.862588
    17  C    5.555661   5.175717   4.288901   4.747600   6.050633
    18  C    5.573755   5.003741   3.507372   3.356107   4.810846
    19  C    6.003580   4.887983   3.799510   4.774794   6.189924
    20  H    6.626513   6.036539   4.551371   4.445648   5.887877
    21  H    5.342315   5.074274   3.672664   3.117559   4.432721
    22  H    5.643397   4.932118   3.366043   3.154182   4.557097
    23  H    6.989175   5.943046   4.792533   5.612810   7.076087
    24  H    6.114092   4.852192   3.705130   4.679812   6.045654
    25  H    5.991806   4.832909   4.057242   5.260869   6.574957
    26  H    6.612987   6.179816   5.172858   5.561533   6.927997
    27  H    5.591083   5.183286   4.572541   5.280399   6.493959
    28  H    5.310339   5.234349   4.426082   4.593609   5.764321
    29  H    2.762718   2.172678   3.545206   4.701244   4.775188
    30  H    2.867036   2.199970   2.916839   4.169184   4.725399
    31  H    3.498142   2.180190   2.850880   4.327834   4.855271
    32  H    2.171740   2.858434   3.553170   4.020032   4.219865
    33  H    2.186306   2.944431   2.947396   2.792236   3.141744
    34  H    3.483118   4.771691   5.267616   5.030500   4.838508
    35  H    2.783639   4.219522   5.172291   5.084910   4.518980
    36  H    2.820158   4.290610   4.775906   4.183727   3.554913
    37  C    3.881785   2.557638   1.566981   2.571112   3.503557
    38  C    4.294296   3.106476   2.609840   3.138906   3.513139
    39  C    4.989954   3.733219   3.660145   4.382350   4.561761
    40  H    4.705540   3.512498   2.194509   2.805243   3.967738
    41  H    4.304540   2.814657   2.188595   3.508249   4.430104
    42  H    4.484004   3.595956   2.996515   2.961782   3.107360
    43  H    5.623326   4.533172   4.558438   5.060147   4.991351
    44  H    5.246713   3.854086   3.934141   4.956815   5.262896
                    6          7          8          9         10
     6  H    0.000000
     7  H    2.367049   0.000000
     8  H    4.819324   3.636181   0.000000
     9  H    4.125206   3.797629   1.744853   0.000000
    10  O    2.025533   2.550123   3.315657   2.781636   0.000000
    11  O    4.204153   3.697827   2.494015   2.934000   2.252101
    12  C    2.136907   3.497388   4.374124   3.016415   2.455605
    13  C    2.705147   4.635331   5.402091   3.962329   2.950264
    14  C    2.722109   2.119464   4.734496   4.359908   3.787656
    15  O    4.084807   3.313798   3.050208   2.463441   3.868002
    16  Si   5.739652   4.867627   3.614497   3.204349   5.332249
    17  C    6.445710   6.178520   5.126457   4.174816   6.274618
    18  C    6.645332   5.666198   3.056225   3.031556   5.661683
    19  C    6.835649   5.530314   4.789645   4.860636   6.673380
    20  H    7.692476   6.710849   4.082653   4.071443   6.744173
    21  H    6.437631   5.772567   2.905234   2.502804   5.276369
    22  H    6.695597   5.401319   2.548927   3.152138   5.574333
    23  H    7.851723   6.605225   5.531108   5.580893   7.620038
    24  H    6.929807   5.296523   4.523945   4.981008   6.651062
    25  H    6.697215   5.493815   5.449275   5.382699   6.861902
    26  H    7.523984   7.145107   5.782151   4.974138   7.261883
    27  H    6.349954   6.213495   5.791893   4.799409   6.524249
    28  H    6.214761   6.272357   5.059093   3.817900   5.928187
    29  H    2.481608   2.437350   5.574581   5.162338   4.029058
    30  H    3.154140   3.060203   5.042462   4.359573   4.219809
    31  H    3.702300   2.466344   4.962626   4.898584   4.583272
    32  H    2.506110   3.815247   5.088389   3.776196   3.398849
    33  H    3.061968   3.890594   3.803380   2.222878   2.748033
    34  H    3.703349   5.566957   6.043666   4.442413   3.958259
    35  H    2.497180   4.756436   6.148019   4.858035   3.298583
    36  H    3.091651   4.838399   5.134765   3.770235   2.661153
    37  C    4.632125   2.606478   2.573270   3.427562   4.119609
    38  C    4.859132   2.586712   2.965240   4.195379   4.193184
    39  C    5.311670   2.970080   4.295121   5.443314   5.012291
    40  H    5.560574   3.653790   2.435150   3.509138   4.810583
    41  H    4.924696   2.905932   3.626143   4.256465   4.831761
    42  H    5.099224   3.062862   2.564292   4.026180   4.023137
    43  H    5.843896   3.626577   4.899539   6.151341   5.451374
    44  H    5.482988   3.190981   4.989612   5.954150   5.545567
                   11         12         13         14         15
    11  O    0.000000
    12  C    4.416081   0.000000
    13  C    4.873076   1.524773   0.000000
    14  C    5.402817   3.180604   4.526841   0.000000
    15  O    4.747585   3.125925   4.599402   2.758283   0.000000
    16  Si   5.797491   4.521451   5.884325   4.261645   1.675334
    17  C    7.052968   4.779075   5.915110   5.147767   2.897233
    18  C    5.422738   5.404085   6.572792   5.673085   2.972544
    19  C    7.074190   5.990372   7.452523   4.734678   2.933247
    20  H    6.448835   6.360767   7.498463   6.588891   3.888013
    21  H    4.987747   5.031072   6.014325   5.908567   3.218445
    22  H    5.012473   5.761975   6.962027   5.733865   3.260439
    23  H    7.911390   6.853333   8.266378   5.790970   3.856797
    24  H    6.816829   6.358851   7.846212   4.831602   3.249154
    25  H    7.555507   5.964794   7.445110   4.338092   3.122577
    26  H    7.855562   5.847192   6.937577   6.149389   3.834307
    27  H    7.587075   4.771597   5.921703   4.843189   3.123828
    28  H    6.740953   4.327649   5.262976   5.384688   3.136844
    29  H    5.845685   3.478052   4.575872   1.095529   3.803623
    30  H    5.922012   2.934312   4.304414   1.093798   2.504811
    31  H    5.899841   4.203770   5.595851   1.094293   3.024370
    32  H    5.399792   1.094822   2.140483   2.843425   3.159748
    33  H    4.249092   1.092905   2.123041   3.646419   2.649694
    34  H    5.740682   2.161120   1.094702   5.182577   4.991673
    35  H    5.382330   2.172394   1.094605   4.619876   5.278325
    36  H    4.252494   2.176521   1.094432   5.159649   4.975583
    37  C    4.221196   4.727520   6.122868   3.259981   2.499668
    38  C    3.883846   5.469783   6.703029   3.995051   3.866835
    39  C    4.884947   6.291202   7.505295   4.289651   4.839828
    40  H    4.542639   5.367524   6.747407   4.211244   2.784636
    41  H    5.233523   5.086913   6.556485   2.962794   2.688753
    42  H    3.157596   5.660291   6.746506   4.749568   4.336868
    43  H    5.084289   7.019266   8.115568   5.175309   5.826625
    44  H    5.752998   6.477841   7.766876   4.003625   4.897554
                   16         17         18         19         20
    16  Si   0.000000
    17  C    1.890252   0.000000
    18  C    1.875192   3.032700   0.000000
    19  C    1.880446   3.036825   3.054646   0.000000
    20  H    2.477679   3.203470   1.094370   3.238843   0.000000
    21  H    2.484835   3.248490   1.093778   4.012090   1.768936
    22  H    2.491514   4.000830   1.093176   3.283053   1.767636
    23  H    2.483930   3.178529   3.273527   1.094125   3.079656
    24  H    2.494016   4.000977   3.252329   1.093179   3.515529
    25  H    2.484029   3.282286   4.008095   1.093967   4.251315
    26  H    2.493704   1.093804   3.211303   3.225895   2.997435
    27  H    2.491428   1.093834   3.990650   3.239738   4.205722
    28  H    2.490890   1.093870   3.247348   3.995200   3.517147
    29  H    5.333594   6.094189   6.733321   5.789956   7.664620
    30  H    3.853835   4.380184   5.451075   4.430020   6.287035
    31  H    4.284320   5.360845   5.726519   4.317017   6.572270
    32  H    4.498276   4.527234   5.704708   5.787812   6.586911
    33  H    3.791469   3.997790   4.485129   5.449042   5.408712
    34  H    6.066941   5.753442   6.773398   7.689951   7.599390
    35  H    6.685749   6.758427   7.500868   8.123815   8.451874
    36  H    6.207896   6.381660   6.596288   7.864136   7.541100
    37  C    3.289936   5.074172   3.793761   3.537887   4.705293
    38  C    4.755380   6.541611   4.975370   4.955655   5.889780
    39  C    5.780576   7.534849   6.190152   5.684337   7.056883
    40  H    2.998120   4.883453   3.089958   3.136529   3.896485
    41  H    3.389966   5.076493   4.291844   3.151762   5.086472
    42  H    5.170977   6.943946   5.033644   5.608516   5.963358
    43  H    6.788493   8.556351   7.052798   6.730910   7.921608
    44  H    5.814984   7.491410   6.500340   5.462411   7.315970
                   21         22         23         24         25
    21  H    0.000000
    22  H    1.774051   0.000000
    23  H    4.266497   3.607485   0.000000
    24  H    4.270714   3.104892   1.769826   0.000000
    25  H    4.873211   4.277997   1.773181   1.773182   0.000000
    26  H    3.521540   4.217579   2.983790   4.212974   3.587037
    27  H    4.259743   4.870380   3.459460   4.269375   3.108712
    28  H    3.083923   4.265392   4.193095   4.870843   4.281139
    29  H    6.907110   6.784197   6.838550   5.875437   5.314805
    30  H    5.663487   5.716237   5.406163   4.772587   3.951413
    31  H    6.149968   5.680272   5.383006   4.267468   3.836840
    32  H    5.471632   6.152547   6.638146   6.266430   5.579848
    33  H    4.021518   4.936573   6.221315   5.868969   5.582792
    34  H    6.161682   7.311475   8.406955   8.213433   7.669618
    35  H    7.009573   7.834307   8.993584   8.480976   8.008055
    36  H    5.921419   6.902132   8.664247   8.174701   7.989503
    37  C    4.287445   3.283834   4.528732   3.005363   3.859308
    38  C    5.356329   4.263524   5.905312   4.266084   5.260977
    39  C    6.643989   5.482557   6.647765   4.922082   5.807523
    40  H    3.729589   2.403327   3.972678   2.473416   3.737802
    41  H    4.932893   3.906602   4.190945   2.604483   3.213506
    42  H    5.256441   4.233724   6.491914   4.936143   6.053932
    43  H    7.445782   6.272643   7.669033   5.929123   6.883535
    44  H    7.055888   5.889923   6.436265   4.726947   5.401437
                   26         27         28         29         30
    26  H    0.000000
    27  H    1.776119   0.000000
    28  H    1.776197   1.775388   0.000000
    29  H    7.117734   5.702712   6.261730   0.000000
    30  H    5.398287   3.938628   4.609996   1.765287   0.000000
    31  H    6.261573   5.045136   5.793536   1.763672   1.768903
    32  H    5.612528   4.276447   4.192414   3.078264   2.302290
    33  H    5.018964   4.191586   3.447388   4.199202   3.298891
    34  H    6.718908   5.723867   4.986973   5.280398   4.749730
    35  H    7.809626   6.641736   6.182282   4.405248   4.495662
    36  H    7.357707   6.554596   5.666643   5.264614   5.075791
    37  C    5.777845   5.365858   5.461895   4.174170   3.787686
    38  C    7.248332   6.846212   6.849100   4.649349   4.788344
    39  C    8.249858   7.704740   7.922159   4.730275   5.222853
    40  H    5.416512   5.344148   5.327342   5.189065   4.571584
    41  H    5.758344   5.179147   5.631018   3.876207   3.461743
    42  H    7.628679   7.376171   7.125811   5.371294   5.510244
    43  H    9.271823   8.756027   8.895906   5.479336   6.163270
    44  H    8.200487   7.523929   7.983285   4.395604   4.920675
                   31         32         33         34         35
    31  H    0.000000
    32  H    3.865927   0.000000
    33  H    4.534084   1.763033   0.000000
    34  H    6.236577   2.449713   2.450851   0.000000
    35  H    5.711152   2.509062   3.047756   1.771265   0.000000
    36  H    6.187308   3.062952   2.473124   1.769376   1.775743
    37  C    2.959981   4.986656   4.510789   6.824532   6.612090
    38  C    3.691237   5.872754   5.405704   7.553870   7.065746
    39  C    3.784501   6.579488   6.399697   8.406439   7.706506
    40  H    3.886226   5.660436   4.946567   7.361706   7.357275
    41  H    2.335776   5.116363   4.969451   7.211860   6.963343
    42  H    4.618544   6.239883   5.522548   7.620727   7.161493
    43  H    4.735919   7.386896   7.175449   9.075344   8.253999
    44  H    3.280622   6.587133   6.651790   8.624532   7.908921
                   36         37         38         39         40
    36  H    0.000000
    37  C    6.261974   0.000000
    38  C    6.694046   1.507009   0.000000
    39  C    7.569456   2.513280   1.339245   0.000000
    40  H    6.818386   1.096212   2.094599   3.165605   0.000000
    41  H    6.855197   1.097631   2.148832   2.636556   1.739067
    42  H    6.560006   2.231571   1.089348   2.090527   2.523259
    43  H    8.086360   3.499972   2.111343   1.086435   4.065138
    44  H    7.976292   2.774651   2.124248   1.085732   3.488366
                   41         42         43         44
    41  H    0.000000
    42  H    3.111270   0.000000
    43  H    3.718820   2.412351   0.000000
    44  H    2.443291   3.074077   1.855691   0.000000
 Stoichiometry    C14H26O3Si
 Framework group  C1[X(C14H26O3Si)]
 Deg. of freedom   126
 Full point group                 C1      NOp   1
 Largest Abelian subgroup         C1      NOp   1
 Largest concise Abelian subgroup C1      NOp   1
                         Standard orientation:                         
 ---------------------------------------------------------------------
 Center     Atomic      Atomic             Coordinates (Angstroms)
 Number     Number       Type             X           Y           Z
 ---------------------------------------------------------------------
      1          6           0        2.113451   -0.844495   -0.734412
      2          6           0        1.147680    0.273473   -1.162449
      3          6           0        0.036301    0.514663   -0.083777
      4          6           0        0.586892    0.213664    1.324671
      5          6           0        2.084048    0.248117    1.430136
      6          1           0        2.916889   -0.879940   -1.482022
      7          1           0        1.773378    1.174653   -1.210082
      8          1           0        0.185351    0.930127    2.051848
      9          1           0        0.276869   -0.773482    1.685988
     10          8           0        2.766988   -0.445089    0.490595
     11          8           0        2.656847    0.803796    2.361454
     12          6           0        1.539666   -2.263413   -0.612752
     13          6           0        2.620566   -3.287761   -0.285187
     14          6           0        0.608788    0.054569   -2.581677
     15          8           0       -0.997750   -0.450555   -0.397184
     16         14           0       -2.557069   -0.535903    0.209436
     17          6           0       -3.205365   -2.293309   -0.044117
     18          6           0       -2.670222   -0.158971    2.042865
     19          6           0       -3.707723    0.624088   -0.721421
     20          1           0       -3.701572   -0.271895    2.391019
     21          1           0       -2.043634   -0.844146    2.621028
     22          1           0       -2.354226    0.864774    2.259947
     23          1           0       -4.744716    0.463183   -0.411800
     24          1           0       -3.455736    1.670278   -0.528994
     25          1           0       -3.640040    0.446361   -1.798731
     26          1           0       -4.230139   -2.381255    0.328052
     27          1           0       -3.197497   -2.551911   -1.106914
     28          1           0       -2.577306   -3.010615    0.492135
     29          1           0        1.436774   -0.047700   -3.291722
     30          1           0       -0.007322   -0.845470   -2.663717
     31          1           0        0.004190    0.906527   -2.907414
     32          1           0        1.055932   -2.557083   -1.549979
     33          1           0        0.786211   -2.323818    0.176613
     34          1           0        2.186308   -4.291653   -0.240548
     35          1           0        3.402731   -3.291169   -1.050934
     36          1           0        3.085681   -3.080041    0.683473
     37          6           0       -0.485815    1.987838   -0.195929
     38          6           0        0.533354    3.074063    0.033165
     39          6           0        0.872639    3.986325   -0.886748
     40          1           0       -1.279440    2.155979    0.541342
     41          1           0       -0.972620    2.124571   -1.170157
     42          1           0        0.999114    3.130365    1.016312
     43          1           0        1.605828    4.755380   -0.660191
     44          1           0        0.433692    3.992296   -1.879776
 ---------------------------------------------------------------------
 Rotational constants (GHZ):      0.4293618      0.3144965      0.2515270
 Standard basis: 6-311G(d) (5D, 7F)
 There are   428 symmetry adapted cartesian basis functions of A   symmetry.
 There are   410 symmetry adapted basis functions of A   symmetry.
   410 basis functions,   720 primitive gaussians,   428 cartesian basis functions
    74 alpha electrons       74 beta electrons
       nuclear repulsion energy      1644.8224208674 Hartrees.
 NAtoms=   44 NActive=   44 NUniq=   44 SFac= 1.00D+00 NAtFMM=   60 NAOKFM=F Big=F
 Integral buffers will be    131072 words long.
 Raffenetti 2 integral format.
 Two-electron integral symmetry is turned on.
 ------------------------------------------------------------------------------
 Polarizable Continuum Model (PCM)
 =================================
 Model                : PCM (using non-symmetric T matrix).
 Atomic radii         : UFF (Universal Force Field).
 Polarization charges : Total charges.
 Charge compensation  : None.
 Solution method      : On-the-fly selection.
 Cavity type          : Scaled VdW (van der Waals Surface) (Alpha=1.100).
 Cavity algorithm     : GePol (No added spheres)
                        Default sphere list used, NSphG=   44.
                        Lebedev-Laikov grids with approx.  5.0 points / Ang**2.
                        Smoothing algorithm: Karplus/York (Gamma=1.0000).
                        Polarization charges: spherical gaussians, with
                                              point-specific exponents (IZeta= 3).
                        Self-potential: point-specific (ISelfS= 7).
                        Self-field    : sphere-specific E.n sum rule (ISelfD= 2).
 Solvent              : Chloroform, Eps=   4.711300 Eps(inf)=   2.090627
 ------------------------------------------------------------------------------
 One-electron integrals computed using PRISM.
 NBasis=   410 RedAO= T EigKep=  6.87D-04  NBF=   410
 NBsUse=   410 1.00D-06 EigRej= -1.00D+00 NBFU=   410
 ExpMin= 6.54D-02 ExpMax= 6.94D+04 ExpMxC= 2.33D+03 IAcc=2 IRadAn=         4 AccDes= 0.00D+00
 Harris functional with IExCor=  908 and IRadAn=       4 diagonalized for initial guess.
 HarFok:  IExCor=  908 AccDes= 0.00D+00 IRadAn=         4 IDoV= 1 UseB2=F ITyADJ=14
 ICtDFT=  3500011 ScaDFX=  1.000000  1.000000  1.000000  1.000000
 FoFCou: FMM=F IPFlag=           0 FMFlag=      100000 FMFlg1=           0
         NFxFlg=           0 DoJE=T BraDBF=F KetDBF=T FulRan=T
         wScrn=  0.000000 ICntrl=     500 IOpCl=  0 I1Cent=   200000004 NGrid=           0
         NMat0=    1 NMatS0=      1 NMatT0=    0 NMatD0=    1 NMtDS0=    0 NMtDT0=    0
 Petite list used in FoFCou.
 Requested convergence on RMS density matrix=1.00D-08 within 128 cycles.
 Requested convergence on MAX density matrix=1.00D-06.
 Requested convergence on             energy=1.00D-06.
 No special actions if energy rises.
 Inv3:  Mode=1 IEnd=    24470208.
 Iteration    1 A*A^-1 deviation from unit magnitude is 9.10D-15 for   2595.
 Iteration    1 A*A^-1 deviation from orthogonality  is 7.33D-15 for   2602   1186.
 Iteration    1 A^-1*A deviation from unit magnitude is 7.99D-15 for   2595.
 Iteration    1 A^-1*A deviation from orthogonality  is 1.81D-10 for   2118   2108.
 Iteration    2 A*A^-1 deviation from unit magnitude is 9.77D-15 for    363.
 Iteration    2 A*A^-1 deviation from orthogonality  is 9.10D-15 for   2050    768.
 Iteration    2 A^-1*A deviation from unit magnitude is 1.55D-15 for    253.
 Iteration    2 A^-1*A deviation from orthogonality  is 9.44D-16 for   2046     23.
 Error on total polarization charges =  0.01120
 SCF Done:  E(RmPW1PW91) =  -1064.37458462     A.U. after   13 cycles
            NFock= 13  Conv=0.34D-08     -V/T= 2.0036
 DoSCS=F DFT=T ScalE2(SS,OS)=  1.000000  1.000000
 Range of M.O.s used for correlation:     1   410
 NBasis=   410 NAE=    74 NBE=    74 NFC=     0 NFV=     0
 NROrb=    410 NOA=    74 NOB=    74 NVA=   336 NVB=   336
 NEqPCM:  Using equilibrium solvation (IEInf=0, Eps=   4.7113, EpsInf=   2.0906)
          Differentiating once with respect to magnetic field using GIAOs.
          Electric field/nuclear overlap derivatives assumed to be zero.
 FoFJK:  IHMeth= 1 ICntrl=    6127 DoSepK=F KAlg= 0 I1Cent=   0 FoldK=F
 IRaf=         1 NMat=   1 IRICut=       1 DoRegI=T DoRafI=F ISym2E= 0.
          There are     3 degrees of freedom in the 1st order CPHF.  IDoFFX=0 NUNeed=     3.
      3 vectors produced by pass  0 Test12= 8.29D-13 3.33D-08 XBig12= 2.86D+01 7.74D-01.
 AX will form     3 AO Fock derivatives at one time.
      3 vectors produced by pass  1 Test12= 8.29D-13 3.33D-08 XBig12= 6.78D-02 8.22D-02.
      3 vectors produced by pass  2 Test12= 8.29D-13 3.33D-08 XBig12= 5.11D-04 6.63D-03.
      3 vectors produced by pass  3 Test12= 8.29D-13 3.33D-08 XBig12= 1.80D-06 2.16D-04.
      3 vectors produced by pass  4 Test12= 8.29D-13 3.33D-08 XBig12= 6.98D-09 1.14D-05.
      3 vectors produced by pass  5 Test12= 8.29D-13 3.33D-08 XBig12= 1.82D-11 7.84D-07.
      1 vectors produced by pass  6 Test12= 8.29D-13 3.33D-08 XBig12= 6.75D-14 4.44D-08.
 InvSVY:  IOpt=1 It=  1 EMax= 8.88D-16
 Solved reduced A of dimension    19 with     3 vectors.
 Calculating GIAO nuclear magnetic shielding tensors.
 SCF GIAO Magnetic shielding tensor (ppm):
      1  C    Isotropic =    99.9094   Anisotropy =    45.2071
   XX=    86.4775   YX=     3.9218   ZX=    21.9018
   XY=    -5.0608   YY=    91.9905   ZY=    -1.0971
   XZ=    16.1400   YZ=    10.1731   ZZ=   121.2601
   Eigenvalues:    77.7007    91.9800   130.0475
      2  C    Isotropic =   143.5301   Anisotropy =     9.6246
   XX=   145.6757   YX=    -1.9509   ZX=     7.2763
   XY=    -1.8944   YY=   141.6431   ZY=    10.1735
   XZ=    -3.8231   YZ=     4.7161   ZZ=   143.2715
   Eigenvalues:   134.3770   146.2667   149.9465
      3  C    Isotropic =   104.8909   Anisotropy =    49.1756
   XX=   118.7397   YX=    20.3564   ZX=     4.1691
   XY=    23.5501   YY=   109.5887   ZY=     5.4831
   XZ=     3.9992   YZ=     8.0982   ZZ=    86.3442
   Eigenvalues:    84.3066    92.6914   137.6746
      4  C    Isotropic =   139.1838   Anisotropy =    30.7350
   XX=   149.5270   YX=     1.6741   ZX=    13.5144
   XY=     2.9670   YY=   127.6891   ZY=     6.7076
   XZ=    13.9238   YZ=    -3.0170   ZZ=   140.3355
   Eigenvalues:   127.4084   130.4693   159.6738
      5  C    Isotropic =     7.7133   Anisotropy =   103.4144
   XX=   -40.2081   YX=    32.4099   ZX=    39.3180
   XY=    41.5858   YY=    45.1660   ZY=   -42.9974
   XZ=    51.7452   YZ=   -42.5988   ZZ=    18.1819
   Eigenvalues:   -86.8679    33.3515    76.6562
      6  H    Isotropic =    27.8958   Anisotropy =     4.8306
   XX=    29.5656   YX=    -1.3756   ZX=    -1.0749
   XY=    -0.6131   YY=    25.6568   ZY=    -0.4068
   XZ=    -2.8515   YZ=    -0.3241   ZZ=    28.4649
   Eigenvalues:    25.1627    27.4085    31.1162
      7  H    Isotropic =    29.8633   Anisotropy =     6.4301
   XX=    29.5189   YX=     1.5430   ZX=    -1.3543
   XY=     2.2576   YY=    33.3126   ZY=    -0.6225
   XZ=    -0.4282   YZ=     0.0633   ZZ=    26.7584
   Eigenvalues:    26.4831    28.9568    34.1500
      8  H    Isotropic =    29.1199   Anisotropy =     4.7398
   XX=    29.3447   YX=    -0.2873   ZX=     0.6854
   XY=     0.1228   YY=    27.0168   ZY=     2.1662
   XZ=     1.6060   YZ=     2.0882   ZZ=    30.9981
   Eigenvalues:    26.0049    29.0751    32.2797
      9  H    Isotropic =    29.2575   Anisotropy =     2.7643
   XX=    30.2505   YX=     0.2305   ZX=    -0.0780
   XY=     0.3794   YY=    28.3202   ZY=    -1.2163
   XZ=    -1.4170   YZ=    -1.8883   ZZ=    29.2019
   Eigenvalues:    27.1327    29.5395    31.1004
     10  O    Isotropic =    91.2664   Anisotropy =   212.5371
   XX=    67.4219   YX=   -38.8695   ZX=  -115.5111
   XY=   -75.5047   YY=   190.5502   ZY=  -114.0346
   XZ=  -125.0416   YZ=   -77.4893   ZZ=    15.8271
   Eigenvalues:  -120.6758   161.5172   232.9578
     11  O    Isotropic =  -119.3970   Anisotropy =   582.5908
   XX=  -208.9992   YX=    38.0280   ZX=    -1.7192
   XY=    18.7111   YY=    55.8142   ZY=  -333.6172
   XZ=    14.4220   YZ=  -300.3294   ZZ=  -205.0060
   Eigenvalues:  -419.4622  -207.7256   268.9969
     12  C    Isotropic =   161.6918   Anisotropy =     9.5549
   XX=   161.7397   YX=    -0.5449   ZX=     1.7278
   XY=     4.7036   YY=   167.3704   ZY=     1.4443
   XZ=    -0.5001   YZ=    -2.4480   ZZ=   155.9655
   Eigenvalues:   155.8535   161.1602   168.0618
     13  C    Isotropic =   174.3759   Anisotropy =    23.6999
   XX=   180.1107   YX=   -12.2838   ZX=    -2.8098
   XY=    -8.6552   YY=   179.1801   ZY=    -3.2076
   XZ=    -3.4874   YZ=    -6.6175   ZZ=   163.8370
   Eigenvalues:   160.1556   172.7963   190.1759
     14  C    Isotropic =   175.8115   Anisotropy =    18.2395
   XX=   173.5179   YX=    -1.7518   ZX=     2.2004
   XY=     0.6212   YY=   166.5680   ZY=     0.8662
   XZ=     3.7640   YZ=     0.1524   ZZ=   187.3486
   Eigenvalues:   166.4938   172.9696   187.9711
     15  O    Isotropic =   232.3307   Anisotropy =    54.3216
   XX=   196.7645   YX=     6.6203   ZX=    24.9416
   XY=     5.2223   YY=   256.0705   ZY=   -17.4028
   XZ=    15.6462   YZ=   -15.8484   ZZ=   244.1570
   Eigenvalues:   187.3182   241.1288   268.5451
     16  Si   Isotropic =   334.1575   Anisotropy =    52.7821
   XX=   360.8840   YX=    -2.8878   ZX=   -25.7530
   XY=     8.1117   YY=   322.9036   ZY=    -3.5806
   XZ=   -15.2648   YZ=     3.0584   ZZ=   318.6850
   Eigenvalues:   310.3161   322.8109   369.3456
     17  C    Isotropic =   186.2798   Anisotropy =    12.5216
   XX=   187.9325   YX=     2.5974   ZX=    -2.5380
   XY=    -0.1490   YY=   193.7917   ZY=     3.7659
   XZ=    -2.9516   YZ=     3.5714   ZZ=   177.1152
   Eigenvalues:   175.6404   188.5715   194.6275
     18  C    Isotropic =   185.4840   Anisotropy =     6.2958
   XX=   188.6622   YX=     1.8370   ZX=    -1.9524
   XY=     3.1116   YY=   178.9383   ZY=     1.8579
   XZ=     1.3664   YZ=     3.3224   ZZ=   188.8516
   Eigenvalues:   177.7420   189.0289   189.6812
     19  C    Isotropic =   184.5251   Anisotropy =    12.3000
   XX=   189.7852   YX=    -3.9887   ZX=     1.7323
   XY=    -2.6195   YY=   183.2094   ZY=    -6.6211
   XZ=     0.5260   YZ=    -7.3270   ZZ=   180.5806
   Eigenvalues:   174.6911   186.1591   192.7251
     20  H    Isotropic =    32.1446   Anisotropy =    10.5997
   XX=    36.5853   YX=     0.8793   ZX=    -4.7671
   XY=     1.0223   YY=    28.1104   ZY=    -0.0165
   XZ=    -3.9646   YZ=     0.1445   ZZ=    31.7381
   Eigenvalues:    27.8385    29.3843    39.2111
     21  H    Isotropic =    31.9244   Anisotropy =     6.8882
   XX=    31.9020   YX=    -1.8109   ZX=     1.2164
   XY=    -1.4868   YY=    30.4243   ZY=    -2.9733
   XZ=     1.8132   YZ=    -3.4691   ZZ=    33.4469
   Eigenvalues:    28.2653    30.9914    36.5165
     22  H    Isotropic =    31.9541   Anisotropy =     6.5760
   XX=    30.4685   YX=     2.2548   ZX=    -1.3847
   XY=     2.3123   YY=    34.4051   ZY=     2.2475
   XZ=    -0.5264   YZ=     3.1547   ZZ=    30.9888
   Eigenvalues:    27.8695    31.6547    36.3381
     23  H    Isotropic =    32.3404   Anisotropy =    10.3349
   XX=    39.1331   YX=    -0.2246   ZX=    -0.8888
   XY=    -0.0996   YY=    29.0995   ZY=    -0.6832
   XZ=    -1.1172   YZ=    -0.6813   ZZ=    28.7886
   Eigenvalues:    28.1717    29.6191    39.2304
     24  H    Isotropic =    32.0337   Anisotropy =     6.4006
   XX=    31.9051   YX=     0.1250   ZX=     1.1920
   XY=     0.9737   YY=    36.2311   ZY=     0.3076
   XZ=     0.8851   YZ=    -0.3879   ZZ=    27.9649
   Eigenvalues:    27.7045    32.0958    36.3008
     25  H    Isotropic =    31.9495   Anisotropy =     7.8296
   XX=    30.5432   YX=    -0.3916   ZX=     1.7110
   XY=    -0.2742   YY=    28.4417   ZY=    -0.4790
   XZ=     1.1214   YZ=     0.3044   ZZ=    36.8637
   Eigenvalues:    28.3880    30.2913    37.1693
     26  H    Isotropic =    32.3416   Anisotropy =     9.9530
   XX=    37.3317   YX=     3.1102   ZX=    -2.4635
   XY=     2.5876   YY=    30.6170   ZY=    -0.2096
   XZ=    -2.4999   YZ=    -0.3824   ZZ=    29.0761
   Eigenvalues:    28.2419    29.8059    38.9769
     27  H    Isotropic =    31.9512   Anisotropy =     8.3683
   XX=    29.2995   YX=     1.5276   ZX=     0.4706
   XY=     1.3825   YY=    31.2684   ZY=     4.0154
   XZ=     0.5646   YZ=     3.0899   ZZ=    35.2858
   Eigenvalues:    28.1755    30.1481    37.5301
     28  H    Isotropic =    32.0885   Anisotropy =     8.0518
   XX=    31.5800   YX=    -1.6483   ZX=     1.7113
   XY=    -2.2862   YY=    35.5111   ZY=    -2.9749
   XZ=     1.4539   YZ=    -2.3240   ZZ=    29.1743
   Eigenvalues:    27.9845    30.8245    37.4563
     29  H    Isotropic =    31.4694   Anisotropy =    10.9622
   XX=    31.0425   YX=    -0.8402   ZX=    -4.2452
   XY=    -0.7992   YY=    27.1101   ZY=     0.1426
   XZ=    -4.5484   YZ=    -0.0516   ZZ=    36.2557
   Eigenvalues:    26.8170    28.8137    38.7775
     30  H    Isotropic =    30.8443   Anisotropy =     5.8504
   XX=    29.8927   YX=     2.9284   ZX=     0.5899
   XY=     2.9371   YY=    31.1835   ZY=     1.7810
   XZ=     0.9979   YZ=     2.0122   ZZ=    31.4567
   Eigenvalues:    27.4392    30.3492    34.7446
     31  H    Isotropic =    31.0081   Anisotropy =     8.3881
   XX=    28.8320   YX=    -4.0273   ZX=     1.3769
   XY=    -3.1426   YY=    30.9647   ZY=    -2.4046
   XZ=     1.9474   YZ=    -2.9925   ZZ=    33.2274
   Eigenvalues:    26.1445    30.2796    36.6001
     32  H    Isotropic =    30.3741   Anisotropy =     4.9445
   XX=    29.1991   YX=    -1.6636   ZX=     4.1631
   XY=    -1.8209   YY=    32.0317   ZY=     1.7577
   XZ=     4.0346   YZ=     1.7235   ZZ=    29.8917
   Eigenvalues:    24.6154    32.8365    33.6705
     33  H    Isotropic =    30.0898   Anisotropy =     8.8094
   XX=    32.6896   YX=    -3.0430   ZX=    -4.1338
   XY=    -2.9961   YY=    31.2778   ZY=    -0.7794
   XZ=    -4.0887   YZ=    -0.9611   ZZ=    26.3020
   Eigenvalues:    23.6651    30.6415    35.9627
     34  H    Isotropic =    30.9430   Anisotropy =    10.6472
   XX=    28.9463   YX=    -0.4599   ZX=     0.1619
   XY=     0.3454   YY=    37.9236   ZY=    -0.8701
   XZ=    -0.0754   YZ=    -1.5086   ZZ=    25.9591
   Eigenvalues:    25.8416    28.9463    38.0411
     35  H    Isotropic =    31.2799   Anisotropy =    10.2106
   XX=    33.8548   YX=    -3.2165   ZX=    -4.5006
   XY=    -3.9961   YY=    29.8750   ZY=     1.1490
   XZ=    -3.6723   YZ=     0.9899   ZZ=    30.1099
   Eigenvalues:    26.8360    28.9168    38.0869
     36  H    Isotropic =    30.7309   Anisotropy =     7.9693
   XX=    29.7420   YX=    -2.4116   ZX=     4.4813
   XY=    -3.0508   YY=    30.4184   ZY=    -0.2981
   XZ=     3.9872   YZ=    -0.5836   ZZ=    32.0324
   Eigenvalues:    25.6666    30.4824    36.0438
     37  C    Isotropic =   137.9607   Anisotropy =    28.4293
   XX=   138.9730   YX=     2.9216   ZX=     1.8647
   XY=     2.0830   YY=   156.5459   ZY=    -4.7768
   XZ=     6.8387   YZ=     1.8945   ZZ=   118.3630
   Eigenvalues:   117.3883   139.5802   156.9135
     38  C    Isotropic =    45.2318   Anisotropy =   176.7759
   XX=    62.9610   YX=   -76.5070   ZX=   -84.4459
   XY=   -78.9493   YY=    75.8090   ZY=   -13.1511
   XZ=   -80.3011   YZ=   -11.8017   ZZ=    -3.0747
   Eigenvalues:   -79.7052    52.3182   163.0824
     39  C    Isotropic =    62.0341   Anisotropy =   144.8688
   XX=    67.7835   YX=   -70.7236   ZX=   -73.3080
   XY=   -68.1708   YY=    88.0760   ZY=   -23.5063
   XZ=   -75.1893   YZ=   -21.3249   ZZ=    30.2428
   Eigenvalues:   -54.8379    82.3269   158.6133
     40  H    Isotropic =    29.6529   Anisotropy =     5.2080
   XX=    31.7054   YX=     1.6208   ZX=    -3.2754
   XY=     0.2833   YY=    30.5407   ZY=     1.1283
   XZ=    -2.3138   YZ=    -0.0419   ZZ=    26.7126
   Eigenvalues:    25.3106    30.5233    33.1249
     41  H    Isotropic =    29.4051   Anisotropy =     4.0509
   XX=    29.4982   YX=    -0.3633   ZX=     1.9178
   XY=    -0.6492   YY=    30.6645   ZY=    -1.9962
   XZ=     0.6154   YZ=    -1.8093   ZZ=    28.0527
   Eigenvalues:    26.7422    29.3674    32.1057
     42  H    Isotropic =    25.9859   Anisotropy =     6.4348
   XX=    23.7057   YX=     1.6398   ZX=    -1.2512
   XY=     0.9316   YY=    29.9581   ZY=    -0.8855
   XZ=    -0.3754   YZ=    -0.0434   ZZ=    24.2939
   Eigenvalues:    23.0360    24.6459    30.2758
     43  H    Isotropic =    26.7318   Anisotropy =     6.8469
   XX=    25.1904   YX=     0.8985   ZX=    -1.0332
   XY=     1.7003   YY=    29.8106   ZY=    -1.4684
   XZ=    -2.3722   YZ=    -3.0241   ZZ=    25.1943
   Eigenvalues:    23.3931    25.5059    31.2964
     44  H    Isotropic =    26.6744   Anisotropy =     7.4841
   XX=    24.4689   YX=     0.5718   ZX=    -2.8456
   XY=    -0.5355   YY=    29.7927   ZY=    -4.2261
   XZ=    -1.0484   YZ=    -2.1068   ZZ=    25.7617
   Eigenvalues:    22.4893    25.8701    31.6638
 End of Minotr F.D. properties file   721 does not exist.
 End of Minotr F.D. properties file   722 does not exist.
 End of Minotr F.D. properties file   788 does not exist.

 **********************************************************************

            Population analysis using the SCF density.

 **********************************************************************

 Orbital symmetries:
       Occupied  (A) (A) (A) (A) (A) (A) (A) (A) (A) (A) (A) (A)
                 (A) (A) (A) (A) (A) (A) (A) (A) (A) (A) (A) (A)
                 (A) (A) (A) (A) (A) (A) (A) (A) (A) (A) (A) (A)
                 (A) (A) (A) (A) (A) (A) (A) (A) (A) (A) (A) (A)
                 (A) (A) (A) (A) (A) (A) (A) (A) (A) (A) (A) (A)
                 (A) (A) (A) (A) (A) (A) (A) (A) (A) (A) (A) (A)
                 (A) (A)
       Virtual   (A) (A) (A) (A) (A) (A) (A) (A) (A) (A) (A) (A)
                 (A) (A) (A) (A) (A) (A) (A) (A) (A) (A) (A) (A)
                 (A) (A) (A) (A) (A) (A) (A) (A) (A) (A) (A) (A)
                 (A) (A) (A) (A) (A) (A) (A) (A) (A) (A) (A) (A)
                 (A) (A) (A) (A) (A) (A) (A) (A) (A) (A) (A) (A)
                 (A) (A) (A) (A) (A) (A) (A) (A) (A) (A) (A) (A)
                 (A) (A) (A) (A) (A) (A) (A) (A) (A) (A) (A) (A)
                 (A) (A) (A) (A) (A) (A) (A) (A) (A) (A) (A) (A)
                 (A) (A) (A) (A) (A) (A) (A) (A) (A) (A) (A) (A)
                 (A) (A) (A) (A) (A) (A) (A) (A) (A) (A) (A) (A)
                 (A) (A) (A) (A) (A) (A) (A) (A) (A) (A) (A) (A)
                 (A) (A) (A) (A) (A) (A) (A) (A) (A) (A) (A) (A)
                 (A) (A) (A) (A) (A) (A) (A) (A) (A) (A) (A) (A)
                 (A) (A) (A) (A) (A) (A) (A) (A) (A) (A) (A) (A)
                 (A) (A) (A) (A) (A) (A) (A) (A) (A) (A) (A) (A)
                 (A) (A) (A) (A) (A) (A) (A) (A) (A) (A) (A) (A)
                 (A) (A) (A) (A) (A) (A) (A) (A) (A) (A) (A) (A)
                 (A) (A) (A) (A) (A) (A) (A) (A) (A) (A) (A) (A)
                 (A) (A) (A) (A) (A) (A) (A) (A) (A) (A) (A) (A)
                 (A) (A) (A) (A) (A) (A) (A) (A) (A) (A) (A) (A)
                 (A) (A) (A) (A) (A) (A) (A) (A) (A) (A) (A) (A)
                 (A) (A) (A) (A) (A) (A) (A) (A) (A) (A) (A) (A)
                 (A) (A) (A) (A) (A) (A) (A) (A) (A) (A) (A) (A)
                 (A) (A) (A) (A) (A) (A) (A) (A) (A) (A) (A) (A)
                 (A) (A) (A) (A) (A) (A) (A) (A) (A) (A) (A) (A)
                 (A) (A) (A) (A) (A) (A) (A) (A) (A) (A) (A) (A)
                 (A) (A) (A) (A) (A) (A) (A) (A) (A) (A) (A) (A)
                 (A) (A) (A) (A) (A) (A) (A) (A) (A) (A) (A) (A)
 The electronic state is 1-A.
 Alpha  occ. eigenvalues --  -66.26959 -19.26058 -19.21076 -19.19897 -10.37121
 Alpha  occ. eigenvalues --  -10.32351 -10.30201 -10.25183 -10.24982 -10.24833
 Alpha  occ. eigenvalues --  -10.24736 -10.23295 -10.23290 -10.22504 -10.21857
 Alpha  occ. eigenvalues --  -10.20893 -10.20647 -10.20479  -5.32794  -3.66640
 Alpha  occ. eigenvalues --   -3.66409  -3.66374  -1.13260  -1.04833  -1.03925
 Alpha  occ. eigenvalues --   -0.85690  -0.83041  -0.80423  -0.78335  -0.73935
 Alpha  occ. eigenvalues --   -0.73072  -0.71877  -0.70356  -0.69981  -0.66410
 Alpha  occ. eigenvalues --   -0.63919  -0.62272  -0.58143  -0.54567  -0.54432
 Alpha  occ. eigenvalues --   -0.52278  -0.51089  -0.49404  -0.48929  -0.46629
 Alpha  occ. eigenvalues --   -0.46556  -0.45576  -0.44542  -0.44097  -0.43403
 Alpha  occ. eigenvalues --   -0.43355  -0.42560  -0.42148  -0.41829  -0.41355
 Alpha  occ. eigenvalues --   -0.40802  -0.40359  -0.40155  -0.39678  -0.39234
 Alpha  occ. eigenvalues --   -0.38179  -0.37871  -0.36936  -0.36848  -0.35637
 Alpha  occ. eigenvalues --   -0.35167  -0.34774  -0.33557  -0.31844  -0.30805
 Alpha  occ. eigenvalues --   -0.30227  -0.29735  -0.28314  -0.27097
 Alpha virt. eigenvalues --   -0.00772   0.01209   0.03860   0.05410   0.06198
 Alpha virt. eigenvalues --    0.06302   0.06808   0.08221   0.08431   0.09118
 Alpha virt. eigenvalues --    0.09460   0.09932   0.10434   0.10739   0.11692
 Alpha virt. eigenvalues --    0.11827   0.12306   0.13017   0.13353   0.13539
 Alpha virt. eigenvalues --    0.14002   0.14538   0.14941   0.15472   0.15738
 Alpha virt. eigenvalues --    0.16225   0.16861   0.17343   0.17661   0.18403
 Alpha virt. eigenvalues --    0.18786   0.19234   0.20128   0.20695   0.21493
 Alpha virt. eigenvalues --    0.22520   0.22924   0.23507   0.24244   0.24533
 Alpha virt. eigenvalues --    0.24926   0.26237   0.26417   0.26660   0.28928
 Alpha virt. eigenvalues --    0.29095   0.30169   0.30865   0.31805   0.32527
 Alpha virt. eigenvalues --    0.32706   0.33455   0.34364   0.34728   0.35749
 Alpha virt. eigenvalues --    0.36624   0.38229   0.39506   0.40140   0.40923
 Alpha virt. eigenvalues --    0.41898   0.41996   0.42694   0.44090   0.44590
 Alpha virt. eigenvalues --    0.45062   0.45577   0.46551   0.48093   0.48882
 Alpha virt. eigenvalues --    0.49704   0.50388   0.51284   0.51951   0.52828
 Alpha virt. eigenvalues --    0.53830   0.54291   0.55016   0.55317   0.55560
 Alpha virt. eigenvalues --    0.56695   0.56997   0.57717   0.57953   0.59186
 Alpha virt. eigenvalues --    0.59939   0.60326   0.60510   0.61029   0.61339
 Alpha virt. eigenvalues --    0.61391   0.61937   0.62160   0.62501   0.63088
 Alpha virt. eigenvalues --    0.63584   0.63940   0.64598   0.65347   0.66004
 Alpha virt. eigenvalues --    0.66184   0.66580   0.66731   0.68253   0.68348
 Alpha virt. eigenvalues --    0.68871   0.69248   0.69778   0.70040   0.70786
 Alpha virt. eigenvalues --    0.72618   0.72897   0.73329   0.73674   0.75072
 Alpha virt. eigenvalues --    0.75550   0.78260   0.78779   0.79487   0.81605
 Alpha virt. eigenvalues --    0.82225   0.83854   0.85645   0.86766   0.88906
 Alpha virt. eigenvalues --    0.88940   0.90044   0.90850   0.94335   0.94495
 Alpha virt. eigenvalues --    0.95672   0.96305   0.96732   0.99346   1.00636
 Alpha virt. eigenvalues --    1.01786   1.04024   1.05382   1.07402   1.10397
 Alpha virt. eigenvalues --    1.11808   1.14781   1.15707   1.18642   1.21766
 Alpha virt. eigenvalues --    1.22024   1.23830   1.24789   1.26936   1.28131
 Alpha virt. eigenvalues --    1.29367   1.29775   1.30603   1.31970   1.33351
 Alpha virt. eigenvalues --    1.35214   1.36575   1.39045   1.41360   1.41599
 Alpha virt. eigenvalues --    1.44354   1.44649   1.45533   1.46538   1.48533
 Alpha virt. eigenvalues --    1.51085   1.52144   1.52932   1.53571   1.54139
 Alpha virt. eigenvalues --    1.54601   1.54944   1.55992   1.56660   1.58963
 Alpha virt. eigenvalues --    1.59275   1.59479   1.60341   1.60492   1.61323
 Alpha virt. eigenvalues --    1.62079   1.62277   1.63212   1.64922   1.65151
 Alpha virt. eigenvalues --    1.65929   1.66610   1.67458   1.68270   1.69224
 Alpha virt. eigenvalues --    1.69832   1.69961   1.73191   1.73953   1.74521
 Alpha virt. eigenvalues --    1.75873   1.78572   1.79523   1.81019   1.81511
 Alpha virt. eigenvalues --    1.81611   1.82669   1.84383   1.85660   1.87288
 Alpha virt. eigenvalues --    1.88824   1.91343   1.92761   1.96090   1.97769
 Alpha virt. eigenvalues --    2.01879   2.05529   2.06471   2.08905   2.10153
 Alpha virt. eigenvalues --    2.15993   2.16824   2.19294   2.21254   2.24113
 Alpha virt. eigenvalues --    2.24742   2.27951   2.35129   2.36748   2.40403
 Alpha virt. eigenvalues --    2.41456   2.41682   2.42450   2.42774   2.43205
 Alpha virt. eigenvalues --    2.43551   2.45084   2.46426   2.47116   2.47625
 Alpha virt. eigenvalues --    2.48361   2.48671   2.49783   2.51800   2.53075
 Alpha virt. eigenvalues --    2.54317   2.54610   2.57187   2.58844   2.61668
 Alpha virt. eigenvalues --    2.62380   2.63035   2.65027   2.71224   2.80769
 Alpha virt. eigenvalues --    2.84426   2.87279   2.87918   2.91238   2.91577
 Alpha virt. eigenvalues --    2.92381   2.92908   2.94400   2.95289   2.96415
 Alpha virt. eigenvalues --    2.97999   3.01855   3.03461   3.05621   3.07714
 Alpha virt. eigenvalues --    3.08897   3.11881   3.12860   3.14558   3.15451
 Alpha virt. eigenvalues --    3.16255   3.17123   3.18561   3.19611   3.22452
 Alpha virt. eigenvalues --    3.22738   3.23033   3.23707   3.24003   3.25574
 Alpha virt. eigenvalues --    3.27279   3.28056   3.29084   3.29609   3.31822
 Alpha virt. eigenvalues --    3.32923   3.34353   3.35426   3.38001   3.42004
 Alpha virt. eigenvalues --    3.44348   3.51705   3.55802   3.58807   3.61240
 Alpha virt. eigenvalues --    3.77784   3.89839   3.91275   3.98081   4.00258
 Alpha virt. eigenvalues --    4.10453   4.12007   4.15159   4.18477   4.26395
 Alpha virt. eigenvalues --    4.95959   5.00383   5.03087   5.10298   5.18369
 Alpha virt. eigenvalues --    5.24273   5.51527   5.52911   5.77839   5.85456
 Alpha virt. eigenvalues --   11.53417  11.53934  11.59878  23.41791  23.48209
 Alpha virt. eigenvalues --   23.54513  23.55365  23.58328  23.61053  23.70642
 Alpha virt. eigenvalues --   23.76744  23.78644  23.81251  23.83292  23.84467
 Alpha virt. eigenvalues --   23.91166  24.26725  49.99278  50.05410  50.11126
 Alpha virt. eigenvalues --  141.30215
          Condensed to atoms (all electrons):
               1          2          3          4          5          6
     1  C    5.189113   0.369070  -0.053490  -0.018151  -0.054441   0.405721
     2  C    0.369070   5.503542   0.272991  -0.062302  -0.021406  -0.041029
     3  C   -0.053490   0.272991   5.168777   0.207412  -0.022831   0.007383
     4  C   -0.018151  -0.062302   0.207412   5.913636   0.243842  -0.000576
     5  C   -0.054441  -0.021406  -0.022831   0.243842   4.403115   0.002471
     6  H    0.405721  -0.041029   0.007383  -0.000576   0.002471   0.466334
     7  H   -0.062576   0.409903  -0.050885   0.003385  -0.000574  -0.009533
     8  H   -0.000179   0.005249  -0.038786   0.364033  -0.025851   0.000150
     9  H   -0.000697  -0.000850  -0.024144   0.365748  -0.025216  -0.000030
    10  O    0.202310  -0.031443   0.000759  -0.107661   0.339371  -0.026114
    11  O    0.002696  -0.001797   0.005885  -0.107593   0.666610  -0.000136
    12  C    0.285455  -0.069553  -0.016636   0.000587  -0.010310  -0.054719
    13  C   -0.080090   0.008633  -0.000478   0.000135   0.000785  -0.007891
    14  C   -0.072176   0.289421  -0.065413   0.005769   0.000458  -0.004207
    15  O   -0.004769  -0.068059   0.206668  -0.041555   0.000989  -0.000438
    16  Si  -0.000411   0.005953  -0.045587  -0.014176   0.001129  -0.000042
    17  C    0.000016   0.000036   0.002512  -0.000365  -0.000004   0.000000
    18  C   -0.000019  -0.000373  -0.000503  -0.008710  -0.000086  -0.000001
    19  C    0.000002  -0.000156  -0.000176  -0.000389  -0.000001   0.000000
    20  H    0.000000   0.000007  -0.000081   0.000300   0.000001   0.000000
    21  H   -0.000003  -0.000092  -0.000028   0.000137  -0.000073   0.000000
    22  H   -0.000001  -0.000054   0.000328  -0.000278  -0.000133   0.000000
    23  H    0.000000   0.000007  -0.000053   0.000004   0.000000   0.000000
    24  H    0.000000  -0.000014  -0.000098  -0.000052   0.000003   0.000000
    25  H    0.000003   0.000057   0.000433  -0.000033   0.000000   0.000000
    26  H   -0.000001   0.000003  -0.000073   0.000001   0.000000   0.000000
    27  H    0.000000   0.000051  -0.000111  -0.000024   0.000000   0.000001
    28  H   -0.000009  -0.000008  -0.000030   0.000008  -0.000001   0.000001
    29  H   -0.004011  -0.040025   0.008336  -0.000235   0.000007   0.005124
    30  H   -0.008512  -0.031701  -0.010064   0.000389  -0.000049  -0.000715
    31  H    0.007002  -0.032073  -0.006481   0.000083  -0.000067  -0.000182
    32  H   -0.034258  -0.004784   0.000457  -0.000218   0.000383  -0.000142
    33  H   -0.033416  -0.004371  -0.000369   0.000359  -0.000322   0.006310
    34  H    0.007978  -0.000264   0.000008   0.000029  -0.000045  -0.000139
    35  H   -0.003917  -0.000155   0.000016   0.000000  -0.000033   0.005999
    36  H   -0.011464   0.000223  -0.000068   0.000368   0.000619  -0.000194
    37  C    0.005905  -0.100637   0.337813  -0.063707   0.001142  -0.000459
    38  C    0.000664  -0.011889  -0.048426  -0.005565  -0.001163   0.000037
    39  C    0.000120  -0.002542  -0.002239  -0.000506   0.000107   0.000023
    40  H   -0.000205   0.006746  -0.040310  -0.007610   0.000258   0.000008
    41  H   -0.000006  -0.009285  -0.033511   0.007393  -0.000260  -0.000001
    42  H   -0.000044   0.000246  -0.002483   0.000659   0.001487   0.000037
    43  H   -0.000002   0.000006  -0.000217   0.000043  -0.000023  -0.000001
    44  H    0.000004   0.000229  -0.000060  -0.000003  -0.000006   0.000001
               7          8          9         10         11         12
     1  C   -0.062576  -0.000179  -0.000697   0.202310   0.002696   0.285455
     2  C    0.409903   0.005249  -0.000850  -0.031443  -0.001797  -0.069553
     3  C   -0.050885  -0.038786  -0.024144   0.000759   0.005885  -0.016636
     4  C    0.003385   0.364033   0.365748  -0.107661  -0.107593   0.000587
     5  C   -0.000574  -0.025851  -0.025216   0.339371   0.666610  -0.010310
     6  H   -0.009533   0.000150  -0.000030  -0.026114  -0.000136  -0.054719
     7  H    0.457635  -0.000672  -0.000011   0.002514  -0.000824   0.010071
     8  H   -0.000672   0.425094  -0.018102   0.005242   0.009811   0.000117
     9  H   -0.000011  -0.018102   0.399424   0.000379   0.001378   0.000388
    10  O    0.002514   0.005242   0.000379   8.030382  -0.068431  -0.044214
    11  O   -0.000824   0.009811   0.001378  -0.068431   7.876273  -0.000243
    12  C    0.010071   0.000117   0.000388  -0.044214  -0.000243   5.374895
    13  C   -0.000325  -0.000038   0.000297  -0.003269   0.000010   0.303826
    14  C   -0.029340  -0.000183  -0.000274   0.004485  -0.000010   0.002344
    15  O    0.003773   0.001649  -0.007225  -0.000014  -0.000023   0.007078
    16  Si  -0.000178   0.000205  -0.001044  -0.000360  -0.000150  -0.000620
    17  C    0.000003   0.000019  -0.000354   0.000000   0.000000  -0.000015
    18  C    0.000004  -0.002083   0.000624  -0.000002  -0.000006   0.000028
    19  C   -0.000001  -0.000010   0.000019   0.000000   0.000000   0.000005
    20  H    0.000000   0.000113   0.000080   0.000000   0.000000  -0.000001
    21  H    0.000001  -0.000813   0.003087   0.000003   0.000005  -0.000018
    22  H    0.000001   0.001271  -0.000658  -0.000003  -0.000038  -0.000001
    23  H    0.000000  -0.000004   0.000002   0.000000   0.000000   0.000000
    24  H   -0.000001  -0.000003   0.000004   0.000000   0.000000   0.000000
    25  H   -0.000001   0.000001  -0.000005   0.000000   0.000000   0.000000
    26  H    0.000000  -0.000001   0.000009   0.000000   0.000000   0.000001
    27  H    0.000000  -0.000001  -0.000013   0.000000   0.000000   0.000032
    28  H    0.000000   0.000001  -0.000026   0.000001   0.000000   0.000157
    29  H   -0.005496   0.000017   0.000012   0.000062   0.000001  -0.000967
    30  H    0.006244  -0.000021   0.000011  -0.000008  -0.000001   0.003298
    31  H   -0.004874  -0.000001   0.000005  -0.000157   0.000000  -0.000123
    32  H   -0.000246  -0.000005   0.000142   0.003447   0.000008   0.386485
    33  H   -0.000377   0.000722   0.002633   0.000407  -0.000094   0.385974
    34  H    0.000022  -0.000001  -0.000010  -0.000098   0.000000  -0.038000
    35  H   -0.000041   0.000003  -0.000021  -0.000329   0.000001  -0.041883
    36  H   -0.000023  -0.000021   0.000149   0.010502  -0.000125  -0.036515
    37  C   -0.007934  -0.005639   0.002762   0.000291  -0.000378   0.000309
    38  C    0.008789  -0.001999   0.000269  -0.000338  -0.000959  -0.000068
    39  C    0.003416   0.000027  -0.000003   0.000004   0.000002  -0.000005
    40  H    0.000716   0.001734  -0.000172  -0.000005  -0.000076   0.000006
    41  H   -0.000519   0.000523  -0.000136   0.000012  -0.000004  -0.000003
    42  H   -0.000726   0.002536   0.000332  -0.000295   0.005899  -0.000013
    43  H    0.000090  -0.000006  -0.000002   0.000003  -0.000017   0.000000
    44  H   -0.000123   0.000005   0.000003  -0.000002   0.000001   0.000000
              13         14         15         16         17         18
     1  C   -0.080090  -0.072176  -0.004769  -0.000411   0.000016  -0.000019
     2  C    0.008633   0.289421  -0.068059   0.005953   0.000036  -0.000373
     3  C   -0.000478  -0.065413   0.206668  -0.045587   0.002512  -0.000503
     4  C    0.000135   0.005769  -0.041555  -0.014176  -0.000365  -0.008710
     5  C    0.000785   0.000458   0.000989   0.001129  -0.000004  -0.000086
     6  H   -0.007891  -0.004207  -0.000438  -0.000042   0.000000  -0.000001
     7  H   -0.000325  -0.029340   0.003773  -0.000178   0.000003   0.000004
     8  H   -0.000038  -0.000183   0.001649   0.000205   0.000019  -0.002083
     9  H    0.000297  -0.000274  -0.007225  -0.001044  -0.000354   0.000624
    10  O   -0.003269   0.004485  -0.000014  -0.000360   0.000000  -0.000002
    11  O    0.000010  -0.000010  -0.000023  -0.000150   0.000000  -0.000006
    12  C    0.303826   0.002344   0.007078  -0.000620  -0.000015   0.000028
    13  C    5.368009  -0.000368   0.000360   0.000394  -0.000007   0.000000
    14  C   -0.000368   5.371649  -0.001377  -0.000850  -0.000050   0.000019
    15  O    0.000360  -0.001377   8.280336   0.343993  -0.021903  -0.022344
    16  Si   0.000394  -0.000850   0.343993  11.521885   0.331291   0.321453
    17  C   -0.000007  -0.000050  -0.021903   0.331291   5.727102  -0.049743
    18  C    0.000000   0.000019  -0.022344   0.321453  -0.049743   5.795091
    19  C    0.000000   0.000046  -0.024361   0.321480  -0.054274  -0.057762
    20  H    0.000000   0.000000   0.000793  -0.010729  -0.000458   0.367102
    21  H   -0.000001   0.000002  -0.001846  -0.026960  -0.000367   0.366686
    22  H    0.000000   0.000002  -0.000816  -0.029731   0.003024   0.365524
    23  H    0.000000  -0.000001   0.000997  -0.012684  -0.000134   0.000624
    24  H    0.000000  -0.000019  -0.001518  -0.030040   0.002725  -0.001765
    25  H    0.000000   0.000097  -0.002027  -0.025569  -0.000628   0.002363
    26  H    0.000000  -0.000002   0.000878  -0.013133   0.363992  -0.000332
    27  H   -0.000003  -0.000002  -0.001206  -0.025859   0.369587   0.002598
    28  H   -0.000011  -0.000004  -0.001344  -0.027284   0.368107  -0.000533
    29  H   -0.000160   0.387057   0.000514   0.000297  -0.000001   0.000001
    30  H    0.000136   0.386719   0.005249  -0.000258   0.000134   0.000013
    31  H    0.000020   0.384411  -0.000691  -0.000769  -0.000002   0.000002
    32  H   -0.041370  -0.000900  -0.000174  -0.000406   0.000016   0.000000
    33  H   -0.051709   0.000133   0.001213   0.000138   0.000276  -0.000191
    34  H    0.393335   0.000006  -0.000004  -0.000008   0.000001   0.000000
    35  H    0.383472   0.000019  -0.000012  -0.000018   0.000000   0.000000
    36  H    0.385230  -0.000080  -0.000001  -0.000007   0.000000   0.000000
    37  C    0.000017  -0.000813  -0.033568  -0.005380  -0.000116  -0.002868
    38  C    0.000000   0.000627   0.003875   0.002552   0.000004  -0.000077
    39  C    0.000000   0.000458  -0.000063  -0.000218   0.000000  -0.000002
    40  H    0.000000  -0.000111  -0.002258   0.007819   0.000028   0.001295
    41  H    0.000000   0.001982   0.000178  -0.003847  -0.000047   0.000342
    42  H    0.000000  -0.000183  -0.000079  -0.000136   0.000000   0.000014
    43  H    0.000000   0.000016   0.000003   0.000007   0.000000   0.000000
    44  H    0.000000   0.000001  -0.000024  -0.000044   0.000000   0.000000
              19         20         21         22         23         24
     1  C    0.000002   0.000000  -0.000003  -0.000001   0.000000   0.000000
     2  C   -0.000156   0.000007  -0.000092  -0.000054   0.000007  -0.000014
     3  C   -0.000176  -0.000081  -0.000028   0.000328  -0.000053  -0.000098
     4  C   -0.000389   0.000300   0.000137  -0.000278   0.000004  -0.000052
     5  C   -0.000001   0.000001  -0.000073  -0.000133   0.000000   0.000003
     6  H    0.000000   0.000000   0.000000   0.000000   0.000000   0.000000
     7  H   -0.000001   0.000000   0.000001   0.000001   0.000000  -0.000001
     8  H   -0.000010   0.000113  -0.000813   0.001271  -0.000004  -0.000003
     9  H    0.000019   0.000080   0.003087  -0.000658   0.000002   0.000004
    10  O    0.000000   0.000000   0.000003  -0.000003   0.000000   0.000000
    11  O    0.000000   0.000000   0.000005  -0.000038   0.000000   0.000000
    12  C    0.000005  -0.000001  -0.000018  -0.000001   0.000000   0.000000
    13  C    0.000000   0.000000  -0.000001   0.000000   0.000000   0.000000
    14  C    0.000046   0.000000   0.000002   0.000002  -0.000001  -0.000019
    15  O   -0.024361   0.000793  -0.001846  -0.000816   0.000997  -0.001518
    16  Si   0.321480  -0.010729  -0.026960  -0.029731  -0.012684  -0.030040
    17  C   -0.054274  -0.000458  -0.000367   0.003024  -0.000134   0.002725
    18  C   -0.057762   0.367102   0.366686   0.365524   0.000624  -0.001765
    19  C    5.769117  -0.000117   0.002385  -0.001552   0.363742   0.371014
    20  H   -0.000117   0.434526  -0.020115  -0.019259   0.000458   0.000054
    21  H    0.002385  -0.020115   0.448253  -0.018382  -0.000028  -0.000052
    22  H   -0.001552  -0.019259  -0.018382   0.446195   0.000112   0.000666
    23  H    0.363742   0.000458  -0.000028   0.000112   0.454300  -0.022832
    24  H    0.371014   0.000054  -0.000052   0.000666  -0.022832   0.456152
    25  H    0.370990  -0.000046  -0.000096  -0.000037  -0.020991  -0.018520
    26  H    0.000680   0.000556  -0.000076  -0.000072   0.000803  -0.000085
    27  H   -0.000680  -0.000074  -0.000062  -0.000103  -0.000113  -0.000092
    28  H    0.002537  -0.000086   0.001402  -0.000107   0.000000  -0.000119
    29  H   -0.000006   0.000000   0.000000   0.000000   0.000000   0.000000
    30  H    0.000060  -0.000001   0.000000   0.000000  -0.000004   0.000001
    31  H    0.000190   0.000000   0.000000   0.000000  -0.000005  -0.000018
    32  H   -0.000003   0.000000   0.000000   0.000000   0.000000   0.000000
    33  H    0.000002   0.000002  -0.000096  -0.000006   0.000000   0.000000
    34  H    0.000000   0.000000   0.000000   0.000000   0.000000   0.000000
    35  H    0.000000   0.000000   0.000000   0.000000   0.000000   0.000000
    36  H    0.000000   0.000000  -0.000001   0.000000   0.000000   0.000000
    37  C   -0.001991   0.000090   0.000364   0.000029   0.000156   0.001018
    38  C    0.000151   0.000001   0.000007   0.000027  -0.000002   0.000141
    39  C    0.000006   0.000000   0.000000  -0.000008   0.000000   0.000023
    40  H   -0.000695   0.000021  -0.000178   0.004664  -0.000019   0.001846
    41  H   -0.001629  -0.000010  -0.000013   0.000070   0.000207  -0.000430
    42  H   -0.000008   0.000000  -0.000002  -0.000018   0.000000   0.000004
    43  H    0.000000   0.000000   0.000000   0.000000   0.000000  -0.000001
    44  H    0.000001   0.000000   0.000000   0.000000   0.000000   0.000013
              25         26         27         28         29         30
     1  C    0.000003  -0.000001   0.000000  -0.000009  -0.004011  -0.008512
     2  C    0.000057   0.000003   0.000051  -0.000008  -0.040025  -0.031701
     3  C    0.000433  -0.000073  -0.000111  -0.000030   0.008336  -0.010064
     4  C   -0.000033   0.000001  -0.000024   0.000008  -0.000235   0.000389
     5  C    0.000000   0.000000   0.000000  -0.000001   0.000007  -0.000049
     6  H    0.000000   0.000000   0.000001   0.000001   0.005124  -0.000715
     7  H   -0.000001   0.000000   0.000000   0.000000  -0.005496   0.006244
     8  H    0.000001  -0.000001  -0.000001   0.000001   0.000017  -0.000021
     9  H   -0.000005   0.000009  -0.000013  -0.000026   0.000012   0.000011
    10  O    0.000000   0.000000   0.000000   0.000001   0.000062  -0.000008
    11  O    0.000000   0.000000   0.000000   0.000000   0.000001  -0.000001
    12  C    0.000000   0.000001   0.000032   0.000157  -0.000967   0.003298
    13  C    0.000000   0.000000  -0.000003  -0.000011  -0.000160   0.000136
    14  C    0.000097  -0.000002  -0.000002  -0.000004   0.387057   0.386719
    15  O   -0.002027   0.000878  -0.001206  -0.001344   0.000514   0.005249
    16  Si  -0.025569  -0.013133  -0.025859  -0.027284   0.000297  -0.000258
    17  C   -0.000628   0.363992   0.369587   0.368107  -0.000001   0.000134
    18  C    0.002363  -0.000332   0.002598  -0.000533   0.000001   0.000013
    19  C    0.370990   0.000680  -0.000680   0.002537  -0.000006   0.000060
    20  H   -0.000046   0.000556  -0.000074  -0.000086   0.000000  -0.000001
    21  H   -0.000096  -0.000076  -0.000062   0.001402   0.000000   0.000000
    22  H   -0.000037  -0.000072  -0.000103  -0.000107   0.000000   0.000000
    23  H   -0.020991   0.000803  -0.000113   0.000000   0.000000  -0.000004
    24  H   -0.018520  -0.000085  -0.000092  -0.000119   0.000000   0.000001
    25  H    0.452944  -0.000034   0.001237  -0.000089  -0.000008   0.000100
    26  H   -0.000034   0.452731  -0.020803  -0.020756   0.000000  -0.000010
    27  H    0.001237  -0.020803   0.456348  -0.018164   0.000000   0.000141
    28  H   -0.000089  -0.020756  -0.018164   0.459041   0.000001  -0.000018
    29  H   -0.000008   0.000000   0.000000   0.000001   0.473370  -0.028693
    30  H    0.000100  -0.000010   0.000141  -0.000018  -0.028693   0.450399
    31  H    0.000211   0.000000  -0.000004  -0.000001  -0.025928  -0.024327
    32  H   -0.000003   0.000000   0.000034   0.000016   0.000324   0.001297
    33  H    0.000001   0.000005  -0.000006   0.000600   0.000053   0.000043
    34  H    0.000000   0.000000   0.000000   0.000008   0.000001   0.000017
    35  H    0.000000   0.000000   0.000000   0.000000  -0.000001   0.000023
    36  H    0.000000   0.000000   0.000000   0.000000  -0.000004  -0.000012
    37  C   -0.000130   0.000007  -0.000018  -0.000010  -0.000320   0.000388
    38  C   -0.000049   0.000000   0.000000   0.000001  -0.000016  -0.000041
    39  C    0.000003   0.000000   0.000000   0.000000   0.000041  -0.000018
    40  H   -0.000001   0.000010   0.000004   0.000001   0.000013  -0.000016
    41  H    0.000035   0.000000  -0.000014  -0.000003   0.000044   0.000065
    42  H    0.000000   0.000000   0.000000   0.000000   0.000010   0.000002
    43  H    0.000000   0.000000   0.000000   0.000000  -0.000002   0.000000
    44  H    0.000002   0.000000   0.000000   0.000000   0.000017   0.000003
              31         32         33         34         35         36
     1  C    0.007002  -0.034258  -0.033416   0.007978  -0.003917  -0.011464
     2  C   -0.032073  -0.004784  -0.004371  -0.000264  -0.000155   0.000223
     3  C   -0.006481   0.000457  -0.000369   0.000008   0.000016  -0.000068
     4  C    0.000083  -0.000218   0.000359   0.000029   0.000000   0.000368
     5  C   -0.000067   0.000383  -0.000322  -0.000045  -0.000033   0.000619
     6  H   -0.000182  -0.000142   0.006310  -0.000139   0.005999  -0.000194
     7  H   -0.004874  -0.000246  -0.000377   0.000022  -0.000041  -0.000023
     8  H   -0.000001  -0.000005   0.000722  -0.000001   0.000003  -0.000021
     9  H    0.000005   0.000142   0.002633  -0.000010  -0.000021   0.000149
    10  O   -0.000157   0.003447   0.000407  -0.000098  -0.000329   0.010502
    11  O    0.000000   0.000008  -0.000094   0.000000   0.000001  -0.000125
    12  C   -0.000123   0.386485   0.385974  -0.038000  -0.041883  -0.036515
    13  C    0.000020  -0.041370  -0.051709   0.393335   0.383472   0.385230
    14  C    0.384411  -0.000900   0.000133   0.000006   0.000019  -0.000080
    15  O   -0.000691  -0.000174   0.001213  -0.000004  -0.000012  -0.000001
    16  Si  -0.000769  -0.000406   0.000138  -0.000008  -0.000018  -0.000007
    17  C   -0.000002   0.000016   0.000276   0.000001   0.000000   0.000000
    18  C    0.000002   0.000000  -0.000191   0.000000   0.000000   0.000000
    19  C    0.000190  -0.000003   0.000002   0.000000   0.000000   0.000000
    20  H    0.000000   0.000000   0.000002   0.000000   0.000000   0.000000
    21  H    0.000000   0.000000  -0.000096   0.000000   0.000000  -0.000001
    22  H    0.000000   0.000000  -0.000006   0.000000   0.000000   0.000000
    23  H   -0.000005   0.000000   0.000000   0.000000   0.000000   0.000000
    24  H   -0.000018   0.000000   0.000000   0.000000   0.000000   0.000000
    25  H    0.000211  -0.000003   0.000001   0.000000   0.000000   0.000000
    26  H    0.000000   0.000000   0.000005   0.000000   0.000000   0.000000
    27  H   -0.000004   0.000034  -0.000006   0.000000   0.000000   0.000000
    28  H   -0.000001   0.000016   0.000600   0.000008   0.000000   0.000000
    29  H   -0.025928   0.000324   0.000053   0.000001  -0.000001  -0.000004
    30  H   -0.024327   0.001297   0.000043   0.000017   0.000023  -0.000012
    31  H    0.462077   0.000281  -0.000084  -0.000001  -0.000004   0.000004
    32  H    0.000281   0.475135  -0.023909  -0.005062  -0.004456   0.007286
    33  H   -0.000084  -0.023909   0.472845  -0.004952   0.007977  -0.005523
    34  H   -0.000001  -0.005062  -0.004952   0.474175  -0.027321  -0.026315
    35  H   -0.000004  -0.004456   0.007977  -0.027321   0.487121  -0.027604
    36  H    0.000004   0.007286  -0.005523  -0.026315  -0.027604   0.470887
    37  C    0.002156  -0.000056   0.000120   0.000000   0.000000  -0.000001
    38  C    0.000276   0.000004  -0.000008   0.000000   0.000000   0.000001
    39  C    0.000678   0.000000   0.000000   0.000000   0.000000   0.000000
    40  H    0.000128   0.000001   0.000004   0.000000   0.000000   0.000000
    41  H    0.002299  -0.000005  -0.000006   0.000000   0.000000   0.000000
    42  H    0.000029   0.000002   0.000008   0.000000   0.000000   0.000001
    43  H   -0.000010   0.000000   0.000000   0.000000   0.000000   0.000000
    44  H    0.000404   0.000000   0.000000   0.000000   0.000000   0.000000
              37         38         39         40         41         42
     1  C    0.005905   0.000664   0.000120  -0.000205  -0.000006  -0.000044
     2  C   -0.100637  -0.011889  -0.002542   0.006746  -0.009285   0.000246
     3  C    0.337813  -0.048426  -0.002239  -0.040310  -0.033511  -0.002483
     4  C   -0.063707  -0.005565  -0.000506  -0.007610   0.007393   0.000659
     5  C    0.001142  -0.001163   0.000107   0.000258  -0.000260   0.001487
     6  H   -0.000459   0.000037   0.000023   0.000008  -0.000001   0.000037
     7  H   -0.007934   0.008789   0.003416   0.000716  -0.000519  -0.000726
     8  H   -0.005639  -0.001999   0.000027   0.001734   0.000523   0.002536
     9  H    0.002762   0.000269  -0.000003  -0.000172  -0.000136   0.000332
    10  O    0.000291  -0.000338   0.000004  -0.000005   0.000012  -0.000295
    11  O   -0.000378  -0.000959   0.000002  -0.000076  -0.000004   0.005899
    12  C    0.000309  -0.000068  -0.000005   0.000006  -0.000003  -0.000013
    13  C    0.000017   0.000000   0.000000   0.000000   0.000000   0.000000
    14  C   -0.000813   0.000627   0.000458  -0.000111   0.001982  -0.000183
    15  O   -0.033568   0.003875  -0.000063  -0.002258   0.000178  -0.000079
    16  Si  -0.005380   0.002552  -0.000218   0.007819  -0.003847  -0.000136
    17  C   -0.000116   0.000004   0.000000   0.000028  -0.000047   0.000000
    18  C   -0.002868  -0.000077  -0.000002   0.001295   0.000342   0.000014
    19  C   -0.001991   0.000151   0.000006  -0.000695  -0.001629  -0.000008
    20  H    0.000090   0.000001   0.000000   0.000021  -0.000010   0.000000
    21  H    0.000364   0.000007   0.000000  -0.000178  -0.000013  -0.000002
    22  H    0.000029   0.000027  -0.000008   0.004664   0.000070  -0.000018
    23  H    0.000156  -0.000002   0.000000  -0.000019   0.000207   0.000000
    24  H    0.001018   0.000141   0.000023   0.001846  -0.000430   0.000004
    25  H   -0.000130  -0.000049   0.000003  -0.000001   0.000035   0.000000
    26  H    0.000007   0.000000   0.000000   0.000010   0.000000   0.000000
    27  H   -0.000018   0.000000   0.000000   0.000004  -0.000014   0.000000
    28  H   -0.000010   0.000001   0.000000   0.000001  -0.000003   0.000000
    29  H   -0.000320  -0.000016   0.000041   0.000013   0.000044   0.000010
    30  H    0.000388  -0.000041  -0.000018  -0.000016   0.000065   0.000002
    31  H    0.002156   0.000276   0.000678   0.000128   0.002299   0.000029
    32  H   -0.000056   0.000004   0.000000   0.000001  -0.000005   0.000002
    33  H    0.000120  -0.000008   0.000000   0.000004  -0.000006   0.000008
    34  H    0.000000   0.000000   0.000000   0.000000   0.000000   0.000000
    35  H    0.000000   0.000000   0.000000   0.000000   0.000000   0.000000
    36  H   -0.000001   0.000001   0.000000   0.000000   0.000000   0.000001
    37  C    5.447032   0.298472  -0.056143   0.391713   0.397898  -0.047551
    38  C    0.298472   5.093779   0.630540  -0.044625  -0.042764   0.391718
    39  C   -0.056143   0.630540   5.124553   0.001060  -0.000707  -0.034389
    40  H    0.391713  -0.044625   0.001060   0.453307  -0.028141  -0.002459
    41  H    0.397898  -0.042764  -0.000707  -0.028141   0.437553   0.004104
    42  H   -0.047551   0.391718  -0.034389  -0.002459   0.004104   0.458018
    43  H    0.006072  -0.037510   0.391116  -0.000405   0.000229  -0.008241
    44  H   -0.008373  -0.042185   0.390177   0.000207   0.003838   0.005812
              43         44
     1  C   -0.000002   0.000004
     2  C    0.000006   0.000229
     3  C   -0.000217  -0.000060
     4  C    0.000043  -0.000003
     5  C   -0.000023  -0.000006
     6  H   -0.000001   0.000001
     7  H    0.000090  -0.000123
     8  H   -0.000006   0.000005
     9  H   -0.000002   0.000003
    10  O    0.000003  -0.000002
    11  O   -0.000017   0.000001
    12  C    0.000000   0.000000
    13  C    0.000000   0.000000
    14  C    0.000016   0.000001
    15  O    0.000003  -0.000024
    16  Si   0.000007  -0.000044
    17  C    0.000000   0.000000
    18  C    0.000000   0.000000
    19  C    0.000000   0.000001
    20  H    0.000000   0.000000
    21  H    0.000000   0.000000
    22  H    0.000000   0.000000
    23  H    0.000000   0.000000
    24  H   -0.000001   0.000013
    25  H    0.000000   0.000002
    26  H    0.000000   0.000000
    27  H    0.000000   0.000000
    28  H    0.000000   0.000000
    29  H   -0.000002   0.000017
    30  H    0.000000   0.000003
    31  H   -0.000010   0.000404
    32  H    0.000000   0.000000
    33  H    0.000000   0.000000
    34  H    0.000000   0.000000
    35  H    0.000000   0.000000
    36  H    0.000000   0.000000
    37  C    0.006072  -0.008373
    38  C   -0.037510  -0.042185
    39  C    0.391116   0.390177
    40  H   -0.000405   0.000207
    41  H    0.000229   0.003838
    42  H   -0.008241   0.005812
    43  H    0.450140  -0.032476
    44  H   -0.032476   0.457623
 Mulliken charges:
               1
     1  C   -0.033211
     2  C   -0.337509
     3  C    0.243850
     4  C   -0.674613
     5  C    0.500116
     6  H    0.246947
     7  H    0.268713
     8  H    0.275898
     9  H    0.301232
    10  O   -0.317430
    11  O   -0.387674
    12  C   -0.447150
    13  C   -0.658939
    14  C   -0.659357
    15  O   -0.620848
    16  Si   1.417903
    17  C   -1.040407
    18  C   -1.076385
    19  C   -1.058617
    20  H    0.246870
    21  H    0.246968
    22  H    0.249344
    23  H    0.235458
    24  H    0.241993
    25  H    0.239791
    26  H    0.235701
    27  H    0.237318
    28  H    0.236720
    29  H    0.230568
    30  H    0.249733
    31  H    0.235545
    32  H    0.240677
    33  H    0.245611
    34  H    0.226638
    35  H    0.221166
    36  H    0.232687
    37  C   -0.557660
    38  C   -0.194250
    39  C   -0.445512
    40  H    0.255694
    41  H    0.264567
    42  H    0.225711
    43  H    0.231188
    44  H    0.224955
 Sum of Mulliken charges =   0.00000
 Mulliken charges with hydrogens summed into heavy atoms:
               1
     1  C    0.213737
     2  C   -0.068797
     3  C    0.243850
     4  C   -0.097483
     5  C    0.500116
    10  O   -0.317430
    11  O   -0.387674
    12  C    0.039137
    13  C    0.021552
    14  C    0.056489
    15  O   -0.620848
    16  Si   1.417903
    17  C   -0.330669
    18  C   -0.333203
    19  C   -0.341375
    37  C   -0.037398
    38  C    0.031460
    39  C    0.010630
 Electronic spatial extent (au):  <R**2>=           5200.3490
 Charge=              0.0000 electrons
 Dipole moment (field-independent basis, Debye):
    X=             -3.9895    Y=             -0.6728    Z=             -3.0934  Tot=              5.0929
 Quadrupole moment (field-independent basis, Debye-Ang):
   XX=           -130.1385   YY=           -116.3136   ZZ=           -123.0086
   XY=             -2.6347   XZ=            -14.1508   YZ=             -4.0616
 Traceless Quadrupole moment (field-independent basis, Debye-Ang):
   XX=             -6.9849   YY=              6.8400   ZZ=              0.1449
   XY=             -2.6347   XZ=            -14.1508   YZ=             -4.0616
 Octapole moment (field-independent basis, Debye-Ang**2):
  XXX=            -46.5626  YYY=              3.4535  ZZZ=            -23.9284  XYY=             16.7074
  XXY=            -11.6239  XXZ=            -30.3650  XZZ=            -15.8851  YZZ=             -9.5082
  YYZ=             -3.7537  XYZ=             -6.2742
 Hexadecapole moment (field-independent basis, Debye-Ang**3):
 XXXX=          -3517.6765 YYYY=          -2414.7588 ZZZZ=          -1276.3539 XXXY=              7.9414
 XXXZ=           -131.2507 YYYX=             47.9748 YYYZ=            -17.4990 ZZZX=            -36.1312
 ZZZY=            -23.9266 XXYY=           -997.6419 XXZZ=           -837.4033 YYZZ=           -586.5860
 XXYZ=            -12.9836 YYXZ=             -5.0873 ZZXY=            -26.4547
 N-N= 1.644822420867D+03 E-N=-5.784768759979D+03  KE= 1.060537043041D+03
 1\1\GINC-SWANNODE-0-12\SP\RmPW1PW91\6-311G(d)\C14H26O3Si1\ROOT\08-Mar-
 2018\0\\#mPW1PW91/6-311g(d) nmr=(giao) scrf=(solvent=chloroform)\\P_ng
 _4ginp005\\0,1\C,0,0.585264,1.838722,-0.073278\C,0,-0.612111,1.02291,0
 .442984\C,0,-1.451524,1.835812,1.487707\C,0,-1.388351,3.342304,1.16526
 6\C,0,-1.003412,3.662117,-0.250123\H,0,1.056146,1.249886,-0.871546\H,0
 ,-1.23967,0.863483,-0.443945\H,0,-2.358706,3.814891,1.361259\H,0,-0.67
 2028,3.87082,1.804542\O,0,0.085946,3.022607,-0.733865\O,0,-1.591505,4.
 515411,-0.906071\C,0,1.68309,2.196801,0.93861\C,0,2.855681,2.911823,0.
 276261\C,0,-0.19232,-0.372019,0.923067\O,0,-0.790092,1.601288,2.755239
 \Si,0,-1.33709,1.968223,4.29566\C,0,0.149153,2.032644,5.461844\C,0,-2.
 206091,3.626113,4.407828\C,0,-2.493563,0.631479,4.937347\H,0,-2.501931
 ,3.830853,5.441368\H,0,-1.546327,4.434895,4.080821\H,0,-3.108726,3.645
 943,3.791476\H,0,-2.736799,0.80942,5.989147\H,0,-3.429199,0.612745,4.3
 72303\H,0,-2.022701,-0.352617,4.856052\H,0,-0.174048,2.255687,6.482726
 \H,0,0.672511,1.072142,5.464316\H,0,0.850007,2.808793,5.140988\H,0,0.3
 37077,-0.905595,0.126061\H,0,0.471687,-0.336034,1.79151\H,0,-1.065889,
 -0.973413,1.192657\H,0,2.059026,1.290745,1.424788\H,0,1.303767,2.85547
 9,1.723912\H,0,3.635063,3.121062,1.015961\H,0,3.295721,2.294935,-0.513
 66\H,0,2.544609,3.865138,-0.162153\C,0,-2.927145,1.3086,1.492037\C,0,-
 3.681402,1.431875,0.193201\C,0,-4.171142,0.388221,-0.488355\H,0,-3.513
 996,1.858316,2.237087\H,0,-2.936798,0.267048,1.838261\H,0,-3.857344,2.
 434204,-0.195463\H,0,-4.718908,0.53911,-1.414382\H,0,-4.041684,-0.6339
 42,-0.145956\\Version=EM64L-G09RevD.01\State=1-A\HF=-1064.3745846\RMSD
 =3.370e-09\Dipole=0.1015982,-1.3459085,1.4809017\Quadrupole=5.080584,-
 1.3275378,-3.7530462,1.1182418,-1.4699239,11.2170213\PG=C01 [X(C14H26O
 3Si1)]\\@


 CHRISTMAS IS ON TOP OF A STEEP HILL.
 THE CLOSER YOU GET, THE STEEPER THE HILL IS.
          -- LINUS, OF PEANUTS
 Job cpu time:       0 days  1 hours 12 minutes 56.8 seconds.
 File lengths (MBytes):  RWF=    234 Int=      0 D2E=      0 Chk=     11 Scr=      1
 Normal termination of Gaussian 09 at Thu Mar  8 13:59:07 2018.
