 Entering Gaussian System, Link 0=/usr/local/shared/gaussian/em64t/09-D01/g09/g09
 Initial command:
 /usr/local/shared/gaussian/em64t/09-D01/g09/l1.exe "/scratch/ah809/P_ng_4ginp008/Gau-30477.inp" -scrdir="/scratch/ah809/P_ng_4ginp008/"
 Entering Link 1 = /usr/local/shared/gaussian/em64t/09-D01/g09/l1.exe PID=     30483.
  
 Copyright (c) 1988,1990,1992,1993,1995,1998,2003,2009,2013,
            Gaussian, Inc.  All Rights Reserved.
  
 This is part of the Gaussian(R) 09 program.  It is based on
 the Gaussian(R) 03 system (copyright 2003, Gaussian, Inc.),
 the Gaussian(R) 98 system (copyright 1998, Gaussian, Inc.),
 the Gaussian(R) 94 system (copyright 1995, Gaussian, Inc.),
 the Gaussian 92(TM) system (copyright 1992, Gaussian, Inc.),
 the Gaussian 90(TM) system (copyright 1990, Gaussian, Inc.),
 the Gaussian 88(TM) system (copyright 1988, Gaussian, Inc.),
 the Gaussian 86(TM) system (copyright 1986, Carnegie Mellon
 University), and the Gaussian 82(TM) system (copyright 1983,
 Carnegie Mellon University). Gaussian is a federally registered
 trademark of Gaussian, Inc.
  
 This software contains proprietary and confidential information,
 including trade secrets, belonging to Gaussian, Inc.
  
 This software is provided under written license and may be
 used, copied, transmitted, or stored only in accord with that
 written license.
  
 The following legend is applicable only to US Government
 contracts under FAR:
  
                    RESTRICTED RIGHTS LEGEND
  
 Use, reproduction and disclosure by the US Government is
 subject to restrictions as set forth in subparagraphs (a)
 and (c) of the Commercial Computer Software - Restricted
 Rights clause in FAR 52.227-19.
  
 Gaussian, Inc.
 340 Quinnipiac St., Bldg. 40, Wallingford CT 06492
  
  
 ---------------------------------------------------------------
 Warning -- This program may not be used in any manner that
 competes with the business of Gaussian, Inc. or will provide
 assistance to any competitor of Gaussian, Inc.  The licensee
 of this program is prohibited from giving any competitor of
 Gaussian, Inc. access to this program.  By using this program,
 the user acknowledges that Gaussian, Inc. is engaged in the
 business of creating and licensing software in the field of
 computational chemistry and represents and warrants to the
 licensee that it is not a competitor of Gaussian, Inc. and that
 it will not use this program in any manner prohibited above.
 ---------------------------------------------------------------
  

 Cite this work as:
 Gaussian 09, Revision D.01,
 M. J. Frisch, G. W. Trucks, H. B. Schlegel, G. E. Scuseria, 
 M. A. Robb, J. R. Cheeseman, G. Scalmani, V. Barone, B. Mennucci, 
 G. A. Petersson, H. Nakatsuji, M. Caricato, X. Li, H. P. Hratchian, 
 A. F. Izmaylov, J. Bloino, G. Zheng, J. L. Sonnenberg, M. Hada, 
 M. Ehara, K. Toyota, R. Fukuda, J. Hasegawa, M. Ishida, T. Nakajima, 
 Y. Honda, O. Kitao, H. Nakai, T. Vreven, J. A. Montgomery, Jr., 
 J. E. Peralta, F. Ogliaro, M. Bearpark, J. J. Heyd, E. Brothers, 
 K. N. Kudin, V. N. Staroverov, T. Keith, R. Kobayashi, J. Normand, 
 K. Raghavachari, A. Rendell, J. C. Burant, S. S. Iyengar, J. Tomasi, 
 M. Cossi, N. Rega, J. M. Millam, M. Klene, J. E. Knox, J. B. Cross, 
 V. Bakken, C. Adamo, J. Jaramillo, R. Gomperts, R. E. Stratmann, 
 O. Yazyev, A. J. Austin, R. Cammi, C. Pomelli, J. W. Ochterski, 
 R. L. Martin, K. Morokuma, V. G. Zakrzewski, G. A. Voth, 
 P. Salvador, J. J. Dannenberg, S. Dapprich, A. D. Daniels, 
 O. Farkas, J. B. Foresman, J. V. Ortiz, J. Cioslowski, 
 and D. J. Fox, Gaussian, Inc., Wallingford CT, 2013.
 
 ******************************************
 Gaussian 09:  EM64L-G09RevD.01 24-Apr-2013
                 8-Mar-2018 
 ******************************************
 %mem=6000MB
 %chk=P_ng_4ginp008.chk
 --------------------------------------------------------
 #mPW1PW91/6-311g(d) nmr=(giao) scrf=(solvent=chloroform)
 --------------------------------------------------------
 1/38=1/1;
 2/12=2,17=6,18=5,40=1/2;
 3/5=4,6=6,7=1,11=2,16=1,25=1,30=1,70=2201,72=7,74=-7/1,2,8,3;
 4//1;
 5/5=2,38=5,53=7/2;
 8/6=1,10=90,11=11/1;
 10/13=100,45=16/2;
 6/7=2,8=2,9=2,10=2,28=1/1;
 99/9=1/99;
 -------------
 P_ng_4ginp008
 -------------
 Symbolic Z-matrix:
 Charge =  0 Multiplicity = 1
 C                     0.24452   2.1603   -0.49695 
 C                    -0.03661   1.38428   0.79662 
 C                    -1.2097    2.0771    1.56675 
 C                    -0.77487   3.52036   1.85178 
 C                    -0.23912   4.26044   0.65652 
 H                    -0.6301    2.11653  -1.15578 
 H                    -0.33587   0.35813   0.55127 
 H                    -1.62271   4.09842   2.23784 
 H                     0.00169   3.55742   2.62371 
 O                     0.48716   3.56036  -0.24034 
 O                    -0.35648   5.47851   0.55952 
 C                     1.43078   1.65535  -1.33417 
 C                     1.28078   0.21666  -1.80144 
 C                     1.23059   1.2387    1.66754 
 O                    -1.3913    1.27929   2.75657 
 Si                   -2.12916   1.68735   4.20048 
 C                    -0.97209   2.70265   5.28549 
 C                    -3.73875   2.62888   4.01718 
 C                    -2.5204    0.09561   5.1462 
 H                    -4.17434   2.82939   5.00105 
 H                    -3.58544   3.59012   3.51968 
 H                    -4.46718   2.05127   3.4419 
 H                    -1.60402  -0.47352   5.32718 
 H                    -2.98327   0.32703   6.10982 
 H                    -3.20922  -0.52823   4.56928 
 H                    -0.82882   3.70599   4.87562 
 H                    -1.38636   2.80488   6.29297 
 H                     0.00472   2.21638   5.36268 
 H                     1.97213   0.6037    1.17232 
 H                     1.70739   2.20252   1.86947 
 H                     1.01006   0.7607    2.6268 
 H                     2.37236   1.77938  -0.78662 
 H                     1.53257   2.30168  -2.2161 
 H                     2.10816  -0.04987  -2.46692 
 H                     1.29202  -0.48456  -0.96237 
 H                     0.34565   0.07967  -2.35363 
 C                    -2.54534   2.08714   0.74163 
 C                    -3.04098   0.73693   0.28662 
 C                    -4.20564   0.19502   0.66538 
 H                    -2.44382   2.71774  -0.1492 
 H                    -3.33164   2.56912   1.33223 
 H                    -2.42036   0.18188  -0.41282 
 H                    -4.51095  -0.77908   0.29476 
 H                    -4.87936   0.69995   1.35 
 
                          Input orientation:                          
 ---------------------------------------------------------------------
 Center     Atomic      Atomic             Coordinates (Angstroms)
 Number     Number       Type             X           Y           Z
 ---------------------------------------------------------------------
      1          6           0        0.244517    2.160302   -0.496952
      2          6           0       -0.036613    1.384275    0.796616
      3          6           0       -1.209704    2.077099    1.566747
      4          6           0       -0.774866    3.520360    1.851784
      5          6           0       -0.239115    4.260440    0.656521
      6          1           0       -0.630101    2.116535   -1.155779
      7          1           0       -0.335872    0.358126    0.551270
      8          1           0       -1.622707    4.098423    2.237841
      9          1           0        0.001690    3.557418    2.623707
     10          8           0        0.487163    3.560355   -0.240344
     11          8           0       -0.356483    5.478512    0.559523
     12          6           0        1.430780    1.655354   -1.334169
     13          6           0        1.280782    0.216660   -1.801444
     14          6           0        1.230585    1.238698    1.667537
     15          8           0       -1.391299    1.279293    2.756573
     16         14           0       -2.129162    1.687352    4.200481
     17          6           0       -0.972094    2.702646    5.285485
     18          6           0       -3.738750    2.628881    4.017181
     19          6           0       -2.520396    0.095611    5.146199
     20          1           0       -4.174339    2.829393    5.001047
     21          1           0       -3.585439    3.590115    3.519679
     22          1           0       -4.467179    2.051268    3.441904
     23          1           0       -1.604024   -0.473519    5.327182
     24          1           0       -2.983274    0.327034    6.109825
     25          1           0       -3.209222   -0.528227    4.569275
     26          1           0       -0.828819    3.705987    4.875618
     27          1           0       -1.386363    2.804884    6.292967
     28          1           0        0.004720    2.216384    5.362685
     29          1           0        1.972132    0.603695    1.172323
     30          1           0        1.707393    2.202516    1.869473
     31          1           0        1.010063    0.760695    2.626796
     32          1           0        2.372361    1.779382   -0.786622
     33          1           0        1.532571    2.301682   -2.216098
     34          1           0        2.108155   -0.049868   -2.466922
     35          1           0        1.292017   -0.484562   -0.962372
     36          1           0        0.345651    0.079671   -2.353631
     37          6           0       -2.545337    2.087142    0.741625
     38          6           0       -3.040982    0.736932    0.286615
     39          6           0       -4.205641    0.195016    0.665382
     40          1           0       -2.443817    2.717742   -0.149197
     41          1           0       -3.331637    2.569121    1.332234
     42          1           0       -2.420356    0.181880   -0.412823
     43          1           0       -4.510950   -0.779079    0.294758
     44          1           0       -4.879363    0.699952    1.350001
 ---------------------------------------------------------------------
                    Distance matrix (angstroms):
                    1          2          3          4          5
     1  C    0.000000
     2  C    1.534461   0.000000
     3  C    2.525972   1.565008   0.000000
     4  C    2.899217   2.494245   1.534058   0.000000
     5  C    2.444377   2.886686   2.556860   1.504460   0.000000
     6  H    1.095867   2.168013   2.783818   3.322216   2.834366
     7  H    2.164130   1.096692   2.179368   3.447285   3.904932
     8  H    3.836917   3.458240   2.169491   1.096372   2.107403
     9  H    3.427741   2.839415   2.185403   1.095572   2.102867
    10  O    1.443909   2.466769   2.888769   2.443628   1.349802
    11  O    3.533816   4.113552   3.648575   2.383137   1.227552
    12  C    1.537246   2.601340   3.945293   4.300397   3.679384
    13  C    2.559939   3.138275   4.583499   5.337246   4.970295
    14  C    2.550823   1.544502   2.582264   3.043314   3.509002
    15  O    3.746665   2.384875   1.444007   2.494196   3.824263
    16  Si   5.284308   4.007108   2.816711   3.272677   4.769980
    17  C    5.933874   4.771077   3.778463   3.535231   4.938754
    18  C    6.038491   5.062302   3.564430   3.777339   5.118932
    19  C    6.614593   5.171915   4.296124   5.062504   6.535079
    20  H    7.085334   6.073416   4.598850   4.685265   6.033970
    21  H    5.731165   4.987481   3.427430   3.268954   4.454761
    22  H    6.142195   5.203109   3.758726   4.280174   5.524068
    23  H    6.653920   5.141420   4.560922   5.358821   6.788845
    24  H    7.578193   6.166908   5.181490   5.762405   7.262273
    25  H    6.695010   5.287350   4.449828   5.449945   6.860212
    26  H    5.692601   4.759852   3.707692   3.030007   4.296039
    27  H    7.012721   5.835223   4.785189   4.539817   5.933325
    28  H    5.864810   4.641455   3.987903   3.825511   5.136692
    29  H    2.862544   2.187583   3.528537   4.063816   4.304352
    30  H    2.782401   2.205016   2.935443   2.810451   3.081428
    31  H    3.507529   2.198623   2.789980   3.376739   4.206025
    32  H    2.180993   2.909623   4.296297   4.460631   3.880479
    33  H    2.152797   3.518582   4.677652   4.832919   3.902249
    34  H    3.498397   4.160225   5.639385   6.301552   5.817588
    35  H    2.882564   2.889956   4.383738   5.313274   5.242158
    36  H    2.790432   3.431060   4.666713   5.547920   5.184766
    37  C    3.053311   2.605905   1.569982   2.533996   3.170036
    38  C    3.665305   3.115347   2.605449   3.915675   4.516901
    39  C    5.001727   4.337321   3.651073   4.922975   5.679884
    40  H    2.767456   2.909867   2.208602   2.726448   2.808880
    41  H    4.037565   3.542306   2.190818   2.777025   3.588989
    42  H    3.320057   2.930994   2.996036   4.356780   4.747206
    43  H    5.646347   4.995163   4.546860   5.904899   6.616358
    44  H    5.638972   4.922069   3.925546   5.005335   5.889812
                    6          7          8          9         10
     6  H    0.000000
     7  H    2.468317   0.000000
     8  H    4.053369   4.300033   0.000000
     9  H    4.093876   3.826802   1.755063   0.000000
    10  O    2.042282   3.399751   3.298859   2.904906   0.000000
    11  O    3.784180   5.120434   2.514900   2.842489   2.242956
    12  C    2.119373   2.891149   5.296378   4.617892   2.390794
    13  C    2.770899   2.858119   6.309846   5.690229   3.774541
    14  C    3.493403   2.115478   4.079773   2.793010   3.095606
    15  O    4.072701   2.612630   2.875783   2.673560   4.208726
    16  Si   5.578611   4.277788   3.149876   3.244055   5.483997
    17  C    6.476910   5.321122   3.414619   2.960397   5.779263
    18  C    6.056873   5.361758   3.131013   4.098151   6.070626
    19  C    6.882752   5.094549   5.028608   4.970713   7.075642
    20  H    7.139769   6.375069   3.969455   4.860142   7.052382
    21  H    5.724104   5.460484   2.398709   3.697476   5.542991
    22  H    5.988833   5.318853   3.705622   4.786306   6.354667
    23  H    7.048808   5.010906   5.517883   5.112294   7.186275
    24  H    7.844026   6.156885   5.573758   5.612344   7.926093
    25  H    6.813433   5.018578   5.418349   5.548665   7.315203
    26  H    6.240480   5.491007   2.782469   2.404770   5.284514
    27  H    7.518615   6.329079   4.262998   3.994555   6.838493
    28  H    6.550064   5.169027   3.994401   3.049653   5.782123
    29  H    3.805307   2.402685   5.125556   3.835836   3.597582
    30  H    3.824058   3.051945   3.849640   2.305223   2.789985
    31  H    4.340082   2.506274   4.268863   2.972959   4.041288
    32  H    3.043801   3.338330   5.521403   4.517946   2.650331
    33  H    2.415721   3.863524   5.746445   5.229166   2.565295
    34  H    3.729671   3.905024   7.298112   6.585151   4.540812
    35  H    3.240008   2.377237   6.304025   5.555404   4.186940
    36  H    2.556513   2.996742   6.411429   6.081688   4.074453
    37  C    2.696133   2.812022   2.671172   3.491603   3.511506
    38  C    3.129881   2.744295   4.137440   4.761827   4.549419
    39  C    4.448972   3.874886   4.937688   5.730830   5.845362
    40  H    2.159681   3.240659   2.877230   3.791379   3.051057
    41  H    3.700451   3.804341   2.465630   3.708868   4.247208
    42  H    2.738592   2.303391   4.795995   5.145977   4.460662
    43  H    5.054664   4.334779   5.992290   6.677809   6.640644
    44  H    5.132433   4.625811   4.789955   5.797596   6.285754
                   11         12         13         14         15
    11  O    0.000000
    12  C    4.625680   0.000000
    13  C    5.995155   1.520094   0.000000
    14  C    4.660741   3.037091   3.616754   0.000000
    15  O    4.850908   4.983946   5.389316   2.839353   0.000000
    16  Si   5.547239   6.580772   7.057886   4.231430   1.672072
    17  C    5.515354   7.119722   7.840927   4.481572   2.932075
    18  C    5.613869   7.503915   8.054248   5.669896   2.986812
    19  C    7.395657   7.748533   7.920439   5.241908   2.895907
    20  H    6.428141   8.539947   9.102670   6.546434   3.896894
    21  H    4.770191   7.243314   7.960820   5.670421   3.276657
    22  H    6.078811   7.599575   7.993594   6.022721   3.244482
    23  H    7.727458   7.623368   7.721124   4.935554   3.118595
    24  H    8.015211   8.755647   8.987910   6.190449   3.832164
    25  H    7.765124   7.819738   7.829499   5.590527   3.139723
    26  H    4.689736   6.918984   7.823617   4.540974   3.270410
    27  H    6.409471   8.211633   8.906854   5.540393   3.851433
    28  H    5.817415   6.869953   7.546653   4.014067   3.101424
    29  H    5.437078   2.771561   3.077507   1.094695   3.778750
    30  H    4.087506   3.261782   4.195385   1.094107   3.352787
    31  H    5.329058   4.082482   4.469740   1.094210   2.460147
    32  H    4.789808   1.096251   2.159516   2.760233   5.193213
    33  H    4.622212   1.098135   2.140713   4.037790   5.858477
    34  H    6.767333   2.156328   1.094735   4.418629   6.426332
    35  H    6.371183   2.176403   1.093563   3.144808   4.913443
    36  H    6.174702   2.167853   1.094599   4.277411   5.529039
    37  C    4.040499   4.506092   4.960352   3.979291   2.458544
    38  C    5.455602   4.844285   4.827869   4.517189   3.019321
    39  C    6.537779   6.156300   6.015525   5.625490   3.670049
    40  H    3.532860   4.188714   4.781001   4.357674   3.408875
    41  H    4.232396   5.534012   6.052142   4.764066   2.730807
    42  H    5.767091   4.225074   3.953214   4.332913   3.508325
    43  H    7.515793   6.624502   6.239368   6.238683   4.475450
    44  H    6.626910   6.923544   6.936322   6.141868   3.805348
                   16         17         18         19         20
    16  Si   0.000000
    17  C    1.883311   0.000000
    18  C    1.873726   3.044408   0.000000
    19  C    1.892376   3.035337   3.029278   0.000000
    20  H    2.475462   3.217350   1.094502   3.198462   0.000000
    21  H    2.490932   3.276468   1.093153   3.998930   1.766339
    22  H    2.484793   4.004835   1.093247   3.243329   1.766964
    23  H    2.492908   3.238688   3.987235   1.093801   4.197870
    24  H    2.495109   3.219925   3.201313   1.093795   2.984933
    25  H    2.492254   3.994526   3.248467   1.093845   3.520155
    26  H    2.494311   1.093257   3.219436   3.996181   3.460730
    27  H    2.485785   1.094117   3.277789   3.152978   3.072860
    28  H    2.486774   1.093881   3.999263   3.304657   4.239233
    29  H    5.211973   5.476510   6.693935   6.019356   7.575748
    30  H    4.518644   4.370231   5.869831   5.748929   6.692869
    31  H    3.631792   3.843013   5.289094   4.387923   6.065856
    32  H    6.718882   6.993445   7.819453   7.872263   8.801075
    33  H    7.413378   7.918830   8.169924   8.688884   9.215991
    34  H    8.088699   8.784309   9.132666   8.910907  10.174991
    35  H    6.563286   7.370225   7.732923   7.223969   8.742180
    36  H    7.187887   8.183675   7.985490   8.028819   9.059943
    37  C    3.506668   4.847742   3.528028   4.833952   4.620309
    38  C    4.129535   5.756130   4.240693   4.929286   5.280981
    39  C    4.362999   6.171660   4.168482   4.788283   5.073353
    40  H    4.481117   5.630450   4.363881   5.909539   5.434352
    41  H    3.232693   4.605808   2.716294   4.617650   3.773338
    42  H    4.861462   6.397065   5.229810   5.560591   6.276605
    43  H    5.197198   7.039408   5.105577   5.316377   5.939994
    44  H    4.082132   5.896233   3.483621   4.510108   4.285057
                   21         22         23         24         25
    21  H    0.000000
    22  H    1.775265   0.000000
    23  H    4.868901   4.257520   0.000000
    24  H    4.209413   3.506103   1.776442   0.000000
    25  H    4.266607   3.083377   1.775972   1.776462   0.000000
    26  H    3.074240   4.246327   4.274707   4.193121   4.867107
    27  H    3.625417   4.264730   3.424623   2.953541   4.171757
    28  H    4.262986   4.869758   3.134469   3.613305   4.300211
    29  H    6.731670   6.979340   5.586782   7.000823   6.298171
    30  H    5.715127   6.373441   5.484742   6.595481   6.238509
    31  H    5.470054   5.685962   3.955859   5.316605   4.820468
    32  H    7.570889   8.045723   7.633204   8.851730   8.072469
    33  H    7.794435   8.250618   8.627922   9.675386   8.748387
    34  H    9.028061   9.086474   8.643368   9.981247   8.832406
    35  H    7.776976   7.680913   6.924281   8.303781   7.131772
    36  H    7.891290   7.787089   7.943686   9.097968   7.805978
    37  C    3.325406   3.314554   5.335765   5.666334   4.683140
    38  C    4.346239   3.703696   5.379345   5.837904   4.468793
    39  C    4.478656   3.350097   5.380309   5.581538   4.093447
    40  H    3.940176   4.175427   6.393757   6.721745   5.778074
    41  H    2.427295   2.451191   5.310547   5.289016   4.481851
    42  H    5.332734   4.747949   5.834690   6.548502   5.093904
    43  H    5.508770   4.232884   5.819697   6.113288   4.475368
    44  H    3.838591   2.524284   5.284207   5.137134   3.829036
                   26         27         28         29         30
    26  H    0.000000
    27  H    1.769667   0.000000
    28  H    1.775088   1.773942   0.000000
    29  H    5.584258   6.507359   4.902103   0.000000
    30  H    4.210666   5.431526   3.886106   1.764181   0.000000
    31  H    4.136838   4.833464   3.258041   1.750919   1.771625
    32  H    6.783828   8.080856   6.603838   2.319459   2.770571
    33  H    7.605305   9.009860   7.731724   3.815465   4.090512
    34  H    8.754722   9.853777   8.418021   3.699966   4.902873
    35  H    7.492715   8.404411   6.997041   2.490739   3.925847
    36  H    8.172612   9.229860   8.013945   3.918213   4.918884
    37  C    4.759936   5.716273   5.279554   4.774269   4.401257
    38  C    5.896431   6.564332   6.101767   5.092499   5.215404
    39  C    6.438628   6.813916   6.624026   6.211995   6.359549
    40  H    5.369694   6.528957   6.052069   5.071116   4.644678
    41  H    4.484655   5.333718   5.244067   5.658484   5.080831
    42  H    6.551330   7.274401   6.586098   4.688770   5.131292
    43  H    7.393117   7.654172   7.419431   6.686743   7.073714
    44  H    6.154115   6.408175   6.500420   6.854474   6.775906
                   31         32         33         34         35
    31  H    0.000000
    32  H    3.813791   0.000000
    33  H    5.108941   1.738231   0.000000
    34  H    5.273403   2.497873   2.433926   0.000000
    35  H    3.809500   2.514652   3.064776   1.765987   0.000000
    36  H    5.070492   3.074425   2.522901   1.770886   1.774703
    37  C    4.237240   5.158877   5.042171   6.042894   4.923673
    38  C    4.678459   5.616300   5.443290   5.891912   4.671926
    39  C    5.600956   6.920162   6.757814   7.052327   5.773704
    40  H    4.844116   4.947969   4.500761   5.809644   4.987230
    41  H    4.878181   6.135864   6.026832   7.133304   5.997364
    42  H    4.619749   5.065755   4.834356   4.977996   3.811543
    43  H    6.187963   7.422606   7.233231   7.209104   5.944875
    44  H    6.026544   7.636611   7.509694   7.997283   6.695974
                   36         37         38         39         40
    36  H    0.000000
    37  C    4.687042   0.000000
    38  C    4.344212   1.508564   0.000000
    39  C    5.462783   2.518445   1.339242   0.000000
    40  H    4.427198   1.096142   2.114272   3.183035   0.000000
    41  H    5.771084   1.095167   2.129487   2.616285   1.733479
    42  H    3.380529   2.231231   1.087416   2.085651   2.549636
    43  H    5.598034   3.504076   2.111673   1.086019   4.086305
    44  H    6.434470   2.782462   2.124100   1.085157   3.500136
                   41         42         43         44
    41  H    0.000000
    42  H    3.094281   0.000000
    43  H    3.698321   2.407218   0.000000
    44  H    2.426842   3.069636   1.853860   0.000000
 Stoichiometry    C14H26O3Si
 Framework group  C1[X(C14H26O3Si)]
 Deg. of freedom   126
 Full point group                 C1      NOp   1
 Largest Abelian subgroup         C1      NOp   1
 Largest concise Abelian subgroup C1      NOp   1
                         Standard orientation:                         
 ---------------------------------------------------------------------
 Center     Atomic      Atomic             Coordinates (Angstroms)
 Number     Number       Type             X           Y           Z
 ---------------------------------------------------------------------
      1          6           0       -2.538190    0.071511   -0.042315
      2          6           0       -1.245150    0.368375    0.728718
      3          6           0       -0.016261    0.018754   -0.175076
      4          6           0       -0.131780   -1.466148   -0.542576
      5          6           0       -1.479555   -1.877689   -1.069394
      6          1           0       -2.604351    0.719836   -0.923350
      7          1           0       -1.203995    1.435284    0.979208
      8          1           0        0.608199   -1.721403   -1.310240
      9          1           0        0.082821   -2.107719    0.319172
     10          8           0       -2.568679   -1.285051   -0.535957
     11          8           0       -1.592886   -2.801794   -1.869438
     12          6           0       -3.845103    0.284008    0.738676
     13          6           0       -4.037745    1.708904    1.231878
     14          6           0       -1.202327   -0.367619    2.085908
     15          8           0        1.137588    0.328467    0.636015
     16         14           0        2.711882   -0.214525    0.485743
     17          6           0        2.901044   -1.942518    1.210393
     18          6           0        3.366017   -0.239494   -1.269915
     19          6           0        3.840367    0.930861    1.483590
     20          1           0        4.408091   -0.573998   -1.281053
     21          1           0        2.791277   -0.922212   -1.901225
     22          1           0        3.331805    0.758474   -1.714977
     23          1           0        3.534404    0.944866    2.533634
     24          1           0        4.878074    0.589726    1.427210
     25          1           0        3.786766    1.950771    1.091917
     26          1           0        2.401442   -2.687438    0.585330
     27          1           0        3.958922   -2.213234    1.278951
     28          1           0        2.468951   -1.985627    2.214392
     29          1           0       -1.970469    0.019694    2.762889
     30          1           0       -1.371933   -1.443235    1.979354
     31          1           0       -0.244610   -0.223084    2.595007
     32          1           0       -3.914681   -0.419358    1.576650
     33          1           0       -4.686762    0.022935    0.083427
     34          1           0       -5.023997    1.815549    1.694888
     35          1           0       -3.289326    1.982531    1.980795
     36          1           0       -3.974534    2.421922    0.403774
     37          6           0        0.027319    0.879837   -1.487127
     38          6           0        0.027185    2.374969   -1.286259
     39          6           0        1.023664    3.186033   -1.664114
     40          1           0       -0.820347    0.635120   -2.137589
     41          1           0        0.911591    0.604080   -2.071432
     42          1           0       -0.851169    2.821456   -0.826242
     43          1           0        0.959655    4.257580   -1.499414
     44          1           0        1.922743    2.809149   -2.140748
 ---------------------------------------------------------------------
 Rotational constants (GHZ):      0.5104820      0.2617308      0.2358887
 Standard basis: 6-311G(d) (5D, 7F)
 There are   428 symmetry adapted cartesian basis functions of A   symmetry.
 There are   410 symmetry adapted basis functions of A   symmetry.
   410 basis functions,   720 primitive gaussians,   428 cartesian basis functions
    74 alpha electrons       74 beta electrons
       nuclear repulsion energy      1631.1174486656 Hartrees.
 NAtoms=   44 NActive=   44 NUniq=   44 SFac= 1.00D+00 NAtFMM=   60 NAOKFM=F Big=F
 Integral buffers will be    131072 words long.
 Raffenetti 2 integral format.
 Two-electron integral symmetry is turned on.
 ------------------------------------------------------------------------------
 Polarizable Continuum Model (PCM)
 =================================
 Model                : PCM (using non-symmetric T matrix).
 Atomic radii         : UFF (Universal Force Field).
 Polarization charges : Total charges.
 Charge compensation  : None.
 Solution method      : On-the-fly selection.
 Cavity type          : Scaled VdW (van der Waals Surface) (Alpha=1.100).
 Cavity algorithm     : GePol (No added spheres)
                        Default sphere list used, NSphG=   44.
                        Lebedev-Laikov grids with approx.  5.0 points / Ang**2.
                        Smoothing algorithm: Karplus/York (Gamma=1.0000).
                        Polarization charges: spherical gaussians, with
                                              point-specific exponents (IZeta= 3).
                        Self-potential: point-specific (ISelfS= 7).
                        Self-field    : sphere-specific E.n sum rule (ISelfD= 2).
 Solvent              : Chloroform, Eps=   4.711300 Eps(inf)=   2.090627
 ------------------------------------------------------------------------------
 One-electron integrals computed using PRISM.
 NBasis=   410 RedAO= T EigKep=  1.15D-03  NBF=   410
 NBsUse=   410 1.00D-06 EigRej= -1.00D+00 NBFU=   410
 ExpMin= 6.54D-02 ExpMax= 6.94D+04 ExpMxC= 2.33D+03 IAcc=2 IRadAn=         4 AccDes= 0.00D+00
 Harris functional with IExCor=  908 and IRadAn=       4 diagonalized for initial guess.
 HarFok:  IExCor=  908 AccDes= 0.00D+00 IRadAn=         4 IDoV= 1 UseB2=F ITyADJ=14
 ICtDFT=  3500011 ScaDFX=  1.000000  1.000000  1.000000  1.000000
 FoFCou: FMM=F IPFlag=           0 FMFlag=      100000 FMFlg1=           0
         NFxFlg=           0 DoJE=T BraDBF=F KetDBF=T FulRan=T
         wScrn=  0.000000 ICntrl=     500 IOpCl=  0 I1Cent=   200000004 NGrid=           0
         NMat0=    1 NMatS0=      1 NMatT0=    0 NMatD0=    1 NMtDS0=    0 NMtDT0=    0
 Petite list used in FoFCou.
 Requested convergence on RMS density matrix=1.00D-08 within 128 cycles.
 Requested convergence on MAX density matrix=1.00D-06.
 Requested convergence on             energy=1.00D-06.
 No special actions if energy rises.
 Inv3:  Mode=1 IEnd=    24333312.
 Iteration    1 A*A^-1 deviation from unit magnitude is 8.88D-15 for   2781.
 Iteration    1 A*A^-1 deviation from orthogonality  is 8.10D-15 for   2781   2098.
 Iteration    1 A^-1*A deviation from unit magnitude is 8.88D-15 for   2781.
 Iteration    1 A^-1*A deviation from orthogonality  is 6.36D-12 for   2825   2457.
 Error on total polarization charges =  0.01116
 SCF Done:  E(RmPW1PW91) =  -1064.37543470     A.U. after   13 cycles
            NFock= 13  Conv=0.31D-08     -V/T= 2.0036
 DoSCS=F DFT=T ScalE2(SS,OS)=  1.000000  1.000000
 Range of M.O.s used for correlation:     1   410
 NBasis=   410 NAE=    74 NBE=    74 NFC=     0 NFV=     0
 NROrb=    410 NOA=    74 NOB=    74 NVA=   336 NVB=   336
 NEqPCM:  Using equilibrium solvation (IEInf=0, Eps=   4.7113, EpsInf=   2.0906)
          Differentiating once with respect to magnetic field using GIAOs.
          Electric field/nuclear overlap derivatives assumed to be zero.
 FoFJK:  IHMeth= 1 ICntrl=    6127 DoSepK=F KAlg= 0 I1Cent=   0 FoldK=F
 IRaf=         1 NMat=   1 IRICut=       1 DoRegI=T DoRafI=F ISym2E= 0.
          There are     3 degrees of freedom in the 1st order CPHF.  IDoFFX=0 NUNeed=     3.
      3 vectors produced by pass  0 Test12= 8.29D-13 3.33D-08 XBig12= 3.79D+01 1.13D+00.
 AX will form     3 AO Fock derivatives at one time.
      3 vectors produced by pass  1 Test12= 8.29D-13 3.33D-08 XBig12= 7.99D-02 1.03D-01.
      3 vectors produced by pass  2 Test12= 8.29D-13 3.33D-08 XBig12= 8.45D-04 1.10D-02.
      3 vectors produced by pass  3 Test12= 8.29D-13 3.33D-08 XBig12= 5.94D-06 9.58D-04.
      3 vectors produced by pass  4 Test12= 8.29D-13 3.33D-08 XBig12= 3.68D-08 6.03D-05.
      3 vectors produced by pass  5 Test12= 8.29D-13 3.33D-08 XBig12= 8.28D-11 1.53D-06.
      1 vectors produced by pass  6 Test12= 8.29D-13 3.33D-08 XBig12= 2.59D-13 8.54D-08.
 InvSVY:  IOpt=1 It=  1 EMax= 8.88D-16
 Solved reduced A of dimension    19 with     3 vectors.
 Calculating GIAO nuclear magnetic shielding tensors.
 SCF GIAO Magnetic shielding tensor (ppm):
      1  C    Isotropic =   106.4367   Anisotropy =    58.3829
   XX=    97.8300   YX=   -11.0619   ZX=    -4.8679
   XY=     0.5041   YY=   137.1415   ZY=    20.7810
   XZ=    -4.5209   YZ=    21.1691   ZZ=    84.3387
   Eigenvalues:    76.6676    97.2839   145.3586
      2  C    Isotropic =   148.5833   Anisotropy =    22.3545
   XX=   163.0633   YX=    -3.7183   ZX=     4.1073
   XY=    -2.9909   YY=   136.7887   ZY=    -4.2175
   XZ=    -5.7121   YZ=   -10.9730   ZZ=   145.8979
   Eigenvalues:   132.1314   150.1322   163.4863
      3  C    Isotropic =   104.1622   Anisotropy =    52.1812
   XX=   129.3265   YX=     4.6914   ZX=    20.8130
   XY=    -0.3675   YY=    81.7618   ZY=    -0.5741
   XZ=    17.0605   YZ=     0.1348   ZZ=   101.3983
   Eigenvalues:    81.5697    91.9672   138.9497
      4  C    Isotropic =   144.1054   Anisotropy =    34.9502
   XX=   153.7898   YX=    12.0853   ZX=     5.4983
   XY=    11.0322   YY=   146.4853   ZY=     3.6768
   XZ=    12.9152   YZ=    16.6733   ZZ=   132.0411
   Eigenvalues:   126.3541   138.5566   167.4056
      5  C    Isotropic =     8.9300   Anisotropy =    95.1565
   XX=   -78.0201   YX=    23.5750   ZX=    10.1125
   XY=    30.9222   YY=    47.7445   ZY=   -20.3959
   XZ=    23.2348   YZ=   -18.1945   ZZ=    57.0655
   Eigenvalues:   -86.5580    40.9802    72.3676
      6  H    Isotropic =    27.8173   Anisotropy =     3.0651
   XX=    28.8758   YX=    -1.1553   ZX=    -0.0766
   XY=    -1.5478   YY=    27.2496   ZY=    -2.0609
   XZ=    -0.2525   YZ=    -1.1447   ZZ=    27.3265
   Eigenvalues:    25.3352    28.2561    29.8607
      7  H    Isotropic =    29.8042   Anisotropy =     4.6608
   XX=    29.4541   YX=    -1.1680   ZX=    -2.1822
   XY=    -0.1500   YY=    32.7853   ZY=    -0.1375
   XZ=    -2.7194   YZ=    -0.8863   ZZ=    27.1732
   Eigenvalues:    25.5252    30.9759    32.9114
      8  H    Isotropic =    29.5661   Anisotropy =     3.8353
   XX=    31.3646   YX=     0.0150   ZX=    -1.9605
   XY=     1.2408   YY=    29.5068   ZY=     3.2002
   XZ=    -0.7360   YZ=     3.0229   ZZ=    27.8270
   Eigenvalues:    25.1062    31.4693    32.1230
      9  H    Isotropic =    29.2039   Anisotropy =     4.4199
   XX=    29.9342   YX=    -1.2684   ZX=     1.1508
   XY=    -1.6630   YY=    30.4991   ZY=    -1.4848
   XZ=     0.9952   YZ=    -0.5816   ZZ=    27.1784
   Eigenvalues:    26.7247    28.7365    32.1505
     10  O    Isotropic =   112.2776   Anisotropy =   186.5221
   XX=   199.8295   YX=   -44.3505   ZX=   -44.8655
   XY=   -63.1220   YY=     8.8363   ZY=  -117.2795
   XZ=   -64.3921   YZ=  -170.0976   ZZ=   128.1670
   Eigenvalues:  -105.5577   205.7648   236.6257
     11  O    Isotropic =  -134.5757   Anisotropy =   599.0408
   XX=  -276.2063   YX=    87.8119   ZX=    40.1774
   XY=    86.0132   YY=   -99.9720   ZY=  -299.7271
   XZ=    41.1784   YZ=  -350.4488   ZZ=   -27.5488
   Eigenvalues:  -442.0972  -226.4148   264.7849
     12  C    Isotropic =   159.7616   Anisotropy =    26.3007
   XX=   167.9282   YX=    -4.7764   ZX=   -12.9916
   XY=    -1.4397   YY=   161.3205   ZY=     7.3922
   XZ=   -11.3658   YZ=    10.6590   ZZ=   150.0362
   Eigenvalues:   141.4700   160.5195   177.2954
     13  C    Isotropic =   178.2620   Anisotropy =    15.7451
   XX=   175.2787   YX=    -2.4260   ZX=    -2.3260
   XY=    -4.6425   YY=   186.4626   ZY=     4.2720
   XZ=    -2.2642   YZ=     3.6866   ZZ=   173.0448
   Eigenvalues:   171.3883   174.6390   188.7588
     14  C    Isotropic =   179.7234   Anisotropy =    14.7023
   XX=   177.6428   YX=    -2.0710   ZX=    -2.2682
   XY=    -1.4348   YY=   178.4584   ZY=    -8.8431
   XZ=    -2.3099   YZ=    -7.9580   ZZ=   183.0690
   Eigenvalues:   170.8996   178.7456   189.5249
     15  O    Isotropic =   244.2056   Anisotropy =    23.1925
   XX=   234.8433   YX=    11.6544   ZX=    -2.5302
   XY=     3.9495   YY=   250.8370   ZY=     7.2229
   XZ=   -11.6312   YZ=    13.7588   ZZ=   246.9365
   Eigenvalues:   225.9244   247.0251   259.6673
     16  Si   Isotropic =   334.9444   Anisotropy =    53.8371
   XX=   366.4476   YX=   -18.8670   ZX=    -8.5058
   XY=    -8.8857   YY=   324.2618   ZY=     7.2885
   XZ=     4.2789   YZ=     3.8464   ZZ=   314.1239
   Eigenvalues:   311.3505   322.6470   370.8359
     17  C    Isotropic =   184.6846   Anisotropy =    11.4146
   XX=   187.5384   YX=    -2.5179   ZX=     0.1677
   XY=    -0.1170   YY=   189.4465   ZY=    -6.0052
   XZ=    -0.4360   YZ=    -6.3643   ZZ=   177.0689
   Eigenvalues:   174.4779   187.2816   192.2943
     18  C    Isotropic =   184.4261   Anisotropy =     6.3779
   XX=   187.0711   YX=    -2.4232   ZX=    -2.1547
   XY=    -4.9559   YY=   178.0655   ZY=    -1.8086
   XZ=     1.4548   YZ=    -1.7839   ZZ=   188.1417
   Eigenvalues:   176.4665   188.1338   188.6780
     19  C    Isotropic =   186.5222   Anisotropy =    12.9649
   XX=   189.2013   YX=     1.1658   ZX=     3.9662
   XY=    -0.8551   YY=   188.6901   ZY=     8.2638
   XZ=     2.6178   YZ=     8.9476   ZZ=   181.6751
   Eigenvalues:   175.3759   189.0252   195.1654
     20  H    Isotropic =    32.1224   Anisotropy =    10.4694
   XX=    37.9250   YX=    -2.5959   ZX=    -2.3967
   XY=    -2.8525   YY=    28.7409   ZY=     0.5405
   XZ=    -1.5493   YZ=     0.2699   ZZ=    29.7014
   Eigenvalues:    27.9808    29.2844    39.1020
     21  H    Isotropic =    31.9174   Anisotropy =     6.1727
   XX=    32.3889   YX=     1.5784   ZX=     0.2703
   XY=     1.6144   YY=    30.5145   ZY=     3.1559
   XZ=     1.4585   YZ=     3.6637   ZZ=    32.8490
   Eigenvalues:    27.9232    31.7965    36.0326
     22  H    Isotropic =    31.7823   Anisotropy =     7.7225
   XX=    30.4378   YX=    -0.1135   ZX=    -1.3770
   XY=    -0.0839   YY=    34.0289   ZY=    -3.5756
   XZ=    -0.7179   YZ=    -4.7164   ZZ=    30.8803
   Eigenvalues:    27.7077    30.7087    36.9306
     23  H    Isotropic =    32.0294   Anisotropy =     8.6692
   XX=    29.9366   YX=     1.0198   ZX=    -0.0021
   XY=     0.6489   YY=    28.7311   ZY=     2.3229
   XZ=    -0.3398   YZ=     1.4323   ZZ=    37.4205
   Eigenvalues:    27.9733    30.3060    37.8089
     24  H    Isotropic =    32.4059   Anisotropy =     9.8108
   XX=    38.6820   YX=    -0.7854   ZX=     1.3733
   XY=    -1.2810   YY=    29.4269   ZY=     0.5671
   XZ=     1.1925   YZ=     0.5589   ZZ=    29.1088
   Eigenvalues:    28.4186    29.8527    38.9464
     25  H    Isotropic =    32.0464   Anisotropy =     8.3128
   XX=    29.7714   YX=     1.5203   ZX=     1.3652
   XY=     1.3125   YY=    37.1856   ZY=    -1.7772
   XZ=     1.4309   YZ=    -0.9112   ZZ=    29.1820
   Eigenvalues:    27.6538    30.8970    37.5882
     26  H    Isotropic =    32.0818   Anisotropy =     6.2488
   XX=    31.6875   YX=     0.6798   ZX=     2.6587
   XY=     1.5473   YY=    34.7333   ZY=     2.3474
   XZ=     2.4522   YZ=     1.3852   ZZ=    29.8247
   Eigenvalues:    27.9067    32.0911    36.2477
     27  H    Isotropic =    32.3211   Anisotropy =    10.4158
   XX=    37.1678   YX=    -3.8103   ZX=     1.6535
   XY=    -3.5294   YY=    31.2794   ZY=    -1.1744
   XZ=     1.4604   YZ=    -1.1232   ZZ=    28.5162
   Eigenvalues:    28.0909    29.6074    39.2650
     28  H    Isotropic =    31.9767   Anisotropy =     7.5527
   XX=    30.7047   YX=    -0.6860   ZX=    -1.8267
   XY=    -0.1902   YY=    29.5508   ZY=    -2.9762
   XZ=    -1.8481   YZ=    -2.1612   ZZ=    35.6747
   Eigenvalues:    28.1398    30.7785    37.0119
     29  H    Isotropic =    31.1162   Anisotropy =     9.7123
   XX=    32.1752   YX=    -2.9327   ZX=    -3.2519
   XY=    -2.6283   YY=    26.3741   ZY=     0.4264
   XZ=    -3.7356   YZ=     0.5762   ZZ=    34.7991
   Eigenvalues:    25.1709    30.5866    37.5910
     30  H    Isotropic =    31.3956   Anisotropy =     7.4651
   XX=    28.7446   YX=     0.6022   ZX=    -0.8493
   XY=     0.6019   YY=    35.0235   ZY=    -2.7694
   XZ=    -0.9878   YZ=    -2.6006   ZZ=    30.4189
   Eigenvalues:    28.2660    29.5486    36.3724
     31  H    Isotropic =    30.6894   Anisotropy =     8.0331
   XX=    34.4338   YX=     0.5835   ZX=     2.0736
   XY=     0.1664   YY=    24.2892   ZY=    -0.5938
   XZ=     2.0946   YZ=    -0.7742   ZZ=    33.3453
   Eigenvalues:    24.2090    31.8144    36.0448
     32  H    Isotropic =    30.2771   Anisotropy =     5.6781
   XX=    31.2124   YX=     0.6752   ZX=    -2.4566
   XY=     0.4938   YY=    30.3312   ZY=    -3.2834
   XZ=    -1.8412   YZ=    -2.5857   ZZ=    29.2877
   Eigenvalues:    26.4473    30.3216    34.0625
     33  H    Isotropic =    30.1136   Anisotropy =     9.2436
   XX=    34.7503   YX=     0.8805   ZX=     3.0760
   XY=     1.2057   YY=    27.9350   ZY=     3.4587
   XZ=     2.6222   YZ=     2.6798   ZZ=    27.6554
   Eigenvalues:    24.5248    29.5400    36.2760
     34  H    Isotropic =    30.8905   Anisotropy =    11.9497
   XX=    35.2959   YX=    -2.8393   ZX=    -4.2029
   XY=    -3.5869   YY=    29.1901   ZY=     2.2913
   XZ=    -4.4780   YZ=     1.9456   ZZ=    28.1857
   Eigenvalues:    25.9797    27.8349    38.8570
     35  H    Isotropic =    31.2078   Anisotropy =     6.0062
   XX=    31.8331   YX=    -1.1916   ZX=     2.0267
   XY=    -0.6461   YY=    30.7446   ZY=     4.4705
   XZ=     1.9897   YZ=     3.7032   ZZ=    31.0458
   Eigenvalues:    26.0640    32.3475    35.2120
     36  H    Isotropic =    31.2758   Anisotropy =     8.7677
   XX=    29.0417   YX=    -2.2766   ZX=    -0.5154
   XY=    -2.4924   YY=    34.8216   ZY=    -3.9196
   XZ=    -0.3098   YZ=    -3.0725   ZZ=    29.9643
   Eigenvalues:    26.9053    29.8012    37.1210
     37  C    Isotropic =   142.6627   Anisotropy =    34.6316
   XX=   123.2449   YX=    -1.5686   ZX=    -0.4795
   XY=    -2.0894   YY=   161.5098   ZY=    -8.7819
   XZ=    -3.9264   YZ=   -10.7197   ZZ=   143.2333
   Eigenvalues:   122.7648   139.4728   165.7504
     38  C    Isotropic =    46.2802   Anisotropy =   176.9561
   XX=    29.2532   YX=    49.4178   ZX=    68.4185
   XY=    51.2227   YY=   -16.9381   ZY=   -46.6657
   XZ=    69.0666   YZ=   -46.6268   ZZ=   126.5255
   Eigenvalues:   -78.7249    53.3147   164.2509
     39  C    Isotropic =    63.0026   Anisotropy =   143.1992
   XX=    59.9711   YX=    49.5979   ZX=    53.6773
   XY=    51.8557   YY=     1.6192   ZY=   -45.2203
   XZ=    52.0764   YZ=   -46.5745   ZZ=   127.4175
   Eigenvalues:   -52.5803    83.1194   158.4687
     40  H    Isotropic =    29.6898   Anisotropy =     4.9084
   XX=    29.8593   YX=     1.4390   ZX=     2.0236
   XY=     1.3937   YY=    27.7064   ZY=    -1.3468
   XZ=     2.2133   YZ=    -1.0585   ZZ=    31.5036
   Eigenvalues:    26.1733    29.9340    32.9621
     41  H    Isotropic =    29.6330   Anisotropy =     4.3607
   XX=    30.9323   YX=    -0.4751   ZX=    -1.4301
   XY=    -1.8777   YY=    28.5134   ZY=    -1.0467
   XZ=    -2.9640   YZ=    -1.1325   ZZ=    29.4532
   Eigenvalues:    26.5836    29.7752    32.5401
     42  H    Isotropic =    25.8856   Anisotropy =     7.2744
   XX=    25.4742   YX=     0.7550   ZX=    -0.8477
   XY=     2.4890   YY=    28.6046   ZY=    -3.2355
   XZ=    -0.7403   YZ=    -3.0495   ZZ=    23.5779
   Eigenvalues:    22.0672    24.8543    30.7351
     43  H    Isotropic =    26.6509   Anisotropy =     6.6055
   XX=    26.1199   YX=     3.6406   ZX=     0.0640
   XY=     1.7712   YY=    28.6830   ZY=    -1.6686
   XZ=    -0.3021   YZ=    -2.7786   ZZ=    25.1497
   Eigenvalues:    23.4150    25.4830    31.0545
     44  H    Isotropic =    26.6579   Anisotropy =     6.5904
   XX=    26.8300   YX=     1.1207   ZX=    -0.5914
   XY=     3.7409   YY=    27.1660   ZY=    -3.8131
   XZ=    -0.2062   YZ=    -2.8040   ZZ=    25.9776
   Eigenvalues:    22.7546    26.1675    31.0515
 End of Minotr F.D. properties file   721 does not exist.
 End of Minotr F.D. properties file   722 does not exist.
 End of Minotr F.D. properties file   788 does not exist.

 **********************************************************************

            Population analysis using the SCF density.

 **********************************************************************

 Orbital symmetries:
       Occupied  (A) (A) (A) (A) (A) (A) (A) (A) (A) (A) (A) (A)
                 (A) (A) (A) (A) (A) (A) (A) (A) (A) (A) (A) (A)
                 (A) (A) (A) (A) (A) (A) (A) (A) (A) (A) (A) (A)
                 (A) (A) (A) (A) (A) (A) (A) (A) (A) (A) (A) (A)
                 (A) (A) (A) (A) (A) (A) (A) (A) (A) (A) (A) (A)
                 (A) (A) (A) (A) (A) (A) (A) (A) (A) (A) (A) (A)
                 (A) (A)
       Virtual   (A) (A) (A) (A) (A) (A) (A) (A) (A) (A) (A) (A)
                 (A) (A) (A) (A) (A) (A) (A) (A) (A) (A) (A) (A)
                 (A) (A) (A) (A) (A) (A) (A) (A) (A) (A) (A) (A)
                 (A) (A) (A) (A) (A) (A) (A) (A) (A) (A) (A) (A)
                 (A) (A) (A) (A) (A) (A) (A) (A) (A) (A) (A) (A)
                 (A) (A) (A) (A) (A) (A) (A) (A) (A) (A) (A) (A)
                 (A) (A) (A) (A) (A) (A) (A) (A) (A) (A) (A) (A)
                 (A) (A) (A) (A) (A) (A) (A) (A) (A) (A) (A) (A)
                 (A) (A) (A) (A) (A) (A) (A) (A) (A) (A) (A) (A)
                 (A) (A) (A) (A) (A) (A) (A) (A) (A) (A) (A) (A)
                 (A) (A) (A) (A) (A) (A) (A) (A) (A) (A) (A) (A)
                 (A) (A) (A) (A) (A) (A) (A) (A) (A) (A) (A) (A)
                 (A) (A) (A) (A) (A) (A) (A) (A) (A) (A) (A) (A)
                 (A) (A) (A) (A) (A) (A) (A) (A) (A) (A) (A) (A)
                 (A) (A) (A) (A) (A) (A) (A) (A) (A) (A) (A) (A)
                 (A) (A) (A) (A) (A) (A) (A) (A) (A) (A) (A) (A)
                 (A) (A) (A) (A) (A) (A) (A) (A) (A) (A) (A) (A)
                 (A) (A) (A) (A) (A) (A) (A) (A) (A) (A) (A) (A)
                 (A) (A) (A) (A) (A) (A) (A) (A) (A) (A) (A) (A)
                 (A) (A) (A) (A) (A) (A) (A) (A) (A) (A) (A) (A)
                 (A) (A) (A) (A) (A) (A) (A) (A) (A) (A) (A) (A)
                 (A) (A) (A) (A) (A) (A) (A) (A) (A) (A) (A) (A)
                 (A) (A) (A) (A) (A) (A) (A) (A) (A) (A) (A) (A)
                 (A) (A) (A) (A) (A) (A) (A) (A) (A) (A) (A) (A)
                 (A) (A) (A) (A) (A) (A) (A) (A) (A) (A) (A) (A)
                 (A) (A) (A) (A) (A) (A) (A) (A) (A) (A) (A) (A)
                 (A) (A) (A) (A) (A) (A) (A) (A) (A) (A) (A) (A)
                 (A) (A) (A) (A) (A) (A) (A) (A) (A) (A) (A) (A)
 The electronic state is 1-A.
 Alpha  occ. eigenvalues --  -66.26945 -19.26377 -19.21256 -19.20294 -10.37634
 Alpha  occ. eigenvalues --  -10.32345 -10.30744 -10.25533 -10.25362 -10.24718
 Alpha  occ. eigenvalues --  -10.24506 -10.23845 -10.23080 -10.22743 -10.22415
 Alpha  occ. eigenvalues --  -10.20856 -10.20482 -10.20455  -5.32772  -3.66618
 Alpha  occ. eigenvalues --   -3.66387  -3.66354  -1.13649  -1.05101  -1.04095
 Alpha  occ. eigenvalues --   -0.86072  -0.83384  -0.81113  -0.77654  -0.74050
 Alpha  occ. eigenvalues --   -0.73546  -0.71877  -0.70291  -0.69877  -0.66999
 Alpha  occ. eigenvalues --   -0.63568  -0.62286  -0.58625  -0.55191  -0.53601
 Alpha  occ. eigenvalues --   -0.53590  -0.51421  -0.50753  -0.48323  -0.47412
 Alpha  occ. eigenvalues --   -0.47001  -0.45768  -0.45025  -0.44318  -0.43429
 Alpha  occ. eigenvalues --   -0.42768  -0.42668  -0.42179  -0.41919  -0.40893
 Alpha  occ. eigenvalues --   -0.40760  -0.40157  -0.39845  -0.39630  -0.39414
 Alpha  occ. eigenvalues --   -0.38763  -0.37793  -0.37135  -0.37024  -0.36437
 Alpha  occ. eigenvalues --   -0.35479  -0.34399  -0.33451  -0.31881  -0.31354
 Alpha  occ. eigenvalues --   -0.30388  -0.29615  -0.28433  -0.27484
 Alpha virt. eigenvalues --   -0.00895   0.00957   0.03933   0.04799   0.06203
 Alpha virt. eigenvalues --    0.06500   0.07337   0.07652   0.08326   0.08718
 Alpha virt. eigenvalues --    0.09023   0.09907   0.10990   0.11127   0.11823
 Alpha virt. eigenvalues --    0.12152   0.12364   0.13294   0.13480   0.13773
 Alpha virt. eigenvalues --    0.14159   0.14697   0.15007   0.15719   0.15831
 Alpha virt. eigenvalues --    0.16541   0.16987   0.17286   0.17932   0.18739
 Alpha virt. eigenvalues --    0.18988   0.19655   0.20076   0.20544   0.21670
 Alpha virt. eigenvalues --    0.21966   0.22519   0.23568   0.24312   0.25193
 Alpha virt. eigenvalues --    0.25322   0.26109   0.26362   0.26605   0.27805
 Alpha virt. eigenvalues --    0.29480   0.30024   0.31229   0.32114   0.32196
 Alpha virt. eigenvalues --    0.32490   0.33701   0.34405   0.35510   0.35888
 Alpha virt. eigenvalues --    0.36662   0.37359   0.39009   0.39536   0.40228
 Alpha virt. eigenvalues --    0.41462   0.42392   0.42646   0.43669   0.44691
 Alpha virt. eigenvalues --    0.45008   0.45609   0.46301   0.47750   0.47902
 Alpha virt. eigenvalues --    0.48807   0.50032   0.50799   0.51637   0.52466
 Alpha virt. eigenvalues --    0.52812   0.53280   0.54729   0.55232   0.55771
 Alpha virt. eigenvalues --    0.56304   0.57449   0.57818   0.58214   0.58839
 Alpha virt. eigenvalues --    0.59817   0.60036   0.60202   0.60990   0.61052
 Alpha virt. eigenvalues --    0.61218   0.61774   0.62264   0.62927   0.63371
 Alpha virt. eigenvalues --    0.63684   0.63939   0.64267   0.65014   0.65878
 Alpha virt. eigenvalues --    0.66789   0.67305   0.67616   0.68032   0.68505
 Alpha virt. eigenvalues --    0.68875   0.69225   0.69775   0.70818   0.71235
 Alpha virt. eigenvalues --    0.71770   0.73005   0.73762   0.74729   0.75158
 Alpha virt. eigenvalues --    0.76454   0.76698   0.78173   0.80021   0.81245
 Alpha virt. eigenvalues --    0.82464   0.84029   0.85648   0.87252   0.88386
 Alpha virt. eigenvalues --    0.89825   0.90848   0.91473   0.92514   0.94161
 Alpha virt. eigenvalues --    0.96007   0.96605   0.99601   1.00031   1.00768
 Alpha virt. eigenvalues --    1.01694   1.03448   1.05405   1.05432   1.08160
 Alpha virt. eigenvalues --    1.12614   1.14858   1.15646   1.17911   1.18757
 Alpha virt. eigenvalues --    1.19943   1.23095   1.23403   1.24973   1.27237
 Alpha virt. eigenvalues --    1.29151   1.29616   1.31343   1.32416   1.32909
 Alpha virt. eigenvalues --    1.33172   1.35417   1.38076   1.38843   1.41465
 Alpha virt. eigenvalues --    1.43180   1.43931   1.45128   1.47134   1.48194
 Alpha virt. eigenvalues --    1.51299   1.51892   1.52641   1.53280   1.53710
 Alpha virt. eigenvalues --    1.54693   1.55205   1.56278   1.57524   1.58039
 Alpha virt. eigenvalues --    1.58267   1.59355   1.59640   1.59714   1.60259
 Alpha virt. eigenvalues --    1.61406   1.61864   1.62509   1.63560   1.64131
 Alpha virt. eigenvalues --    1.64554   1.65301   1.66763   1.67989   1.68595
 Alpha virt. eigenvalues --    1.70375   1.71791   1.72521   1.73106   1.73390
 Alpha virt. eigenvalues --    1.74466   1.76246   1.78276   1.79295   1.80981
 Alpha virt. eigenvalues --    1.81244   1.82795   1.84633   1.85332   1.87866
 Alpha virt. eigenvalues --    1.89750   1.92369   1.94750   1.94918   1.97040
 Alpha virt. eigenvalues --    2.00738   2.02869   2.05908   2.09320   2.11988
 Alpha virt. eigenvalues --    2.13146   2.15736   2.19484   2.22770   2.23422
 Alpha virt. eigenvalues --    2.27742   2.28813   2.33982   2.36634   2.41050
 Alpha virt. eigenvalues --    2.41819   2.42075   2.42453   2.42717   2.43852
 Alpha virt. eigenvalues --    2.44773   2.45699   2.46059   2.46849   2.48232
 Alpha virt. eigenvalues --    2.48632   2.49484   2.50280   2.51044   2.52610
 Alpha virt. eigenvalues --    2.52646   2.54042   2.55832   2.57991   2.58914
 Alpha virt. eigenvalues --    2.62382   2.64225   2.65946   2.72030   2.79626
 Alpha virt. eigenvalues --    2.82377   2.87014   2.88407   2.89392   2.91388
 Alpha virt. eigenvalues --    2.91755   2.92837   2.94867   2.95915   2.96511
 Alpha virt. eigenvalues --    2.99769   3.00995   3.01669   3.05428   3.07837
 Alpha virt. eigenvalues --    3.09725   3.11011   3.11668   3.13638   3.14662
 Alpha virt. eigenvalues --    3.15748   3.17675   3.17977   3.19324   3.20775
 Alpha virt. eigenvalues --    3.22601   3.23209   3.23652   3.23743   3.25613
 Alpha virt. eigenvalues --    3.27061   3.28259   3.29535   3.29971   3.33469
 Alpha virt. eigenvalues --    3.33938   3.34945   3.37253   3.39917   3.42074
 Alpha virt. eigenvalues --    3.43317   3.51035   3.56401   3.60610   3.61072
 Alpha virt. eigenvalues --    3.77003   3.89118   3.90420   3.98755   4.00970
 Alpha virt. eigenvalues --    4.08210   4.11635   4.18644   4.21097   4.24456
 Alpha virt. eigenvalues --    4.94586   4.99250   5.01793   5.10456   5.13811
 Alpha virt. eigenvalues --    5.23599   5.50596   5.53729   5.77263   5.85281
 Alpha virt. eigenvalues --   11.52377  11.54553  11.59080  23.41291  23.48967
 Alpha virt. eigenvalues --   23.54691  23.55400  23.57691  23.60803  23.70058
 Alpha virt. eigenvalues --   23.75627  23.77469  23.77784  23.80607  23.85775
 Alpha virt. eigenvalues --   23.88514  24.27072  49.98435  50.06103  50.11690
 Alpha virt. eigenvalues --  141.29125
          Condensed to atoms (all electrons):
               1          2          3          4          5          6
     1  C    5.234272   0.225490  -0.056821  -0.004091  -0.053710   0.401352
     2  C    0.225490   5.636923   0.296605  -0.082828  -0.017975  -0.054402
     3  C   -0.056821   0.296605   5.188045   0.224651  -0.011407  -0.015455
     4  C   -0.004091  -0.082828   0.224651   5.905369   0.230045   0.003001
     5  C   -0.053710  -0.017975  -0.011407   0.230045   4.407316  -0.002960
     6  H    0.401352  -0.054402  -0.015455   0.003001  -0.002960   0.479188
     7  H   -0.024951   0.388930  -0.040157   0.008152   0.000246  -0.001519
     8  H   -0.001004   0.007546  -0.030422   0.350659  -0.024955   0.000162
     9  H    0.001969  -0.007898  -0.028473   0.371618  -0.021668  -0.000250
    10  O    0.219215  -0.040444   0.002443  -0.108286   0.346239  -0.033337
    11  O    0.001017  -0.000288   0.003491  -0.104672   0.664357   0.000345
    12  C    0.343179  -0.053497   0.009143  -0.001774   0.003541  -0.050209
    13  C   -0.074918   0.002341  -0.000495   0.000115  -0.000148   0.002228
    14  C   -0.081852   0.292274  -0.079376  -0.008417   0.000571   0.007601
    15  O    0.003664  -0.062894   0.225909  -0.023200   0.001722  -0.000030
    16  Si   0.000369   0.001691  -0.050598  -0.009430   0.000900  -0.000133
    17  C    0.000001  -0.000061  -0.001335   0.001492   0.000137   0.000001
    18  C    0.000009  -0.000268  -0.000732  -0.002069   0.000090   0.000001
    19  C   -0.000001  -0.000037   0.002465  -0.000132   0.000001   0.000000
    20  H    0.000000   0.000007  -0.000062   0.000060   0.000000   0.000000
    21  H    0.000007  -0.000080   0.000282   0.001348  -0.000056  -0.000003
    22  H    0.000003  -0.000092  -0.000434   0.000298   0.000004   0.000000
    23  H   -0.000001   0.000043  -0.000152  -0.000040   0.000000   0.000000
    24  H    0.000000   0.000002  -0.000077  -0.000004   0.000000   0.000000
    25  H    0.000000  -0.000013  -0.000110  -0.000017   0.000000   0.000000
    26  H    0.000000   0.000018  -0.000182   0.001526   0.000071   0.000001
    27  H    0.000000  -0.000001  -0.000024   0.000136  -0.000001   0.000000
    28  H   -0.000001   0.000081   0.000461  -0.000041  -0.000030   0.000000
    29  H   -0.007155  -0.032205   0.007237  -0.000569  -0.000005  -0.000310
    30  H   -0.006147  -0.041026  -0.011504   0.006814  -0.001669   0.000669
    31  H    0.006301  -0.033711  -0.006024  -0.000009  -0.000100  -0.000131
    32  H   -0.038448  -0.013094  -0.000497   0.000149  -0.000063   0.007435
    33  H   -0.046839   0.009329  -0.000140   0.000272  -0.000233  -0.007869
    34  H    0.007635  -0.000095   0.000010  -0.000001   0.000005  -0.000329
    35  H   -0.009723   0.004842   0.000186  -0.000012  -0.000003  -0.000443
    36  H   -0.001550  -0.002885  -0.000148  -0.000004  -0.000004   0.005420
    37  C    0.000275  -0.092572   0.307264  -0.106772   0.001930   0.004890
    38  C   -0.002072  -0.005487  -0.066417   0.008220  -0.000147  -0.001027
    39  C    0.000035   0.000236  -0.001603  -0.000177   0.000008   0.000082
    40  H    0.000912  -0.003754  -0.037524  -0.002999   0.003857  -0.000031
    41  H   -0.000310   0.007054  -0.029941  -0.006022  -0.000180   0.000408
    42  H   -0.000738   0.004066  -0.004441  -0.000323  -0.000031   0.001555
    43  H    0.000003   0.000003  -0.000241   0.000016   0.000000  -0.000004
    44  H   -0.000009   0.000036   0.000167  -0.000091   0.000000   0.000002
               7          8          9         10         11         12
     1  C   -0.024951  -0.001004   0.001969   0.219215   0.001017   0.343179
     2  C    0.388930   0.007546  -0.007898  -0.040444  -0.000288  -0.053497
     3  C   -0.040157  -0.030422  -0.028473   0.002443   0.003491   0.009143
     4  C    0.008152   0.350659   0.371618  -0.108286  -0.104672  -0.001774
     5  C    0.000246  -0.024955  -0.021668   0.346239   0.664357   0.003541
     6  H   -0.001519   0.000162  -0.000250  -0.033337   0.000345  -0.050209
     7  H    0.445085  -0.000048  -0.000104   0.002922   0.000021  -0.007133
     8  H   -0.000048   0.426762  -0.016234   0.005684   0.015175   0.000047
     9  H   -0.000104  -0.016234   0.393381  -0.000633   0.001355   0.000014
    10  O    0.002922   0.005684  -0.000633   8.022473  -0.069697  -0.048346
    11  O    0.000021   0.015175   0.001355  -0.069697   7.869811  -0.000159
    12  C   -0.007133   0.000047   0.000014  -0.048346  -0.000159   5.320284
    13  C    0.001467  -0.000002  -0.000011   0.003778   0.000001   0.283430
    14  C   -0.038130   0.000124   0.000376  -0.000189  -0.000001  -0.009272
    15  O    0.004416  -0.001525  -0.001495  -0.000024  -0.000017  -0.000060
    16  Si  -0.000045  -0.001743  -0.006021  -0.000456  -0.001061   0.000034
    17  C    0.000037  -0.000300  -0.001472  -0.000001   0.000007   0.000000
    18  C    0.000006   0.002811   0.000235   0.000000   0.000009   0.000000
    19  C   -0.000043  -0.000017  -0.000052   0.000000   0.000000   0.000000
    20  H    0.000000   0.000042   0.000000   0.000000   0.000000   0.000000
    21  H   -0.000001   0.003627  -0.000151  -0.000004  -0.000110   0.000000
    22  H    0.000002  -0.000214   0.000009   0.000000   0.000000   0.000000
    23  H   -0.000011  -0.000008  -0.000015   0.000000   0.000000   0.000000
    24  H    0.000000  -0.000003   0.000000   0.000000   0.000000   0.000000
    25  H   -0.000004  -0.000009  -0.000008   0.000000   0.000000   0.000000
    26  H    0.000007   0.000149   0.000714   0.000000  -0.000005   0.000000
    27  H    0.000000   0.000008   0.000306   0.000000   0.000000   0.000000
    28  H    0.000007   0.000061  -0.000055   0.000000   0.000002   0.000000
    29  H   -0.006493   0.000014   0.000202  -0.000077   0.000001   0.001993
    30  H    0.006682   0.000497  -0.000358   0.009066  -0.000252  -0.003819
    31  H   -0.002081  -0.000125   0.000380  -0.000127   0.000002   0.000111
    32  H    0.000133   0.000002  -0.000073   0.003038  -0.000016   0.389964
    33  H   -0.000262  -0.000011   0.000013   0.004115  -0.000029   0.403316
    34  H    0.000238   0.000000   0.000000  -0.000120   0.000000  -0.032984
    35  H   -0.000221   0.000000   0.000000  -0.000047   0.000000  -0.034881
    36  H   -0.000296   0.000000   0.000000  -0.000045   0.000000  -0.044242
    37  C   -0.008989  -0.007046   0.005658  -0.003506   0.000032  -0.000464
    38  C    0.005871   0.000161  -0.000177   0.000265  -0.000004   0.000037
    39  C    0.000827   0.000010   0.000003   0.000001   0.000000   0.000003
    40  H    0.000802   0.000131   0.000076  -0.000120   0.000294   0.000614
    41  H   -0.000189   0.002440  -0.000075  -0.000132   0.000047  -0.000001
    42  H    0.000180  -0.000011   0.000010  -0.000003   0.000000  -0.000172
    43  H    0.000047   0.000002  -0.000001   0.000000   0.000000   0.000000
    44  H   -0.000039  -0.000023   0.000003   0.000000   0.000000   0.000000
              13         14         15         16         17         18
     1  C   -0.074918  -0.081852   0.003664   0.000369   0.000001   0.000009
     2  C    0.002341   0.292274  -0.062894   0.001691  -0.000061  -0.000268
     3  C   -0.000495  -0.079376   0.225909  -0.050598  -0.001335  -0.000732
     4  C    0.000115  -0.008417  -0.023200  -0.009430   0.001492  -0.002069
     5  C   -0.000148   0.000571   0.001722   0.000900   0.000137   0.000090
     6  H    0.002228   0.007601  -0.000030  -0.000133   0.000001   0.000001
     7  H    0.001467  -0.038130   0.004416  -0.000045   0.000037   0.000006
     8  H   -0.000002   0.000124  -0.001525  -0.001743  -0.000300   0.002811
     9  H   -0.000011   0.000376  -0.001495  -0.006021  -0.001472   0.000235
    10  O    0.003778  -0.000189  -0.000024  -0.000456  -0.000001   0.000000
    11  O    0.000001  -0.000001  -0.000017  -0.001061   0.000007   0.000009
    12  C    0.283430  -0.009272  -0.000060   0.000034   0.000000   0.000000
    13  C    5.372650  -0.002849  -0.000002  -0.000008   0.000000   0.000000
    14  C   -0.002849   5.432147  -0.005946  -0.001161   0.000085  -0.000002
    15  O   -0.000002  -0.005946   8.251259   0.354986  -0.024731  -0.021031
    16  Si  -0.000008  -0.001161   0.354986  11.533701   0.316374   0.314831
    17  C    0.000000   0.000085  -0.024731   0.316374   5.779327  -0.058893
    18  C    0.000000  -0.000002  -0.021031   0.314831  -0.058893   5.813362
    19  C    0.000000  -0.000023  -0.021942   0.336855  -0.054620  -0.050118
    20  H    0.000000   0.000000   0.000756  -0.009745   0.000136   0.366247
    21  H    0.000000   0.000003  -0.000961  -0.028388  -0.001324   0.364234
    22  H    0.000000   0.000002  -0.001666  -0.026018   0.002425   0.365249
    23  H    0.000000  -0.000004  -0.001207  -0.026683  -0.000540   0.002619
    24  H    0.000000  -0.000002   0.000912  -0.014476   0.000739  -0.000174
    25  H    0.000000  -0.000002  -0.001487  -0.027314   0.002528  -0.000676
    26  H    0.000000   0.000000  -0.001372  -0.030552   0.370859  -0.001338
    27  H    0.000000   0.000001   0.000901  -0.011566   0.364170   0.000808
    28  H    0.000000   0.000267  -0.002348  -0.027121   0.370590   0.002343
    29  H   -0.000724   0.387493   0.000262   0.000264  -0.000006   0.000000
    30  H    0.000657   0.386787   0.000162  -0.000917   0.000141   0.000004
    31  H   -0.000055   0.386349   0.006723   0.001184   0.000328   0.000041
    32  H   -0.036190   0.005524  -0.000002  -0.000004   0.000000   0.000000
    33  H   -0.038246  -0.000423   0.000004   0.000002   0.000000   0.000000
    34  H    0.389875  -0.000081   0.000000   0.000000   0.000000   0.000000
    35  H    0.383893   0.000128  -0.000021  -0.000009   0.000000   0.000000
    36  H    0.384960   0.000546   0.000000   0.000000   0.000000   0.000000
    37  C    0.000009   0.008266  -0.056762  -0.015758  -0.000404  -0.001597
    38  C   -0.000041  -0.000248   0.002114   0.001143   0.000027   0.000229
    39  C    0.000003  -0.000012   0.000467   0.001631  -0.000003  -0.001280
    40  H   -0.000038  -0.000311   0.003734   0.002460   0.000024  -0.000052
    41  H    0.000000  -0.000118  -0.003188  -0.005521  -0.000139  -0.003481
    42  H    0.000458   0.000304   0.000022  -0.000211   0.000000  -0.000016
    43  H    0.000000  -0.000002   0.000047   0.000202   0.000000   0.000031
    44  H    0.000000   0.000002  -0.000024  -0.001131   0.000007   0.000817
              19         20         21         22         23         24
     1  C   -0.000001   0.000000   0.000007   0.000003  -0.000001   0.000000
     2  C   -0.000037   0.000007  -0.000080  -0.000092   0.000043   0.000002
     3  C    0.002465  -0.000062   0.000282  -0.000434  -0.000152  -0.000077
     4  C   -0.000132   0.000060   0.001348   0.000298  -0.000040  -0.000004
     5  C    0.000001   0.000000  -0.000056   0.000004   0.000000   0.000000
     6  H    0.000000   0.000000  -0.000003   0.000000   0.000000   0.000000
     7  H   -0.000043   0.000000  -0.000001   0.000002  -0.000011   0.000000
     8  H   -0.000017   0.000042   0.003627  -0.000214  -0.000008  -0.000003
     9  H   -0.000052   0.000000  -0.000151   0.000009  -0.000015   0.000000
    10  O    0.000000   0.000000  -0.000004   0.000000   0.000000   0.000000
    11  O    0.000000   0.000000  -0.000110   0.000000   0.000000   0.000000
    12  C    0.000000   0.000000   0.000000   0.000000   0.000000   0.000000
    13  C    0.000000   0.000000   0.000000   0.000000   0.000000   0.000000
    14  C   -0.000023   0.000000   0.000003   0.000002  -0.000004  -0.000002
    15  O   -0.021942   0.000756  -0.000961  -0.001666  -0.001207   0.000912
    16  Si   0.336855  -0.009745  -0.028388  -0.026018  -0.026683  -0.014476
    17  C   -0.054620   0.000136  -0.001324   0.002425  -0.000540   0.000739
    18  C   -0.050118   0.366247   0.364234   0.365249   0.002619  -0.000174
    19  C    5.723522  -0.000896   0.003065  -0.000759   0.369170   0.363559
    20  H   -0.000896   0.434966  -0.019921  -0.020656  -0.000074   0.000580
    21  H    0.003065  -0.019921   0.449570  -0.018638  -0.000099  -0.000062
    22  H   -0.000759  -0.020656  -0.018638   0.442951  -0.000040  -0.000093
    23  H    0.369170  -0.000074  -0.000099  -0.000040   0.457829  -0.020762
    24  H    0.363559   0.000580  -0.000062  -0.000093  -0.020762   0.455520
    25  H    0.368258  -0.000031  -0.000078   0.001245  -0.018067  -0.020535
    26  H    0.002724   0.000080   0.001208  -0.000042  -0.000089  -0.000078
    27  H   -0.000966   0.000387  -0.000005  -0.000050  -0.000075   0.000819
    28  H   -0.000552  -0.000024  -0.000058  -0.000097   0.001092  -0.000027
    29  H   -0.000001   0.000000   0.000000   0.000000   0.000000   0.000000
    30  H    0.000001   0.000000  -0.000003   0.000000  -0.000003   0.000000
    31  H   -0.000008   0.000000   0.000004   0.000001   0.000092  -0.000006
    32  H    0.000000   0.000000   0.000000   0.000000   0.000000   0.000000
    33  H    0.000000   0.000000   0.000000   0.000000   0.000000   0.000000
    34  H    0.000000   0.000000   0.000000   0.000000   0.000000   0.000000
    35  H    0.000000   0.000000   0.000000   0.000000   0.000000   0.000000
    36  H    0.000000   0.000000   0.000000   0.000000   0.000000   0.000000
    37  C   -0.000163   0.000337  -0.000909   0.000088  -0.000019   0.000002
    38  C   -0.000165  -0.000029   0.000242   0.000042  -0.000015  -0.000002
    39  C   -0.000160   0.000017  -0.000007   0.001548  -0.000008  -0.000010
    40  H   -0.000004  -0.000008  -0.000120  -0.000002   0.000001   0.000000
    41  H   -0.000029   0.000635   0.000930  -0.000665  -0.000006   0.000004
    42  H    0.000000   0.000001   0.000000   0.000009   0.000000   0.000000
    43  H    0.000000  -0.000001  -0.000003  -0.000028   0.000000   0.000000
    44  H    0.000052   0.000020  -0.000093   0.004791  -0.000006   0.000000
              25         26         27         28         29         30
     1  C    0.000000   0.000000   0.000000  -0.000001  -0.007155  -0.006147
     2  C   -0.000013   0.000018  -0.000001   0.000081  -0.032205  -0.041026
     3  C   -0.000110  -0.000182  -0.000024   0.000461   0.007237  -0.011504
     4  C   -0.000017   0.001526   0.000136  -0.000041  -0.000569   0.006814
     5  C    0.000000   0.000071  -0.000001  -0.000030  -0.000005  -0.001669
     6  H    0.000000   0.000001   0.000000   0.000000  -0.000310   0.000669
     7  H   -0.000004   0.000007   0.000000   0.000007  -0.006493   0.006682
     8  H   -0.000009   0.000149   0.000008   0.000061   0.000014   0.000497
     9  H   -0.000008   0.000714   0.000306  -0.000055   0.000202  -0.000358
    10  O    0.000000   0.000000   0.000000   0.000000  -0.000077   0.009066
    11  O    0.000000  -0.000005   0.000000   0.000002   0.000001  -0.000252
    12  C    0.000000   0.000000   0.000000   0.000000   0.001993  -0.003819
    13  C    0.000000   0.000000   0.000000   0.000000  -0.000724   0.000657
    14  C   -0.000002   0.000000   0.000001   0.000267   0.387493   0.386787
    15  O   -0.001487  -0.001372   0.000901  -0.002348   0.000262   0.000162
    16  Si  -0.027314  -0.030552  -0.011566  -0.027121   0.000264  -0.000917
    17  C    0.002528   0.370859   0.364170   0.370590  -0.000006   0.000141
    18  C   -0.000676  -0.001338   0.000808   0.002343   0.000000   0.000004
    19  C    0.368258   0.002724  -0.000966  -0.000552  -0.000001   0.000001
    20  H   -0.000031   0.000080   0.000387  -0.000024   0.000000   0.000000
    21  H   -0.000078   0.001208  -0.000005  -0.000058   0.000000  -0.000003
    22  H    0.001245  -0.000042  -0.000050  -0.000097   0.000000   0.000000
    23  H   -0.018067  -0.000089  -0.000075   0.001092   0.000000  -0.000003
    24  H   -0.020535  -0.000078   0.000819  -0.000027   0.000000   0.000000
    25  H    0.456298  -0.000116   0.000020  -0.000095   0.000001  -0.000001
    26  H   -0.000116   0.457639  -0.022680  -0.018902  -0.000003  -0.000002
    27  H    0.000020  -0.022680   0.448833  -0.020411   0.000000  -0.000005
    28  H   -0.000095  -0.018902  -0.020411   0.452045  -0.000010   0.000072
    29  H    0.000001  -0.000003   0.000000  -0.000010   0.458437  -0.026907
    30  H   -0.000001  -0.000002  -0.000005   0.000072  -0.026907   0.473453
    31  H   -0.000018  -0.000007   0.000010   0.000700  -0.026387  -0.023550
    32  H    0.000000   0.000000   0.000000   0.000000  -0.001735   0.001375
    33  H    0.000000   0.000000   0.000000   0.000000   0.000288  -0.000248
    34  H    0.000000   0.000000   0.000000   0.000000   0.000005   0.000005
    35  H    0.000000   0.000000   0.000000   0.000000   0.003541  -0.000102
    36  H    0.000000   0.000000   0.000000   0.000000  -0.000078  -0.000001
    37  C    0.000036  -0.000049   0.000006  -0.000058  -0.000137  -0.000015
    38  C    0.000251   0.000002   0.000001   0.000003  -0.000004  -0.000044
    39  C    0.000643   0.000000   0.000000   0.000001   0.000001   0.000000
    40  H    0.000001   0.000012   0.000000   0.000005  -0.000013  -0.000011
    41  H   -0.000019  -0.000052   0.000001  -0.000006   0.000011   0.000015
    42  H   -0.000004   0.000000   0.000000   0.000000   0.000009  -0.000003
    43  H    0.000008   0.000000   0.000000   0.000000   0.000000   0.000000
    44  H    0.000061   0.000000   0.000000  -0.000001   0.000000   0.000000
              31         32         33         34         35         36
     1  C    0.006301  -0.038448  -0.046839   0.007635  -0.009723  -0.001550
     2  C   -0.033711  -0.013094   0.009329  -0.000095   0.004842  -0.002885
     3  C   -0.006024  -0.000497  -0.000140   0.000010   0.000186  -0.000148
     4  C   -0.000009   0.000149   0.000272  -0.000001  -0.000012  -0.000004
     5  C   -0.000100  -0.000063  -0.000233   0.000005  -0.000003  -0.000004
     6  H   -0.000131   0.007435  -0.007869  -0.000329  -0.000443   0.005420
     7  H   -0.002081   0.000133  -0.000262   0.000238  -0.000221  -0.000296
     8  H   -0.000125   0.000002  -0.000011   0.000000   0.000000   0.000000
     9  H    0.000380  -0.000073   0.000013   0.000000   0.000000   0.000000
    10  O   -0.000127   0.003038   0.004115  -0.000120  -0.000047  -0.000045
    11  O    0.000002  -0.000016  -0.000029   0.000000   0.000000   0.000000
    12  C    0.000111   0.389964   0.403316  -0.032984  -0.034881  -0.044242
    13  C   -0.000055  -0.036190  -0.038246   0.389875   0.383893   0.384960
    14  C    0.386349   0.005524  -0.000423  -0.000081   0.000128   0.000546
    15  O    0.006723  -0.000002   0.000004   0.000000  -0.000021   0.000000
    16  Si   0.001184  -0.000004   0.000002   0.000000  -0.000009   0.000000
    17  C    0.000328   0.000000   0.000000   0.000000   0.000000   0.000000
    18  C    0.000041   0.000000   0.000000   0.000000   0.000000   0.000000
    19  C   -0.000008   0.000000   0.000000   0.000000   0.000000   0.000000
    20  H    0.000000   0.000000   0.000000   0.000000   0.000000   0.000000
    21  H    0.000004   0.000000   0.000000   0.000000   0.000000   0.000000
    22  H    0.000001   0.000000   0.000000   0.000000   0.000000   0.000000
    23  H    0.000092   0.000000   0.000000   0.000000   0.000000   0.000000
    24  H   -0.000006   0.000000   0.000000   0.000000   0.000000   0.000000
    25  H   -0.000018   0.000000   0.000000   0.000000   0.000000   0.000000
    26  H   -0.000007   0.000000   0.000000   0.000000   0.000000   0.000000
    27  H    0.000010   0.000000   0.000000   0.000000   0.000000   0.000000
    28  H    0.000700   0.000000   0.000000   0.000000   0.000000   0.000000
    29  H   -0.026387  -0.001735   0.000288   0.000005   0.003541  -0.000078
    30  H   -0.023550   0.001375  -0.000248   0.000005  -0.000102  -0.000001
    31  H    0.426860   0.000181   0.000017  -0.000004  -0.000055   0.000008
    32  H    0.000181   0.476557  -0.033120  -0.004177  -0.006052   0.007091
    33  H    0.000017  -0.033120   0.472811  -0.006124   0.006465  -0.004927
    34  H   -0.000004  -0.004177  -0.006124   0.459083  -0.026340  -0.025078
    35  H   -0.000055  -0.006052   0.006465  -0.026340   0.473187  -0.027157
    36  H    0.000008   0.007091  -0.004927  -0.025078  -0.027157   0.477094
    37  C    0.000290  -0.000006   0.000009   0.000000   0.000008  -0.000064
    38  C    0.000025  -0.000009   0.000000   0.000000  -0.000016   0.000074
    39  C   -0.000010   0.000000   0.000000   0.000000  -0.000001   0.000002
    40  H   -0.000024  -0.000020  -0.000016   0.000002   0.000004  -0.000060
    41  H   -0.000023   0.000003  -0.000002   0.000000   0.000001   0.000003
    42  H    0.000010   0.000013  -0.000011  -0.000010   0.000013   0.000751
    43  H    0.000000   0.000000   0.000000   0.000000   0.000000  -0.000001
    44  H    0.000000   0.000000   0.000000   0.000000   0.000000   0.000000
              37         38         39         40         41         42
     1  C    0.000275  -0.002072   0.000035   0.000912  -0.000310  -0.000738
     2  C   -0.092572  -0.005487   0.000236  -0.003754   0.007054   0.004066
     3  C    0.307264  -0.066417  -0.001603  -0.037524  -0.029941  -0.004441
     4  C   -0.106772   0.008220  -0.000177  -0.002999  -0.006022  -0.000323
     5  C    0.001930  -0.000147   0.000008   0.003857  -0.000180  -0.000031
     6  H    0.004890  -0.001027   0.000082  -0.000031   0.000408   0.001555
     7  H   -0.008989   0.005871   0.000827   0.000802  -0.000189   0.000180
     8  H   -0.007046   0.000161   0.000010   0.000131   0.002440  -0.000011
     9  H    0.005658  -0.000177   0.000003   0.000076  -0.000075   0.000010
    10  O   -0.003506   0.000265   0.000001  -0.000120  -0.000132  -0.000003
    11  O    0.000032  -0.000004   0.000000   0.000294   0.000047   0.000000
    12  C   -0.000464   0.000037   0.000003   0.000614  -0.000001  -0.000172
    13  C    0.000009  -0.000041   0.000003  -0.000038   0.000000   0.000458
    14  C    0.008266  -0.000248  -0.000012  -0.000311  -0.000118   0.000304
    15  O   -0.056762   0.002114   0.000467   0.003734  -0.003188   0.000022
    16  Si  -0.015758   0.001143   0.001631   0.002460  -0.005521  -0.000211
    17  C   -0.000404   0.000027  -0.000003   0.000024  -0.000139   0.000000
    18  C   -0.001597   0.000229  -0.001280  -0.000052  -0.003481  -0.000016
    19  C   -0.000163  -0.000165  -0.000160  -0.000004  -0.000029   0.000000
    20  H    0.000337  -0.000029   0.000017  -0.000008   0.000635   0.000001
    21  H   -0.000909   0.000242  -0.000007  -0.000120   0.000930   0.000000
    22  H    0.000088   0.000042   0.001548  -0.000002  -0.000665   0.000009
    23  H   -0.000019  -0.000015  -0.000008   0.000001  -0.000006   0.000000
    24  H    0.000002  -0.000002  -0.000010   0.000000   0.000004   0.000000
    25  H    0.000036   0.000251   0.000643   0.000001  -0.000019  -0.000004
    26  H   -0.000049   0.000002   0.000000   0.000012  -0.000052   0.000000
    27  H    0.000006   0.000001   0.000000   0.000000   0.000001   0.000000
    28  H   -0.000058   0.000003   0.000001   0.000005  -0.000006   0.000000
    29  H   -0.000137  -0.000004   0.000001  -0.000013   0.000011   0.000009
    30  H   -0.000015  -0.000044   0.000000  -0.000011   0.000015  -0.000003
    31  H    0.000290   0.000025  -0.000010  -0.000024  -0.000023   0.000010
    32  H   -0.000006  -0.000009   0.000000  -0.000020   0.000003   0.000013
    33  H    0.000009   0.000000   0.000000  -0.000016  -0.000002  -0.000011
    34  H    0.000000   0.000000   0.000000   0.000002   0.000000  -0.000010
    35  H    0.000008  -0.000016  -0.000001   0.000004   0.000001   0.000013
    36  H   -0.000064   0.000074   0.000002  -0.000060   0.000003   0.000751
    37  C    5.498995   0.321326  -0.048924   0.382038   0.396360  -0.047474
    38  C    0.321326   5.014486   0.638806  -0.038674  -0.045810   0.392895
    39  C   -0.048924   0.638806   5.136014  -0.000720  -0.000122  -0.037563
    40  H    0.382038  -0.038674  -0.000720   0.460923  -0.027182  -0.002086
    41  H    0.396360  -0.045810  -0.000122  -0.027182   0.438641   0.004832
    42  H   -0.047474   0.392895  -0.037563  -0.002086   0.004832   0.470963
    43  H    0.006453  -0.037779   0.392581  -0.000331   0.000125  -0.008456
    44  H   -0.009357  -0.040839   0.384756   0.000042   0.004257   0.006047
              43         44
     1  C    0.000003  -0.000009
     2  C    0.000003   0.000036
     3  C   -0.000241   0.000167
     4  C    0.000016  -0.000091
     5  C    0.000000   0.000000
     6  H   -0.000004   0.000002
     7  H    0.000047  -0.000039
     8  H    0.000002  -0.000023
     9  H   -0.000001   0.000003
    10  O    0.000000   0.000000
    11  O    0.000000   0.000000
    12  C    0.000000   0.000000
    13  C    0.000000   0.000000
    14  C   -0.000002   0.000002
    15  O    0.000047  -0.000024
    16  Si   0.000202  -0.001131
    17  C    0.000000   0.000007
    18  C    0.000031   0.000817
    19  C    0.000000   0.000052
    20  H   -0.000001   0.000020
    21  H   -0.000003  -0.000093
    22  H   -0.000028   0.004791
    23  H    0.000000  -0.000006
    24  H    0.000000   0.000000
    25  H    0.000008   0.000061
    26  H    0.000000   0.000000
    27  H    0.000000   0.000000
    28  H    0.000000  -0.000001
    29  H    0.000000   0.000000
    30  H    0.000000   0.000000
    31  H    0.000000   0.000000
    32  H    0.000000   0.000000
    33  H    0.000000   0.000000
    34  H    0.000000   0.000000
    35  H    0.000000   0.000000
    36  H   -0.000001   0.000000
    37  C    0.006453  -0.009357
    38  C   -0.037779  -0.040839
    39  C    0.392581   0.384756
    40  H   -0.000331   0.000042
    41  H    0.000125   0.004257
    42  H   -0.008456   0.006047
    43  H    0.454295  -0.033261
    44  H   -0.033261   0.455165
 Mulliken charges:
               1
     1  C   -0.035366
     2  C   -0.331912
     3  C    0.206433
     4  C   -0.651961
     5  C    0.474308
     6  H    0.254100
     7  H    0.264638
     8  H    0.267588
     9  H    0.308901
    10  O   -0.313645
    11  O   -0.379659
    12  C   -0.468697
    13  C   -0.672140
    14  C   -0.680430
    15  O   -0.626122
    16  Si   1.429446
    17  C   -1.065609
    18  C   -1.092250
    19  C   -1.038984
    20  H    0.247176
    21  H    0.246554
    22  H    0.250828
    23  H    0.237078
    24  H    0.234176
    25  H    0.239253
    26  H    0.240460
    27  H    0.239377
    28  H    0.242109
    29  H    0.243061
    30  H    0.230187
    31  H    0.262839
    32  H    0.242041
    33  H    0.241858
    34  H    0.238487
    35  H    0.232816
    36  H    0.230593
    37  C   -0.533223
    38  C   -0.147215
    39  C   -0.467072
    40  H    0.258169
    41  H    0.267449
    42  H    0.219416
    43  H    0.226295
    44  H    0.228647
 Sum of Mulliken charges =   0.00000
 Mulliken charges with hydrogens summed into heavy atoms:
               1
     1  C    0.218734
     2  C   -0.067274
     3  C    0.206433
     4  C   -0.075472
     5  C    0.474308
    10  O   -0.313645
    11  O   -0.379659
    12  C    0.015203
    13  C    0.029755
    14  C    0.055657
    15  O   -0.626122
    16  Si   1.429446
    17  C   -0.343662
    18  C   -0.347692
    19  C   -0.328477
    37  C   -0.007604
    38  C    0.072201
    39  C   -0.012130
 Electronic spatial extent (au):  <R**2>=           5473.0743
 Charge=              0.0000 electrons
 Dipole moment (field-independent basis, Debye):
    X=              1.1810    Y=              3.5648    Z=              2.0635  Tot=              4.2849
 Quadrupole moment (field-independent basis, Debye-Ang):
   XX=           -114.3019   YY=           -129.5223   ZZ=           -124.0664
   XY=            -12.5455   XZ=             -8.8837   YZ=             -9.4204
 Traceless Quadrupole moment (field-independent basis, Debye-Ang):
   XX=              8.3283   YY=             -6.8921   ZZ=             -1.4362
   XY=            -12.5455   XZ=             -8.8837   YZ=             -9.4204
 Octapole moment (field-independent basis, Debye-Ang**2):
  XXX=             -8.0574  YYY=             35.9737  ZZZ=             15.7124  XYY=             17.8469
  XXY=             19.4424  XXZ=             11.2882  XZZ=              0.3355  YZZ=              9.6265
  YYZ=             23.1814  XYZ=             11.7177
 Hexadecapole moment (field-independent basis, Debye-Ang**3):
 XXXX=          -4232.8607 YYYY=          -1815.3103 ZZZZ=          -1276.9888 XXXY=            -83.1789
 XXXZ=            -49.1812 YYYX=            -18.9752 YYYZ=            -66.4067 ZZZX=             -7.6842
 ZZZY=              6.5553 XXYY=          -1085.7760 XXZZ=           -959.6558 YYZZ=           -579.0769
 XXYZ=            -37.6148 YYXZ=            -66.4768 ZZXY=            -21.7135
 N-N= 1.631117448666D+03 E-N=-5.757151014081D+03  KE= 1.060510484475D+03
 1\1\GINC-SWANNODE-0-12\SP\RmPW1PW91\6-311G(d)\C14H26O3Si1\ROOT\08-Mar-
 2018\0\\#mPW1PW91/6-311g(d) nmr=(giao) scrf=(solvent=chloroform)\\P_ng
 _4ginp008\\0,1\C,0,0.244517,2.160302,-0.496952\C,0,-0.036613,1.384275,
 0.796616\C,0,-1.209704,2.077099,1.566747\C,0,-0.774866,3.52036,1.85178
 4\C,0,-0.239115,4.26044,0.656521\H,0,-0.630101,2.116535,-1.155779\H,0,
 -0.335872,0.358126,0.55127\H,0,-1.622707,4.098423,2.237841\H,0,0.00169
 ,3.557418,2.623707\O,0,0.487163,3.560355,-0.240344\O,0,-0.356483,5.478
 512,0.559523\C,0,1.43078,1.655354,-1.334169\C,0,1.280782,0.21666,-1.80
 1444\C,0,1.230585,1.238698,1.667537\O,0,-1.391299,1.279293,2.756573\Si
 ,0,-2.129162,1.687352,4.200481\C,0,-0.972094,2.702646,5.285485\C,0,-3.
 73875,2.628881,4.017181\C,0,-2.520396,0.095611,5.146199\H,0,-4.174339,
 2.829393,5.001047\H,0,-3.585439,3.590115,3.519679\H,0,-4.467179,2.0512
 68,3.441904\H,0,-1.604024,-0.473519,5.327182\H,0,-2.983274,0.327034,6.
 109825\H,0,-3.209222,-0.528227,4.569275\H,0,-0.828819,3.705987,4.87561
 8\H,0,-1.386363,2.804884,6.292967\H,0,0.00472,2.216384,5.362685\H,0,1.
 972132,0.603695,1.172323\H,0,1.707393,2.202516,1.869473\H,0,1.010063,0
 .760695,2.626796\H,0,2.372361,1.779382,-0.786622\H,0,1.532571,2.301682
 ,-2.216098\H,0,2.108155,-0.049868,-2.466922\H,0,1.292017,-0.484562,-0.
 962372\H,0,0.345651,0.079671,-2.353631\C,0,-2.545337,2.087142,0.741625
 \C,0,-3.040982,0.736932,0.286615\C,0,-4.205641,0.195016,0.665382\H,0,-
 2.443817,2.717742,-0.149197\H,0,-3.331637,2.569121,1.332234\H,0,-2.420
 356,0.18188,-0.412823\H,0,-4.51095,-0.779079,0.294758\H,0,-4.879363,0.
 699952,1.350001\\Version=EM64L-G09RevD.01\State=1-A\HF=-1064.3754347\R
 MSD=3.081e-09\Dipole=-0.2714146,-1.6489544,0.2219984\Quadrupole=5.5039
 157,-12.0495813,6.5456656,-4.7909229,-1.8155104,8.7822484\PG=C01 [X(C1
 4H26O3Si1)]\\@


 ONLY A FOOL KNOWS EVERYTHING.

               -- THE CHEMIST ANALYST, SEPTEMBER 1946
 Job cpu time:       0 days  1 hours 10 minutes 30.2 seconds.
 File lengths (MBytes):  RWF=    233 Int=      0 D2E=      0 Chk=     11 Scr=      1
 Normal termination of Gaussian 09 at Thu Mar  8 13:56:41 2018.
