 Entering Gaussian System, Link 0=/usr/local/shared/gaussian/em64t/09-D01/g09/g09
 Initial command:
 /usr/local/shared/gaussian/em64t/09-D01/g09/l1.exe "/scratch/ah809/P_ng_3ginp003/Gau-30258.inp" -scrdir="/scratch/ah809/P_ng_3ginp003/"
 Entering Link 1 = /usr/local/shared/gaussian/em64t/09-D01/g09/l1.exe PID=     30276.
  
 Copyright (c) 1988,1990,1992,1993,1995,1998,2003,2009,2013,
            Gaussian, Inc.  All Rights Reserved.
  
 This is part of the Gaussian(R) 09 program.  It is based on
 the Gaussian(R) 03 system (copyright 2003, Gaussian, Inc.),
 the Gaussian(R) 98 system (copyright 1998, Gaussian, Inc.),
 the Gaussian(R) 94 system (copyright 1995, Gaussian, Inc.),
 the Gaussian 92(TM) system (copyright 1992, Gaussian, Inc.),
 the Gaussian 90(TM) system (copyright 1990, Gaussian, Inc.),
 the Gaussian 88(TM) system (copyright 1988, Gaussian, Inc.),
 the Gaussian 86(TM) system (copyright 1986, Carnegie Mellon
 University), and the Gaussian 82(TM) system (copyright 1983,
 Carnegie Mellon University). Gaussian is a federally registered
 trademark of Gaussian, Inc.
  
 This software contains proprietary and confidential information,
 including trade secrets, belonging to Gaussian, Inc.
  
 This software is provided under written license and may be
 used, copied, transmitted, or stored only in accord with that
 written license.
  
 The following legend is applicable only to US Government
 contracts under FAR:
  
                    RESTRICTED RIGHTS LEGEND
  
 Use, reproduction and disclosure by the US Government is
 subject to restrictions as set forth in subparagraphs (a)
 and (c) of the Commercial Computer Software - Restricted
 Rights clause in FAR 52.227-19.
  
 Gaussian, Inc.
 340 Quinnipiac St., Bldg. 40, Wallingford CT 06492
  
  
 ---------------------------------------------------------------
 Warning -- This program may not be used in any manner that
 competes with the business of Gaussian, Inc. or will provide
 assistance to any competitor of Gaussian, Inc.  The licensee
 of this program is prohibited from giving any competitor of
 Gaussian, Inc. access to this program.  By using this program,
 the user acknowledges that Gaussian, Inc. is engaged in the
 business of creating and licensing software in the field of
 computational chemistry and represents and warrants to the
 licensee that it is not a competitor of Gaussian, Inc. and that
 it will not use this program in any manner prohibited above.
 ---------------------------------------------------------------
  

 Cite this work as:
 Gaussian 09, Revision D.01,
 M. J. Frisch, G. W. Trucks, H. B. Schlegel, G. E. Scuseria, 
 M. A. Robb, J. R. Cheeseman, G. Scalmani, V. Barone, B. Mennucci, 
 G. A. Petersson, H. Nakatsuji, M. Caricato, X. Li, H. P. Hratchian, 
 A. F. Izmaylov, J. Bloino, G. Zheng, J. L. Sonnenberg, M. Hada, 
 M. Ehara, K. Toyota, R. Fukuda, J. Hasegawa, M. Ishida, T. Nakajima, 
 Y. Honda, O. Kitao, H. Nakai, T. Vreven, J. A. Montgomery, Jr., 
 J. E. Peralta, F. Ogliaro, M. Bearpark, J. J. Heyd, E. Brothers, 
 K. N. Kudin, V. N. Staroverov, T. Keith, R. Kobayashi, J. Normand, 
 K. Raghavachari, A. Rendell, J. C. Burant, S. S. Iyengar, J. Tomasi, 
 M. Cossi, N. Rega, J. M. Millam, M. Klene, J. E. Knox, J. B. Cross, 
 V. Bakken, C. Adamo, J. Jaramillo, R. Gomperts, R. E. Stratmann, 
 O. Yazyev, A. J. Austin, R. Cammi, C. Pomelli, J. W. Ochterski, 
 R. L. Martin, K. Morokuma, V. G. Zakrzewski, G. A. Voth, 
 P. Salvador, J. J. Dannenberg, S. Dapprich, A. D. Daniels, 
 O. Farkas, J. B. Foresman, J. V. Ortiz, J. Cioslowski, 
 and D. J. Fox, Gaussian, Inc., Wallingford CT, 2013.
 
 ******************************************
 Gaussian 09:  EM64L-G09RevD.01 24-Apr-2013
                 8-Mar-2018 
 ******************************************
 %mem=6000MB
 %chk=P_ng_3ginp003.chk
 --------------------------------------------------------
 #mPW1PW91/6-311g(d) nmr=(giao) scrf=(solvent=chloroform)
 --------------------------------------------------------
 1/38=1/1;
 2/12=2,17=6,18=5,40=1/2;
 3/5=4,6=6,7=1,11=2,16=1,25=1,30=1,70=2201,72=7,74=-7/1,2,8,3;
 4//1;
 5/5=2,38=5,53=7/2;
 8/6=1,10=90,11=11/1;
 10/13=100,45=16/2;
 6/7=2,8=2,9=2,10=2,28=1/1;
 99/9=1/99;
 -------------
 P_ng_3ginp003
 -------------
 Symbolic Z-matrix:
 Charge =  0 Multiplicity = 1
 C                    -0.26319   0.33187  -0.16528 
 C                    -1.6724    0.05962   0.37322 
 C                    -1.892     0.89983   1.67482 
 C                    -1.68792   2.37581   1.30885 
 C                    -0.47957   2.67933   0.4629 
 H                     0.48576   0.01513   0.56822 
 H                    -1.76271  -1.00705   0.61674 
 H                    -2.564     2.77147   0.78107 
 H                    -1.57787   2.96981   2.22233 
 O                    -0.04631   1.73632  -0.39779 
 O                     0.0356    3.79431   0.48023 
 C                     0.05169  -0.41738  -1.47017 
 C                     1.52493  -0.31431  -1.84951 
 C                    -2.75963   0.32429  -0.69134 
 O                    -3.26083   0.63176   2.05379 
 Si                   -4.14313   1.21377   3.35007 
 C                    -3.96622   0.08547   4.84769 
 C                    -3.7145    2.95809   3.8815 
 C                    -5.97507   1.2147    2.87238 
 H                    -4.39027   3.28904   4.67637 
 H                    -2.69395   3.01436   4.2702 
 H                    -3.81232   3.65849   3.04713 
 H                    -6.29728   0.2049    2.60243 
 H                    -6.58795   1.56489   3.70791 
 H                    -6.14271   1.87417   2.01598 
 H                    -4.65213   0.39557   5.64169 
 H                    -4.19869  -0.94871   4.57755 
 H                    -2.94866   0.11955   5.24596 
 H                    -3.76646   0.18706  -0.28509 
 H                    -2.69562   1.33475  -1.10603 
 H                    -2.66751  -0.3819   -1.5231 
 H                    -0.52974   0.00043  -2.29999 
 H                    -0.21303  -1.47581  -1.36689 
 H                     1.71569  -0.87091  -2.77258 
 H                     1.82189   0.72581  -2.01607 
 H                     2.16195  -0.73326  -1.06404 
 C                    -0.89203   0.49866   2.81429 
 C                    -0.84546  -0.97559   3.12568 
 C                     0.27623  -1.7069    3.14241 
 H                    -1.16214   1.01413   3.74307 
 H                     0.11687   0.85612   2.5738 
 H                    -1.79141  -1.46307   3.35493 
 H                     0.24254  -2.76652   3.37958 
 H                     1.24952  -1.27449   2.93147 
 
                          Input orientation:                          
 ---------------------------------------------------------------------
 Center     Atomic      Atomic             Coordinates (Angstroms)
 Number     Number       Type             X           Y           Z
 ---------------------------------------------------------------------
      1          6           0       -0.263187    0.331868   -0.165280
      2          6           0       -1.672400    0.059624    0.373223
      3          6           0       -1.891996    0.899831    1.674816
      4          6           0       -1.687915    2.375810    1.308847
      5          6           0       -0.479573    2.679328    0.462896
      6          1           0        0.485759    0.015130    0.568221
      7          1           0       -1.762710   -1.007054    0.616741
      8          1           0       -2.563999    2.771473    0.781074
      9          1           0       -1.577870    2.969805    2.222326
     10          8           0       -0.046309    1.736323   -0.397786
     11          8           0        0.035601    3.794313    0.480226
     12          6           0        0.051694   -0.417377   -1.470174
     13          6           0        1.524931   -0.314312   -1.849508
     14          6           0       -2.759625    0.324293   -0.691339
     15          8           0       -3.260832    0.631761    2.053787
     16         14           0       -4.143128    1.213771    3.350074
     17          6           0       -3.966220    0.085471    4.847695
     18          6           0       -3.714500    2.958094    3.881503
     19          6           0       -5.975066    1.214699    2.872384
     20          1           0       -4.390268    3.289037    4.676370
     21          1           0       -2.693951    3.014355    4.270203
     22          1           0       -3.812321    3.658490    3.047135
     23          1           0       -6.297284    0.204902    2.602426
     24          1           0       -6.587951    1.564893    3.707911
     25          1           0       -6.142709    1.874168    2.015981
     26          1           0       -4.652132    0.395571    5.641686
     27          1           0       -4.198689   -0.948706    4.577550
     28          1           0       -2.948656    0.119553    5.245955
     29          1           0       -3.766457    0.187055   -0.285087
     30          1           0       -2.695624    1.334749   -1.106025
     31          1           0       -2.667511   -0.381896   -1.523095
     32          1           0       -0.529735    0.000428   -2.299987
     33          1           0       -0.213026   -1.475806   -1.366889
     34          1           0        1.715689   -0.870907   -2.772583
     35          1           0        1.821888    0.725812   -2.016071
     36          1           0        2.161946   -0.733255   -1.064036
     37          6           0       -0.892033    0.498662    2.814287
     38          6           0       -0.845458   -0.975590    3.125679
     39          6           0        0.276233   -1.706898    3.142412
     40          1           0       -1.162140    1.014126    3.743067
     41          1           0        0.116870    0.856121    2.573803
     42          1           0       -1.791405   -1.463073    3.354929
     43          1           0        0.242537   -2.766518    3.379581
     44          1           0        1.249521   -1.274492    2.931470
 ---------------------------------------------------------------------
                    Distance matrix (angstroms):
                    1          2          3          4          5
     1  C    0.000000
     2  C    1.532966   0.000000
     3  C    2.522212   1.564709   0.000000
     4  C    2.894926   2.498069   1.534306   0.000000
     5  C    2.439671   2.879883   2.574937   1.505937   0.000000
     6  H    1.095110   2.167407   2.767845   3.293356   2.835650
     7  H    2.157044   1.097843   2.184593   3.453748   3.906344
     8  H    3.484393   2.883646   2.180231   1.096639   2.110583
     9  H    3.793121   3.449242   2.164078   1.095164   2.094332
    10  O    1.439996   2.459664   2.898613   2.452837   1.348239
    11  O    3.534753   4.108116   3.677051   2.381023   1.228371
    12  C    1.537292   2.568685   3.924784   4.307098   3.688982
    13  C    2.539988   3.911942   5.056718   5.247318   4.281020
    14  C    2.551274   1.544474   2.585094   3.059089   3.475210
    15  O    3.741667   2.382174   1.445404   2.463881   3.802482
    16  Si   5.309370   4.037102   2.823587   3.397795   4.889304
    17  C    6.237234   5.028238   3.877209   4.791636   6.173432
    18  C    5.931701   4.987918   3.525257   3.326358   4.714800
    19  C    6.529346   5.108125   4.266705   4.708767   6.176667
    20  H    7.015641   6.027685   4.578099   4.413265   5.780886
    21  H    5.725195   4.996044   3.442438   3.192096   4.417160
    22  H    5.829440   4.967988   3.630579   3.029854   4.329464
    23  H    6.639777   5.136147   4.555211   5.256660   6.674289
    24  H    7.518284   6.127693   5.160211   5.515745   7.006024
    25  H    6.457969   5.096556   4.374276   4.538378   5.927180
    26  H    7.279269   6.062043   4.858877   5.610831   7.031761
    27  H    6.294639   5.007517   4.142920   5.295358   6.627581
    28  H    6.044691   5.037454   3.805049   4.709669   5.960409
    29  H    3.508308   2.198792   2.804082   3.413446   4.192196
    30  H    2.794194   2.204792   2.927123   2.816184   3.029899
    31  H    2.851998   2.186597   3.531414   4.072401   4.254683
    32  H    2.176666   2.907789   4.296945   4.472975   3.848707
    33  H    2.171190   2.741406   4.208867   4.916280   4.547999
    34  H    3.487212   4.716050   5.994186   6.227661   5.281256
    35  H    2.815698   4.285158   5.238880   5.108453   3.906178
    36  H    2.797055   4.170921   5.157783   5.488013   4.577649
    37  C    3.049768   2.600100   1.568202   2.534455   3.233337
    38  C    3.588718   3.054753   2.591804   3.904164   4.536817
    39  C    3.922801   3.819186   3.694603   4.887570   5.195193
    40  H    4.068018   3.539391   2.196228   2.838318   3.741433
    41  H    2.814580   2.945920   2.201279   2.677091   2.852325
    42  H    4.236642   3.350125   2.901071   4.351343   5.219602
    43  H    4.735165   4.548874   4.572152   5.870104   6.219786
    44  H    3.802438   4.106351   4.021938   4.958441   4.971551
                    6          7          8          9         10
     6  H    0.000000
     7  H    2.470390   0.000000
     8  H    4.116280   3.866049   0.000000
     9  H    3.965442   4.292724   1.757553   0.000000
    10  O    2.044204   3.391374   2.966481   3.275995   0.000000
    11  O    3.806916   5.128907   2.809739   2.513566   2.238959
    12  C    2.128504   2.827542   4.698801   5.269064   2.407913
    13  C    2.652136   4.167836   5.758592   6.082157   2.963342
    14  C    3.494938   2.115986   2.862684   4.109102   3.072798
    15  O    4.077264   2.644841   2.585293   2.885692   4.190874
    16  Si   5.531911   4.250831   3.394090   3.306965   5.577046
    17  C    6.175675   4.893878   5.071315   4.573419   6.753228
    18  C    6.105821   5.494593   3.312271   2.705216   5.767206
    19  C    6.963504   5.269540   4.293309   4.778944   6.790896
    20  H    7.167356   6.468466   4.333181   3.746175   6.857693
    21  H    5.728052   5.512416   3.499986   2.332686   5.516656
    22  H    6.155695   5.645797   2.734984   2.479389   5.453903
    23  H    7.084044   5.096483   4.882830   5.482885   7.100789
    24  H    7.892832   6.281178   5.120000   5.411252   7.725232
    25  H    7.034815   5.426205   3.890670   4.699016   6.558305
    26  H    7.230678   5.963739   5.799203   5.269705   7.712746
    27  H    6.240813   4.650312   5.561041   5.269772   7.014671
    28  H    5.804077   4.909718   5.207284   4.375537   6.548998
    29  H    4.340396   2.500838   3.043324   4.338287   4.031431
    30  H    3.829581   3.053243   2.375425   3.873074   2.771594
    31  H    3.804516   2.405906   3.906872   5.142898   3.553009
    32  H    3.042706   3.323033   4.616260   5.510635   2.620191
    33  H    2.540835   2.560476   5.308502   5.874412   3.359275
    34  H    3.668618   4.858530   6.649146   7.109692   3.942327
    35  H    2.994808   4.773245   5.589701   5.878594   2.670232
    36  H    2.456409   4.278189   6.166207   6.204760   3.379215
    37  C    2.678979   2.802582   3.477800   2.631984   3.544639
    38  C    3.048648   2.671537   4.742472   4.113224   4.517512
    39  C    3.104149   3.320555   5.805053   5.114275   4.949021
    40  H    3.713921   3.770911   3.718451   2.512004   4.348944
    41  H    2.205834   3.291555   3.750934   2.731911   3.103502
    42  H    3.890540   2.776049   5.015278   4.580261   5.231096
    43  H    3.962382   3.840575   6.730396   6.128501   5.884514
    44  H    2.798464   3.808284   5.961289   5.148891   4.672058
                   11         12         13         14         15
    11  O    0.000000
    12  C    4.641406   0.000000
    13  C    4.952430   1.524777   0.000000
    14  C    4.607265   3.010012   4.484037   0.000000
    15  O    4.831594   4.948921   6.247743   2.807394   0.000000
    16  Si   5.688321   6.594844   7.842039   4.363287   1.672585
    17  C    6.988910   7.504129   8.669780   5.673959   2.932904
    18  C    5.131394   7.363319   8.426433   5.362796   2.993023
    19  C    6.964549   7.605479   8.993558   4.881803   2.894302
    20  H    6.119742   8.440885   9.516343   6.345156   3.900600
    21  H    4.735263   7.229611   8.144314   5.644258   3.303121
    22  H    4.627523   7.207592   8.261146   5.118713   3.232950
    23  H    7.582416   7.568542   9.015340   4.835098   3.115005
    24  H    7.698033   8.650251  10.011752   5.962262   3.831003
    25  H    6.649588   7.468272   8.861386   4.601842   3.138506
    26  H    7.756736   8.565361   9.735401   6.610134   3.855453
    27  H    7.563961   7.411007   8.629563   5.608264   3.121992
    28  H    6.717278   7.375417   8.399215   5.943830   3.248037
    29  H    5.296571   4.043272   5.540539   1.094343   2.433876
    30  H    4.003153   3.278766   4.591868   1.094112   3.286041
    31  H    5.362913   2.719951   4.205673   1.094991   3.764786
    32  H    4.737378   1.095997   2.126886   2.768582   5.178110
    33  H    5.589973   1.095909   2.145340   3.190908   5.043013
    34  H    5.930239   2.161212   1.094648   5.078239   7.093491
    35  H    4.340279   2.176803   1.094433   4.786062   6.512037
    36  H    5.234975   2.172071   1.094654   5.047690   6.402391
    37  C    4.143629   4.481780   5.315414   3.975892   2.491442
    38  C    5.525094   4.715755   5.550542   4.463559   3.092986
    39  C    6.116246   4.794709   5.330836   5.295264   4.377814
    40  H    4.450860   5.540801   6.345234   4.763589   2.721099
    41  H    3.608690   4.240259   4.787299   4.383859   3.424854
    42  H    6.264342   5.269925   6.277253   4.528180   2.870630
    43  H    7.175903   5.392125   5.916183   5.927772   5.057630
    44  H    5.759773   4.641541   4.884214   5.635079   4.974677
                   16         17         18         19         20
    16  Si   0.000000
    17  C    1.883408   0.000000
    18  C    1.873180   3.041193   0.000000
    19  C    1.893195   3.035205   3.027855   0.000000
    20  H    2.475251   3.236048   1.094532   3.173142   0.000000
    21  H    2.487741   3.245077   1.093514   3.994794   1.765761
    22  H    2.485529   4.004019   1.093752   3.268045   1.767746
    23  H    2.493428   3.238728   3.985835   1.093797   4.177301
    24  H    2.495695   3.218893   3.198103   1.093787   2.956416
    25  H    2.492840   3.994389   3.248271   1.093814   3.485767
    26  H    2.485965   1.094102   3.247141   3.176501   3.061463
    27  H    2.487185   1.093866   3.997750   3.277717   4.243222
    28  H    2.493680   1.093256   3.241228   3.999043   3.528215
    29  H    3.796106   5.137672   5.004181   3.987935   5.884513
    30  H    4.686867   6.214651   5.343107   5.157217   6.334600
    31  H    5.335857   6.518592   6.439053   5.727938   7.407902
    32  H    6.815570   7.931332   7.556543   7.607858   8.624861
    33  H    6.702930   7.425975   7.711382   7.642732   8.756372
    34  H    8.726886   9.553397   9.403460   9.765404  10.491651
    35  H    8.038348   9.001306   8.391427   9.215666   9.484185
    36  H    7.939095   8.554139   8.521563   9.246669   9.594926
    37  C    3.371656   3.708922   3.892824   5.133547   4.846771
    38  C    3.964629   3.718917   4.927123   5.583404   5.758243
    39  C    5.301338   4.911108   6.183394   6.905605   7.006328
    40  H    3.013402   3.153644   3.211342   4.895158   4.057966
    41  H    4.344893   4.736677   4.561553   6.109780   5.536620
    42  H    3.563161   3.058784   4.849979   4.990624   5.575199
    43  H    5.922637   5.291771   6.977195   7.400400   7.733970
    44  H    5.953767   5.720609   6.592333   7.641611   7.461749
                   21         22         23         24         25
    21  H    0.000000
    22  H    1.778077   0.000000
    23  H    4.864002   4.277859   0.000000
    24  H    4.192893   3.538912   1.776558   0.000000
    25  H    4.274982   3.110915   1.776024   1.776659   0.000000
    26  H    3.545909   4.252484   3.461211   2.975600   4.189726
    27  H    4.250241   4.870083   3.104195   3.575336   4.278956
    28  H    3.065427   4.254974   4.267182   4.207025   4.869639
    29  H    5.467592   4.812138   3.839679   5.079695   3.713198
    30  H    5.632487   4.888305   5.291608   6.194930   4.681911
    31  H    6.715469   6.206634   5.526256   6.820796   5.449026
    32  H    7.545527   7.262816   7.572324   8.674351   7.324204
    33  H    7.621899   7.668085   7.456436   8.697075   7.604425
    34  H    9.172841   9.216477   9.708544  10.811122   9.603135
    35  H    8.071398   8.122867   9.355363  10.207518   9.000609
    36  H    8.128864   8.478267   9.267236  10.228082   9.233226
    37  C    3.419841   4.308923   5.417372   5.863352   5.486247
    38  C    4.543844   5.503012   5.602657   6.306288   6.116651
    39  C    5.690706   6.746313   6.867146   7.625053   7.436108
    40  H    2.573953   3.807945   5.322181   5.453806   5.341214
    41  H    3.928926   4.849315   6.447191   6.836899   6.366311
    42  H    4.658291   5.514458   4.863265   5.683311   5.644803
    43  H    6.544819   7.604809   7.225134   8.094720   8.010414
    44  H    5.978075   7.068942   7.697476   8.372033   8.086856
                   26         27         28         29         30
    26  H    0.000000
    27  H    1.773436   0.000000
    28  H    1.770486   1.774972   0.000000
    29  H    5.996210   5.012187   5.591581   0.000000
    30  H    7.088130   6.306853   6.472123   1.771390   0.000000
    31  H    7.475110   6.315350   6.793418   1.750443   1.766807
    32  H    8.956588   7.852553   7.925062   3.817201   2.810166
    33  H    8.504577   7.176329   7.332022   4.069677   3.759064
    34  H   10.627936   9.434531   9.329206   6.112352   5.205960
    35  H   10.033107   9.084448   8.709917   5.875046   4.648323
    36  H    9.626662   8.504798   8.164651   6.049768   5.279620
    37  C    4.705652   4.017206   3.207247   4.238577   4.395546
    38  C    4.764571   3.654150   3.180935   4.638675   5.164117
    39  C    5.912320   4.760189   4.261540   5.628335   6.011054
    40  H    4.020872   3.710755   2.500115   4.867498   5.095887
    41  H    5.689235   5.088856   4.132841   4.868381   4.656215
    42  H    4.107015   2.748525   2.723952   4.457967   5.342802
    43  H    6.250897   4.946116   4.690039   6.182671   6.750840
    44  H    6.705512   5.700764   4.992484   6.135340   6.218816
                   31         32         33         34         35
    31  H    0.000000
    32  H    2.306473   0.000000
    33  H    2.691753   1.774892   0.000000
    34  H    4.583971   2.454486   2.462076   0.000000
    35  H    4.650241   2.477281   3.067480   1.770057   0.000000
    36  H    4.863933   3.051395   2.506710   1.771222   1.775074
    37  C    4.768709   5.151242   4.673522   6.315778   5.545207
    38  C    5.028265   5.521788   4.564357   6.431168   6.037143
    39  C    5.673466   5.760578   4.541649   6.144760   5.909067
    40  H    5.652210   6.160034   5.763005   7.368103   6.492705
    41  H    5.105883   4.990405   4.590835   5.841463   4.898062
    42  H    5.072635   5.975928   4.978655   7.084968   6.833355
    43  H    6.179889   6.364738   4.939884   6.603987   6.618442
    44  H    5.998585   5.670918   4.544828   5.737283   5.367214
                   36         37         38         39         40
    36  H    0.000000
    37  C    5.087809   0.000000
    38  C    5.163034   1.507499   0.000000
    39  C    4.711486   2.517341   1.339135   0.000000
    40  H    6.100092   1.096035   2.107232   3.135869   0.000000
    41  H    4.465683   1.097039   2.141450   2.630167   1.740118
    42  H    5.974016   2.224762   1.088582   2.092783   2.585177
    43  H    5.250145   3.502600   2.110835   1.086360   4.049507
    44  H    4.133948   2.782815   2.125087   1.085708   3.422363
                   41         42         43         44
    41  H    0.000000
    42  H    3.103278   0.000000
    43  H    3.713298   2.415884   0.000000
    44  H    2.439331   3.076054   1.854983   0.000000
 Stoichiometry    C14H26O3Si
 Framework group  C1[X(C14H26O3Si)]
 Deg. of freedom   126
 Full point group                 C1      NOp   1
 Largest Abelian subgroup         C1      NOp   1
 Largest concise Abelian subgroup C1      NOp   1
                         Standard orientation:                         
 ---------------------------------------------------------------------
 Center     Atomic      Atomic             Coordinates (Angstroms)
 Number     Number       Type             X           Y           Z
 ---------------------------------------------------------------------
      1          6           0        2.360986    0.150383    0.277876
      2          6           0        1.006539    0.246808    0.989325
      3          6           0       -0.135103    0.001709   -0.052257
      4          6           0        0.096239   -1.383502   -0.670130
      5          6           0        1.512071   -1.687652   -1.083361
      6          1           0        2.436462    0.926774   -0.490751
      7          1           0        0.894944    1.253966    1.411746
      8          1           0       -0.220357   -2.175691    0.018943
      9          1           0       -0.514762   -1.490764   -1.572658
     10          8           0        2.518480   -1.113491   -0.393992
     11          8           0        1.746865   -2.517746   -1.957839
     12          6           0        3.563451    0.339607    1.216780
     13          6           0        4.874455    0.473581    0.449797
     14          6           0        0.918737   -0.710232    2.198360
     15          8           0       -1.351946    0.038354    0.726938
     16         14           0       -2.939380   -0.156009    0.237226
     17          6           0       -3.707399    1.497824   -0.234162
     18          6           0       -3.188800   -1.341912   -1.191139
     19          6           0       -3.935881   -0.831470    1.698364
     20          1           0       -4.256565   -1.473459   -1.392565
     21          1           0       -2.723740   -0.963875   -2.105786
     22          1           0       -2.768448   -2.325633   -0.963345
     23          1           0       -3.870707   -0.148423    2.550180
     24          1           0       -4.988173   -0.946491    1.423008
     25          1           0       -3.546291   -1.806863    2.003746
     26          1           0       -4.779547    1.381431   -0.418581
     27          1           0       -3.574564    2.225304    0.571859
     28          1           0       -3.248529    1.898393   -1.142012
     29          1           0       -0.070090   -0.682229    2.666360
     30          1           0        1.134525   -1.746732    1.922343
     31          1           0        1.632494   -0.418705    2.975900
     32          1           0        3.663314   -0.521564    1.887318
     33          1           0        3.420761    1.235781    1.831212
     34          1           0        5.704966    0.622289    1.147214
     35          1           0        5.085679   -0.424716   -0.138618
     36          1           0        4.845124    1.331644   -0.229272
     37          6           0       -0.146104    1.086264   -1.184898
     38          6           0       -0.159418    2.512196   -0.695927
     39          6           0        0.721132    3.446973   -1.075540
     40          1           0       -1.033174    0.955174   -1.815149
     41          1           0        0.706288    0.936247   -1.859003
     42          1           0       -0.944079    2.787080    0.006752
     43          1           0        0.653949    4.460018   -0.689008
     44          1           0        1.519220    3.234789   -1.780376
 ---------------------------------------------------------------------
 Rotational constants (GHZ):      0.5630093      0.2465204      0.2222988
 Standard basis: 6-311G(d) (5D, 7F)
 There are   428 symmetry adapted cartesian basis functions of A   symmetry.
 There are   410 symmetry adapted basis functions of A   symmetry.
   410 basis functions,   720 primitive gaussians,   428 cartesian basis functions
    74 alpha electrons       74 beta electrons
       nuclear repulsion energy      1624.7307463405 Hartrees.
 NAtoms=   44 NActive=   44 NUniq=   44 SFac= 1.00D+00 NAtFMM=   60 NAOKFM=F Big=F
 Integral buffers will be    131072 words long.
 Raffenetti 2 integral format.
 Two-electron integral symmetry is turned on.
 ------------------------------------------------------------------------------
 Polarizable Continuum Model (PCM)
 =================================
 Model                : PCM (using non-symmetric T matrix).
 Atomic radii         : UFF (Universal Force Field).
 Polarization charges : Total charges.
 Charge compensation  : None.
 Solution method      : On-the-fly selection.
 Cavity type          : Scaled VdW (van der Waals Surface) (Alpha=1.100).
 Cavity algorithm     : GePol (No added spheres)
                        Default sphere list used, NSphG=   44.
                        Lebedev-Laikov grids with approx.  5.0 points / Ang**2.
                        Smoothing algorithm: Karplus/York (Gamma=1.0000).
                        Polarization charges: spherical gaussians, with
                                              point-specific exponents (IZeta= 3).
                        Self-potential: point-specific (ISelfS= 7).
                        Self-field    : sphere-specific E.n sum rule (ISelfD= 2).
 Solvent              : Chloroform, Eps=   4.711300 Eps(inf)=   2.090627
 ------------------------------------------------------------------------------
 One-electron integrals computed using PRISM.
 NBasis=   410 RedAO= T EigKep=  1.01D-03  NBF=   410
 NBsUse=   410 1.00D-06 EigRej= -1.00D+00 NBFU=   410
 ExpMin= 6.54D-02 ExpMax= 6.94D+04 ExpMxC= 2.33D+03 IAcc=2 IRadAn=         4 AccDes= 0.00D+00
 Harris functional with IExCor=  908 and IRadAn=       4 diagonalized for initial guess.
 HarFok:  IExCor=  908 AccDes= 0.00D+00 IRadAn=         4 IDoV= 1 UseB2=F ITyADJ=14
 ICtDFT=  3500011 ScaDFX=  1.000000  1.000000  1.000000  1.000000
 FoFCou: FMM=F IPFlag=           0 FMFlag=      100000 FMFlg1=           0
         NFxFlg=           0 DoJE=T BraDBF=F KetDBF=T FulRan=T
         wScrn=  0.000000 ICntrl=     500 IOpCl=  0 I1Cent=   200000004 NGrid=           0
         NMat0=    1 NMatS0=      1 NMatT0=    0 NMatD0=    1 NMtDS0=    0 NMtDT0=    0
 Petite list used in FoFCou.
 Requested convergence on RMS density matrix=1.00D-08 within 128 cycles.
 Requested convergence on MAX density matrix=1.00D-06.
 Requested convergence on             energy=1.00D-06.
 No special actions if energy rises.
 Inv3:  Mode=1 IEnd=    24555963.
 Iteration    1 A*A^-1 deviation from unit magnitude is 7.55D-15 for   1847.
 Iteration    1 A*A^-1 deviation from orthogonality  is 6.66D-15 for   2236   1767.
 Iteration    1 A^-1*A deviation from unit magnitude is 8.88D-15 for   2156.
 Iteration    1 A^-1*A deviation from orthogonality  is 1.85D-11 for   2849   2491.
 Error on total polarization charges =  0.01128
 SCF Done:  E(RmPW1PW91) =  -1064.37734283     A.U. after   12 cycles
            NFock= 12  Conv=0.96D-08     -V/T= 2.0036
 DoSCS=F DFT=T ScalE2(SS,OS)=  1.000000  1.000000
 Range of M.O.s used for correlation:     1   410
 NBasis=   410 NAE=    74 NBE=    74 NFC=     0 NFV=     0
 NROrb=    410 NOA=    74 NOB=    74 NVA=   336 NVB=   336
 NEqPCM:  Using equilibrium solvation (IEInf=0, Eps=   4.7113, EpsInf=   2.0906)
          Differentiating once with respect to magnetic field using GIAOs.
          Electric field/nuclear overlap derivatives assumed to be zero.
 FoFJK:  IHMeth= 1 ICntrl=    6127 DoSepK=F KAlg= 0 I1Cent=   0 FoldK=F
 IRaf=         1 NMat=   1 IRICut=       1 DoRegI=T DoRafI=F ISym2E= 0.
          There are     3 degrees of freedom in the 1st order CPHF.  IDoFFX=0 NUNeed=     3.
      3 vectors produced by pass  0 Test12= 8.29D-13 3.33D-08 XBig12= 3.55D+01 9.61D-01.
 AX will form     3 AO Fock derivatives at one time.
      3 vectors produced by pass  1 Test12= 8.29D-13 3.33D-08 XBig12= 8.43D-02 9.36D-02.
      3 vectors produced by pass  2 Test12= 8.29D-13 3.33D-08 XBig12= 7.41D-04 1.08D-02.
      3 vectors produced by pass  3 Test12= 8.29D-13 3.33D-08 XBig12= 4.37D-06 6.93D-04.
      3 vectors produced by pass  4 Test12= 8.29D-13 3.33D-08 XBig12= 2.41D-08 5.60D-05.
      3 vectors produced by pass  5 Test12= 8.29D-13 3.33D-08 XBig12= 6.61D-11 1.48D-06.
      2 vectors produced by pass  6 Test12= 8.29D-13 3.33D-08 XBig12= 1.87D-13 9.63D-08.
 InvSVY:  IOpt=1 It=  1 EMax= 4.34D-17
 Solved reduced A of dimension    20 with     3 vectors.
 Calculating GIAO nuclear magnetic shielding tensors.
 SCF GIAO Magnetic shielding tensor (ppm):
      1  C    Isotropic =   106.8876   Anisotropy =    41.9044
   XX=   103.2963   YX=    -2.4813   ZX=    -0.0113
   XY=     1.7071   YY=   125.1972   ZY=    19.2415
   XZ=     3.6384   YZ=    21.2712   ZZ=    92.1694
   Eigenvalues:    82.3927   103.4463   134.8239
      2  C    Isotropic =   143.9851   Anisotropy =    27.8999
   XX=   161.4595   YX=     3.6262   ZX=     1.1381
   XY=     5.4209   YY=   136.1982   ZY=     1.2135
   XZ=     6.5160   YZ=    -9.5831   ZZ=   134.2977
   Eigenvalues:   129.8818   139.4885   162.5851
      3  C    Isotropic =   105.4386   Anisotropy =    56.6244
   XX=   134.1914   YX=     0.8273   ZX=   -21.6077
   XY=     5.8531   YY=    84.3670   ZY=    -2.5114
   XZ=   -18.0563   YZ=    -2.6354   ZZ=    97.7575
   Eigenvalues:    83.8844    89.2432   143.1883
      4  C    Isotropic =   143.5435   Anisotropy =    37.2161
   XX=   153.4667   YX=   -13.6335   ZX=    -9.4948
   XY=    -8.7493   YY=   144.6471   ZY=     3.1190
   XZ=   -16.6377   YZ=    15.8482   ZZ=   132.5167
   Eigenvalues:   125.2329   137.0434   168.3543
      5  C    Isotropic =     8.9684   Anisotropy =    95.1909
   XX=   -69.6004   YX=   -24.2640   ZX=   -23.3438
   XY=   -30.9583   YY=    48.4347   ZY=   -25.7852
   XZ=   -38.7629   YZ=   -22.4683   ZZ=    48.0708
   Eigenvalues:   -85.3573    39.8334    72.4290
      6  H    Isotropic =    28.1369   Anisotropy =     3.8285
   XX=    30.3709   YX=    -0.0967   ZX=     0.7760
   XY=    -0.0146   YY=    28.9682   ZY=    -2.6221
   XZ=     0.6718   YZ=    -2.3388   ZZ=    25.0715
   Eigenvalues:    23.8057    29.9157    30.6892
      7  H    Isotropic =    30.0738   Anisotropy =     5.3486
   XX=    28.3354   YX=    -0.8254   ZX=     2.0514
   XY=    -1.3364   YY=    33.3387   ZY=     0.2266
   XZ=     1.4107   YZ=    -0.7287   ZZ=    28.5472
   Eigenvalues:    26.6483    29.9335    33.6395
      8  H    Isotropic =    29.4439   Anisotropy =     4.1181
   XX=    29.3636   YX=     0.7821   ZX=     0.0315
   XY=     1.3471   YY=    31.7715   ZY=    -0.6013
   XZ=    -0.2972   YZ=     0.1224   ZZ=    27.1968
   Eigenvalues:    27.1812    28.9613    32.1893
      9  H    Isotropic =    29.3906   Anisotropy =     4.7631
   XX=    32.2209   YX=    -0.4678   ZX=     1.7392
   XY=    -1.7043   YY=    27.7140   ZY=     3.2478
   XZ=     0.6657   YZ=     3.4232   ZZ=    28.2369
   Eigenvalues:    24.3008    31.3050    32.5661
     10  O    Isotropic =   118.4845   Anisotropy =   203.3365
   XX=   179.4453   YX=    60.1465   ZX=    65.9170
   XY=    74.2019   YY=    63.5263   ZY=  -131.3038
   XZ=    89.4323   YZ=  -186.2398   ZZ=   112.4820
   Eigenvalues:  -108.5382   209.9496   254.0422
     11  O    Isotropic =  -130.0061   Anisotropy =   595.3370
   XX=  -258.3913   YX=   -52.4538   ZX=   -51.7270
   XY=   -60.5190   YY=   -33.4038   ZY=  -307.5661
   XZ=   -52.3869   YZ=  -354.4830   ZZ=   -98.2233
   Eigenvalues:  -432.1257  -224.7779   266.8852
     12  C    Isotropic =   157.0651   Anisotropy =    22.4056
   XX=   164.5612   YX=     4.7556   ZX=    12.1335
   XY=     0.5720   YY=   151.3169   ZY=     8.9591
   XZ=     5.2172   YZ=     7.6016   ZZ=   155.3173
   Eigenvalues:   144.1441   155.0492   172.0022
     13  C    Isotropic =   174.2869   Anisotropy =    22.9193
   XX=   186.1471   YX=     3.9958   ZX=    -3.9391
   XY=     1.5422   YY=   163.4910   ZY=    -7.4213
   XZ=    -7.9630   YZ=    -6.8301   ZZ=   173.2227
   Eigenvalues:   159.7237   173.5706   189.5664
     14  C    Isotropic =   178.2592   Anisotropy =    15.9024
   XX=   176.9292   YX=     1.8060   ZX=     2.8001
   XY=     1.7029   YY=   179.0933   ZY=   -10.9017
   XZ=     3.4186   YZ=    -8.8165   ZZ=   178.7550
   Eigenvalues:   167.7615   178.1552   188.8608
     15  O    Isotropic =   244.8745   Anisotropy =    16.6443
   XX=   241.1817   YX=    -4.9736   ZX=    -7.4197
   XY=   -10.9270   YY=   244.2583   ZY=     5.8918
   XZ=     0.2755   YZ=     3.5446   ZZ=   249.1833
   Eigenvalues:   234.6173   244.0353   255.9707
     16  Si   Isotropic =   334.0036   Anisotropy =    55.4397
   XX=   365.2940   YX=    10.0048   ZX=    22.9435
   XY=     6.6453   YY=   314.3146   ZY=    -0.5165
   XZ=     6.9479   YZ=    -3.0301   ZZ=   322.4022
   Eigenvalues:   310.8358   320.2116   370.9634
     17  C    Isotropic =   184.8632   Anisotropy =    10.3958
   XX=   187.1101   YX=    -2.4232   ZX=     2.4948
   XY=     0.2700   YY=   190.5509   ZY=    -3.0854
   XZ=     3.9974   YZ=    -2.5095   ZZ=   176.9286
   Eigenvalues:   175.5949   187.2010   191.7937
     18  C    Isotropic =   184.6499   Anisotropy =    10.1851
   XX=   190.4655   YX=     0.0454   ZX=     0.9734
   XY=    -3.6543   YY=   180.6157   ZY=     6.6534
   XZ=    -2.1187   YZ=     6.9259   ZZ=   182.8684
   Eigenvalues:   174.7942   187.7154   191.4399
     19  C    Isotropic =   186.0315   Anisotropy =    12.7516
   XX=   188.8744   YX=     2.7593   ZX=    -2.4119
   XY=     1.6340   YY=   178.0044   ZY=    -6.3776
   XZ=    -0.2576   YZ=    -6.3057   ZZ=   191.2157
   Eigenvalues:   175.2757   188.2862   194.5326
     20  H    Isotropic =    32.1327   Anisotropy =    10.5235
   XX=    37.6100   YX=     2.5992   ZX=     3.0386
   XY=     1.9262   YY=    28.9823   ZY=     1.5215
   XZ=     2.3890   YZ=     1.6573   ZZ=    29.8058
   Eigenvalues:    27.7495    29.5003    39.1484
     21  H    Isotropic =    31.9366   Anisotropy =     6.1115
   XX=    31.5709   YX=     1.7507   ZX=    -1.2292
   XY=     1.2323   YY=    28.8787   ZY=     0.0410
   XZ=    -1.8959   YZ=    -0.6258   ZZ=    35.3603
   Eigenvalues:    28.1951    31.6038    36.0110
     22  H    Isotropic =    31.8725   Anisotropy =     6.8997
   XX=    31.4506   YX=    -1.2757   ZX=     1.0135
   XY=    -1.4832   YY=    36.0752   ZY=     0.1589
   XZ=     0.1457   YZ=     0.9377   ZZ=    28.0917
   Eigenvalues:    27.9178    31.2274    36.4723
     23  H    Isotropic =    31.9559   Anisotropy =     8.6073
   XX=    29.6075   YX=     0.3140   ZX=    -1.7232
   XY=     0.2863   YY=    30.2971   ZY=     2.8169
   XZ=    -1.5135   YZ=     3.7508   ZZ=    35.9630
   Eigenvalues:    28.1071    30.0665    37.6940
     24  H    Isotropic =    32.3590   Anisotropy =     9.8158
   XX=    38.5772   YX=     1.9207   ZX=    -0.2764
   XY=     1.7043   YY=    28.7661   ZY=    -0.4521
   XZ=     0.1812   YZ=    -0.3635   ZZ=    29.7337
   Eigenvalues:    28.3317    29.8425    38.9028
     25  H    Isotropic =    32.0636   Anisotropy =     8.0876
   XX=    30.3983   YX=    -1.0587   ZX=    -0.7368
   XY=    -1.2607   YY=    34.9762   ZY=    -3.5893
   XZ=    -0.1641   YZ=    -4.3377   ZZ=    30.8161
   Eigenvalues:    28.0038    30.7316    37.4553
     26  H    Isotropic =    32.2828   Anisotropy =    10.1913
   XX=    38.5685   YX=    -1.3707   ZX=     1.7878
   XY=    -0.9516   YY=    29.7436   ZY=    -0.6007
   XZ=     1.9797   YZ=    -0.5533   ZZ=    28.5364
   Eigenvalues:    28.1074    29.6641    39.0770
     27  H    Isotropic =    31.9231   Anisotropy =     8.0249
   XX=    30.0522   YX=    -0.9348   ZX=    -0.2255
   XY=    -0.5821   YY=    34.4593   ZY=     4.5047
   XZ=    -0.1287   YZ=     3.5659   ZZ=    31.2577
   Eigenvalues:    28.4660    30.0302    37.2731
     28  H    Isotropic =    32.0237   Anisotropy =     6.3330
   XX=    32.0369   YX=    -0.1415   ZX=    -1.7986
   XY=     0.3913   YY=    31.3470   ZY=    -4.1076
   XZ=    -1.7794   YZ=    -3.1881   ZZ=    32.6873
   Eigenvalues:    28.0146    31.8108    36.2458
     29  H    Isotropic =    30.6417   Anisotropy =     8.2648
   XX=    34.5892   YX=    -0.4557   ZX=    -2.2938
   XY=     0.2126   YY=    24.5938   ZY=    -2.2614
   XZ=    -2.0536   YZ=    -2.2949   ZZ=    32.7420
   Eigenvalues:    23.9565    31.8169    36.1515
     30  H    Isotropic =    31.3913   Anisotropy =     7.4324
   XX=    28.5314   YX=    -1.1402   ZX=     0.4280
   XY=    -1.0685   YY=    35.4480   ZY=    -2.0842
   XZ=     0.4272   YZ=    -2.0602   ZZ=    30.1946
   Eigenvalues:    28.3506    29.4771    36.3462
     31  H    Isotropic =    31.1152   Anisotropy =     9.7294
   XX=    31.7624   YX=     1.9633   ZX=     3.2367
   XY=     1.3558   YY=    26.0511   ZY=    -0.5575
   XZ=     3.6778   YZ=    -0.4126   ZZ=    35.5321
   Eigenvalues:    25.3872    30.3570    37.6015
     32  H    Isotropic =    30.2124   Anisotropy =     4.6535
   XX=    33.0246   YX=     0.1973   ZX=     0.3547
   XY=     0.2996   YY=    27.3236   ZY=    -4.1637
   XZ=     0.1810   YZ=    -4.3087   ZZ=    30.2892
   Eigenvalues:    24.3035    33.0190    33.3148
     33  H    Isotropic =    30.6992   Anisotropy =     6.6664
   XX=    32.1024   YX=     1.1355   ZX=    -0.1629
   XY=     1.4748   YY=    30.1437   ZY=     5.0034
   XZ=     0.0551   YZ=     4.7362   ZZ=    29.8516
   Eigenvalues:    24.9978    31.9564    35.1435
     34  H    Isotropic =    30.9784   Anisotropy =    11.4616
   XX=    37.2184   YX=     1.7234   ZX=     3.6915
   XY=     1.4582   YY=    26.2389   ZY=     0.3517
   XZ=     2.8400   YZ=     0.2732   ZZ=    29.4778
   Eigenvalues:    26.0042    28.3115    38.6194
     35  H    Isotropic =    30.6191   Anisotropy =     8.1480
   XX=    33.0530   YX=    -1.7913   ZX=    -2.8790
   XY=    -1.5692   YY=    30.4489   ZY=     3.4200
   XZ=    -2.2607   YZ=     3.8189   ZZ=    28.3554
   Eigenvalues:    25.4667    30.3395    36.0511
     36  H    Isotropic =    31.2427   Anisotropy =     8.5590
   XX=    31.6489   YX=     2.3059   ZX=    -2.3718
   XY=     1.9664   YY=    31.9376   ZY=    -3.9518
   XZ=    -1.2197   YZ=    -4.7445   ZZ=    30.1414
   Eigenvalues:    26.5991    30.1802    36.9487
     37  C    Isotropic =   140.9165   Anisotropy =    35.5027
   XX=   122.0845   YX=     1.3324   ZX=     0.4691
   XY=     3.7367   YY=   163.1729   ZY=    -6.3250
   XZ=    -0.2757   YZ=    -5.3764   ZZ=   137.4922
   Eigenvalues:   121.9147   136.2499   164.5850
     38  C    Isotropic =    45.2215   Anisotropy =   179.5452
   XX=    56.4553   YX=    23.3835   ZX=    91.3331
   XY=    24.4450   YY=     8.3162   ZY=   -72.1093
   XZ=    90.4107   YZ=   -72.0296   ZZ=    70.8929
   Eigenvalues:   -80.5945    51.3406   164.9182
     39  C    Isotropic =    64.1748   Anisotropy =   142.1663
   XX=    81.6506   YX=    29.0348   ZX=    71.0318
   XY=    30.7313   YY=    30.9705   ZY=   -67.8452
   XZ=    68.8948   YZ=   -71.8309   ZZ=    79.9034
   Eigenvalues:   -52.1762    85.7483   158.9524
     40  H    Isotropic =    29.4830   Anisotropy =     4.5530
   XX=    30.8237   YX=     1.6105   ZX=     1.5216
   XY=     1.1174   YY=    28.4515   ZY=    -1.2917
   XZ=     2.9627   YZ=    -0.1992   ZZ=    29.1737
   Eigenvalues:    26.5469    29.3838    32.5183
     41  H    Isotropic =    29.6591   Anisotropy =     5.0774
   XX=    29.1928   YX=     0.8083   ZX=    -2.0067
   XY=    -0.4291   YY=    29.0473   ZY=    -1.6053
   XZ=    -1.8736   YZ=    -2.8084   ZZ=    30.7372
   Eigenvalues:    26.9899    28.9434    33.0440
     42  H    Isotropic =    25.7648   Anisotropy =     6.6534
   XX=    26.6311   YX=     1.3075   ZX=     0.6149
   XY=     2.6062   YY=    29.0123   ZY=    -1.6509
   XZ=     0.6439   YZ=    -1.0116   ZZ=    21.6510
   Eigenvalues:    21.2336    25.8603    30.2004
     43  H    Isotropic =    26.6907   Anisotropy =     6.9708
   XX=    26.0996   YX=     3.3984   ZX=     0.7330
   XY=     1.6529   YY=    29.6924   ZY=    -1.0400
   XZ=     0.1134   YZ=    -2.8348   ZZ=    24.2800
   Eigenvalues:    23.0635    25.6706    31.3379
     44  H    Isotropic =    26.7425   Anisotropy =     7.1696
   XX=    26.8636   YX=     1.7100   ZX=    -0.3118
   XY=     3.7320   YY=    28.1211   ZY=    -4.2663
   XZ=     0.5296   YZ=    -2.6055   ZZ=    25.2427
   Eigenvalues:    22.3107    26.3945    31.5222
 End of Minotr F.D. properties file   721 does not exist.
 End of Minotr F.D. properties file   722 does not exist.
 End of Minotr F.D. properties file   788 does not exist.

 **********************************************************************

            Population analysis using the SCF density.

 **********************************************************************

 Orbital symmetries:
       Occupied  (A) (A) (A) (A) (A) (A) (A) (A) (A) (A) (A) (A)
                 (A) (A) (A) (A) (A) (A) (A) (A) (A) (A) (A) (A)
                 (A) (A) (A) (A) (A) (A) (A) (A) (A) (A) (A) (A)
                 (A) (A) (A) (A) (A) (A) (A) (A) (A) (A) (A) (A)
                 (A) (A) (A) (A) (A) (A) (A) (A) (A) (A) (A) (A)
                 (A) (A) (A) (A) (A) (A) (A) (A) (A) (A) (A) (A)
                 (A) (A)
       Virtual   (A) (A) (A) (A) (A) (A) (A) (A) (A) (A) (A) (A)
                 (A) (A) (A) (A) (A) (A) (A) (A) (A) (A) (A) (A)
                 (A) (A) (A) (A) (A) (A) (A) (A) (A) (A) (A) (A)
                 (A) (A) (A) (A) (A) (A) (A) (A) (A) (A) (A) (A)
                 (A) (A) (A) (A) (A) (A) (A) (A) (A) (A) (A) (A)
                 (A) (A) (A) (A) (A) (A) (A) (A) (A) (A) (A) (A)
                 (A) (A) (A) (A) (A) (A) (A) (A) (A) (A) (A) (A)
                 (A) (A) (A) (A) (A) (A) (A) (A) (A) (A) (A) (A)
                 (A) (A) (A) (A) (A) (A) (A) (A) (A) (A) (A) (A)
                 (A) (A) (A) (A) (A) (A) (A) (A) (A) (A) (A) (A)
                 (A) (A) (A) (A) (A) (A) (A) (A) (A) (A) (A) (A)
                 (A) (A) (A) (A) (A) (A) (A) (A) (A) (A) (A) (A)
                 (A) (A) (A) (A) (A) (A) (A) (A) (A) (A) (A) (A)
                 (A) (A) (A) (A) (A) (A) (A) (A) (A) (A) (A) (A)
                 (A) (A) (A) (A) (A) (A) (A) (A) (A) (A) (A) (A)
                 (A) (A) (A) (A) (A) (A) (A) (A) (A) (A) (A) (A)
                 (A) (A) (A) (A) (A) (A) (A) (A) (A) (A) (A) (A)
                 (A) (A) (A) (A) (A) (A) (A) (A) (A) (A) (A) (A)
                 (A) (A) (A) (A) (A) (A) (A) (A) (A) (A) (A) (A)
                 (A) (A) (A) (A) (A) (A) (A) (A) (A) (A) (A) (A)
                 (A) (A) (A) (A) (A) (A) (A) (A) (A) (A) (A) (A)
                 (A) (A) (A) (A) (A) (A) (A) (A) (A) (A) (A) (A)
                 (A) (A) (A) (A) (A) (A) (A) (A) (A) (A) (A) (A)
                 (A) (A) (A) (A) (A) (A) (A) (A) (A) (A) (A) (A)
                 (A) (A) (A) (A) (A) (A) (A) (A) (A) (A) (A) (A)
                 (A) (A) (A) (A) (A) (A) (A) (A) (A) (A) (A) (A)
                 (A) (A) (A) (A) (A) (A) (A) (A) (A) (A) (A) (A)
                 (A) (A) (A) (A) (A) (A) (A) (A) (A) (A) (A) (A)
 The electronic state is 1-A.
 Alpha  occ. eigenvalues --  -66.27022 -19.26362 -19.21360 -19.20081 -10.37498
 Alpha  occ. eigenvalues --  -10.32225 -10.30426 -10.25240 -10.25091 -10.25071
 Alpha  occ. eigenvalues --  -10.24640 -10.23736 -10.23244 -10.22185 -10.21958
 Alpha  occ. eigenvalues --  -10.20909 -10.20533 -10.20518  -5.32850  -3.66696
 Alpha  occ. eigenvalues --   -3.66465  -3.66433  -1.13651  -1.04957  -1.04159
 Alpha  occ. eigenvalues --   -0.85972  -0.83229  -0.81161  -0.77579  -0.74022
 Alpha  occ. eigenvalues --   -0.73366  -0.71479  -0.70342  -0.69920  -0.66620
 Alpha  occ. eigenvalues --   -0.64057  -0.62252  -0.58916  -0.54961  -0.53191
 Alpha  occ. eigenvalues --   -0.53039  -0.51486  -0.50329  -0.48069  -0.47465
 Alpha  occ. eigenvalues --   -0.46695  -0.45417  -0.45103  -0.44802  -0.44017
 Alpha  occ. eigenvalues --   -0.43004  -0.42738  -0.41946  -0.41704  -0.40982
 Alpha  occ. eigenvalues --   -0.40606  -0.40292  -0.39724  -0.39558  -0.38740
 Alpha  occ. eigenvalues --   -0.38415  -0.37987  -0.36986  -0.36798  -0.36363
 Alpha  occ. eigenvalues --   -0.35565  -0.34518  -0.33391  -0.31729  -0.31139
 Alpha  occ. eigenvalues --   -0.30383  -0.29631  -0.28483  -0.27471
 Alpha virt. eigenvalues --   -0.00671   0.00542   0.03930   0.05530   0.06087
 Alpha virt. eigenvalues --    0.06331   0.07149   0.08286   0.08301   0.09282
 Alpha virt. eigenvalues --    0.09451   0.10116   0.10421   0.10920   0.11392
 Alpha virt. eigenvalues --    0.12203   0.12277   0.12897   0.13778   0.14108
 Alpha virt. eigenvalues --    0.14323   0.14618   0.14863   0.15045   0.15389
 Alpha virt. eigenvalues --    0.15969   0.16436   0.16811   0.17455   0.17673
 Alpha virt. eigenvalues --    0.18051   0.19488   0.19981   0.20300   0.20607
 Alpha virt. eigenvalues --    0.22321   0.22860   0.23208   0.23879   0.24485
 Alpha virt. eigenvalues --    0.24880   0.25391   0.25893   0.27578   0.28172
 Alpha virt. eigenvalues --    0.29576   0.30062   0.31182   0.31787   0.31915
 Alpha virt. eigenvalues --    0.32814   0.33539   0.34716   0.35199   0.36020
 Alpha virt. eigenvalues --    0.36645   0.38333   0.39276   0.39718   0.39930
 Alpha virt. eigenvalues --    0.40668   0.42031   0.42842   0.43580   0.43930
 Alpha virt. eigenvalues --    0.44963   0.46250   0.46852   0.47575   0.48831
 Alpha virt. eigenvalues --    0.49156   0.49655   0.50755   0.51868   0.52767
 Alpha virt. eigenvalues --    0.52866   0.53956   0.54705   0.55694   0.56196
 Alpha virt. eigenvalues --    0.57032   0.57129   0.58095   0.58421   0.58599
 Alpha virt. eigenvalues --    0.59773   0.60087   0.60313   0.60683   0.61069
 Alpha virt. eigenvalues --    0.61580   0.61834   0.61965   0.62539   0.63035
 Alpha virt. eigenvalues --    0.63329   0.63837   0.64571   0.64974   0.65098
 Alpha virt. eigenvalues --    0.65844   0.66172   0.67161   0.67590   0.68063
 Alpha virt. eigenvalues --    0.68372   0.68852   0.69737   0.70590   0.71460
 Alpha virt. eigenvalues --    0.72233   0.72398   0.72880   0.74158   0.74365
 Alpha virt. eigenvalues --    0.74602   0.77444   0.78430   0.79902   0.81282
 Alpha virt. eigenvalues --    0.82584   0.83676   0.85741   0.87646   0.88889
 Alpha virt. eigenvalues --    0.89976   0.91099   0.91506   0.92939   0.94533
 Alpha virt. eigenvalues --    0.95296   0.97046   0.98551   0.99001   1.01388
 Alpha virt. eigenvalues --    1.02408   1.04472   1.05031   1.06004   1.09893
 Alpha virt. eigenvalues --    1.11894   1.13248   1.15209   1.17787   1.20531
 Alpha virt. eigenvalues --    1.21906   1.22941   1.24770   1.26128   1.27708
 Alpha virt. eigenvalues --    1.28381   1.29952   1.31159   1.31990   1.33117
 Alpha virt. eigenvalues --    1.33443   1.35175   1.37507   1.40696   1.41149
 Alpha virt. eigenvalues --    1.42505   1.44249   1.45103   1.48322   1.48594
 Alpha virt. eigenvalues --    1.50137   1.51161   1.52129   1.52614   1.53667
 Alpha virt. eigenvalues --    1.54847   1.55044   1.56269   1.56543   1.57794
 Alpha virt. eigenvalues --    1.58546   1.59158   1.59668   1.60171   1.61054
 Alpha virt. eigenvalues --    1.61360   1.61909   1.63417   1.63576   1.64511
 Alpha virt. eigenvalues --    1.64804   1.65683   1.68110   1.68279   1.69025
 Alpha virt. eigenvalues --    1.69137   1.70302   1.71996   1.74017   1.74819
 Alpha virt. eigenvalues --    1.75227   1.77260   1.77855   1.79680   1.79992
 Alpha virt. eigenvalues --    1.82282   1.82992   1.83548   1.84156   1.86986
 Alpha virt. eigenvalues --    1.88691   1.89761   1.93594   1.96138   1.98320
 Alpha virt. eigenvalues --    1.99341   2.03206   2.06967   2.09910   2.11562
 Alpha virt. eigenvalues --    2.13226   2.17794   2.20622   2.22083   2.27031
 Alpha virt. eigenvalues --    2.27851   2.29644   2.34209   2.37315   2.40879
 Alpha virt. eigenvalues --    2.41154   2.41750   2.42374   2.42805   2.43044
 Alpha virt. eigenvalues --    2.44174   2.45034   2.46001   2.46488   2.47532
 Alpha virt. eigenvalues --    2.48373   2.48829   2.49546   2.50644   2.51966
 Alpha virt. eigenvalues --    2.52774   2.53645   2.55351   2.58356   2.59609
 Alpha virt. eigenvalues --    2.62454   2.64771   2.66488   2.71518   2.80215
 Alpha virt. eigenvalues --    2.82109   2.87125   2.88358   2.89963   2.92061
 Alpha virt. eigenvalues --    2.92703   2.93145   2.95317   2.95825   2.98218
 Alpha virt. eigenvalues --    2.99656   3.01156   3.03137   3.04149   3.07725
 Alpha virt. eigenvalues --    3.08900   3.10572   3.13837   3.14559   3.15088
 Alpha virt. eigenvalues --    3.15982   3.16912   3.18190   3.18666   3.19654
 Alpha virt. eigenvalues --    3.22563   3.22925   3.23275   3.24247   3.24830
 Alpha virt. eigenvalues --    3.26508   3.27870   3.29125   3.29470   3.31058
 Alpha virt. eigenvalues --    3.33890   3.34631   3.38072   3.39490   3.40411
 Alpha virt. eigenvalues --    3.44625   3.51356   3.56709   3.59061   3.63507
 Alpha virt. eigenvalues --    3.76463   3.89207   3.90597   3.98379   4.00517
 Alpha virt. eigenvalues --    4.08769   4.11343   4.19729   4.22328   4.25097
 Alpha virt. eigenvalues --    4.94587   4.99860   5.01805   5.08970   5.14202
 Alpha virt. eigenvalues --    5.24759   5.51010   5.53450   5.77934   5.85273
 Alpha virt. eigenvalues --   11.52927  11.53689  11.59568  23.41370  23.49004
 Alpha virt. eigenvalues --   23.54606  23.55041  23.58319  23.62073  23.69792
 Alpha virt. eigenvalues --   23.74719  23.77459  23.78263  23.81599  23.86000
 Alpha virt. eigenvalues --   23.88384  24.26801  49.98225  50.04519  50.11576
 Alpha virt. eigenvalues --  141.30017
          Condensed to atoms (all electrons):
               1          2          3          4          5          6
     1  C    5.305077   0.251547  -0.059564  -0.001129  -0.056554   0.390304
     2  C    0.251547   5.563136   0.292137  -0.074277  -0.017459  -0.044051
     3  C   -0.059564   0.292137   5.204783   0.210416  -0.015985  -0.017449
     4  C   -0.001129  -0.074277   0.210416   5.875201   0.237172   0.003195
     5  C   -0.056554  -0.017459  -0.015985   0.237172   4.404495  -0.003345
     6  H    0.390304  -0.044051  -0.017449   0.003195  -0.003345   0.472611
     7  H   -0.032735   0.392022  -0.038654   0.007849   0.000243  -0.000134
     8  H    0.002193  -0.007614  -0.029730   0.373593  -0.019776  -0.000286
     9  H   -0.001456   0.008549  -0.033162   0.356654  -0.027850   0.000218
    10  O    0.195254  -0.035478   0.001100  -0.105783   0.350067  -0.034306
    11  O    0.001251  -0.000282   0.004724  -0.102230   0.659174   0.000200
    12  C    0.319221  -0.052937   0.008342  -0.002080   0.003425  -0.047938
    13  C   -0.077147   0.007360  -0.000162   0.000098  -0.000174  -0.008010
    14  C   -0.081647   0.298361  -0.076249  -0.009081   0.000581   0.007285
    15  O    0.004015  -0.058944   0.216056  -0.029351   0.001640  -0.000020
    16  Si   0.000143   0.002965  -0.047852  -0.011144   0.001597  -0.000015
    17  C    0.000002  -0.000286  -0.000318  -0.000153   0.000004   0.000000
    18  C    0.000016  -0.000189  -0.001588  -0.006404  -0.000267  -0.000001
    19  C    0.000000   0.000028   0.002568  -0.000394  -0.000006   0.000000
    20  H    0.000000   0.000007  -0.000112   0.000450  -0.000002   0.000000
    21  H    0.000010  -0.000085   0.000958  -0.001622  -0.000188  -0.000003
    22  H    0.000005  -0.000093   0.000136   0.000242  -0.000120   0.000001
    23  H   -0.000001   0.000042  -0.000123  -0.000021   0.000000   0.000000
    24  H    0.000000   0.000001  -0.000070  -0.000001   0.000000   0.000000
    25  H    0.000000   0.000007   0.000008   0.000023  -0.000003   0.000000
    26  H    0.000000   0.000006  -0.000023  -0.000010   0.000000   0.000000
    27  H   -0.000002   0.000020   0.000281  -0.000023   0.000001   0.000000
    28  H    0.000001  -0.000049   0.000228  -0.000048   0.000004  -0.000002
    29  H    0.007235  -0.034590  -0.006108  -0.000109  -0.000120  -0.000118
    30  H   -0.007826  -0.038870  -0.010501   0.006747  -0.001592   0.000561
    31  H   -0.007693  -0.034482   0.007088  -0.000616   0.000012  -0.000302
    32  H   -0.038693  -0.010202  -0.000526   0.000157  -0.000218   0.007270
    33  H   -0.048942   0.001076  -0.000219   0.000147  -0.000030   0.000647
    34  H    0.008671  -0.000266   0.000014  -0.000003   0.000009  -0.000190
    35  H   -0.011885   0.000761  -0.000057   0.000286   0.000515   0.000306
    36  H   -0.004673  -0.000429  -0.000025  -0.000008  -0.000068   0.006001
    37  C    0.003077  -0.092458   0.320618  -0.100080   0.003791   0.004666
    38  C   -0.003339  -0.015924  -0.062579   0.008482  -0.000306   0.000618
    39  C   -0.001244  -0.000084  -0.002280  -0.000094  -0.000032   0.003819
    40  H   -0.000349   0.006422  -0.041281  -0.003311  -0.000146   0.000746
    41  H   -0.000041  -0.001149  -0.024738  -0.005491   0.003003  -0.001985
    42  H    0.000248  -0.001390  -0.000764   0.000038  -0.000007  -0.000013
    43  H    0.000047   0.000027  -0.000339   0.000016   0.000000   0.000040
    44  H    0.000076  -0.000180   0.000250  -0.000052  -0.000016   0.000878
               7          8          9         10         11         12
     1  C   -0.032735   0.002193  -0.001456   0.195254   0.001251   0.319221
     2  C    0.392022  -0.007614   0.008549  -0.035478  -0.000282  -0.052937
     3  C   -0.038654  -0.029730  -0.033162   0.001100   0.004724   0.008342
     4  C    0.007849   0.373593   0.356654  -0.105783  -0.102230  -0.002080
     5  C    0.000243  -0.019776  -0.027850   0.350067   0.659174   0.003425
     6  H   -0.000134  -0.000286   0.000218  -0.034306   0.000200  -0.047938
     7  H    0.450641  -0.000225  -0.000058   0.003432   0.000021  -0.003707
     8  H   -0.000225   0.392782  -0.015613  -0.000507   0.000722   0.000004
     9  H   -0.000058  -0.015613   0.426862   0.005428   0.013571   0.000075
    10  O    0.003432  -0.000507   0.005428   8.030686  -0.069967  -0.047133
    11  O    0.000021   0.000722   0.013571  -0.069967   7.876927  -0.000145
    12  C   -0.003707   0.000004   0.000075  -0.047133  -0.000145   5.317323
    13  C   -0.000327   0.000009  -0.000005  -0.002238  -0.000011   0.317249
    14  C   -0.038534   0.000457   0.000095  -0.000465  -0.000013  -0.013048
    15  O    0.001797  -0.001254  -0.000783  -0.000026  -0.000019  -0.000077
    16  Si   0.000312   0.000393  -0.002863  -0.000186  -0.000323   0.000000
    17  C   -0.000038   0.000051  -0.000121   0.000000   0.000000   0.000000
    18  C    0.000020   0.000316  -0.004380  -0.000003  -0.000033   0.000000
    19  C    0.000006  -0.000113   0.000027   0.000000   0.000000   0.000000
    20  H    0.000000  -0.000021   0.000444   0.000000   0.000000   0.000000
    21  H    0.000002  -0.000129   0.001462  -0.000003  -0.000078   0.000000
    22  H    0.000005   0.001304  -0.001943  -0.000001  -0.000001   0.000000
    23  H   -0.000002  -0.000018  -0.000005   0.000000   0.000000   0.000000
    24  H    0.000000   0.000003  -0.000002   0.000000   0.000000   0.000000
    25  H    0.000005   0.000077  -0.000003   0.000000   0.000000   0.000000
    26  H   -0.000001   0.000000  -0.000001   0.000000   0.000000   0.000000
    27  H   -0.000026  -0.000002  -0.000003   0.000000   0.000000   0.000000
    28  H   -0.000017   0.000013  -0.000046   0.000000   0.000000   0.000000
    29  H   -0.002652   0.000469  -0.000137  -0.000131   0.000002  -0.000015
    30  H    0.006780  -0.000529   0.000419   0.008850  -0.000304  -0.002762
    31  H   -0.005675   0.000141   0.000016   0.000013   0.000002   0.003068
    32  H    0.000386  -0.000059   0.000005   0.002446  -0.000044   0.388478
    33  H    0.002271  -0.000013  -0.000004   0.003323   0.000007   0.394675
    34  H   -0.000022   0.000000   0.000000  -0.000216   0.000000  -0.038582
    35  H   -0.000051  -0.000006  -0.000009   0.011051   0.000150  -0.037871
    36  H    0.000052   0.000000   0.000000  -0.000314  -0.000001  -0.042969
    37  C   -0.010541   0.005342  -0.007415  -0.003142  -0.000080  -0.000563
    38  C    0.009342  -0.000175   0.000092   0.000339  -0.000001  -0.000009
    39  C    0.002455   0.000000  -0.000002  -0.000017   0.000000   0.000116
    40  H    0.000296  -0.000266   0.002769  -0.000090   0.000005   0.000004
    41  H   -0.000116   0.000247  -0.000033   0.000393   0.000143   0.000492
    42  H    0.000105   0.000023  -0.000015   0.000003   0.000000   0.000010
    43  H    0.000136  -0.000001   0.000001   0.000000   0.000000  -0.000004
    44  H   -0.000025   0.000002   0.000003  -0.000021   0.000000   0.000050
              13         14         15         16         17         18
     1  C   -0.077147  -0.081647   0.004015   0.000143   0.000002   0.000016
     2  C    0.007360   0.298361  -0.058944   0.002965  -0.000286  -0.000189
     3  C   -0.000162  -0.076249   0.216056  -0.047852  -0.000318  -0.001588
     4  C    0.000098  -0.009081  -0.029351  -0.011144  -0.000153  -0.006404
     5  C   -0.000174   0.000581   0.001640   0.001597   0.000004  -0.000267
     6  H   -0.008010   0.007285  -0.000020  -0.000015   0.000000  -0.000001
     7  H   -0.000327  -0.038534   0.001797   0.000312  -0.000038   0.000020
     8  H    0.000009   0.000457  -0.001254   0.000393   0.000051   0.000316
     9  H   -0.000005   0.000095  -0.000783  -0.002863  -0.000121  -0.004380
    10  O   -0.002238  -0.000465  -0.000026  -0.000186   0.000000  -0.000003
    11  O   -0.000011  -0.000013  -0.000019  -0.000323   0.000000  -0.000033
    12  C    0.317249  -0.013048  -0.000077   0.000000   0.000000   0.000000
    13  C    5.343968  -0.000012   0.000001   0.000001   0.000000   0.000000
    14  C   -0.000012   5.421191  -0.007806  -0.000461   0.000011  -0.000058
    15  O    0.000001  -0.007806   8.253273   0.355472  -0.025554  -0.021543
    16  Si   0.000001  -0.000461   0.355472  11.526345   0.323413   0.317770
    17  C    0.000000   0.000011  -0.025554   0.323413   5.775183  -0.058523
    18  C    0.000000  -0.000058  -0.021543   0.317770  -0.058523   5.804105
    19  C    0.000000   0.000006  -0.022824   0.331004  -0.056239  -0.049883
    20  H    0.000000   0.000000   0.000659  -0.008878  -0.000314   0.367205
    21  H    0.000000  -0.000005  -0.000989  -0.029866  -0.001436   0.366693
    22  H    0.000000  -0.000016  -0.001912  -0.026846   0.002483   0.367989
    23  H    0.000000   0.000023  -0.001274  -0.025562  -0.001099   0.002664
    24  H    0.000000  -0.000001   0.000945  -0.012549   0.000593  -0.000214
    25  H    0.000000   0.000065  -0.001279  -0.027248   0.002537  -0.000456
    26  H    0.000000   0.000000   0.000988  -0.010897   0.363758   0.000346
    27  H    0.000000   0.000002  -0.002521  -0.025795   0.370554   0.002417
    28  H    0.000000   0.000002  -0.001620  -0.030051   0.368920  -0.001641
    29  H    0.000012   0.386437   0.008348   0.000756  -0.000014   0.000038
    30  H   -0.000191   0.384619   0.000015  -0.000344   0.000001  -0.000006
    31  H    0.000304   0.390520   0.000231   0.000108   0.000001  -0.000001
    32  H   -0.043724   0.002873   0.000000   0.000001   0.000000   0.000000
    33  H   -0.039128  -0.000376  -0.000012  -0.000005   0.000000   0.000000
    34  H    0.393406   0.000007   0.000000   0.000000   0.000000   0.000000
    35  H    0.385155  -0.000061   0.000000   0.000000   0.000000   0.000000
    36  H    0.386294   0.000000   0.000000   0.000000   0.000000   0.000000
    37  C   -0.000038   0.007967  -0.049684  -0.004423  -0.000048  -0.001985
    38  C    0.000002  -0.000198   0.003935  -0.002574  -0.002103   0.000171
    39  C   -0.000032  -0.000011   0.000449   0.000581  -0.000122  -0.000001
    40  H   -0.000003  -0.000109  -0.004276   0.006587   0.000934   0.000783
    41  H   -0.000016  -0.000275   0.003518   0.001324   0.000034  -0.000029
    42  H    0.000001  -0.000060   0.004066   0.000384  -0.000790   0.000074
    43  H   -0.000001  -0.000002   0.000013   0.000005   0.000012   0.000000
    44  H    0.000021   0.000003  -0.000006  -0.000011  -0.000005   0.000000
              19         20         21         22         23         24
     1  C    0.000000   0.000000   0.000010   0.000005  -0.000001   0.000000
     2  C    0.000028   0.000007  -0.000085  -0.000093   0.000042   0.000001
     3  C    0.002568  -0.000112   0.000958   0.000136  -0.000123  -0.000070
     4  C   -0.000394   0.000450  -0.001622   0.000242  -0.000021  -0.000001
     5  C   -0.000006  -0.000002  -0.000188  -0.000120   0.000000   0.000000
     6  H    0.000000   0.000000  -0.000003   0.000001   0.000000   0.000000
     7  H    0.000006   0.000000   0.000002   0.000005  -0.000002   0.000000
     8  H   -0.000113  -0.000021  -0.000129   0.001304  -0.000018   0.000003
     9  H    0.000027   0.000444   0.001462  -0.001943  -0.000005  -0.000002
    10  O    0.000000   0.000000  -0.000003  -0.000001   0.000000   0.000000
    11  O    0.000000   0.000000  -0.000078  -0.000001   0.000000   0.000000
    12  C    0.000000   0.000000   0.000000   0.000000   0.000000   0.000000
    13  C    0.000000   0.000000   0.000000   0.000000   0.000000   0.000000
    14  C    0.000006   0.000000  -0.000005  -0.000016   0.000023  -0.000001
    15  O   -0.022824   0.000659  -0.000989  -0.001912  -0.001274   0.000945
    16  Si   0.331004  -0.008878  -0.029866  -0.026846  -0.025562  -0.012549
    17  C   -0.056239  -0.000314  -0.001436   0.002483  -0.001099   0.000593
    18  C   -0.049883   0.367205   0.366693   0.367989   0.002664  -0.000214
    19  C    5.728175  -0.000804   0.002995  -0.000343   0.369492   0.363912
    20  H   -0.000804   0.430566  -0.019516  -0.020070  -0.000051   0.000499
    21  H    0.002995  -0.019516   0.448296  -0.019034  -0.000098  -0.000062
    22  H   -0.000343  -0.020070  -0.019034   0.445967  -0.000057  -0.000077
    23  H    0.369492  -0.000051  -0.000098  -0.000057   0.456926  -0.020908
    24  H    0.363912   0.000499  -0.000062  -0.000077  -0.020908   0.454110
    25  H    0.369325  -0.000064  -0.000101   0.001232  -0.018232  -0.020850
    26  H   -0.000103   0.000310   0.000081  -0.000038  -0.000063   0.000604
    27  H   -0.000682  -0.000040  -0.000009  -0.000099   0.001159  -0.000025
    28  H    0.002765   0.000024   0.000825  -0.000045  -0.000107  -0.000064
    29  H    0.000101   0.000000   0.000003   0.000013   0.000083   0.000002
    30  H   -0.000004   0.000000  -0.000003  -0.000009  -0.000004  -0.000001
    31  H   -0.000004   0.000000   0.000000  -0.000001   0.000000   0.000000
    32  H    0.000000   0.000000   0.000000   0.000000   0.000000   0.000000
    33  H    0.000000   0.000000   0.000000   0.000000   0.000000   0.000000
    34  H    0.000000   0.000000   0.000000   0.000000   0.000000   0.000000
    35  H    0.000000   0.000000   0.000000   0.000000   0.000000   0.000000
    36  H    0.000000   0.000000   0.000000   0.000000   0.000000   0.000000
    37  C   -0.000112   0.000065   0.000190   0.000235  -0.000015   0.000010
    38  C   -0.000033  -0.000005   0.000065   0.000003  -0.000002  -0.000001
    39  C    0.000000   0.000000  -0.000003   0.000001   0.000000   0.000000
    40  H    0.000008   0.000070   0.003403  -0.000236   0.000006   0.000012
    41  H    0.000011  -0.000003  -0.000058   0.000012   0.000000  -0.000001
    42  H   -0.000044   0.000000   0.000027   0.000000  -0.000015   0.000001
    43  H    0.000000   0.000000   0.000000   0.000000   0.000000   0.000000
    44  H    0.000000   0.000000   0.000000   0.000000   0.000000   0.000000
              25         26         27         28         29         30
     1  C    0.000000   0.000000  -0.000002   0.000001   0.007235  -0.007826
     2  C    0.000007   0.000006   0.000020  -0.000049  -0.034590  -0.038870
     3  C    0.000008  -0.000023   0.000281   0.000228  -0.006108  -0.010501
     4  C    0.000023  -0.000010  -0.000023  -0.000048  -0.000109   0.006747
     5  C   -0.000003   0.000000   0.000001   0.000004  -0.000120  -0.001592
     6  H    0.000000   0.000000   0.000000  -0.000002  -0.000118   0.000561
     7  H    0.000005  -0.000001  -0.000026  -0.000017  -0.002652   0.006780
     8  H    0.000077   0.000000  -0.000002   0.000013   0.000469  -0.000529
     9  H   -0.000003  -0.000001  -0.000003  -0.000046  -0.000137   0.000419
    10  O    0.000000   0.000000   0.000000   0.000000  -0.000131   0.008850
    11  O    0.000000   0.000000   0.000000   0.000000   0.000002  -0.000304
    12  C    0.000000   0.000000   0.000000   0.000000  -0.000015  -0.002762
    13  C    0.000000   0.000000   0.000000   0.000000   0.000012  -0.000191
    14  C    0.000065   0.000000   0.000002   0.000002   0.386437   0.384619
    15  O   -0.001279   0.000988  -0.002521  -0.001620   0.008348   0.000015
    16  Si  -0.027248  -0.010897  -0.025795  -0.030051   0.000756  -0.000344
    17  C    0.002537   0.363758   0.370554   0.368920  -0.000014   0.000001
    18  C   -0.000456   0.000346   0.002417  -0.001641   0.000038  -0.000006
    19  C    0.369325  -0.000103  -0.000682   0.002765   0.000101  -0.000004
    20  H   -0.000064   0.000310  -0.000040   0.000024   0.000000   0.000000
    21  H   -0.000101   0.000081  -0.000009   0.000825   0.000003  -0.000003
    22  H    0.001232  -0.000038  -0.000099  -0.000045   0.000013  -0.000009
    23  H   -0.018232  -0.000063   0.001159  -0.000107   0.000083  -0.000004
    24  H   -0.020850   0.000604  -0.000025  -0.000064   0.000002  -0.000001
    25  H    0.459539  -0.000014  -0.000087  -0.000117   0.000186  -0.000002
    26  H   -0.000014   0.449448  -0.021239  -0.022005   0.000000   0.000000
    27  H   -0.000087  -0.021239   0.452428  -0.018890  -0.000011   0.000000
    28  H   -0.000117  -0.022005  -0.018890   0.455827   0.000000   0.000000
    29  H    0.000186   0.000000  -0.000011   0.000000   0.431071  -0.023984
    30  H   -0.000002   0.000000   0.000000   0.000000  -0.023984   0.476066
    31  H   -0.000004   0.000000   0.000001   0.000000  -0.027119  -0.026641
    32  H    0.000000   0.000000   0.000000   0.000000   0.000292   0.001637
    33  H    0.000000   0.000000   0.000000   0.000000  -0.000166   0.000270
    34  H    0.000000   0.000000   0.000000   0.000000  -0.000002  -0.000006
    35  H    0.000000   0.000000   0.000000   0.000000   0.000000   0.000017
    36  H    0.000000   0.000000   0.000000   0.000000   0.000003   0.000005
    37  C   -0.000015   0.000016   0.000129   0.000940   0.000317  -0.000083
    38  C    0.000002   0.000114  -0.000231   0.000359   0.000010  -0.000047
    39  C    0.000000   0.000002  -0.000058   0.000240   0.000001  -0.000003
    40  H   -0.000001   0.000012  -0.000039   0.002074  -0.000017   0.000014
    41  H    0.000001   0.000000  -0.000015  -0.000002  -0.000035  -0.000013
    42  H    0.000001   0.000240   0.000989  -0.001185   0.000016  -0.000007
    43  H    0.000000  -0.000001  -0.000009   0.000012   0.000000   0.000000
    44  H    0.000000   0.000000   0.000001  -0.000010   0.000000   0.000000
              31         32         33         34         35         36
     1  C   -0.007693  -0.038693  -0.048942   0.008671  -0.011885  -0.004673
     2  C   -0.034482  -0.010202   0.001076  -0.000266   0.000761  -0.000429
     3  C    0.007088  -0.000526  -0.000219   0.000014  -0.000057  -0.000025
     4  C   -0.000616   0.000157   0.000147  -0.000003   0.000286  -0.000008
     5  C    0.000012  -0.000218  -0.000030   0.000009   0.000515  -0.000068
     6  H   -0.000302   0.007270   0.000647  -0.000190   0.000306   0.006001
     7  H   -0.005675   0.000386   0.002271  -0.000022  -0.000051   0.000052
     8  H    0.000141  -0.000059  -0.000013   0.000000  -0.000006   0.000000
     9  H    0.000016   0.000005  -0.000004   0.000000  -0.000009   0.000000
    10  O    0.000013   0.002446   0.003323  -0.000216   0.011051  -0.000314
    11  O    0.000002  -0.000044   0.000007   0.000000   0.000150  -0.000001
    12  C    0.003068   0.388478   0.394675  -0.038582  -0.037871  -0.042969
    13  C    0.000304  -0.043724  -0.039128   0.393406   0.385155   0.386294
    14  C    0.390520   0.002873  -0.000376   0.000007  -0.000061   0.000000
    15  O    0.000231   0.000000  -0.000012   0.000000   0.000000   0.000000
    16  Si   0.000108   0.000001  -0.000005   0.000000   0.000000   0.000000
    17  C    0.000001   0.000000   0.000000   0.000000   0.000000   0.000000
    18  C   -0.000001   0.000000   0.000000   0.000000   0.000000   0.000000
    19  C   -0.000004   0.000000   0.000000   0.000000   0.000000   0.000000
    20  H    0.000000   0.000000   0.000000   0.000000   0.000000   0.000000
    21  H    0.000000   0.000000   0.000000   0.000000   0.000000   0.000000
    22  H   -0.000001   0.000000   0.000000   0.000000   0.000000   0.000000
    23  H    0.000000   0.000000   0.000000   0.000000   0.000000   0.000000
    24  H    0.000000   0.000000   0.000000   0.000000   0.000000   0.000000
    25  H   -0.000004   0.000000   0.000000   0.000000   0.000000   0.000000
    26  H    0.000000   0.000000   0.000000   0.000000   0.000000   0.000000
    27  H    0.000001   0.000000   0.000000   0.000000   0.000000   0.000000
    28  H    0.000000   0.000000   0.000000   0.000000   0.000000   0.000000
    29  H   -0.027119   0.000292  -0.000166  -0.000002   0.000000   0.000003
    30  H   -0.026641   0.001637   0.000270  -0.000006   0.000017   0.000005
    31  H    0.460622  -0.002150   0.000288   0.000013  -0.000018  -0.000027
    32  H   -0.002150   0.473867  -0.023802  -0.004739  -0.004505   0.007429
    33  H    0.000288  -0.023802   0.472111  -0.005085   0.007057  -0.004871
    34  H    0.000013  -0.004739  -0.005085   0.471296  -0.026098  -0.026891
    35  H   -0.000018  -0.004505   0.007057  -0.026098   0.466319  -0.027765
    36  H   -0.000027   0.007429  -0.004871  -0.026891  -0.027765   0.486643
    37  C   -0.000108  -0.000008   0.000027   0.000000   0.000005  -0.000030
    38  C   -0.000048  -0.000013   0.000137   0.000000  -0.000003   0.000018
    39  C   -0.000001  -0.000002   0.000203  -0.000001   0.000000   0.000055
    40  H    0.000011   0.000002   0.000003   0.000000   0.000000   0.000001
    41  H   -0.000007  -0.000020  -0.000010   0.000001   0.000003  -0.000015
    42  H    0.000001  -0.000001  -0.000005   0.000000   0.000000   0.000000
    43  H    0.000000   0.000000   0.000007   0.000000   0.000000  -0.000003
    44  H    0.000001   0.000001   0.000004  -0.000001  -0.000003   0.000091
              37         38         39         40         41         42
     1  C    0.003077  -0.003339  -0.001244  -0.000349  -0.000041   0.000248
     2  C   -0.092458  -0.015924  -0.000084   0.006422  -0.001149  -0.001390
     3  C    0.320618  -0.062579  -0.002280  -0.041281  -0.024738  -0.000764
     4  C   -0.100080   0.008482  -0.000094  -0.003311  -0.005491   0.000038
     5  C    0.003791  -0.000306  -0.000032  -0.000146   0.003003  -0.000007
     6  H    0.004666   0.000618   0.003819   0.000746  -0.001985  -0.000013
     7  H   -0.010541   0.009342   0.002455   0.000296  -0.000116   0.000105
     8  H    0.005342  -0.000175   0.000000  -0.000266   0.000247   0.000023
     9  H   -0.007415   0.000092  -0.000002   0.002769  -0.000033  -0.000015
    10  O   -0.003142   0.000339  -0.000017  -0.000090   0.000393   0.000003
    11  O   -0.000080  -0.000001   0.000000   0.000005   0.000143   0.000000
    12  C   -0.000563  -0.000009   0.000116   0.000004   0.000492   0.000010
    13  C   -0.000038   0.000002  -0.000032  -0.000003  -0.000016   0.000001
    14  C    0.007967  -0.000198  -0.000011  -0.000109  -0.000275  -0.000060
    15  O   -0.049684   0.003935   0.000449  -0.004276   0.003518   0.004066
    16  Si  -0.004423  -0.002574   0.000581   0.006587   0.001324   0.000384
    17  C   -0.000048  -0.002103  -0.000122   0.000934   0.000034  -0.000790
    18  C   -0.001985   0.000171  -0.000001   0.000783  -0.000029   0.000074
    19  C   -0.000112  -0.000033   0.000000   0.000008   0.000011  -0.000044
    20  H    0.000065  -0.000005   0.000000   0.000070  -0.000003   0.000000
    21  H    0.000190   0.000065  -0.000003   0.003403  -0.000058   0.000027
    22  H    0.000235   0.000003   0.000001  -0.000236   0.000012   0.000000
    23  H   -0.000015  -0.000002   0.000000   0.000006   0.000000  -0.000015
    24  H    0.000010  -0.000001   0.000000   0.000012  -0.000001   0.000001
    25  H   -0.000015   0.000002   0.000000  -0.000001   0.000001   0.000001
    26  H    0.000016   0.000114   0.000002   0.000012   0.000000   0.000240
    27  H    0.000129  -0.000231  -0.000058  -0.000039  -0.000015   0.000989
    28  H    0.000940   0.000359   0.000240   0.002074  -0.000002  -0.001185
    29  H    0.000317   0.000010   0.000001  -0.000017  -0.000035   0.000016
    30  H   -0.000083  -0.000047  -0.000003   0.000014  -0.000013  -0.000007
    31  H   -0.000108  -0.000048  -0.000001   0.000011  -0.000007   0.000001
    32  H   -0.000008  -0.000013  -0.000002   0.000002  -0.000020  -0.000001
    33  H    0.000027   0.000137   0.000203   0.000003  -0.000010  -0.000005
    34  H    0.000000   0.000000  -0.000001   0.000000   0.000001   0.000000
    35  H    0.000005  -0.000003   0.000000   0.000000   0.000003   0.000000
    36  H   -0.000030   0.000018   0.000055   0.000001  -0.000015   0.000000
    37  C    5.480888   0.314907  -0.057420   0.392299   0.384397  -0.047295
    38  C    0.314907   5.071881   0.621110  -0.041961  -0.045630   0.397602
    39  C   -0.057420   0.621110   5.142909  -0.002055   0.002157  -0.038182
    40  H    0.392299  -0.041961  -0.002055   0.443471  -0.026337  -0.001516
    41  H    0.384397  -0.045630   0.002157  -0.026337   0.447384   0.004500
    42  H   -0.047295   0.397602  -0.038182  -0.001516   0.004500   0.453062
    43  H    0.006391  -0.039260   0.392686  -0.000340   0.000133  -0.007757
    44  H   -0.009047  -0.040907   0.388420   0.000158   0.004440   0.005752
              43         44
     1  C    0.000047   0.000076
     2  C    0.000027  -0.000180
     3  C   -0.000339   0.000250
     4  C    0.000016  -0.000052
     5  C    0.000000  -0.000016
     6  H    0.000040   0.000878
     7  H    0.000136  -0.000025
     8  H   -0.000001   0.000002
     9  H    0.000001   0.000003
    10  O    0.000000  -0.000021
    11  O    0.000000   0.000000
    12  C   -0.000004   0.000050
    13  C   -0.000001   0.000021
    14  C   -0.000002   0.000003
    15  O    0.000013  -0.000006
    16  Si   0.000005  -0.000011
    17  C    0.000012  -0.000005
    18  C    0.000000   0.000000
    19  C    0.000000   0.000000
    20  H    0.000000   0.000000
    21  H    0.000000   0.000000
    22  H    0.000000   0.000000
    23  H    0.000000   0.000000
    24  H    0.000000   0.000000
    25  H    0.000000   0.000000
    26  H   -0.000001   0.000000
    27  H   -0.000009   0.000001
    28  H    0.000012  -0.000010
    29  H    0.000000   0.000000
    30  H    0.000000   0.000000
    31  H    0.000000   0.000001
    32  H    0.000000   0.000001
    33  H    0.000007   0.000004
    34  H    0.000000  -0.000001
    35  H    0.000000  -0.000003
    36  H   -0.000003   0.000091
    37  C    0.006391  -0.009047
    38  C   -0.039260  -0.040907
    39  C    0.392686   0.388420
    40  H   -0.000340   0.000158
    41  H    0.000133   0.004440
    42  H   -0.007757   0.005752
    43  H    0.451757  -0.032510
    44  H   -0.032510   0.457627
 Mulliken charges:
               1
     1  C   -0.053475
     2  C   -0.302705
     3  C    0.200753
     4  C   -0.627252
     5  C    0.478532
     6  H    0.258803
     7  H    0.255364
     8  H    0.298196
     9  H    0.279220
    10  O   -0.312360
    11  O   -0.383370
    12  C   -0.462691
    13  C   -0.662661
    14  C   -0.672019
    15  O   -0.623649
    16  Si   1.398731
    17  C   -1.061328
    18  C   -1.083404
    19  C   -1.038832
    20  H    0.249583
    21  H    0.248281
    22  H    0.251311
    23  H    0.237263
    24  H    0.234134
    25  H    0.235470
    26  H    0.238472
    27  H    0.241825
    28  H    0.243665
    29  H    0.259932
    30  H    0.227731
    31  H    0.242458
    32  H    0.243863
    33  H    0.240416
    34  H    0.228687
    35  H    0.236706
    36  H    0.221498
    37  C   -0.541687
    38  C   -0.173839
    39  C   -0.453557
    40  H    0.262244
    41  H    0.253826
    42  H    0.231906
    43  H    0.228944
    44  H    0.225016
 Sum of Mulliken charges =   0.00000
 Mulliken charges with hydrogens summed into heavy atoms:
               1
     1  C    0.205328
     2  C   -0.047342
     3  C    0.200753
     4  C   -0.049835
     5  C    0.478532
    10  O   -0.312360
    11  O   -0.383370
    12  C    0.021588
    13  C    0.024230
    14  C    0.058101
    15  O   -0.623649
    16  Si   1.398731
    17  C   -0.337367
    18  C   -0.334229
    19  C   -0.331965
    37  C   -0.025617
    38  C    0.058067
    39  C    0.000404
 Electronic spatial extent (au):  <R**2>=           5645.3109
 Charge=              0.0000 electrons
 Dipole moment (field-independent basis, Debye):
    X=             -2.0081    Y=              3.5231    Z=              2.1118  Tot=              4.5722
 Quadrupole moment (field-independent basis, Debye-Ang):
   XX=           -118.3297   YY=           -125.9521   ZZ=           -124.2956
   XY=             11.5169   XZ=              9.0214   YZ=             -7.6371
 Traceless Quadrupole moment (field-independent basis, Debye-Ang):
   XX=              4.5294   YY=             -3.0930   ZZ=             -1.4365
   XY=             11.5169   XZ=              9.0214   YZ=             -7.6371
 Octapole moment (field-independent basis, Debye-Ang**2):
  XXX=            -12.9749  YYY=             17.5297  ZZZ=              9.9689  XYY=            -10.2357
  XXY=             16.2460  XXZ=             14.3363  XZZ=              2.5122  YZZ=             16.8823
  YYZ=             29.0084  XYZ=            -22.3072
 Hexadecapole moment (field-independent basis, Debye-Ang**3):
 XXXX=          -4825.9113 YYYY=          -1668.0465 ZZZZ=          -1119.5810 XXXY=             47.3588
 XXXZ=             80.8681 YYYX=             56.3718 YYYZ=            -32.5303 ZZZX=             22.2890
 ZZZY=             -8.1240 XXYY=          -1155.8156 XXZZ=          -1022.9579 YYZZ=           -524.8097
 XXYZ=            -14.3362 YYXZ=             17.6590 ZZXY=             24.7080
 N-N= 1.624730746340D+03 E-N=-5.744461976413D+03  KE= 1.060519791656D+03
 1\1\GINC-SWANNODE-0-8\SP\RmPW1PW91\6-311G(d)\C14H26O3Si1\AH809\08-Mar-
 2018\0\\#mPW1PW91/6-311g(d) nmr=(giao) scrf=(solvent=chloroform)\\P_ng
 _3ginp003\\0,1\C,0,-0.263187,0.331868,-0.16528\C,0,-1.6724,0.059624,0.
 373223\C,0,-1.891996,0.899831,1.674816\C,0,-1.687915,2.37581,1.308847\
 C,0,-0.479573,2.679328,0.462896\H,0,0.485759,0.01513,0.568221\H,0,-1.7
 6271,-1.007054,0.616741\H,0,-2.563999,2.771473,0.781074\H,0,-1.57787,2
 .969805,2.222326\O,0,-0.046309,1.736323,-0.397786\O,0,0.035601,3.79431
 3,0.480226\C,0,0.051694,-0.417377,-1.470174\C,0,1.524931,-0.314312,-1.
 849508\C,0,-2.759625,0.324293,-0.691339\O,0,-3.260832,0.631761,2.05378
 7\Si,0,-4.143128,1.213771,3.350074\C,0,-3.96622,0.085471,4.847695\C,0,
 -3.7145,2.958094,3.881503\C,0,-5.975066,1.214699,2.872384\H,0,-4.39026
 8,3.289037,4.67637\H,0,-2.693951,3.014355,4.270203\H,0,-3.812321,3.658
 49,3.047135\H,0,-6.297284,0.204902,2.602426\H,0,-6.587951,1.564893,3.7
 07911\H,0,-6.142709,1.874168,2.015981\H,0,-4.652132,0.395571,5.641686\
 H,0,-4.198689,-0.948706,4.57755\H,0,-2.948656,0.119553,5.245955\H,0,-3
 .766457,0.187055,-0.285087\H,0,-2.695624,1.334749,-1.106025\H,0,-2.667
 511,-0.381896,-1.523095\H,0,-0.529735,0.000428,-2.299987\H,0,-0.213026
 ,-1.475806,-1.366889\H,0,1.715689,-0.870907,-2.772583\H,0,1.821888,0.7
 25812,-2.016071\H,0,2.161946,-0.733255,-1.064036\C,0,-0.892033,0.49866
 2,2.814287\C,0,-0.845458,-0.97559,3.125679\C,0,0.276233,-1.706898,3.14
 2412\H,0,-1.16214,1.014126,3.743067\H,0,0.11687,0.856121,2.573803\H,0,
 -1.791405,-1.463073,3.354929\H,0,0.242537,-2.766518,3.379581\H,0,1.249
 521,-1.274492,2.93147\\Version=EM64L-G09RevD.01\State=1-A\HF=-1064.377
 3428\RMSD=9.579e-09\Dipole=-0.7438361,-1.5159068,0.6201219\Quadrupole=
 0.0447996,-4.2813039,4.2365042,-10.0153088,1.183952,6.2912127\PG=C01 [
 X(C14H26O3Si1)]\\@


 WHEN A MATHEMATICIAN ENGAGED IN INVESTIGATING
 PHYSICAL ACTIONS AND RESULTS HAS ARRIVED AT HIS
 CONCLUSIONS, MAY THEY NOT BE EXPRESSED IN COMMON
 LANGUAGE AS FULLY, CLEARLY, AND DEFINITELY AS IN
 MATHEMATICAL FORMULAE?
           - LETTER FROM M. FARADAY TO J.C. MAXWELL, 1857.
 Job cpu time:       0 days  1 hours 14 minutes 31.2 seconds.
 File lengths (MBytes):  RWF=    235 Int=      0 D2E=      0 Chk=     11 Scr=      1
 Normal termination of Gaussian 09 at Thu Mar  8 13:20:24 2018.
