 Entering Gaussian System, Link 0=/usr/local/shared/gaussian/em64t/09-D01/g09/g09
 Initial command:
 /usr/local/shared/gaussian/em64t/09-D01/g09/l1.exe "/scratch/ah809/P_ng_2ginp017/Gau-12580.inp" -scrdir="/scratch/ah809/P_ng_2ginp017/"
 Entering Link 1 = /usr/local/shared/gaussian/em64t/09-D01/g09/l1.exe PID=     12623.
  
 Copyright (c) 1988,1990,1992,1993,1995,1998,2003,2009,2013,
            Gaussian, Inc.  All Rights Reserved.
  
 This is part of the Gaussian(R) 09 program.  It is based on
 the Gaussian(R) 03 system (copyright 2003, Gaussian, Inc.),
 the Gaussian(R) 98 system (copyright 1998, Gaussian, Inc.),
 the Gaussian(R) 94 system (copyright 1995, Gaussian, Inc.),
 the Gaussian 92(TM) system (copyright 1992, Gaussian, Inc.),
 the Gaussian 90(TM) system (copyright 1990, Gaussian, Inc.),
 the Gaussian 88(TM) system (copyright 1988, Gaussian, Inc.),
 the Gaussian 86(TM) system (copyright 1986, Carnegie Mellon
 University), and the Gaussian 82(TM) system (copyright 1983,
 Carnegie Mellon University). Gaussian is a federally registered
 trademark of Gaussian, Inc.
  
 This software contains proprietary and confidential information,
 including trade secrets, belonging to Gaussian, Inc.
  
 This software is provided under written license and may be
 used, copied, transmitted, or stored only in accord with that
 written license.
  
 The following legend is applicable only to US Government
 contracts under FAR:
  
                    RESTRICTED RIGHTS LEGEND
  
 Use, reproduction and disclosure by the US Government is
 subject to restrictions as set forth in subparagraphs (a)
 and (c) of the Commercial Computer Software - Restricted
 Rights clause in FAR 52.227-19.
  
 Gaussian, Inc.
 340 Quinnipiac St., Bldg. 40, Wallingford CT 06492
  
  
 ---------------------------------------------------------------
 Warning -- This program may not be used in any manner that
 competes with the business of Gaussian, Inc. or will provide
 assistance to any competitor of Gaussian, Inc.  The licensee
 of this program is prohibited from giving any competitor of
 Gaussian, Inc. access to this program.  By using this program,
 the user acknowledges that Gaussian, Inc. is engaged in the
 business of creating and licensing software in the field of
 computational chemistry and represents and warrants to the
 licensee that it is not a competitor of Gaussian, Inc. and that
 it will not use this program in any manner prohibited above.
 ---------------------------------------------------------------
  

 Cite this work as:
 Gaussian 09, Revision D.01,
 M. J. Frisch, G. W. Trucks, H. B. Schlegel, G. E. Scuseria, 
 M. A. Robb, J. R. Cheeseman, G. Scalmani, V. Barone, B. Mennucci, 
 G. A. Petersson, H. Nakatsuji, M. Caricato, X. Li, H. P. Hratchian, 
 A. F. Izmaylov, J. Bloino, G. Zheng, J. L. Sonnenberg, M. Hada, 
 M. Ehara, K. Toyota, R. Fukuda, J. Hasegawa, M. Ishida, T. Nakajima, 
 Y. Honda, O. Kitao, H. Nakai, T. Vreven, J. A. Montgomery, Jr., 
 J. E. Peralta, F. Ogliaro, M. Bearpark, J. J. Heyd, E. Brothers, 
 K. N. Kudin, V. N. Staroverov, T. Keith, R. Kobayashi, J. Normand, 
 K. Raghavachari, A. Rendell, J. C. Burant, S. S. Iyengar, J. Tomasi, 
 M. Cossi, N. Rega, J. M. Millam, M. Klene, J. E. Knox, J. B. Cross, 
 V. Bakken, C. Adamo, J. Jaramillo, R. Gomperts, R. E. Stratmann, 
 O. Yazyev, A. J. Austin, R. Cammi, C. Pomelli, J. W. Ochterski, 
 R. L. Martin, K. Morokuma, V. G. Zakrzewski, G. A. Voth, 
 P. Salvador, J. J. Dannenberg, S. Dapprich, A. D. Daniels, 
 O. Farkas, J. B. Foresman, J. V. Ortiz, J. Cioslowski, 
 and D. J. Fox, Gaussian, Inc., Wallingford CT, 2013.
 
 ******************************************
 Gaussian 09:  EM64L-G09RevD.01 24-Apr-2013
                 8-Mar-2018 
 ******************************************
 %mem=6000MB
 %chk=P_ng_2ginp017.chk
 --------------------------------------------------------
 #mPW1PW91/6-311g(d) nmr=(giao) scrf=(solvent=chloroform)
 --------------------------------------------------------
 1/38=1/1;
 2/12=2,17=6,18=5,40=1/2;
 3/5=4,6=6,7=1,11=2,16=1,25=1,30=1,70=2201,72=7,74=-7/1,2,8,3;
 4//1;
 5/5=2,38=5,53=7/2;
 8/6=1,10=90,11=11/1;
 10/13=100,45=16/2;
 6/7=2,8=2,9=2,10=2,28=1/1;
 99/9=1/99;
 -------------
 P_ng_2ginp017
 -------------
 Symbolic Z-matrix:
 Charge =  0 Multiplicity = 1
 C                    -0.12367   0.18325   0.99095 
 C                    -1.64862  -0.02932   1.0896 
 C                    -2.33988   1.18411   1.79128 
 C                    -1.64304   1.41541   3.13687 
 C                    -0.14035   1.43254   3.08267 
 H                     0.32862  -0.78351   0.734 
 H                    -2.03398  -0.12192   0.06514 
 H                    -1.96624   2.36037   3.58492 
 H                    -1.91236   0.62983   3.85364 
 O                     0.46185   0.55427   2.25415 
 O                     0.51555   2.10668   3.87236 
 C                     0.33621   1.17675  -0.0884 
 C                     1.83214   1.06117  -0.36501 
 C                    -1.89689  -1.38208   1.78754 
 O                    -2.20722   2.28928   0.8717 
 Si                   -2.46664   3.9277    1.11063 
 C                    -3.96788   4.3493    2.14814 
 C                    -0.96372   4.75145   1.88688 
 C                    -2.72175   4.73519  -0.58408 
 H                    -1.07473   5.83984   1.86825 
 H                    -0.84048   4.44413   2.92837 
 H                    -0.05401   4.49132   1.33835 
 H                    -1.84831   4.5644   -1.21996 
 H                    -3.60052   4.30977  -1.07721 
 H                    -2.86955   5.81343  -0.47525 
 H                    -4.09631   5.43473   2.20563 
 H                    -4.87783   3.92879   1.71043 
 H                    -3.86339   3.9733    3.16966 
 H                    -1.37784  -2.1873    1.25476 
 H                    -1.5357   -1.38843   2.82012 
 H                    -2.9548   -1.65371   1.79265 
 H                     0.15606   2.20727   0.22565 
 H                    -0.20916   1.00074  -1.02204 
 H                     2.12773   1.77547  -1.14007 
 H                     2.42001   1.27548   0.533 
 H                     2.09011   0.05665  -0.71511 
 C                    -3.85892   0.89887   2.04838 
 C                    -4.66962   0.62149   0.80673 
 C                    -5.45642  -0.44917   0.64045 
 H                    -4.31941   1.759     2.54201 
 H                    -3.97161   0.07492   2.76401 
 H                    -4.61027   1.35618   0.00553 
 H                    -6.01943  -0.58501  -0.27839 
 H                    -5.56338  -1.20894   1.40825 
 
                          Input orientation:                          
 ---------------------------------------------------------------------
 Center     Atomic      Atomic             Coordinates (Angstroms)
 Number     Number       Type             X           Y           Z
 ---------------------------------------------------------------------
      1          6           0       -0.123671    0.183249    0.990949
      2          6           0       -1.648615   -0.029316    1.089605
      3          6           0       -2.339878    1.184114    1.791281
      4          6           0       -1.643037    1.415406    3.136870
      5          6           0       -0.140349    1.432541    3.082670
      6          1           0        0.328618   -0.783512    0.733997
      7          1           0       -2.033978   -0.121924    0.065138
      8          1           0       -1.966243    2.360368    3.584915
      9          1           0       -1.912364    0.629827    3.853644
     10          8           0        0.461848    0.554272    2.254151
     11          8           0        0.515546    2.106680    3.872355
     12          6           0        0.336207    1.176746   -0.088397
     13          6           0        1.832137    1.061169   -0.365010
     14          6           0       -1.896893   -1.382080    1.787543
     15          8           0       -2.207217    2.289284    0.871699
     16         14           0       -2.466638    3.927696    1.110631
     17          6           0       -3.967882    4.349296    2.148136
     18          6           0       -0.963717    4.751453    1.886875
     19          6           0       -2.721753    4.735187   -0.584077
     20          1           0       -1.074735    5.839844    1.868250
     21          1           0       -0.840476    4.444130    2.928366
     22          1           0       -0.054008    4.491315    1.338352
     23          1           0       -1.848308    4.564397   -1.219964
     24          1           0       -3.600521    4.309765   -1.077209
     25          1           0       -2.869548    5.813428   -0.475252
     26          1           0       -4.096315    5.434735    2.205627
     27          1           0       -4.877830    3.928788    1.710425
     28          1           0       -3.863387    3.973298    3.169664
     29          1           0       -1.377837   -2.187297    1.254761
     30          1           0       -1.535696   -1.388427    2.820119
     31          1           0       -2.954802   -1.653707    1.792646
     32          1           0        0.156063    2.207271    0.225650
     33          1           0       -0.209155    1.000739   -1.022043
     34          1           0        2.127729    1.775471   -1.140068
     35          1           0        2.420008    1.275476    0.532995
     36          1           0        2.090113    0.056651   -0.715113
     37          6           0       -3.858918    0.898871    2.048377
     38          6           0       -4.669623    0.621488    0.806727
     39          6           0       -5.456421   -0.449172    0.640453
     40          1           0       -4.319408    1.758999    2.542012
     41          1           0       -3.971605    0.074920    2.764014
     42          1           0       -4.610266    1.356182    0.005526
     43          1           0       -6.019429   -0.585011   -0.278391
     44          1           0       -5.563380   -1.208935    1.408254
 ---------------------------------------------------------------------
                    Distance matrix (angstroms):
                    1          2          3          4          5
     1  C    0.000000
     2  C    1.542845   0.000000
     3  C    2.560046   1.562884   0.000000
     4  C    2.903732   2.505703   1.532871   0.000000
     5  C    2.436453   2.895548   2.562680   1.503763   0.000000
     6  H    1.097824   2.145861   3.479982   3.807422   3.262987
     7  H    2.144651   1.098460   2.186065   3.457131   3.886861
     8  H    3.855331   3.469589   2.177223   1.094605   2.108792
     9  H    3.404978   2.853760   2.177922   1.097012   2.092555
    10  O    1.440892   2.480080   2.908714   2.439526   1.349237
    11  O    3.522880   4.121865   3.651773   2.382914   1.228114
    12  C    1.537372   2.604188   3.270271   3.791664   3.216862
    13  C    2.536642   3.926920   4.697916   4.946259   3.989375
    14  C    2.495823   1.542313   2.604151   3.116256   3.561586
    15  O    2.964923   2.394875   1.443825   2.492581   3.145528
    16  Si   4.418676   4.040736   2.829593   3.331000   3.940350
    17  C    5.785584   5.066728   3.577166   3.871719   4.902124
    18  C    4.730417   4.894944   3.824770   3.626730   3.622573
    19  C    5.472739   5.162686   4.289321   5.101962   5.569215
    20  H    5.802693   5.948333   4.825177   4.637673   4.666070
    21  H    4.735240   4.903657   3.764156   3.140183   3.095748
    22  H    4.322612   4.800078   4.045729   3.901397   3.522243
    23  H    5.201631   5.145501   4.553630   5.379617   5.589124
    24  H    5.778745   5.228063   4.425737   5.474260   6.128279
    25  H    6.433390   6.170665   5.181532   5.821886   6.268932
    26  H    6.695928   6.090369   4.617849   4.800083   5.695299
    27  H    6.094976   5.145856   3.739114   4.337709   5.527932
    28  H    5.752977   5.025214   3.464183   3.387306   4.508218
    29  H    2.694813   2.181165   3.546800   4.073344   4.239794
    30  H    2.794610   2.203318   2.884993   2.823709   3.158130
    31  H    3.468779   2.199781   2.903681   3.598211   4.371525
    32  H    2.181880   3.000934   3.118938   3.512693   2.975001
    33  H    2.174335   2.755379   3.533893   4.418656   4.127936
    34  H    3.484997   4.742307   5.376060   5.713188   4.805548
    35  H    2.805884   4.308827   4.924241   4.827844   3.616758
    36  H    2.797770   4.152407   5.213253   5.533570   4.614238
    37  C    3.947447   2.581901   1.566826   2.522252   3.896450
    38  C    4.570741   3.103233   2.591063   3.901294   5.133424
    39  C    5.381545   3.857124   3.702009   4.924495   6.145396
    40  H    4.742678   3.527136   2.193770   2.763128   4.226514
    41  H    4.238171   2.865448   2.199785   2.712592   4.077156
    42  H    4.740924   3.444736   2.893646   4.314310   5.427228
    43  H    6.079590   4.613483   4.577384   5.900719   7.066175
    44  H    5.630520   4.101027   4.032909   5.024377   6.260218
                    6          7          8          9         10
     6  H    0.000000
     7  H    2.543016   0.000000
     8  H    4.824739   4.307574   0.000000
     9  H    4.092887   3.864285   1.752110   0.000000
    10  O    2.029356   3.387944   3.305834   2.863733   0.000000
    11  O    4.270532   5.095258   2.511226   2.841864   2.243087
    12  C    2.125794   2.707008   4.493936   4.571092   2.427095
    13  C    2.621304   4.065905   5.631831   5.657242   2.999107
    14  C    2.533997   2.138566   4.152261   2.883883   3.087206
    15  O    3.986414   2.548426   2.724823   3.425308   3.470641
    16  Si   5.490974   4.204720   2.971362   4.325191   4.611253
    17  C    6.841449   5.298176   3.166501   4.579122   5.834034
    18  C    5.799577   5.311684   3.099304   4.664323   4.447860
    19  C    6.441904   4.948337   4.857062   6.099382   5.972512
    20  H    6.864749   6.301907   3.981015   5.638057   5.517905
    21  H    5.788806   5.520088   2.457737   4.068660   4.157115
    22  H    5.323105   5.179124   3.639316   4.969031   4.074936
    23  H    6.095662   4.862876   5.287581   6.420782   5.786830
    24  H    6.682819   4.837239   5.310971   6.380057   6.457904
    25  H    7.430354   6.018189   5.405973   6.820943   6.797541
    26  H    7.772536   6.301697   3.986399   5.529262   6.678183
    27  H    7.089872   5.215624   3.801446   4.926512   6.339965
    28  H    6.792100   5.454875   2.524506   3.931045   5.588878
    29  H    2.270197   2.472143   5.143646   3.869897   3.449554
    30  H    2.862428   3.072822   3.850162   2.298565   2.843340
    31  H    3.557924   2.485671   4.505805   3.247910   4.094100
    32  H    3.038581   3.201124   3.976466   4.464198   2.634526
    33  H    2.560552   2.402564   5.114686   5.177917   3.373874
    34  H    3.646548   4.729951   6.279186   6.524723   3.973312
    35  H    2.941725   4.691440   5.452559   5.496637   2.704978
    36  H    2.430773   4.201048   6.344397   6.100975   3.422777
    37  C    4.700369   2.881955   2.842383   2.668416   4.339367
    38  C    5.192468   2.837118   4.248564   4.109288   5.332124
    39  C    5.795447   3.485856   5.361410   4.903996   6.215853
    40  H    5.597984   3.859529   2.643232   2.964670   4.939093
    41  H    4.832162   3.328224   3.149385   2.394930   4.488345
    42  H    5.431532   2.970793   4.561937   4.755447   5.605864
    43  H    6.431332   4.026944   6.326824   5.951263   7.051148
    44  H    5.945692   3.929661   5.515176   4.763496   6.334652
                   11         12         13         14         15
    11  O    0.000000
    12  C    4.072407   0.000000
    13  C    4.558702   1.525673   0.000000
    14  C    4.726283   3.879881   4.950618   0.000000
    15  O    4.055949   2.937436   4.399329   3.796575   0.000000
    16  Si   4.453834   4.106255   5.373450   5.382986   1.675942
    17  C    5.301263   5.795890   7.125160   6.104727   2.995477
    18  C    3.622868   4.286028   5.148396   6.204910   2.939243
    19  C    6.103191   4.717978   5.855281   6.612559   2.892486
    20  H    4.525698   5.250115   6.022714   7.269019   3.857733
    21  H    2.862444   4.600135   5.425275   6.030109   3.277380
    22  H    3.525911   3.629635   4.269062   6.172096   3.114966
    23  H    6.128613   4.186732   5.152594   6.663936   3.111271
    24  H    6.803953   5.127513   6.369802   6.595927   3.133988
    25  H    6.640823   5.650251   6.685952   7.605369   3.830477
    26  H    5.926482   6.560508   7.802743   7.175041   3.904090
    27  H    6.089542   6.164063   7.586457   6.090751   3.244011
    28  H    4.811766   6.006018   7.308448   5.870045   3.295367
    29  H    5.373540   4.007344   4.845629   1.096198   4.568849
    30  H    4.186952   4.306228   5.242887   1.093945   4.215785
    31  H    5.523497   4.730806   5.911076   1.092236   4.117548
    32  H    3.665761   1.092272   2.114628   4.420133   2.451367
    33  H    5.069855   1.095488   2.145278   4.052167   3.039549
    34  H    5.275720   2.161952   1.094677   5.893947   4.806555
    35  H    3.933090   2.176718   1.094501   5.222272   4.749078
    36  H    5.265619   2.173378   1.094614   4.922342   5.096044
    37  C    4.890975   4.716152   6.183760   3.019986   2.458848
    38  C    6.204019   5.115456   6.621115   3.558696   2.974762
    39  C    7.255478   6.060476   7.511003   3.854397   4.255578
    40  H    5.026676   5.378924   6.839536   4.037843   2.744540
    41  H    5.048861   5.282756   6.666851   2.716758   3.405485
    42  H    6.464485   4.950618   6.459790   4.246888   2.719481
    43  H    8.196328   6.598030   8.022749   4.679605   4.910931
    44  H    7.349724   6.537321   7.936719   3.690117   4.877423
                   16         17         18         19         20
    16  Si   0.000000
    17  C    1.872938   0.000000
    18  C    1.881463   3.042202   0.000000
    19  C    1.894508   3.027662   3.032583   0.000000
    20  H    2.483484   3.266553   1.094197   3.153862   0.000000
    21  H    2.493044   3.224658   1.092858   3.995144   1.768259
    22  H    2.488033   3.999291   1.093673   3.297282   1.772345
    23  H    2.493871   3.985343   3.235729   1.093813   3.429613
    24  H    2.493654   3.246439   3.991694   1.093799   4.170907
    25  H    2.496667   3.198779   3.215529   1.093750   2.951958
    26  H    2.475082   1.094522   3.222056   3.187669   3.067227
    27  H    2.484673   1.093811   4.003523   3.250183   4.259175
    28  H    2.488494   1.093532   3.264837   3.996796   3.599202
    29  H    6.212842   7.087560   6.979779   7.287539   8.056254
    30  H    5.661287   6.268058   6.236684   7.105908   7.305234
    31  H    5.644068   6.098258   6.708157   6.820637   7.726168
    32  H    3.259082   5.029030   3.238277   3.915079   4.172360
    33  H    4.267506   5.949025   4.806144   4.522285   5.702627
    34  H    5.550309   7.388730   5.251275   5.708460   5.985389
    35  H    5.589923   7.270639   5.036368   6.297234   5.901660
    36  H    6.251585   7.957657   6.175547   6.712669   7.080632
    37  C    3.462888   3.453586   4.821894   4.789601   5.674270
    38  C    3.984534   4.023477   5.653058   4.759312   6.425052
    39  C    5.321357   5.245393   6.984587   5.987943   7.762627
    40  H    3.191372   2.643548   4.543638   4.602459   5.256915
    41  H    4.454490   4.318519   5.629096   5.872813   6.513724
    42  H    3.525490   3.736598   5.325848   3.915583   6.006076
    43  H    5.908996   5.868924   7.663318   6.266787   8.386705
    44  H    6.005278   5.829835   7.544018   6.883082   8.369278
                   21         22         23         24         25
    21  H    0.000000
    22  H    1.774515   0.000000
    23  H    4.270694   3.125673   0.000000
    24  H    4.866265   4.294840   1.776363   0.000000
    25  H    4.192461   3.600612   1.776965   1.776985   0.000000
    26  H    3.479100   4.240572   4.188758   3.505479   2.972453
    27  H    4.248433   4.870743   4.262532   3.089913   3.515999
    28  H    3.068859   4.258335   4.866084   4.268283   4.202286
    29  H    6.860433   6.809065   7.206315   7.251912   8.320442
    30  H    5.874842   6.241987   7.201119   7.205696   8.031522
    31  H    6.553156   6.810454   6.997497   6.649513   7.804405
    32  H    3.647095   2.549332   3.415164   4.497760   4.759197
    33  H    5.278375   4.216593   3.927551   4.738571   5.526178
    34  H    5.699486   4.275319   4.857300   6.264140   6.459091
    35  H    5.138962   4.136541   5.666426   6.931554   7.041944
    36  H    6.411962   5.336686   6.007146   7.113607   7.602385
    37  C    4.738590   5.280827   5.306664   4.633601   5.612524
    38  C    5.811739   6.046659   5.254886   4.277333   5.642693
    39  C    7.105343   7.354015   6.451008   5.389082   6.867086
    40  H    4.411594   5.206533   5.303683   4.485751   5.257791
    41  H    5.377823   6.073271   6.366779   5.729451   6.681156
    42  H    5.682406   5.689022   4.407140   3.303869   4.809188
    43  H    7.899184   7.998074   6.693371   5.517976   7.134460
    44  H    7.521549   7.927857   7.351235   6.362892   7.753574
                   26         27         28         29         30
    26  H    0.000000
    27  H    1.767446   0.000000
    28  H    1.766188   1.777767   0.000000
    29  H    8.147984   7.061450   6.913591   0.000000
    30  H    7.313680   6.377621   5.855632   1.764499   0.000000
    31  H    7.191635   5.905002   5.863863   1.749531   1.771986
    32  H    5.693817   5.523428   5.286024   4.766985   4.745773
    33  H    6.722216   6.151128   6.305547   4.088181   4.714874
    34  H    7.957551   7.863838   7.700500   5.807558   6.254120
    35  H    7.909463   7.853970   7.328801   5.189930   5.289131
    36  H    8.702092   8.332401   8.116389   4.576285   5.266176
    37  C    4.544793   3.214466   3.272523   4.038567   3.350325
    38  C    5.045092   3.434859   4.179488   4.350387   4.232612
    39  C    6.238591   4.543803   5.337875   4.475857   4.583146
    40  H    3.697832   2.389844   2.346278   5.087544   4.211020
    41  H    5.390266   4.096778   3.920920   3.758072   2.842215
    42  H    4.662530   3.097834   4.173595   4.956352   4.990771
    43  H    6.790144   5.062906   6.108664   5.144147   5.509093
    44  H    6.850287   5.192060   5.731324   4.301107   4.271747
                   31         32         33         34         35
    31  H    0.000000
    32  H    5.200010   0.000000
    33  H    4.744169   1.773652   0.000000
    34  H    6.796484   2.437028   2.464785   0.000000
    35  H    6.249433   2.467418   3.066940   1.770469   0.000000
    36  H    5.887729   3.041505   2.504424   1.770973   1.775426
    37  C    2.720014   4.599382   4.770600   6.839192   6.470172
    38  C    3.014823   5.112690   4.835701   7.164194   7.124991
    39  C    3.006086   6.223241   5.692094   8.101767   8.063752
    40  H    3.751035   5.059281   5.492870   7.424524   7.049090
    41  H    2.228362   5.294134   5.417324   7.438791   6.875427
    42  H    3.872182   4.846720   4.533433   6.847537   7.050496
    43  H    3.850097   6.796146   6.068518   8.525875   8.680084
    44  H    2.673997   6.766169   6.281459   8.634453   8.406715
                   36         37         38         39         40
    36  H    0.000000
    37  C    6.613409   0.000000
    38  C    6.951911   1.508602   0.000000
    39  C    7.683983   2.520215   1.339034   0.000000
    40  H    7.388424   1.093411   2.104233   3.128058   0.000000
    41  H    6.989212   1.097146   2.148706   2.643646   1.733890
    42  H    6.863176   2.224162   1.088679   2.092466   2.584690
    43  H    8.146602   3.504791   2.110710   1.086142   4.042169
    44  H    8.042783   2.785282   2.123931   1.085448   3.411965
                   41         42         43         44
    41  H    0.000000
    42  H    3.107857   0.000000
    43  H    3.726301   2.415487   0.000000
    44  H    2.453593   3.075044   1.855272   0.000000
 Stoichiometry    C14H26O3Si
 Framework group  C1[X(C14H26O3Si)]
 Deg. of freedom   126
 Full point group                 C1      NOp   1
 Largest Abelian subgroup         C1      NOp   1
 Largest concise Abelian subgroup C1      NOp   1
                         Standard orientation:                         
 ---------------------------------------------------------------------
 Center     Atomic      Atomic             Coordinates (Angstroms)
 Number     Number       Type             X           Y           Z
 ---------------------------------------------------------------------
      1          6           0        2.189076    0.483365    0.590461
      2          6           0        1.013018    1.467075    0.418498
      3          6           0       -0.160916    0.805029   -0.372818
      4          6           0        0.402932    0.254050   -1.687425
      5          6           0        1.665628   -0.551343   -1.552361
      6          1           0        3.061822    1.065354    0.914219
      7          1           0        0.663196    1.739206    1.423577
      8          1           0       -0.335531   -0.375554   -2.193816
      9          1           0        0.635964    1.070327   -2.382281
     10          8           0        2.579464   -0.128651   -0.654209
     11          8           0        1.923926   -1.462467   -2.334282
     12          6           0        1.983573   -0.613253    1.648151
     13          6           0        3.294621   -1.304246    2.010592
     14          6           0        1.559897    2.754484   -0.231295
     15          8           0       -0.691571   -0.213015    0.502752
     16         14           0       -1.753917   -1.467825    0.177706
     17          6           0       -3.176940   -1.027387   -0.957598
     18          6           0       -0.856039   -2.951804   -0.551351
     19          6           0       -2.511607   -2.035797    1.818582
     20          1           0       -1.522047   -3.819229   -0.587033
     21          1           0       -0.517891   -2.745788   -1.569955
     22          1           0        0.014291   -3.214004    0.056839
     23          1           0       -1.724966   -2.355705    2.507990
     24          1           0       -3.068808   -1.216287    2.281536
     25          1           0       -3.194643   -2.874089    1.654214
     26          1           0       -3.850886   -1.882451   -1.070025
     27          1           0       -3.759326   -0.195154   -0.551843
     28          1           0       -2.820096   -0.753288   -1.954265
     29          1           0        2.385449    3.161463    0.364089
     30          1           0        1.941639    2.579296   -1.241393
     31          1           0        0.804696    3.541942   -0.281908
     32          1           0        1.312368   -1.392086    1.279421
     33          1           0        1.547980   -0.185219    2.557623
     34          1           0        3.117187   -2.074247    2.768176
     35          1           0        3.743740   -1.787534    1.137290
     36          1           0        4.015748   -0.588794    2.418372
     37          6           0       -1.282845    1.848885   -0.699289
     38          6           0       -1.911948    2.499893    0.507482
     39          6           0       -2.030144    3.822758    0.677974
     40          1           0       -2.090194    1.364047   -1.254868
     41          1           0       -0.896827    2.615401   -1.382789
     42          1           0       -2.302401    1.836558    1.277388
     43          1           0       -2.500739    4.226046    1.569940
     44          1           0       -1.669279    4.532146   -0.060093
 ---------------------------------------------------------------------
 Rotational constants (GHZ):      0.4055920      0.3543725      0.2664442
 Standard basis: 6-311G(d) (5D, 7F)
 There are   428 symmetry adapted cartesian basis functions of A   symmetry.
 There are   410 symmetry adapted basis functions of A   symmetry.
   410 basis functions,   720 primitive gaussians,   428 cartesian basis functions
    74 alpha electrons       74 beta electrons
       nuclear repulsion energy      1661.6929799299 Hartrees.
 NAtoms=   44 NActive=   44 NUniq=   44 SFac= 1.00D+00 NAtFMM=   60 NAOKFM=F Big=F
 Integral buffers will be    131072 words long.
 Raffenetti 2 integral format.
 Two-electron integral symmetry is turned on.
 ------------------------------------------------------------------------------
 Polarizable Continuum Model (PCM)
 =================================
 Model                : PCM (using non-symmetric T matrix).
 Atomic radii         : UFF (Universal Force Field).
 Polarization charges : Total charges.
 Charge compensation  : None.
 Solution method      : On-the-fly selection.
 Cavity type          : Scaled VdW (van der Waals Surface) (Alpha=1.100).
 Cavity algorithm     : GePol (No added spheres)
                        Default sphere list used, NSphG=   44.
                        Lebedev-Laikov grids with approx.  5.0 points / Ang**2.
                        Smoothing algorithm: Karplus/York (Gamma=1.0000).
                        Polarization charges: spherical gaussians, with
                                              point-specific exponents (IZeta= 3).
                        Self-potential: point-specific (ISelfS= 7).
                        Self-field    : sphere-specific E.n sum rule (ISelfD= 2).
 Solvent              : Chloroform, Eps=   4.711300 Eps(inf)=   2.090627
 ------------------------------------------------------------------------------
 One-electron integrals computed using PRISM.
 NBasis=   410 RedAO= T EigKep=  1.14D-03  NBF=   410
 NBsUse=   410 1.00D-06 EigRej= -1.00D+00 NBFU=   410
 ExpMin= 6.54D-02 ExpMax= 6.94D+04 ExpMxC= 2.33D+03 IAcc=2 IRadAn=         4 AccDes= 0.00D+00
 Harris functional with IExCor=  908 and IRadAn=       4 diagonalized for initial guess.
 HarFok:  IExCor=  908 AccDes= 0.00D+00 IRadAn=         4 IDoV= 1 UseB2=F ITyADJ=14
 ICtDFT=  3500011 ScaDFX=  1.000000  1.000000  1.000000  1.000000
 FoFCou: FMM=F IPFlag=           0 FMFlag=      100000 FMFlg1=           0
         NFxFlg=           0 DoJE=T BraDBF=F KetDBF=T FulRan=T
         wScrn=  0.000000 ICntrl=     500 IOpCl=  0 I1Cent=   200000004 NGrid=           0
         NMat0=    1 NMatS0=      1 NMatT0=    0 NMatD0=    1 NMtDS0=    0 NMtDT0=    0
 Petite list used in FoFCou.
 Requested convergence on RMS density matrix=1.00D-08 within 128 cycles.
 Requested convergence on MAX density matrix=1.00D-06.
 Requested convergence on             energy=1.00D-06.
 No special actions if energy rises.
 Inv3:  Mode=1 IEnd=    23637747.
 Iteration    1 A*A^-1 deviation from unit magnitude is 8.10D-15 for    501.
 Iteration    1 A*A^-1 deviation from orthogonality  is 6.22D-15 for   2411   1277.
 Iteration    1 A^-1*A deviation from unit magnitude is 8.66D-15 for   2361.
 Iteration    1 A^-1*A deviation from orthogonality  is 4.26D-13 for   1949   1947.
 Error on total polarization charges =  0.01126
 SCF Done:  E(RmPW1PW91) =  -1064.37421535     A.U. after   12 cycles
            NFock= 12  Conv=0.94D-08     -V/T= 2.0036
 DoSCS=F DFT=T ScalE2(SS,OS)=  1.000000  1.000000
 Range of M.O.s used for correlation:     1   410
 NBasis=   410 NAE=    74 NBE=    74 NFC=     0 NFV=     0
 NROrb=    410 NOA=    74 NOB=    74 NVA=   336 NVB=   336
 NEqPCM:  Using equilibrium solvation (IEInf=0, Eps=   4.7113, EpsInf=   2.0906)
          Differentiating once with respect to magnetic field using GIAOs.
          Electric field/nuclear overlap derivatives assumed to be zero.
 FoFJK:  IHMeth= 1 ICntrl=    6127 DoSepK=F KAlg= 0 I1Cent=   0 FoldK=F
 IRaf=         1 NMat=   1 IRICut=       1 DoRegI=T DoRafI=F ISym2E= 0.
          There are     3 degrees of freedom in the 1st order CPHF.  IDoFFX=0 NUNeed=     3.
      3 vectors produced by pass  0 Test12= 8.29D-13 3.33D-08 XBig12= 2.89D+01 1.06D+00.
 AX will form     3 AO Fock derivatives at one time.
      3 vectors produced by pass  1 Test12= 8.29D-13 3.33D-08 XBig12= 7.59D-02 9.84D-02.
      3 vectors produced by pass  2 Test12= 8.29D-13 3.33D-08 XBig12= 7.64D-04 1.05D-02.
      3 vectors produced by pass  3 Test12= 8.29D-13 3.33D-08 XBig12= 4.05D-06 4.53D-04.
      3 vectors produced by pass  4 Test12= 8.29D-13 3.33D-08 XBig12= 1.77D-08 3.03D-05.
      3 vectors produced by pass  5 Test12= 8.29D-13 3.33D-08 XBig12= 5.09D-11 1.14D-06.
      3 vectors produced by pass  6 Test12= 8.29D-13 3.33D-08 XBig12= 1.58D-13 5.63D-08.
 InvSVY:  IOpt=1 It=  1 EMax= 8.88D-16
 Solved reduced A of dimension    21 with     3 vectors.
 Calculating GIAO nuclear magnetic shielding tensors.
 SCF GIAO Magnetic shielding tensor (ppm):
      1  C    Isotropic =    95.7143   Anisotropy =    24.7915
   XX=    82.7357   YX=    -9.7601   ZX=    -4.5982
   XY=    -7.7240   YY=    95.7362   ZY=     6.1533
   XZ=     0.5264   YZ=     6.4590   ZZ=   108.6709
   Eigenvalues:    78.3060    96.5949   112.2420
      2  C    Isotropic =   143.0429   Anisotropy =    16.3981
   XX=   143.2928   YX=     6.1466   ZX=    -0.0502
   XY=     4.2571   YY=   138.2328   ZY=   -10.6069
   XZ=     4.3858   YZ=    -9.2079   ZZ=   147.6033
   Eigenvalues:   129.6851   145.4687   153.9750
      3  C    Isotropic =   102.9748   Anisotropy =    57.8084
   XX=    95.1010   YX=    19.9631   ZX=    -9.7267
   XY=    19.1632   YY=   117.4208   ZY=   -22.7019
   XZ=    -4.1302   YZ=   -24.3152   ZZ=    96.4026
   Eigenvalues:    78.5699    88.8407   141.5137
      4  C    Isotropic =   145.4688   Anisotropy =    34.0574
   XX=   154.4722   YX=    -9.6797   ZX=    -4.3669
   XY=   -19.5070   YY=   144.7280   ZY=    11.1128
   XZ=   -10.3224   YZ=     2.4725   ZZ=   137.2063
   Eigenvalues:   132.9525   135.2802   168.1737
      5  C    Isotropic =     7.5281   Anisotropy =   107.5316
   XX=   -45.5617   YX=    15.2926   ZX=   -66.2703
   XY=     3.1177   YY=    51.7036   ZY=   -25.2528
   XZ=   -71.5065   YZ=   -16.1145   ZZ=    16.4424
   Eigenvalues:   -90.1910    33.5595    79.2158
      6  H    Isotropic =    27.8584   Anisotropy =     3.8858
   XX=    28.6540   YX=    -0.0417   ZX=     2.4025
   XY=     0.9163   YY=    28.7987   ZY=    -0.6113
   XZ=     3.1079   YZ=     0.0433   ZZ=    26.1226
   Eigenvalues:    24.3060    28.8204    30.4489
      7  H    Isotropic =    30.0621   Anisotropy =     2.8645
   XX=    28.7863   YX=    -0.9488   ZX=    -0.4596
   XY=    -0.2329   YY=    29.7741   ZY=     0.2594
   XZ=    -1.1087   YZ=     0.5796   ZZ=    31.6259
   Eigenvalues:    28.4124    29.8022    31.9718
      8  H    Isotropic =    29.5460   Anisotropy =     3.3682
   XX=    30.0004   YX=     2.1911   ZX=     0.4261
   XY=     0.7394   YY=    29.1450   ZY=     1.4325
   XZ=    -1.0291   YZ=     2.6690   ZZ=    29.4926
   Eigenvalues:    26.7360    30.1105    31.7914
      9  H    Isotropic =    29.4632   Anisotropy =     5.7665
   XX=    26.9186   YX=     0.3646   ZX=    -1.5113
   XY=     0.4742   YY=    29.2574   ZY=    -1.5413
   XZ=    -1.2729   YZ=    -1.8426   ZZ=    32.2136
   Eigenvalues:    26.5749    28.5072    33.3075
     10  O    Isotropic =   114.3704   Anisotropy =   214.3722
   XX=   170.8589   YX=    83.4371   ZX=    59.5734
   XY=   128.9541   YY=    92.2558   ZY=  -163.8664
   XZ=    69.7979   YZ=  -128.5388   ZZ=    79.9965
   Eigenvalues:  -111.8424   197.6684   257.2852
     11  O    Isotropic =  -146.3556   Anisotropy =   616.1516
   XX=  -177.2107   YX=    86.9504   ZX=  -197.0577
   XY=   102.8027   YY=  -116.6615   ZY=  -332.2424
   XZ=  -184.9663   YZ=  -272.5392   ZZ=  -145.1946
   Eigenvalues:  -458.0282  -245.4508   264.4121
     12  C    Isotropic =   150.7450   Anisotropy =    24.1971
   XX=   142.8447   YX=    -3.0486   ZX=    -1.2918
   XY=     2.1979   YY=   150.5588   ZY=   -13.8609
   XZ=    -6.5915   YZ=    -8.2485   ZZ=   158.8314
   Eigenvalues:   140.0952   145.2634   166.8764
     13  C    Isotropic =   172.8669   Anisotropy =    25.3555
   XX=   183.9747   YX=    -6.2105   ZX=    10.2005
   XY=    -2.5260   YY=   173.1781   ZY=   -10.0830
   XZ=     7.2337   YZ=    -5.2254   ZZ=   161.4481
   Eigenvalues:   156.2732   172.5570   189.7706
     14  C    Isotropic =   169.2090   Anisotropy =    29.4560
   XX=   170.3408   YX=    11.0802   ZX=     2.8265
   XY=     8.0974   YY=   179.3448   ZY=   -11.3171
   XZ=     8.1859   YZ=   -17.4251   ZZ=   157.9415
   Eigenvalues:   146.9381   171.8427   188.8463
     15  O    Isotropic =   244.4881   Anisotropy =    37.7697
   XX=   252.4096   YX=    11.2396   ZX=     8.0694
   XY=     8.8779   YY=   226.6437   ZY=     3.8111
   XZ=    12.6354   YZ=    20.7929   ZZ=   254.4110
   Eigenvalues:   220.7631   243.0334   269.6679
     16  Si   Isotropic =   334.3834   Anisotropy =    52.9999
   XX=   337.0145   YX=    24.9108   ZX=     8.1584
   XY=    28.5390   YY=   345.6182   ZY=    13.8598
   XZ=    -1.6430   YZ=     1.8274   ZZ=   320.5175
   Eigenvalues:   313.1489   320.2846   369.7166
     17  C    Isotropic =   185.1678   Anisotropy =     8.0379
   XX=   185.0954   YX=    -0.8274   ZX=     5.8839
   XY=     3.5051   YY=   189.4736   ZY=    -2.9595
   XZ=     5.0395   YZ=    -3.1758   ZZ=   180.9343
   Eigenvalues:   176.3459   188.6310   190.5264
     18  C    Isotropic =   184.4265   Anisotropy =     9.1208
   XX=   188.6718   YX=     1.7354   ZX=    -3.5743
   XY=    -1.4311   YY=   187.3066   ZY=     5.3958
   XZ=    -3.2593   YZ=     4.5131   ZZ=   177.3010
   Eigenvalues:   174.5262   188.2462   190.5070
     19  C    Isotropic =   186.0745   Anisotropy =    12.5045
   XX=   180.9779   YX=     6.1625   ZX=    -4.0561
   XY=     6.9644   YY=   183.6990   ZY=    -0.1277
   XZ=    -2.5268   YZ=     2.0268   ZZ=   193.5465
   Eigenvalues:   175.0933   188.7193   194.4108
     20  H    Isotropic =    32.3448   Anisotropy =    10.3905
   XX=    31.3396   YX=     4.2661   ZX=    -0.0309
   XY=     3.7154   YY=    37.1093   ZY=     1.3392
   XZ=    -0.2171   YZ=     1.3571   ZZ=    28.5855
   Eigenvalues:    28.0488    29.7138    39.2718
     21  H    Isotropic =    31.8995   Anisotropy =     6.9784
   XX=    30.0747   YX=     1.2501   ZX=    -3.3833
   XY=     1.0899   YY=    30.9424   ZY=     0.9779
   XZ=    -3.5531   YZ=    -0.2612   ZZ=    34.6814
   Eigenvalues:    27.7608    31.3859    36.5518
     22  H    Isotropic =    32.0520   Anisotropy =     7.1752
   XX=    34.6010   YX=    -1.5325   ZX=     3.4660
   XY=    -1.8591   YY=    31.9629   ZY=    -1.2478
   XZ=     2.5979   YZ=    -0.8494   ZZ=    29.5920
   Eigenvalues:    28.1485    31.1720    36.8355
     23  H    Isotropic =    31.9679   Anisotropy =     8.0933
   XX=    32.2749   YX=    -0.8097   ZX=     2.1760
   XY=    -0.6551   YY=    29.1454   ZY=    -2.9983
   XZ=     3.0920   YZ=    -3.2588   ZZ=    34.4834
   Eigenvalues:    27.6507    30.8895    37.3635
     24  H    Isotropic =    32.0232   Anisotropy =     8.6553
   XX=    31.3080   YX=    -2.4136   ZX=    -3.7677
   XY=    -2.2996   YY=    32.3162   ZY=     1.7556
   XZ=    -4.1705   YZ=     2.7051   ZZ=    32.4453
   Eigenvalues:    27.8350    30.4412    37.7934
     25  H    Isotropic =    32.3486   Anisotropy =     9.8820
   XX=    32.9434   YX=     5.0969   ZX=    -1.0700
   XY=     5.2483   YY=    34.2374   ZY=    -0.8962
   XZ=    -0.7166   YZ=    -0.4602   ZZ=    29.8651
   Eigenvalues:    28.3428    29.7665    38.9366
     26  H    Isotropic =    32.1564   Anisotropy =    10.4326
   XX=    34.2710   YX=     4.5441   ZX=     2.1923
   XY=     5.1824   YY=    33.2011   ZY=     1.0743
   XZ=     1.9568   YZ=     0.9044   ZZ=    28.9970
   Eigenvalues:    28.0255    29.3321    39.1114
     27  H    Isotropic =    31.9216   Anisotropy =     7.4945
   XX=    33.8353   YX=    -2.9561   ZX=    -0.7542
   XY=    -3.0243   YY=    33.5081   ZY=     1.8119
   XZ=    -0.3879   YZ=     1.2150   ZZ=    28.4215
   Eigenvalues:    27.9916    30.8553    36.9180
     28  H    Isotropic =    31.9173   Anisotropy =     6.2344
   XX=    30.8628   YX=     1.2845   ZX=     0.6073
   XY=     1.5675   YY=    29.3282   ZY=    -1.9354
   XZ=    -0.5865   YZ=    -1.6804   ZZ=    35.5609
   Eigenvalues:    28.1387    31.5396    36.0736
     29  H    Isotropic =    31.0903   Anisotropy =    10.6402
   XX=    32.7560   YX=     4.1882   ZX=     3.5472
   XY=     4.8882   YY=    32.6145   ZY=     1.4349
   XZ=     2.6012   YZ=     1.2113   ZZ=    27.9002
   Eigenvalues:    26.2411    28.8460    38.1837
     30  H    Isotropic =    31.0596   Anisotropy =     7.5170
   XX=    29.4989   YX=     2.1193   ZX=    -3.1640
   XY=     2.4589   YY=    31.0528   ZY=    -1.8246
   XZ=    -3.0338   YZ=    -1.8023   ZZ=    32.6272
   Eigenvalues:    27.2337    29.8741    36.0710
     31  H    Isotropic =    30.8777   Anisotropy =     8.6501
   XX=    32.0753   YX=    -1.4048   ZX=    -0.3587
   XY=    -2.2286   YY=    35.6860   ZY=    -0.8031
   XZ=     1.1289   YZ=    -2.2205   ZZ=    24.8719
   Eigenvalues:    24.6620    31.3267    36.6445
     32  H    Isotropic =    29.8495   Anisotropy =     9.7778
   XX=    34.2706   YX=     1.4328   ZX=     4.5608
   XY=     1.5398   YY=    29.3252   ZY=    -1.5038
   XZ=     4.6257   YZ=    -2.0831   ZZ=    25.9527
   Eigenvalues:    23.1035    30.0770    36.3680
     33  H    Isotropic =    30.4811   Anisotropy =     5.1442
   XX=    30.4718   YX=    -3.1872   ZX=    -0.4870
   XY=    -2.9006   YY=    27.1257   ZY=    -0.8157
   XZ=    -0.4495   YZ=    -0.1420   ZZ=    33.8458
   Eigenvalues:    25.2760    32.2568    33.9106
     34  H    Isotropic =    31.0034   Anisotropy =    10.4619
   XX=    29.5654   YX=    -1.7168   ZX=     1.9226
   XY=    -1.0156   YY=    32.1947   ZY=    -5.9565
   XZ=     1.4765   YZ=    -5.4090   ZZ=    31.2502
   Eigenvalues:    25.9867    29.0455    37.9780
     35  H    Isotropic =    30.5775   Anisotropy =     7.3964
   XX=    31.4712   YX=    -4.4372   ZX=    -1.3298
   XY=    -4.5309   YY=    29.5039   ZY=     1.3762
   XZ=    -0.0716   YZ=     1.4225   ZZ=    30.7576
   Eigenvalues:    25.8072    30.4169    35.5085
     36  H    Isotropic =    31.3041   Anisotropy =     9.8545
   XX=    34.5667   YX=     2.4122   ZX=     4.5267
   XY=     1.1281   YY=    29.6531   ZY=     1.1262
   XZ=     4.7317   YZ=     0.9531   ZZ=    29.6923
   Eigenvalues:    26.8977    29.1408    37.8737
     37  C    Isotropic =   140.6936   Anisotropy =    35.4778
   XX=   140.4527   YX=   -21.9680   ZX=    -9.6518
   XY=   -17.4745   YY=   144.0734   ZY=     2.5753
   XZ=    -6.5560   YZ=     3.6447   ZZ=   137.5546
   Eigenvalues:   121.4255   136.3097   164.3454
     38  C    Isotropic =    45.0241   Anisotropy =   179.4045
   XX=   113.7237   YX=   -13.8519   ZX=    97.4515
   XY=   -13.1552   YY=    45.1222   ZY=    26.1618
   XZ=    98.4029   YZ=    27.9213   ZZ=   -23.7737
   Eigenvalues:   -81.8674    52.3125   164.6271
     39  C    Isotropic =    64.9635   Anisotropy =   141.6235
   XX=   117.8119   YX=   -12.5161   ZX=    81.2334
   XY=    -8.2417   YY=    84.0050   ZY=    18.8898
   XZ=    84.9923   YZ=    16.6239   ZZ=    -6.9263
   Eigenvalues:   -51.5759    87.0873   159.3792
     40  H    Isotropic =    29.6279   Anisotropy =     5.6823
   XX=    30.3124   YX=     1.9585   ZX=     2.6714
   XY=     0.7469   YY=    31.3612   ZY=     0.7232
   XZ=     2.5085   YZ=     1.8884   ZZ=    27.2101
   Eigenvalues:    25.6994    29.7683    33.4161
     41  H    Isotropic =    29.8771   Anisotropy =     5.4887
   XX=    28.9871   YX=    -0.9712   ZX=     0.4193
   XY=    -1.1292   YY=    32.0438   ZY=    -1.6273
   XZ=     0.5006   YZ=    -3.1048   ZZ=    28.6004
   Eigenvalues:    27.3927    28.7023    33.5362
     42  H    Isotropic =    25.6845   Anisotropy =     7.7448
   XX=    25.6999   YX=    -2.5738   ZX=    -1.3206
   XY=    -1.4009   YY=    28.7738   ZY=     2.3119
   XZ=    -1.0608   YZ=     3.2320   ZZ=    22.5798
   Eigenvalues:    21.4754    24.7304    30.8477
     43  H    Isotropic =    26.6704   Anisotropy =     7.2038
   XX=    25.9147   YX=    -1.5785   ZX=    -0.2154
   XY=    -2.4321   YY=    30.0129   ZY=     3.4947
   XZ=     0.1433   YZ=     1.1450   ZZ=    24.0835
   Eigenvalues:    23.1186    25.4197    31.4729
     44  H    Isotropic =    26.7540   Anisotropy =     7.4967
   XX=    26.1677   YX=    -2.4908   ZX=     0.9628
   XY=    -1.2022   YY=    31.1004   ZY=    -0.3485
   XZ=     1.0656   YZ=     2.2039   ZZ=    22.9941
   Eigenvalues:    22.4521    26.0582    31.7518
 End of Minotr F.D. properties file   721 does not exist.
 End of Minotr F.D. properties file   722 does not exist.
 End of Minotr F.D. properties file   788 does not exist.

 **********************************************************************

            Population analysis using the SCF density.

 **********************************************************************

 Orbital symmetries:
       Occupied  (A) (A) (A) (A) (A) (A) (A) (A) (A) (A) (A) (A)
                 (A) (A) (A) (A) (A) (A) (A) (A) (A) (A) (A) (A)
                 (A) (A) (A) (A) (A) (A) (A) (A) (A) (A) (A) (A)
                 (A) (A) (A) (A) (A) (A) (A) (A) (A) (A) (A) (A)
                 (A) (A) (A) (A) (A) (A) (A) (A) (A) (A) (A) (A)
                 (A) (A) (A) (A) (A) (A) (A) (A) (A) (A) (A) (A)
                 (A) (A)
       Virtual   (A) (A) (A) (A) (A) (A) (A) (A) (A) (A) (A) (A)
                 (A) (A) (A) (A) (A) (A) (A) (A) (A) (A) (A) (A)
                 (A) (A) (A) (A) (A) (A) (A) (A) (A) (A) (A) (A)
                 (A) (A) (A) (A) (A) (A) (A) (A) (A) (A) (A) (A)
                 (A) (A) (A) (A) (A) (A) (A) (A) (A) (A) (A) (A)
                 (A) (A) (A) (A) (A) (A) (A) (A) (A) (A) (A) (A)
                 (A) (A) (A) (A) (A) (A) (A) (A) (A) (A) (A) (A)
                 (A) (A) (A) (A) (A) (A) (A) (A) (A) (A) (A) (A)
                 (A) (A) (A) (A) (A) (A) (A) (A) (A) (A) (A) (A)
                 (A) (A) (A) (A) (A) (A) (A) (A) (A) (A) (A) (A)
                 (A) (A) (A) (A) (A) (A) (A) (A) (A) (A) (A) (A)
                 (A) (A) (A) (A) (A) (A) (A) (A) (A) (A) (A) (A)
                 (A) (A) (A) (A) (A) (A) (A) (A) (A) (A) (A) (A)
                 (A) (A) (A) (A) (A) (A) (A) (A) (A) (A) (A) (A)
                 (A) (A) (A) (A) (A) (A) (A) (A) (A) (A) (A) (A)
                 (A) (A) (A) (A) (A) (A) (A) (A) (A) (A) (A) (A)
                 (A) (A) (A) (A) (A) (A) (A) (A) (A) (A) (A) (A)
                 (A) (A) (A) (A) (A) (A) (A) (A) (A) (A) (A) (A)
                 (A) (A) (A) (A) (A) (A) (A) (A) (A) (A) (A) (A)
                 (A) (A) (A) (A) (A) (A) (A) (A) (A) (A) (A) (A)
                 (A) (A) (A) (A) (A) (A) (A) (A) (A) (A) (A) (A)
                 (A) (A) (A) (A) (A) (A) (A) (A) (A) (A) (A) (A)
                 (A) (A) (A) (A) (A) (A) (A) (A) (A) (A) (A) (A)
                 (A) (A) (A) (A) (A) (A) (A) (A) (A) (A) (A) (A)
                 (A) (A) (A) (A) (A) (A) (A) (A) (A) (A) (A) (A)
                 (A) (A) (A) (A) (A) (A) (A) (A) (A) (A) (A) (A)
                 (A) (A) (A) (A) (A) (A) (A) (A) (A) (A) (A) (A)
                 (A) (A) (A) (A) (A) (A) (A) (A) (A) (A) (A) (A)
 The electronic state is 1-A.
 Alpha  occ. eigenvalues --  -66.27055 -19.26082 -19.21427 -19.20136 -10.37327
 Alpha  occ. eigenvalues --  -10.32339 -10.30205 -10.25638 -10.25250 -10.24393
 Alpha  occ. eigenvalues --  -10.24364 -10.22985 -10.22880 -10.22802 -10.21567
 Alpha  occ. eigenvalues --  -10.20942 -10.20557 -10.20242  -5.32880  -3.66729
 Alpha  occ. eigenvalues --   -3.66494  -3.66458  -1.13430  -1.04901  -1.04263
 Alpha  occ. eigenvalues --   -0.85778  -0.82869  -0.80899  -0.77987  -0.74018
 Alpha  occ. eigenvalues --   -0.72881  -0.71590  -0.70249  -0.69815  -0.67098
 Alpha  occ. eigenvalues --   -0.64184  -0.61451  -0.58042  -0.54980  -0.54151
 Alpha  occ. eigenvalues --   -0.52484  -0.50923  -0.49812  -0.49056  -0.47530
 Alpha  occ. eigenvalues --   -0.46479  -0.45183  -0.44251  -0.44076  -0.43334
 Alpha  occ. eigenvalues --   -0.42960  -0.42618  -0.42373  -0.41761  -0.41305
 Alpha  occ. eigenvalues --   -0.40740  -0.40385  -0.40040  -0.39587  -0.39498
 Alpha  occ. eigenvalues --   -0.38635  -0.37589  -0.37054  -0.36633  -0.35966
 Alpha  occ. eigenvalues --   -0.35402  -0.34282  -0.33109  -0.31941  -0.30687
 Alpha  occ. eigenvalues --   -0.29932  -0.29600  -0.28715  -0.26986
 Alpha virt. eigenvalues --   -0.00674   0.00903   0.03782   0.05725   0.06315
 Alpha virt. eigenvalues --    0.06462   0.06892   0.07854   0.08779   0.09189
 Alpha virt. eigenvalues --    0.09290   0.09669   0.10793   0.11357   0.11537
 Alpha virt. eigenvalues --    0.12273   0.12441   0.13131   0.13231   0.14108
 Alpha virt. eigenvalues --    0.14265   0.14922   0.15009   0.15959   0.16213
 Alpha virt. eigenvalues --    0.16336   0.16621   0.17220   0.17593   0.18102
 Alpha virt. eigenvalues --    0.18818   0.20146   0.20555   0.20900   0.21965
 Alpha virt. eigenvalues --    0.22651   0.23205   0.23889   0.24048   0.24854
 Alpha virt. eigenvalues --    0.25336   0.25468   0.26597   0.26876   0.27373
 Alpha virt. eigenvalues --    0.29228   0.30221   0.31087   0.31666   0.32166
 Alpha virt. eigenvalues --    0.33150   0.33864   0.35002   0.35443   0.35981
 Alpha virt. eigenvalues --    0.36913   0.38708   0.39107   0.39845   0.40319
 Alpha virt. eigenvalues --    0.41004   0.42286   0.43193   0.44536   0.44780
 Alpha virt. eigenvalues --    0.45495   0.46300   0.46850   0.48007   0.48994
 Alpha virt. eigenvalues --    0.49827   0.51192   0.52125   0.52320   0.53136
 Alpha virt. eigenvalues --    0.53698   0.53992   0.54377   0.54880   0.56090
 Alpha virt. eigenvalues --    0.56772   0.57156   0.57723   0.58461   0.58929
 Alpha virt. eigenvalues --    0.59345   0.60020   0.60701   0.60814   0.61520
 Alpha virt. eigenvalues --    0.61816   0.62241   0.62879   0.62993   0.63219
 Alpha virt. eigenvalues --    0.64074   0.64460   0.64739   0.65453   0.65795
 Alpha virt. eigenvalues --    0.66341   0.67632   0.67697   0.68647   0.68933
 Alpha virt. eigenvalues --    0.69615   0.70107   0.70518   0.70997   0.71295
 Alpha virt. eigenvalues --    0.71830   0.72535   0.73276   0.74134   0.74723
 Alpha virt. eigenvalues --    0.76661   0.77625   0.79520   0.81059   0.83001
 Alpha virt. eigenvalues --    0.83501   0.85053   0.85500   0.88052   0.88882
 Alpha virt. eigenvalues --    0.89360   0.91477   0.92670   0.94541   0.95242
 Alpha virt. eigenvalues --    0.96951   0.98449   0.98930   0.99801   1.01043
 Alpha virt. eigenvalues --    1.03066   1.04064   1.05314   1.06483   1.09431
 Alpha virt. eigenvalues --    1.11302   1.11744   1.15389   1.18461   1.20459
 Alpha virt. eigenvalues --    1.22614   1.23522   1.25536   1.26008   1.27648
 Alpha virt. eigenvalues --    1.28485   1.31187   1.31817   1.32483   1.33733
 Alpha virt. eigenvalues --    1.34912   1.37367   1.39624   1.40494   1.41728
 Alpha virt. eigenvalues --    1.42334   1.43485   1.44563   1.48092   1.49212
 Alpha virt. eigenvalues --    1.50725   1.51894   1.52263   1.53833   1.54288
 Alpha virt. eigenvalues --    1.54865   1.55715   1.57357   1.57747   1.58697
 Alpha virt. eigenvalues --    1.59258   1.59839   1.60384   1.61591   1.61910
 Alpha virt. eigenvalues --    1.62312   1.63101   1.63726   1.64749   1.65341
 Alpha virt. eigenvalues --    1.66266   1.66863   1.67825   1.69000   1.70614
 Alpha virt. eigenvalues --    1.71037   1.71355   1.71671   1.72387   1.74824
 Alpha virt. eigenvalues --    1.75546   1.76189   1.77894   1.80351   1.80546
 Alpha virt. eigenvalues --    1.82244   1.82461   1.84215   1.85072   1.86173
 Alpha virt. eigenvalues --    1.89396   1.92217   1.93579   1.94613   1.96322
 Alpha virt. eigenvalues --    1.98727   2.01633   2.05616   2.09660   2.13650
 Alpha virt. eigenvalues --    2.14191   2.18821   2.22063   2.23440   2.26098
 Alpha virt. eigenvalues --    2.27801   2.29627   2.35936   2.37474   2.40684
 Alpha virt. eigenvalues --    2.41002   2.42157   2.42501   2.42950   2.44065
 Alpha virt. eigenvalues --    2.44332   2.44988   2.45646   2.45752   2.47539
 Alpha virt. eigenvalues --    2.48093   2.49439   2.49801   2.49998   2.52201
 Alpha virt. eigenvalues --    2.53389   2.55516   2.56442   2.57818   2.61071
 Alpha virt. eigenvalues --    2.61518   2.64259   2.67399   2.72271   2.80155
 Alpha virt. eigenvalues --    2.82911   2.87729   2.88061   2.90584   2.91337
 Alpha virt. eigenvalues --    2.92040   2.92208   2.94550   2.95399   2.98647
 Alpha virt. eigenvalues --    3.00715   3.02314   3.03654   3.06165   3.07478
 Alpha virt. eigenvalues --    3.10732   3.11019   3.13114   3.13804   3.15388
 Alpha virt. eigenvalues --    3.16227   3.17776   3.19357   3.20566   3.21462
 Alpha virt. eigenvalues --    3.22807   3.23301   3.24400   3.24597   3.25160
 Alpha virt. eigenvalues --    3.26731   3.27794   3.28353   3.29119   3.31179
 Alpha virt. eigenvalues --    3.34456   3.35140   3.36166   3.40554   3.43973
 Alpha virt. eigenvalues --    3.46090   3.52244   3.55979   3.58795   3.61166
 Alpha virt. eigenvalues --    3.79051   3.89431   3.91175   3.96918   4.00368
 Alpha virt. eigenvalues --    4.12236   4.13506   4.16549   4.20726   4.23861
 Alpha virt. eigenvalues --    4.96407   5.01263   5.03261   5.10738   5.18724
 Alpha virt. eigenvalues --    5.24611   5.50984   5.53155   5.78139   5.85516
 Alpha virt. eigenvalues --   11.52497  11.55671  11.59449  23.41863  23.49945
 Alpha virt. eigenvalues --   23.55521  23.56125  23.58006  23.61953  23.70156
 Alpha virt. eigenvalues --   23.75219  23.77857  23.78180  23.83273  23.84642
 Alpha virt. eigenvalues --   23.89501  24.27094  49.98024  50.05746  50.12784
 Alpha virt. eigenvalues --  141.30312
          Condensed to atoms (all electrons):
               1          2          3          4          5          6
     1  C    5.248266   0.307933  -0.050472  -0.016168  -0.048120   0.413142
     2  C    0.307933   5.515441   0.263504  -0.073399  -0.022777  -0.054437
     3  C   -0.050472   0.263504   5.219774   0.210281  -0.023613   0.008573
     4  C   -0.016168  -0.073399   0.210281   5.826706   0.259122  -0.002301
     5  C   -0.048120  -0.022777  -0.023613   0.259122   4.420429   0.002891
     6  H    0.413142  -0.054437   0.008573  -0.002301   0.002891   0.465029
     7  H   -0.040102   0.394133  -0.036313   0.007987  -0.000058  -0.000600
     8  H   -0.000741   0.006099  -0.023393   0.361117  -0.031221   0.000063
     9  H    0.001193  -0.002488  -0.024248   0.364030  -0.025106   0.000094
    10  O    0.202134  -0.036168   0.003136  -0.100719   0.335884  -0.025214
    11  O    0.002161  -0.000004   0.004077  -0.095445   0.641682  -0.000283
    12  C    0.308966  -0.058986  -0.012462   0.002953  -0.006401  -0.055273
    13  C   -0.081731   0.008362  -0.000388   0.000163   0.000333  -0.006543
    14  C   -0.104578   0.300098  -0.071071   0.004153  -0.001062  -0.009642
    15  O    0.003130  -0.061544   0.229517  -0.045302   0.005439  -0.000399
    16  Si   0.001258   0.002926  -0.044266  -0.006993  -0.002891  -0.000022
    17  C   -0.000002  -0.000270  -0.000165  -0.002385   0.000222   0.000000
    18  C    0.000064  -0.000020  -0.001880   0.000927  -0.003141  -0.000009
    19  C    0.000035  -0.000073   0.002228  -0.000052  -0.000047   0.000000
    20  H    0.000001   0.000004  -0.000006   0.000024   0.000145   0.000000
    21  H   -0.000098   0.000024  -0.000036  -0.002300  -0.000493   0.000003
    22  H   -0.000171   0.000110   0.000108   0.000601   0.000273  -0.000001
    23  H   -0.000010   0.000033  -0.000116  -0.000014  -0.000003   0.000001
    24  H    0.000002  -0.000002  -0.000022  -0.000012   0.000000   0.000000
    25  H   -0.000001   0.000002  -0.000063   0.000008  -0.000001   0.000000
    26  H    0.000000   0.000008  -0.000067   0.000033  -0.000007   0.000000
    27  H    0.000003  -0.000097   0.000517   0.000161   0.000000   0.000000
    28  H    0.000004  -0.000071   0.000563   0.000735   0.000006   0.000000
    29  H   -0.006535  -0.033407   0.006970  -0.000802   0.000130   0.005515
    30  H   -0.009002  -0.035240  -0.009974   0.006863  -0.002269  -0.001265
    31  H    0.007805  -0.033901  -0.008279  -0.000595  -0.000001   0.000313
    32  H   -0.028110  -0.006654   0.003416  -0.002470   0.003611   0.006462
    33  H   -0.043413  -0.001425   0.000866  -0.000134   0.000279   0.001041
    34  H    0.008647  -0.000314   0.000015   0.000001  -0.000042  -0.000017
    35  H   -0.011404   0.000686  -0.000080   0.000466   0.001411  -0.000537
    36  H   -0.005256  -0.000423   0.000027  -0.000024  -0.000024   0.006827
    37  C    0.007647  -0.086526   0.331031  -0.090118   0.004209  -0.000195
    38  C   -0.000058  -0.012920  -0.061020   0.008976  -0.000153  -0.000023
    39  C   -0.000003   0.000599  -0.002744  -0.000010  -0.000001   0.000001
    40  H   -0.000207   0.007849  -0.041928  -0.005576   0.000039   0.000012
    41  H    0.000082  -0.004472  -0.026377  -0.003287  -0.000124   0.000020
    42  H   -0.000053  -0.000696  -0.002571   0.000024   0.000000   0.000001
    43  H    0.000000  -0.000004  -0.000331   0.000015   0.000000   0.000000
    44  H    0.000003  -0.000137   0.000283  -0.000071   0.000001   0.000000
               7          8          9         10         11         12
     1  C   -0.040102  -0.000741   0.001193   0.202134   0.002161   0.308966
     2  C    0.394133   0.006099  -0.002488  -0.036168  -0.000004  -0.058986
     3  C   -0.036313  -0.023393  -0.024248   0.003136   0.004077  -0.012462
     4  C    0.007987   0.361117   0.364030  -0.100719  -0.095445   0.002953
     5  C   -0.000058  -0.031221  -0.025106   0.335884   0.641682  -0.006401
     6  H   -0.000600   0.000063   0.000094  -0.025214  -0.000283  -0.055273
     7  H    0.446139   0.000016  -0.000147   0.003320   0.000019  -0.000889
     8  H    0.000016   0.416705  -0.018304   0.004749   0.009991   0.000069
     9  H   -0.000147  -0.018304   0.413579  -0.000700   0.000399  -0.000188
    10  O    0.003320   0.004749  -0.000700   8.034870  -0.067985  -0.051866
    11  O    0.000019   0.009991   0.000399  -0.067985   7.884026   0.000046
    12  C   -0.000889   0.000069  -0.000188  -0.051866   0.000046   5.338239
    13  C   -0.000078   0.000002  -0.000005  -0.001990   0.000018   0.308069
    14  C   -0.034139   0.000121  -0.000016   0.000796   0.000018   0.009932
    15  O    0.000840  -0.005013   0.003484  -0.000759   0.000025  -0.003931
    16  Si   0.000026   0.002591   0.001719  -0.000192  -0.003704  -0.001254
    17  C    0.000001   0.001940  -0.000107  -0.000001   0.000007   0.000003
    18  C    0.000026   0.000253   0.000033  -0.000180  -0.000784  -0.001007
    19  C   -0.000049  -0.000074   0.000011   0.000001   0.000000  -0.000117
    20  H    0.000000  -0.000019  -0.000001  -0.000002   0.000009   0.000018
    21  H   -0.000002   0.004696   0.000148   0.000170   0.010728   0.000181
    22  H    0.000005  -0.000164  -0.000027  -0.000182   0.000560   0.000249
    23  H   -0.000007  -0.000003   0.000000   0.000001  -0.000001   0.000168
    24  H   -0.000013  -0.000010   0.000001   0.000000   0.000000  -0.000003
    25  H    0.000001   0.000008   0.000000   0.000000   0.000000   0.000001
    26  H    0.000001   0.000069  -0.000002   0.000000   0.000000   0.000000
    27  H   -0.000011  -0.000320   0.000016   0.000000   0.000000  -0.000001
    28  H    0.000001   0.003293  -0.000106  -0.000003  -0.000077  -0.000001
    29  H   -0.004253   0.000011   0.000172  -0.000051   0.000002   0.000072
    30  H    0.006224   0.000292   0.001670   0.007362  -0.000149   0.000486
    31  H   -0.003959  -0.000035  -0.000052  -0.000158   0.000000  -0.000289
    32  H    0.000220  -0.000025   0.000034   0.000129  -0.000566   0.374296
    33  H    0.000983  -0.000022   0.000012   0.003926  -0.000017   0.391997
    34  H   -0.000022   0.000000   0.000000  -0.000200   0.000000  -0.037570
    35  H   -0.000093  -0.000023   0.000000   0.009870   0.000450  -0.035967
    36  H    0.000102   0.000000   0.000001  -0.000256  -0.000006  -0.041877
    37  C   -0.008693  -0.007715  -0.004440  -0.000586  -0.000201  -0.000324
    38  C    0.008752   0.000209   0.000105   0.000000   0.000001  -0.000001
    39  C    0.002180   0.000003  -0.000061   0.000000   0.000000  -0.000001
    40  H    0.000113   0.001750   0.000284   0.000007  -0.000008  -0.000003
    41  H   -0.000155   0.000124   0.000750  -0.000033  -0.000002  -0.000032
    42  H    0.000026   0.000005  -0.000027   0.000000   0.000000   0.000024
    43  H    0.000073   0.000000   0.000001   0.000000   0.000000   0.000000
    44  H   -0.000077  -0.000001  -0.000013   0.000000   0.000000   0.000000
              13         14         15         16         17         18
     1  C   -0.081731  -0.104578   0.003130   0.001258  -0.000002   0.000064
     2  C    0.008362   0.300098  -0.061544   0.002926  -0.000270  -0.000020
     3  C   -0.000388  -0.071071   0.229517  -0.044266  -0.000165  -0.001880
     4  C    0.000163   0.004153  -0.045302  -0.006993  -0.002385   0.000927
     5  C    0.000333  -0.001062   0.005439  -0.002891   0.000222  -0.003141
     6  H   -0.006543  -0.009642  -0.000399  -0.000022   0.000000  -0.000009
     7  H   -0.000078  -0.034139   0.000840   0.000026   0.000001   0.000026
     8  H    0.000002   0.000121  -0.005013   0.002591   0.001940   0.000253
     9  H   -0.000005  -0.000016   0.003484   0.001719  -0.000107   0.000033
    10  O   -0.001990   0.000796  -0.000759  -0.000192  -0.000001  -0.000180
    11  O    0.000018   0.000018   0.000025  -0.003704   0.000007  -0.000784
    12  C    0.308069   0.009932  -0.003931  -0.001254   0.000003  -0.001007
    13  C    5.373382  -0.000460   0.000696   0.001230   0.000000  -0.000031
    14  C   -0.000460   5.438754   0.003740  -0.000291   0.000007   0.000005
    15  O    0.000696   0.003740   8.279278   0.337461  -0.021117  -0.023412
    16  Si   0.001230  -0.000291   0.337461  11.532151   0.314366   0.323003
    17  C    0.000000   0.000007  -0.021117   0.314366   5.805300  -0.058465
    18  C   -0.000031   0.000005  -0.023412   0.323003  -0.058465   5.792176
    19  C   -0.000010   0.000000  -0.021019   0.329709  -0.050494  -0.055325
    20  H   -0.000002   0.000000   0.000998  -0.012369   0.000429   0.362995
    21  H   -0.000006   0.000001  -0.000778  -0.029983  -0.001620   0.364032
    22  H    0.000193  -0.000001  -0.002842  -0.029000   0.002282   0.369478
    23  H   -0.000021  -0.000001  -0.001131  -0.027052   0.002637  -0.000929
    24  H    0.000000   0.000000  -0.001551  -0.028849  -0.000364   0.002429
    25  H    0.000000   0.000000   0.000895  -0.014652   0.000100   0.000235
    26  H    0.000000   0.000000   0.000689  -0.010015   0.367075  -0.000070
    27  H    0.000000   0.000002  -0.001773  -0.026742   0.369022   0.002490
    28  H    0.000000   0.000001  -0.001155  -0.028780   0.366028  -0.001182
    29  H   -0.000088   0.386949  -0.000122   0.000024   0.000000   0.000000
    30  H   -0.000022   0.382766  -0.000017  -0.000070   0.000000   0.000001
    31  H    0.000012   0.386707  -0.000014  -0.000054   0.000001   0.000000
    32  H   -0.054620  -0.000354  -0.000760   0.000940   0.000006   0.002092
    33  H   -0.041469  -0.000048   0.000536  -0.000136   0.000002  -0.000016
    34  H    0.393465   0.000017  -0.000018  -0.000026   0.000000   0.000005
    35  H    0.384612  -0.000026  -0.000008   0.000003   0.000000   0.000012
    36  H    0.383783  -0.000065  -0.000029  -0.000063   0.000000  -0.000001
    37  C    0.000019  -0.002136  -0.057894  -0.013200  -0.004780  -0.000325
    38  C    0.000000  -0.004125   0.002166  -0.000350   0.000742   0.000029
    39  C    0.000000  -0.001308   0.000594   0.000446   0.000007   0.000000
    40  H    0.000000  -0.000046  -0.002674  -0.005183  -0.002675  -0.000121
    41  H   -0.000001  -0.001939   0.003836   0.002141  -0.000066   0.000017
    42  H    0.000000  -0.000024   0.004328   0.002980  -0.000061   0.000026
    43  H    0.000000   0.000084   0.000020   0.000013   0.000000   0.000000
    44  H    0.000000   0.000040  -0.000012   0.000000  -0.000001   0.000000
              19         20         21         22         23         24
     1  C    0.000035   0.000001  -0.000098  -0.000171  -0.000010   0.000002
     2  C   -0.000073   0.000004   0.000024   0.000110   0.000033  -0.000002
     3  C    0.002228  -0.000006  -0.000036   0.000108  -0.000116  -0.000022
     4  C   -0.000052   0.000024  -0.002300   0.000601  -0.000014  -0.000012
     5  C   -0.000047   0.000145  -0.000493   0.000273  -0.000003   0.000000
     6  H    0.000000   0.000000   0.000003  -0.000001   0.000001   0.000000
     7  H   -0.000049   0.000000  -0.000002   0.000005  -0.000007  -0.000013
     8  H   -0.000074  -0.000019   0.004696  -0.000164  -0.000003  -0.000010
     9  H    0.000011  -0.000001   0.000148  -0.000027   0.000000   0.000001
    10  O    0.000001  -0.000002   0.000170  -0.000182   0.000001   0.000000
    11  O    0.000000   0.000009   0.010728   0.000560  -0.000001   0.000000
    12  C   -0.000117   0.000018   0.000181   0.000249   0.000168  -0.000003
    13  C   -0.000010  -0.000002  -0.000006   0.000193  -0.000021   0.000000
    14  C    0.000000   0.000000   0.000001  -0.000001  -0.000001   0.000000
    15  O   -0.021019   0.000998  -0.000778  -0.002842  -0.001131  -0.001551
    16  Si   0.329709  -0.012369  -0.029983  -0.029000  -0.027052  -0.028849
    17  C   -0.050494   0.000429  -0.001620   0.002282   0.002637  -0.000364
    18  C   -0.055325   0.362995   0.364032   0.369478  -0.000929   0.002429
    19  C    5.733163  -0.000482   0.002545  -0.000566   0.370803   0.369551
    20  H   -0.000482   0.452477  -0.020508  -0.020732  -0.000033  -0.000013
    21  H    0.002545  -0.020508   0.443714  -0.017033  -0.000128  -0.000124
    22  H   -0.000566  -0.020732  -0.017033   0.443381   0.001034  -0.000095
    23  H    0.370803  -0.000033  -0.000128   0.001034   0.456369  -0.018140
    24  H    0.369551  -0.000013  -0.000124  -0.000095  -0.018140   0.459625
    25  H    0.365320   0.000759  -0.000115  -0.000020  -0.020689  -0.020584
    26  H   -0.000925   0.000259   0.000125  -0.000045  -0.000070  -0.000082
    27  H   -0.000552  -0.000076   0.000003  -0.000108  -0.000060   0.001281
    28  H    0.003038  -0.000009   0.000497  -0.000021  -0.000101  -0.000087
    29  H    0.000000   0.000000   0.000000   0.000000   0.000000   0.000000
    30  H    0.000000   0.000000   0.000002   0.000000   0.000000   0.000000
    31  H    0.000000   0.000000   0.000000   0.000000   0.000000   0.000000
    32  H    0.000209   0.000119  -0.000259   0.003781   0.000394  -0.000011
    33  H    0.000060  -0.000004  -0.000017  -0.000023   0.000145   0.000012
    34  H    0.000002  -0.000001   0.000001   0.000055   0.000009   0.000000
    35  H    0.000000  -0.000001  -0.000013   0.000105   0.000001   0.000000
    36  H    0.000000   0.000000   0.000000  -0.000011   0.000000   0.000000
    37  C   -0.000257   0.000003  -0.000074  -0.000025  -0.000012  -0.000051
    38  C   -0.000152   0.000000   0.000007   0.000001  -0.000005   0.000082
    39  C    0.000001   0.000000   0.000000   0.000000   0.000000  -0.000003
    40  H   -0.000032   0.000007  -0.000032  -0.000002  -0.000008  -0.000031
    41  H   -0.000004   0.000000   0.000006   0.000004   0.000001  -0.000001
    42  H    0.000453   0.000000  -0.000001   0.000001  -0.000022   0.000896
    43  H   -0.000001   0.000000   0.000000   0.000000   0.000000  -0.000003
    44  H    0.000000   0.000000   0.000000   0.000000   0.000000   0.000001
              25         26         27         28         29         30
     1  C   -0.000001   0.000000   0.000003   0.000004  -0.006535  -0.009002
     2  C    0.000002   0.000008  -0.000097  -0.000071  -0.033407  -0.035240
     3  C   -0.000063  -0.000067   0.000517   0.000563   0.006970  -0.009974
     4  C    0.000008   0.000033   0.000161   0.000735  -0.000802   0.006863
     5  C   -0.000001  -0.000007   0.000000   0.000006   0.000130  -0.002269
     6  H    0.000000   0.000000   0.000000   0.000000   0.005515  -0.001265
     7  H    0.000001   0.000001  -0.000011   0.000001  -0.004253   0.006224
     8  H    0.000008   0.000069  -0.000320   0.003293   0.000011   0.000292
     9  H    0.000000  -0.000002   0.000016  -0.000106   0.000172   0.001670
    10  O    0.000000   0.000000   0.000000  -0.000003  -0.000051   0.007362
    11  O    0.000000   0.000000   0.000000  -0.000077   0.000002  -0.000149
    12  C    0.000001   0.000000  -0.000001  -0.000001   0.000072   0.000486
    13  C    0.000000   0.000000   0.000000   0.000000  -0.000088  -0.000022
    14  C    0.000000   0.000000   0.000002   0.000001   0.386949   0.382766
    15  O    0.000895   0.000689  -0.001773  -0.001155  -0.000122  -0.000017
    16  Si  -0.014652  -0.010015  -0.026742  -0.028780   0.000024  -0.000070
    17  C    0.000100   0.367075   0.369022   0.366028   0.000000   0.000000
    18  C    0.000235  -0.000070   0.002490  -0.001182   0.000000   0.000001
    19  C    0.365320  -0.000925  -0.000552   0.003038   0.000000   0.000000
    20  H    0.000759   0.000259  -0.000076  -0.000009   0.000000   0.000000
    21  H   -0.000115   0.000125   0.000003   0.000497   0.000000   0.000002
    22  H   -0.000020  -0.000045  -0.000108  -0.000021   0.000000   0.000000
    23  H   -0.020689  -0.000070  -0.000060  -0.000101   0.000000   0.000000
    24  H   -0.020584  -0.000082   0.001281  -0.000087   0.000000   0.000000
    25  H    0.453401   0.000659  -0.000057  -0.000066   0.000000   0.000000
    26  H    0.000659   0.433004  -0.020512  -0.019969   0.000000   0.000000
    27  H   -0.000057  -0.020512   0.449260  -0.019820   0.000000   0.000000
    28  H   -0.000066  -0.019969  -0.019820   0.450053   0.000000  -0.000001
    29  H    0.000000   0.000000   0.000000   0.000000   0.455569  -0.025615
    30  H    0.000000   0.000000   0.000000  -0.000001  -0.025615   0.468297
    31  H    0.000000   0.000000  -0.000002   0.000000  -0.025640  -0.023998
    32  H   -0.000004   0.000000  -0.000003  -0.000001  -0.000024  -0.000003
    33  H    0.000001   0.000000   0.000000   0.000000   0.000100  -0.000095
    34  H    0.000000   0.000000   0.000000   0.000000   0.000002   0.000001
    35  H    0.000000   0.000000   0.000000   0.000000  -0.000002  -0.000016
    36  H    0.000000   0.000000   0.000000   0.000000  -0.000036   0.000004
    37  C    0.000004   0.000462  -0.001532  -0.001074  -0.000020  -0.001885
    38  C   -0.000002  -0.000073   0.001638   0.000085  -0.000103   0.000500
    39  C    0.000000  -0.000002   0.000236  -0.000012  -0.000006  -0.000023
    40  H    0.000002   0.000818  -0.001669   0.001450   0.000004  -0.000081
    41  H    0.000000  -0.000010  -0.000029  -0.000101   0.000490  -0.000538
    42  H   -0.000017   0.000005   0.000310   0.000003   0.000018  -0.000002
    43  H    0.000000   0.000000  -0.000003  -0.000001  -0.000004  -0.000001
    44  H    0.000000   0.000000   0.000002   0.000002   0.000013  -0.000004
              31         32         33         34         35         36
     1  C    0.007805  -0.028110  -0.043413   0.008647  -0.011404  -0.005256
     2  C   -0.033901  -0.006654  -0.001425  -0.000314   0.000686  -0.000423
     3  C   -0.008279   0.003416   0.000866   0.000015  -0.000080   0.000027
     4  C   -0.000595  -0.002470  -0.000134   0.000001   0.000466  -0.000024
     5  C   -0.000001   0.003611   0.000279  -0.000042   0.001411  -0.000024
     6  H    0.000313   0.006462   0.001041  -0.000017  -0.000537   0.006827
     7  H   -0.003959   0.000220   0.000983  -0.000022  -0.000093   0.000102
     8  H   -0.000035  -0.000025  -0.000022   0.000000  -0.000023   0.000000
     9  H   -0.000052   0.000034   0.000012   0.000000   0.000000   0.000001
    10  O   -0.000158   0.000129   0.003926  -0.000200   0.009870  -0.000256
    11  O    0.000000  -0.000566  -0.000017   0.000000   0.000450  -0.000006
    12  C   -0.000289   0.374296   0.391997  -0.037570  -0.035967  -0.041877
    13  C    0.000012  -0.054620  -0.041469   0.393465   0.384612   0.383783
    14  C    0.386707  -0.000354  -0.000048   0.000017  -0.000026  -0.000065
    15  O   -0.000014  -0.000760   0.000536  -0.000018  -0.000008  -0.000029
    16  Si  -0.000054   0.000940  -0.000136  -0.000026   0.000003  -0.000063
    17  C    0.000001   0.000006   0.000002   0.000000   0.000000   0.000000
    18  C    0.000000   0.002092  -0.000016   0.000005   0.000012  -0.000001
    19  C    0.000000   0.000209   0.000060   0.000002   0.000000   0.000000
    20  H    0.000000   0.000119  -0.000004  -0.000001  -0.000001   0.000000
    21  H    0.000000  -0.000259  -0.000017   0.000001  -0.000013   0.000000
    22  H    0.000000   0.003781  -0.000023   0.000055   0.000105  -0.000011
    23  H    0.000000   0.000394   0.000145   0.000009   0.000001   0.000000
    24  H    0.000000  -0.000011   0.000012   0.000000   0.000000   0.000000
    25  H    0.000000  -0.000004   0.000001   0.000000   0.000000   0.000000
    26  H    0.000000   0.000000   0.000000   0.000000   0.000000   0.000000
    27  H   -0.000002  -0.000003   0.000000   0.000000   0.000000   0.000000
    28  H    0.000000  -0.000001   0.000000   0.000000   0.000000   0.000000
    29  H   -0.025640  -0.000024   0.000100   0.000002  -0.000002  -0.000036
    30  H   -0.023998  -0.000003  -0.000095   0.000001  -0.000016   0.000004
    31  H    0.446312   0.000013  -0.000025   0.000000   0.000001   0.000001
    32  H    0.000013   0.466613  -0.022859  -0.005598  -0.006251   0.008713
    33  H   -0.000025  -0.022859   0.483316  -0.004750   0.007235  -0.004930
    34  H    0.000000  -0.005598  -0.004750   0.474372  -0.025710  -0.027402
    35  H    0.000001  -0.006251   0.007235  -0.025710   0.470060  -0.028867
    36  H    0.000001   0.008713  -0.004930  -0.027402  -0.028867   0.491500
    37  C    0.000536   0.000029  -0.000054  -0.000001   0.000003  -0.000001
    38  C    0.001046  -0.000020  -0.000011   0.000000   0.000000   0.000000
    39  C    0.004896  -0.000001  -0.000004   0.000000   0.000000   0.000000
    40  H    0.000688  -0.000007  -0.000001   0.000000   0.000000   0.000000
    41  H   -0.001802   0.000002   0.000003   0.000000   0.000000   0.000000
    42  H   -0.000017   0.000006   0.000025   0.000000   0.000000   0.000000
    43  H    0.000013   0.000000   0.000000   0.000000   0.000000   0.000000
    44  H    0.001203   0.000000   0.000000   0.000000   0.000000   0.000000
              37         38         39         40         41         42
     1  C    0.007647  -0.000058  -0.000003  -0.000207   0.000082  -0.000053
     2  C   -0.086526  -0.012920   0.000599   0.007849  -0.004472  -0.000696
     3  C    0.331031  -0.061020  -0.002744  -0.041928  -0.026377  -0.002571
     4  C   -0.090118   0.008976  -0.000010  -0.005576  -0.003287   0.000024
     5  C    0.004209  -0.000153  -0.000001   0.000039  -0.000124   0.000000
     6  H   -0.000195  -0.000023   0.000001   0.000012   0.000020   0.000001
     7  H   -0.008693   0.008752   0.002180   0.000113  -0.000155   0.000026
     8  H   -0.007715   0.000209   0.000003   0.001750   0.000124   0.000005
     9  H   -0.004440   0.000105  -0.000061   0.000284   0.000750  -0.000027
    10  O   -0.000586   0.000000   0.000000   0.000007  -0.000033   0.000000
    11  O   -0.000201   0.000001   0.000000  -0.000008  -0.000002   0.000000
    12  C   -0.000324  -0.000001  -0.000001  -0.000003  -0.000032   0.000024
    13  C    0.000019   0.000000   0.000000   0.000000  -0.000001   0.000000
    14  C   -0.002136  -0.004125  -0.001308  -0.000046  -0.001939  -0.000024
    15  O   -0.057894   0.002166   0.000594  -0.002674   0.003836   0.004328
    16  Si  -0.013200  -0.000350   0.000446  -0.005183   0.002141   0.002980
    17  C   -0.004780   0.000742   0.000007  -0.002675  -0.000066  -0.000061
    18  C   -0.000325   0.000029   0.000000  -0.000121   0.000017   0.000026
    19  C   -0.000257  -0.000152   0.000001  -0.000032  -0.000004   0.000453
    20  H    0.000003   0.000000   0.000000   0.000007   0.000000   0.000000
    21  H   -0.000074   0.000007   0.000000  -0.000032   0.000006  -0.000001
    22  H   -0.000025   0.000001   0.000000  -0.000002   0.000004   0.000001
    23  H   -0.000012  -0.000005   0.000000  -0.000008   0.000001  -0.000022
    24  H   -0.000051   0.000082  -0.000003  -0.000031  -0.000001   0.000896
    25  H    0.000004  -0.000002   0.000000   0.000002   0.000000  -0.000017
    26  H    0.000462  -0.000073  -0.000002   0.000818  -0.000010   0.000005
    27  H   -0.001532   0.001638   0.000236  -0.001669  -0.000029   0.000310
    28  H   -0.001074   0.000085  -0.000012   0.001450  -0.000101   0.000003
    29  H   -0.000020  -0.000103  -0.000006   0.000004   0.000490   0.000018
    30  H   -0.001885   0.000500  -0.000023  -0.000081  -0.000538  -0.000002
    31  H    0.000536   0.001046   0.004896   0.000688  -0.001802  -0.000017
    32  H    0.000029  -0.000020  -0.000001  -0.000007   0.000002   0.000006
    33  H   -0.000054  -0.000011  -0.000004  -0.000001   0.000003   0.000025
    34  H   -0.000001   0.000000   0.000000   0.000000   0.000000   0.000000
    35  H    0.000003   0.000000   0.000000   0.000000   0.000000   0.000000
    36  H   -0.000001   0.000000   0.000000   0.000000   0.000000   0.000000
    37  C    5.448438   0.323570  -0.057635   0.397079   0.388932  -0.042991
    38  C    0.323570   5.063912   0.621171  -0.042022  -0.046675   0.394162
    39  C   -0.057635   0.621171   5.145223  -0.001787   0.001597  -0.039654
    40  H    0.397079  -0.042022  -0.001787   0.452266  -0.029316  -0.001350
    41  H    0.388932  -0.046675   0.001597  -0.029316   0.458570   0.004569
    42  H   -0.042991   0.394162  -0.039654  -0.001350   0.004569   0.454754
    43  H    0.006305  -0.039892   0.393520  -0.000377   0.000186  -0.007755
    44  H   -0.008865  -0.040405   0.388043   0.000105   0.004194   0.005762
              43         44
     1  C    0.000000   0.000003
     2  C   -0.000004  -0.000137
     3  C   -0.000331   0.000283
     4  C    0.000015  -0.000071
     5  C    0.000000   0.000001
     6  H    0.000000   0.000000
     7  H    0.000073  -0.000077
     8  H    0.000000  -0.000001
     9  H    0.000001  -0.000013
    10  O    0.000000   0.000000
    11  O    0.000000   0.000000
    12  C    0.000000   0.000000
    13  C    0.000000   0.000000
    14  C    0.000084   0.000040
    15  O    0.000020  -0.000012
    16  Si   0.000013   0.000000
    17  C    0.000000  -0.000001
    18  C    0.000000   0.000000
    19  C   -0.000001   0.000000
    20  H    0.000000   0.000000
    21  H    0.000000   0.000000
    22  H    0.000000   0.000000
    23  H    0.000000   0.000000
    24  H   -0.000003   0.000001
    25  H    0.000000   0.000000
    26  H    0.000000   0.000000
    27  H   -0.000003   0.000002
    28  H   -0.000001   0.000002
    29  H   -0.000004   0.000013
    30  H   -0.000001  -0.000004
    31  H    0.000013   0.001203
    32  H    0.000000   0.000000
    33  H    0.000000   0.000000
    34  H    0.000000   0.000000
    35  H    0.000000   0.000000
    36  H    0.000000   0.000000
    37  C    0.006305  -0.008865
    38  C   -0.039892  -0.040405
    39  C    0.393520   0.388043
    40  H   -0.000377   0.000105
    41  H    0.000186   0.004194
    42  H   -0.007755   0.005762
    43  H    0.454309  -0.033044
    44  H   -0.033044   0.460761
 Mulliken charges:
               1
     1  C   -0.066242
     2  C   -0.281355
     3  C    0.156999
     4  C   -0.607170
     5  C    0.491449
     6  H    0.246772
     7  H    0.258472
     8  H    0.272909
     9  H    0.288305
    10  O   -0.319109
    11  O   -0.384986
    12  C   -0.427327
    13  C   -0.666876
    14  C   -0.682859
    15  O   -0.624399
    16  Si   1.433153
    17  C   -1.087607
    18  C   -1.073427
    19  C   -1.046897
    20  H    0.236011
    21  H    0.246732
    22  H    0.248850
    23  H    0.236959
    24  H    0.236173
    25  H    0.234876
    26  H    0.248644
    27  H    0.248427
    28  H    0.246881
    29  H    0.240667
    30  H    0.235803
    31  H    0.249274
    32  H    0.257515
    33  H    0.228912
    34  H    0.225079
    35  H    0.234083
    36  H    0.218312
    37  C   -0.516659
    38  C   -0.179143
    39  C   -0.455263
    40  H    0.272665
    41  H    0.249440
    42  H    0.226863
    43  H    0.226876
    44  H    0.222219
 Sum of Mulliken charges =   0.00000
 Mulliken charges with hydrogens summed into heavy atoms:
               1
     1  C    0.180530
     2  C   -0.022883
     3  C    0.156999
     4  C   -0.045957
     5  C    0.491449
    10  O   -0.319109
    11  O   -0.384986
    12  C    0.059099
    13  C    0.010598
    14  C    0.042886
    15  O   -0.624399
    16  Si   1.433153
    17  C   -0.343655
    18  C   -0.341834
    19  C   -0.338889
    37  C    0.005445
    38  C    0.047720
    39  C   -0.006168
 Electronic spatial extent (au):  <R**2>=           4991.0309
 Charge=              0.0000 electrons
 Dipole moment (field-independent basis, Debye):
    X=             -2.7939    Y=              3.4531    Z=              1.9680  Tot=              4.8583
 Quadrupole moment (field-independent basis, Debye-Ang):
   XX=           -124.9553   YY=           -117.6563   ZZ=           -122.8194
   XY=              9.4787   XZ=              9.1279   YZ=             -6.8910
 Traceless Quadrupole moment (field-independent basis, Debye-Ang):
   XX=             -3.1449   YY=              4.1540   ZZ=             -1.0091
   XY=              9.4787   XZ=              9.1279   YZ=             -6.8910
 Octapole moment (field-independent basis, Debye-Ang**2):
  XXX=             -5.4721  YYY=             12.6030  ZZZ=              6.1292  XYY=             -8.2227
  XXY=              7.4426  XXZ=             22.5800  XZZ=             -7.5820  YZZ=             22.1555
  YYZ=              8.5748  XYZ=            -18.1182
 Hexadecapole moment (field-independent basis, Debye-Ang**3):
 XXXX=          -3085.1547 YYYY=          -2543.7326 ZZZZ=          -1246.8315 XXXY=             87.6602
 XXXZ=              9.2714 YYYX=             18.6172 YYYZ=            -13.4036 ZZZX=             23.6859
 ZZZY=            -25.1100 XXYY=           -930.2524 XXZZ=           -737.1828 YYZZ=           -652.3934
 XXYZ=             12.0522 YYXZ=             10.4983 ZZXY=             16.0281
 N-N= 1.661692979930D+03 E-N=-5.818642447509D+03  KE= 1.060533386881D+03
 1\1\GINC-SWANNODE-0-0\SP\RmPW1PW91\6-311G(d)\C14H26O3Si1\ROOT\08-Mar-2
 018\0\\#mPW1PW91/6-311g(d) nmr=(giao) scrf=(solvent=chloroform)\\P_ng_
 2ginp017\\0,1\C,0,-0.123671,0.183249,0.990949\C,0,-1.648615,-0.029316,
 1.089605\C,0,-2.339878,1.184114,1.791281\C,0,-1.643037,1.415406,3.1368
 7\C,0,-0.140349,1.432541,3.08267\H,0,0.328618,-0.783512,0.733997\H,0,-
 2.033978,-0.121924,0.065138\H,0,-1.966243,2.360368,3.584915\H,0,-1.912
 364,0.629827,3.853644\O,0,0.461848,0.554272,2.254151\O,0,0.515546,2.10
 668,3.872355\C,0,0.336207,1.176746,-0.088397\C,0,1.832137,1.061169,-0.
 36501\C,0,-1.896893,-1.38208,1.787543\O,0,-2.207217,2.289284,0.871699\
 Si,0,-2.466638,3.927696,1.110631\C,0,-3.967882,4.349296,2.148136\C,0,-
 0.963717,4.751453,1.886875\C,0,-2.721753,4.735187,-0.584077\H,0,-1.074
 735,5.839844,1.86825\H,0,-0.840476,4.44413,2.928366\H,0,-0.054008,4.49
 1315,1.338352\H,0,-1.848308,4.564397,-1.219964\H,0,-3.600521,4.309765,
 -1.077209\H,0,-2.869548,5.813428,-0.475252\H,0,-4.096315,5.434735,2.20
 5627\H,0,-4.87783,3.928788,1.710425\H,0,-3.863387,3.973298,3.169664\H,
 0,-1.377837,-2.187297,1.254761\H,0,-1.535696,-1.388427,2.820119\H,0,-2
 .954802,-1.653707,1.792646\H,0,0.156063,2.207271,0.22565\H,0,-0.209155
 ,1.000739,-1.022043\H,0,2.127729,1.775471,-1.140068\H,0,2.420008,1.275
 476,0.532995\H,0,2.090113,0.056651,-0.715113\C,0,-3.858918,0.898871,2.
 048377\C,0,-4.669623,0.621488,0.806727\C,0,-5.456421,-0.449172,0.64045
 3\H,0,-4.319408,1.758999,2.542012\H,0,-3.971605,0.07492,2.764014\H,0,-
 4.610266,1.356182,0.005526\H,0,-6.019429,-0.585011,-0.278391\H,0,-5.56
 338,-1.208935,1.408254\\Version=EM64L-G09RevD.01\State=1-A\HF=-1064.37
 42153\RMSD=9.433e-09\Dipole=-1.6053824,-0.613564,-0.8364764\Quadrupole
 =-6.2042365,7.802024,-1.5977875,-1.0519173,-8.7263216,-1.2392777\PG=C0
 1 [X(C14H26O3Si1)]\\@


 10 WHATSOEVER THY HAND FINDETH TO DO, DO IT WITH THY  
 MIGHT. FOR THERE IS NO WORK, NOR DEVICE, NOR KNOWLEDGE, NOR  
 WISDOM, IN THE GRAVE, WHITHER THOU GOEST.                    
 11 I RETURNED AND SAW UNDER THE SUN, THAT THE RACE IS NOT TO 
 THE SWIFT, NOR THE BATTLE TO THE STRONG, NEITHER YET BREAD TO
 THE WISE, NOR YET RICHES TO MEN OF UNDERSTANDING, NOR YET    
 FAVOR TO MEN OF SKILL. BUT TIME AND CHANCE HAPPEN TO THEM ALL.
 12 FOR MAN ALSO KNOWETH NOT HIS TIME. AS THE FISHES   
 THAT ARE TAKEN IN AN EVIL NET, AND AS THE BIRDS THAT ARE     
 CAUGHT IN THE SNARE. SO ARE THE SONS OF MEN SNARED IN AN EVIL
 TIME, WHEN IT FALLETH SUDDENLY UPON THEM.
                                         ECCLESIASTES 9
 Job cpu time:       0 days  1 hours 18 minutes 27.5 seconds.
 File lengths (MBytes):  RWF=    230 Int=      0 D2E=      0 Chk=     11 Scr=      1
 Normal termination of Gaussian 09 at Thu Mar  8 13:19:34 2018.
