 Entering Gaussian System, Link 0=/usr/local/shared/gaussian/em64t/09-D01/g09/g09
 Initial command:
 /usr/local/shared/gaussian/em64t/09-D01/g09/l1.exe "/scratch/ah809/P_ng_correct1ginp010/Gau-32460.inp" -scrdir="/scratch/ah809/P_ng_correct1ginp010/"
 Entering Link 1 = /usr/local/shared/gaussian/em64t/09-D01/g09/l1.exe PID=     32483.
  
 Copyright (c) 1988,1990,1992,1993,1995,1998,2003,2009,2013,
            Gaussian, Inc.  All Rights Reserved.
  
 This is part of the Gaussian(R) 09 program.  It is based on
 the Gaussian(R) 03 system (copyright 2003, Gaussian, Inc.),
 the Gaussian(R) 98 system (copyright 1998, Gaussian, Inc.),
 the Gaussian(R) 94 system (copyright 1995, Gaussian, Inc.),
 the Gaussian 92(TM) system (copyright 1992, Gaussian, Inc.),
 the Gaussian 90(TM) system (copyright 1990, Gaussian, Inc.),
 the Gaussian 88(TM) system (copyright 1988, Gaussian, Inc.),
 the Gaussian 86(TM) system (copyright 1986, Carnegie Mellon
 University), and the Gaussian 82(TM) system (copyright 1983,
 Carnegie Mellon University). Gaussian is a federally registered
 trademark of Gaussian, Inc.
  
 This software contains proprietary and confidential information,
 including trade secrets, belonging to Gaussian, Inc.
  
 This software is provided under written license and may be
 used, copied, transmitted, or stored only in accord with that
 written license.
  
 The following legend is applicable only to US Government
 contracts under FAR:
  
                    RESTRICTED RIGHTS LEGEND
  
 Use, reproduction and disclosure by the US Government is
 subject to restrictions as set forth in subparagraphs (a)
 and (c) of the Commercial Computer Software - Restricted
 Rights clause in FAR 52.227-19.
  
 Gaussian, Inc.
 340 Quinnipiac St., Bldg. 40, Wallingford CT 06492
  
  
 ---------------------------------------------------------------
 Warning -- This program may not be used in any manner that
 competes with the business of Gaussian, Inc. or will provide
 assistance to any competitor of Gaussian, Inc.  The licensee
 of this program is prohibited from giving any competitor of
 Gaussian, Inc. access to this program.  By using this program,
 the user acknowledges that Gaussian, Inc. is engaged in the
 business of creating and licensing software in the field of
 computational chemistry and represents and warrants to the
 licensee that it is not a competitor of Gaussian, Inc. and that
 it will not use this program in any manner prohibited above.
 ---------------------------------------------------------------
  

 Cite this work as:
 Gaussian 09, Revision D.01,
 M. J. Frisch, G. W. Trucks, H. B. Schlegel, G. E. Scuseria, 
 M. A. Robb, J. R. Cheeseman, G. Scalmani, V. Barone, B. Mennucci, 
 G. A. Petersson, H. Nakatsuji, M. Caricato, X. Li, H. P. Hratchian, 
 A. F. Izmaylov, J. Bloino, G. Zheng, J. L. Sonnenberg, M. Hada, 
 M. Ehara, K. Toyota, R. Fukuda, J. Hasegawa, M. Ishida, T. Nakajima, 
 Y. Honda, O. Kitao, H. Nakai, T. Vreven, J. A. Montgomery, Jr., 
 J. E. Peralta, F. Ogliaro, M. Bearpark, J. J. Heyd, E. Brothers, 
 K. N. Kudin, V. N. Staroverov, T. Keith, R. Kobayashi, J. Normand, 
 K. Raghavachari, A. Rendell, J. C. Burant, S. S. Iyengar, J. Tomasi, 
 M. Cossi, N. Rega, J. M. Millam, M. Klene, J. E. Knox, J. B. Cross, 
 V. Bakken, C. Adamo, J. Jaramillo, R. Gomperts, R. E. Stratmann, 
 O. Yazyev, A. J. Austin, R. Cammi, C. Pomelli, J. W. Ochterski, 
 R. L. Martin, K. Morokuma, V. G. Zakrzewski, G. A. Voth, 
 P. Salvador, J. J. Dannenberg, S. Dapprich, A. D. Daniels, 
 O. Farkas, J. B. Foresman, J. V. Ortiz, J. Cioslowski, 
 and D. J. Fox, Gaussian, Inc., Wallingford CT, 2013.
 
 ******************************************
 Gaussian 09:  EM64L-G09RevD.01 24-Apr-2013
                 8-Mar-2018 
 ******************************************
 %mem=6000MB
 %chk=P_ng_correct1ginp010.chk
 --------------------------------------------------------
 #mPW1PW91/6-311g(d) nmr=(giao) scrf=(solvent=chloroform)
 --------------------------------------------------------
 1/38=1/1;
 2/12=2,17=6,18=5,40=1/2;
 3/5=4,6=6,7=1,11=2,16=1,25=1,30=1,70=2201,72=7,74=-7/1,2,8,3;
 4//1;
 5/5=2,38=5,53=7/2;
 8/6=1,10=90,11=11/1;
 10/13=100,45=16/2;
 6/7=2,8=2,9=2,10=2,28=1/1;
 99/9=1/99;
 --------------------
 P_ng_correct1ginp010
 --------------------
 Symbolic Z-matrix:
 Charge =  0 Multiplicity = 1
 C                     0.9849   -0.22684   0.76817 
 C                    -0.52215  -0.41801   0.55003 
 C                    -1.37222   0.77375   1.09603 
 C                    -0.77309   2.06619   0.53869 
 C                     0.71539   2.18724   0.65126 
 H                     1.24633  -0.35974   1.82133 
 H                    -0.69017  -0.43575  -0.53861 
 H                    -1.02188   2.18116  -0.52422 
 H                    -1.20577   2.93121   1.05291 
 O                     1.43801   1.08479   0.38275 
 O                     1.25741   3.27013   0.85093 
 C                     1.82772  -1.23722  -0.03566 
 C                     3.32579  -1.06548   0.19338 
 C                    -1.01273  -1.77942   1.07051 
 O                    -2.66302   0.54486   0.46142 
 Si                   -4.11727   1.33615   0.70229 
 C                    -5.02257   0.64      2.19847 
 C                    -3.95505   3.19131   0.90783 
 C                    -5.22238   1.03624  -0.80375 
 H                    -3.41194   3.44412   1.82251 
 H                    -3.42869   3.63325   0.05681 
 H                    -4.9443    3.65538   0.96914 
 H                    -6.19272   1.52282  -0.66923 
 H                    -4.75242   1.43929  -1.70548 
 H                    -5.38693  -0.03563  -0.94679 
 H                    -6.02905   1.06361   2.26645 
 H                    -5.11229  -0.44732   2.1184 
 H                    -4.49298   0.87451   3.12558 
 H                    -0.60177  -2.60003   0.4745 
 H                    -0.7161   -1.94352   2.11083 
 H                    -2.10218  -1.8665    1.01001 
 H                     1.63062  -1.11228  -1.10731 
 H                     1.56028  -2.26354   0.23394 
 H                     3.88011  -1.83128  -0.35865 
 H                     3.6757   -0.08759  -0.15131 
 H                     3.57305  -1.16693   1.25486 
 C                    -1.51271   0.7986    2.65502 
 C                    -0.27788   0.97938   3.49282 
 C                     0.14813   0.09022   4.39961 
 H                    -2.05619  -0.09924   2.97784 
 H                    -2.1716    1.62947   2.93599 
 H                     0.26928   1.91609   3.39395 
 H                     1.03251   0.29023   4.99845 
 H                    -0.36985  -0.84799   4.57412 
 
                          Input orientation:                          
 ---------------------------------------------------------------------
 Center     Atomic      Atomic             Coordinates (Angstroms)
 Number     Number       Type             X           Y           Z
 ---------------------------------------------------------------------
      1          6           0        0.984898   -0.226836    0.768166
      2          6           0       -0.522153   -0.418005    0.550034
      3          6           0       -1.372222    0.773749    1.096027
      4          6           0       -0.773087    2.066189    0.538690
      5          6           0        0.715388    2.187242    0.651258
      6          1           0        1.246334   -0.359740    1.821325
      7          1           0       -0.690169   -0.435747   -0.538612
      8          1           0       -1.021879    2.181159   -0.524218
      9          1           0       -1.205769    2.931210    1.052913
     10          8           0        1.438010    1.084792    0.382753
     11          8           0        1.257409    3.270125    0.850932
     12          6           0        1.827716   -1.237215   -0.035659
     13          6           0        3.325792   -1.065476    0.193383
     14          6           0       -1.012735   -1.779415    1.070505
     15          8           0       -2.663017    0.544859    0.461417
     16         14           0       -4.117272    1.336150    0.702290
     17          6           0       -5.022570    0.639998    2.198470
     18          6           0       -3.955047    3.191313    0.907828
     19          6           0       -5.222379    1.036235   -0.803746
     20          1           0       -3.411936    3.444116    1.822505
     21          1           0       -3.428694    3.633246    0.056811
     22          1           0       -4.944304    3.655381    0.969141
     23          1           0       -6.192723    1.522823   -0.669227
     24          1           0       -4.752418    1.439290   -1.705479
     25          1           0       -5.386933   -0.035630   -0.946790
     26          1           0       -6.029053    1.063611    2.266454
     27          1           0       -5.112292   -0.447324    2.118403
     28          1           0       -4.492983    0.874511    3.125584
     29          1           0       -0.601765   -2.600033    0.474495
     30          1           0       -0.716096   -1.943515    2.110826
     31          1           0       -2.102183   -1.866499    1.010012
     32          1           0        1.630622   -1.112280   -1.107313
     33          1           0        1.560280   -2.263538    0.233943
     34          1           0        3.880106   -1.831275   -0.358648
     35          1           0        3.675704   -0.087593   -0.151313
     36          1           0        3.573053   -1.166929    1.254862
     37          6           0       -1.512712    0.798600    2.655017
     38          6           0       -0.277880    0.979381    3.492817
     39          6           0        0.148131    0.090223    4.399608
     40          1           0       -2.056187   -0.099235    2.977839
     41          1           0       -2.171598    1.629468    2.935985
     42          1           0        0.269280    1.916091    3.393951
     43          1           0        1.032511    0.290229    4.998452
     44          1           0       -0.369848   -0.847994    4.574119
 ---------------------------------------------------------------------
                    Distance matrix (angstroms):
                    1          2          3          4          5
     1  C    0.000000
     2  C    1.534708   0.000000
     3  C    2.581604   1.562371   0.000000
     4  C    2.898471   2.496861   1.529702   0.000000
     5  C    2.431887   2.886012   2.560058   1.497626   0.000000
     6  H    1.093232   2.178789   2.944094   3.407102   2.852732
     7  H    2.134751   1.101678   2.144789   2.725278   3.204911
     8  H    3.390553   2.856466   2.174566   1.097674   2.097588
     9  H    3.854005   3.455063   2.164302   1.095400   2.098966
    10  O    1.440216   2.475605   2.915975   2.424130   1.345241
    11  O    3.508539   4.106054   3.634133   2.381149   1.227311
    12  C    1.541863   2.556565   3.945161   4.243410   3.665520
    13  C    2.552151   3.918303   5.125315   5.169852   4.195716
    14  C    2.548028   1.537855   2.578474   3.889592   4.347016
    15  O    3.741242   2.349097   1.456459   2.427396   3.761261
    16  Si   5.336610   4.003139   2.829598   3.426849   4.907297
    17  C    6.235932   4.908204   3.815535   4.779853   6.141009
    18  C    6.008852   4.993992   3.542742   3.395149   4.784031
    19  C    6.526603   5.102907   4.301366   4.760162   6.220846
    20  H    5.824059   4.988588   3.437886   3.241973   4.470610
    21  H    5.906442   5.010378   3.672298   3.120917   4.429188
    22  H    7.089953   6.026902   4.591260   4.484403   5.855646
    23  H    7.526330   6.116271   5.187915   5.579137   7.064498
    24  H    6.466196   5.141209   4.440395   4.611331   6.000879
    25  H    6.601353   5.104192   4.576691   5.283168   6.688291
    26  H    7.287361   5.955437   4.810405   5.622767   7.025588
    27  H    6.248798   4.850775   4.065021   5.257560   6.561654
    28  H    6.064451   4.906276   3.724031   4.685055   5.913770
    29  H    2.869809   2.184786   3.516008   4.669807   4.968314
    30  H    2.764616   2.191088   2.973860   4.307271   4.608974
    31  H    3.503863   2.192307   2.740648   4.177879   4.949770
    32  H    2.172186   2.804150   4.174792   4.311590   3.849295
    33  H    2.182800   2.800434   4.309045   4.927881   4.549444
    34  H    3.496593   4.711997   6.040627   6.135768   5.213811
    35  H    2.846975   4.268848   5.270609   4.990654   3.818699
    36  H    2.796282   4.222367   5.314810   5.463963   4.447589
    37  C    3.293901   2.625317   1.565505   2.575396   3.302697
    38  C    3.236246   3.266853   2.642815   3.186416   3.243450
    39  C    3.740064   3.940406   3.700315   4.433934   4.332366
    40  H    3.761268   2.889483   2.184291   3.504976   4.280489
    41  H    4.255440   3.550433   2.180987   2.809552   3.723678
    42  H    3.463956   3.763274   3.046298   3.043283   2.791935
    43  H    4.262035   4.765186   4.609279   5.128713   4.753664
    44  H    4.087353   4.049858   3.966349   4.993972   5.077325
                    6          7          8          9         10
     6  H    0.000000
     7  H    3.053707   0.000000
     8  H    4.135521   2.637885   0.000000
     9  H    4.175358   3.759680   1.756056   0.000000
    10  O    2.047658   2.773103   2.841772   3.293621   0.000000
    11  O    3.757353   4.411052   2.876115   2.494575   2.242206
    12  C    2.134562   2.689806   4.477071   5.269040   2.391371
    13  C    2.733570   4.130414   5.473375   6.103060   2.867618
    14  C    2.771750   2.121026   4.269587   4.714611   3.831819
    15  O    4.236824   2.419458   2.518390   2.857991   4.137165
    16  Si   5.735552   4.052714   3.435087   3.338263   5.570138
    17  C    6.359314   5.236272   5.078753   4.596730   6.725605
    18  C    6.363868   5.089910   3.416817   2.765363   5.813622
    19  C    7.119269   4.772626   4.362704   4.813654   6.765421
    20  H    6.014050   5.294925   3.579740   2.392178   5.582228
    21  H    6.396353   4.940724   2.870350   2.535048   5.503241
    22  H    7.427746   6.091659   4.448468   3.808948   6.905484
    23  H    8.067618   5.842188   5.214601   5.460680   7.715350
    24  H    7.187481   4.623766   3.982797   4.734266   6.542766
    25  H    7.194980   4.731416   4.913900   5.503007   7.042931
    26  H    7.426663   6.214511   5.840253   5.312690   7.701026
    27  H    6.366165   5.158976   5.533882   5.273583   6.947396
    28  H    6.013670   5.441002   5.203551   4.396789   6.537891
    29  H    3.201302   2.391304   4.902420   5.594107   4.212723
    30  H    2.538363   3.048534   4.904069   5.012176   4.098421
    31  H    3.760468   2.537532   4.461441   4.880923   4.651509
    32  H    3.048100   2.483382   4.268782   5.390872   2.661676
    33  H    2.498558   3.000364   5.195930   5.941982   3.353865
    34  H    3.722157   4.781976   6.336915   7.109141   3.875172
    35  H    3.141210   4.396824   5.230065   5.864479   2.582051
    36  H    2.527065   4.682546   5.957199   6.298624   3.223233
    37  C    3.106305   3.521286   3.501417   2.684954   3.735218
    38  C    2.628756   4.292434   4.258447   3.259409   3.553574
    39  C    2.838320   5.036408   5.475856   4.593976   4.334522
    40  H    3.508851   3.787436   4.305159   3.689464   4.510632
    41  H    4.108732   4.304947   3.687712   2.484616   4.454765
    42  H    2.933802   4.681531   4.133933   2.947320   3.335311
    43  H    3.249972   5.844121   6.188378   5.248996   4.701110
    44  H    3.229290   5.139316   5.966067   5.232594   4.956971
                   11         12         13         14         15
    11  O    0.000000
    12  C    4.628975   0.000000
    13  C    4.848506   1.525184   0.000000
    14  C    5.540724   3.096085   4.483511   0.000000
    15  O    4.790463   4.856908   6.207323   2.914905   0.000000
    16  Si   5.713978   6.519943   7.837474   4.413669   1.673027
    17  C    6.940574   7.445917   8.753523   4.817120   2.931535
    18  C    5.213362   7.344547   8.464118   5.778564   2.978648
    19  C    7.050949   7.447306   8.859045   5.400167   2.896968
    20  H    4.772527   7.267846   8.269670   5.797150   3.289245
    21  H    4.766765   7.166574   8.229199   6.013429   3.207507
    22  H    6.214792   8.414712   9.554202   6.708541   3.890681
    23  H    7.801821   8.505684   9.901794   6.384647   3.833222
    24  H    6.782714   7.297269   8.668160   5.661394   3.140230
    25  H    7.635909   7.370558   8.847155   5.122877   3.120854
    26  H    7.743703   8.504254   9.815486   5.888679   3.854538
    27  H    7.483248   7.309420   8.676928   4.436093   3.119131
    28  H    6.631743   7.375912   8.572899   4.835163   3.248882
    29  H    6.169035   2.831944   4.226061   1.094321   3.760223
    30  H    5.715251   3.402534   4.558991   1.094162   3.564135
    31  H    6.139794   4.115037   5.547200   1.094596   2.535772
    32  H    4.814508   1.096767   2.137195   3.489312   4.862341
    33  H    5.576184   1.094325   2.134017   2.748566   5.076916
    34  H    5.862244   2.160910   1.094738   5.097554   7.009349
    35  H    4.257572   2.179465   1.094307   5.131916   6.399595
    36  H    5.021236   2.171770   1.094609   4.630181   6.515239
    37  C    4.127557   4.747919   5.739821   3.067053   2.489873
    38  C    3.818924   4.668723   5.296617   3.744137   3.881633
    39  C    4.892379   4.924905   5.396804   3.990750   4.859897
    40  H    5.182301   5.045877   6.136165   2.747675   2.667486
    41  H    4.335584   5.748309   6.708643   4.055054   2.746153
    42  H    3.045776   4.912666   5.336257   4.549586   4.367883
    43  H    5.111974   5.320499   5.494157   4.888274   5.857171
    44  H    5.785239   5.121605   5.735495   3.681869   4.910497
                   16         17         18         19         20
    16  Si   0.000000
    17  C    1.882219   0.000000
    18  C    1.873551   3.051978   0.000000
    19  C    1.891918   3.034836   3.029848   0.000000
    20  H    2.489157   3.255544   1.093395   3.996597   0.000000
    21  H    2.483432   4.010820   1.093884   3.271442   1.775873
    22  H    2.476696   3.257286   1.094417   3.174961   1.766639
    23  H    2.494675   3.220609   3.205956   1.093815   4.199151
    24  H    2.492268   3.994079   3.245729   1.093819   4.273510
    25  H    2.492646   3.237575   3.987865   1.093816   4.866029
    26  H    2.485114   1.094111   3.267182   3.174524   3.565557
    27  H    2.485200   1.093952   4.005545   3.279027   4.257003
    28  H    2.495320   1.093160   3.251982   3.999726   3.077263
    29  H    5.282444   5.745730   6.706114   6.017177   6.800436
    30  H    4.930332   5.022742   6.189060   6.138422   6.031356
    31  H    3.796345   4.027855   5.387486   4.631545   5.529759
    32  H    6.504441   7.633063   7.333581   7.188316   7.400809
    33  H    6.738820   7.458137   7.786421   7.613788   7.734583
    34  H    8.666962   9.586641   9.392549   9.553845   9.260726
    35  H    7.967820   9.039405   8.372656   8.992471   8.161101
    36  H    8.106284   8.834032   8.705573   9.297926   8.388923
    37  C    3.299369   3.542978   3.839628   5.077513   3.361381
    38  C    4.759754   4.929767   5.009628   6.550707   4.322866
    39  C    5.780671   5.646540   6.216539   7.537387   5.528484
    40  H    3.389178   3.154887   4.326467   5.061072   3.965878
    41  H    2.976756   3.106609   3.119851   4.862590   2.463985
    42  H    5.179113   5.573263   5.064774   6.968007   4.284350
    43  H    6.787579   6.680288   7.072851   8.564209   6.307674
    44  H    5.814184   5.431910   6.527736   7.484571   5.936993
                   21         22         23         24         25
    21  H    0.000000
    22  H    1.769155   0.000000
    23  H    3.552587   2.964895   0.000000
    24  H    3.109880   3.478717   1.776309   0.000000
    25  H    4.278150   4.182138   1.776264   1.775840   0.000000
    26  H    4.271699   3.094669   2.975884   4.188936   3.456239
    27  H    4.871931   4.263943   3.580460   4.279123   3.104888
    28  H    4.261537   3.547841   4.208327   4.870878   4.267521
    29  H    6.857095   7.631024   7.040231   6.188403   5.611956
    30  H    6.532796   7.108363   7.052492   6.503803   5.899641
    31  H    5.737196   6.210514   5.571343   5.032482   4.239191
    32  H    7.033625   8.382834   8.266826   6.900110   7.101480
    33  H    7.726144   8.825176   8.675327   7.571159   7.390634
    34  H    9.135215  10.475525  10.621126   9.329042   9.457709
    35  H    8.022495   9.464133  10.012369   8.705173   9.097630
    36  H    8.573300   9.791919  10.310541   9.212462   9.295615
    37  C    4.296147   4.772756   5.785983   5.469927   5.355235
    38  C    5.364398   5.941837   7.252814   6.874248   6.844179
    39  C    6.648803   7.100095   8.243292   7.944020   7.696541
    40  H    4.934328   5.145214   5.748312   5.618735   5.147876
    41  H    3.726266   3.957360   5.401701   5.314131   5.309131
    42  H    5.268789   6.007187   7.643400   7.172794   7.392158
    43  H    7.449693   7.954993   9.265305   8.929078   8.755647
    44  H    7.060037   7.362194   8.186533   7.991992   7.504100
                   26         27         28         29         30
    26  H    0.000000
    27  H    1.773498   0.000000
    28  H    1.770134   1.773473   0.000000
    29  H    6.788878   5.261316   5.851693   0.000000
    30  H    6.106925   4.643833   4.820361   1.766824   0.000000
    31  H    5.058112   3.507612   4.207696   1.753883   1.771711
    32  H    8.647972   7.504285   7.704758   3.114334   4.068717
    33  H    8.532233   7.167499   7.406142   2.201257   2.967658
    34  H   10.651899   9.429439   9.464131   4.623017   5.218809
    35  H   10.067431   9.083496   8.853877   5.000073   5.277275
    36  H    9.909544   8.757782   8.528072   4.482395   4.442135
    37  C    4.540765   3.846720   3.018147   4.139469   2.906877
    38  C    5.881076   5.224561   4.232369   4.693333   3.262706
    39  C    6.607226   5.758898   4.876288   4.817295   3.181431
    40  H    4.200231   3.193677   2.628305   3.825711   2.439042
    41  H    3.955809   3.691773   2.448415   5.139259   3.945324
    42  H    6.454996   6.014488   4.882219   5.447689   4.184965
    43  H    7.611020   6.826219   5.863455   5.611654   4.047916
    44  H    6.403605   5.355544   4.697395   4.464341   2.718063
                   31         32         33         34         35
    31  H    0.000000
    32  H    4.357263   0.000000
    33  H    3.764779   1.768986   0.000000
    34  H    6.136958   2.477424   2.433024   0.000000
    35  H    6.156067   2.479169   3.059114   1.767822   0.000000
    36  H    5.723430   3.058741   2.509199   1.771737   1.775621
    37  C    3.186890   5.261857   4.968055   6.714232   5.964938
    38  C    4.194214   5.401724   4.951325   6.326327   5.481692
    39  C    4.514647   5.828376   4.988699   6.345139   5.760753
    40  H    2.645313   5.595292   5.029116   7.026499   6.530414
    41  H    3.991989   6.190502   6.031869   7.710672   6.831592
    42  H    5.061125   5.593359   5.396446   6.415825   5.309178
    43  H    5.512299   6.293261   5.431465   6.427138   5.800802
    44  H    4.091601   6.029129   4.956439   6.584918   6.266930
                   36         37         38         39         40
    36  H    0.000000
    37  C    5.629276   0.000000
    38  C    4.944166   1.503130   0.000000
    39  C    4.816633   2.510736   1.339536   0.000000
    40  H    5.983056   1.098038   2.142660   2.629893   0.000000
    41  H    6.606590   1.097003   2.078183   3.145252   1.733057
    42  H    4.999563   2.229418   1.089304   2.088017   3.105235
    43  H    4.753118   3.496897   2.111632   1.086621   3.711417
    44  H    5.163880   2.774953   2.125317   1.085821   2.439772
                   41         42         43         44
    41  H    0.000000
    42  H    2.499954   0.000000
    43  H    4.039015   2.408396   0.000000
    44  H    3.473846   3.072694   1.855322   0.000000
 Stoichiometry    C14H26O3Si
 Framework group  C1[X(C14H26O3Si)]
 Deg. of freedom   126
 Full point group                 C1      NOp   1
 Largest Abelian subgroup         C1      NOp   1
 Largest concise Abelian subgroup C1      NOp   1
                         Standard orientation:                         
 ---------------------------------------------------------------------
 Center     Atomic      Atomic             Coordinates (Angstroms)
 Number     Number       Type             X           Y           Z
 ---------------------------------------------------------------------
      1          6           0        2.305581   -0.421354   -0.361334
      2          6           0        0.884010   -0.958003   -0.576914
      3          6           0       -0.216936   -0.019209    0.012649
      4          6           0        0.051292    1.394826   -0.505566
      5          6           0        1.470027    1.862197   -0.397677
      6          1           0        2.605110   -0.520371    0.685391
      7          1           0        0.710463   -0.982007   -1.664572
      8          1           0       -0.231834    1.479727   -1.562694
      9          1           0       -0.567181    2.116401    0.039156
     10          8           0        2.429709    0.971429   -0.706251
     11          8           0        1.742554    3.036192   -0.165823
     12          6           0        3.353051   -1.177924   -1.202615
     13          6           0        4.770654   -0.662603   -0.976714
     14          6           0        0.737087   -2.412121   -0.098426
     15          8           0       -1.425055   -0.528497   -0.621659
     16         14           0       -3.022072   -0.112648   -0.346662
     17          6           0       -3.716505   -1.048918    1.131143
     18          6           0       -3.301452    1.720882   -0.081502
     19          6           0       -4.044615   -0.620336   -1.855308
     20          1           0       -2.821571    2.067428    0.837808
     21          1           0       -2.906260    2.300769   -0.920630
     22          1           0       -4.371604    1.934829    0.000653
     23          1           0       -5.100755   -0.382260   -1.699359
     24          1           0       -3.695665   -0.090039   -2.746070
     25          1           0       -3.952321   -1.695772   -2.032378
     26          1           0       -4.793712   -0.878542    1.218742
     27          1           0       -3.547013   -2.123517    1.016079
     28          1           0       -3.245259   -0.723718    2.062364
     29          1           0        1.322852   -3.093249   -0.723312
     30          1           0        1.078036   -2.532683    0.934246
     31          1           0       -0.301384   -2.753392   -0.155456
     32          1           0        3.117666   -1.070813   -2.268456
     33          1           0        3.340121   -2.246103   -0.965184
     34          1           0        5.483259   -1.257821   -1.556679
     35          1           0        4.874180    0.380400   -1.291257
     36          1           0        5.049070   -0.734699    0.079437
     37          6           0       -0.338478   -0.075819    1.572402
     38          6           0        0.829394    0.367299    2.408537
     39          6           0        1.466086   -0.422497    3.283295
     40          1           0       -0.649299   -1.086371    1.868815
     41          1           0       -1.171709    0.566002    1.884183
     42          1           0        1.137571    1.409663    2.337206
     43          1           0        2.285777   -0.036619    3.883254
     44          1           0        1.187623   -1.461698    3.430012
 ---------------------------------------------------------------------
 Rotational constants (GHZ):      0.5713832      0.2343735      0.2302271
 Standard basis: 6-311G(d) (5D, 7F)
 There are   428 symmetry adapted cartesian basis functions of A   symmetry.
 There are   410 symmetry adapted basis functions of A   symmetry.
   410 basis functions,   720 primitive gaussians,   428 cartesian basis functions
    74 alpha electrons       74 beta electrons
       nuclear repulsion energy      1623.6805004295 Hartrees.
 NAtoms=   44 NActive=   44 NUniq=   44 SFac= 1.00D+00 NAtFMM=   60 NAOKFM=F Big=F
 Integral buffers will be    131072 words long.
 Raffenetti 2 integral format.
 Two-electron integral symmetry is turned on.
 ------------------------------------------------------------------------------
 Polarizable Continuum Model (PCM)
 =================================
 Model                : PCM (using non-symmetric T matrix).
 Atomic radii         : UFF (Universal Force Field).
 Polarization charges : Total charges.
 Charge compensation  : None.
 Solution method      : On-the-fly selection.
 Cavity type          : Scaled VdW (van der Waals Surface) (Alpha=1.100).
 Cavity algorithm     : GePol (No added spheres)
                        Default sphere list used, NSphG=   44.
                        Lebedev-Laikov grids with approx.  5.0 points / Ang**2.
                        Smoothing algorithm: Karplus/York (Gamma=1.0000).
                        Polarization charges: spherical gaussians, with
                                              point-specific exponents (IZeta= 3).
                        Self-potential: point-specific (ISelfS= 7).
                        Self-field    : sphere-specific E.n sum rule (ISelfD= 2).
 Solvent              : Chloroform, Eps=   4.711300 Eps(inf)=   2.090627
 ------------------------------------------------------------------------------
 One-electron integrals computed using PRISM.
 NBasis=   410 RedAO= T EigKep=  1.01D-03  NBF=   410
 NBsUse=   410 1.00D-06 EigRej= -1.00D+00 NBFU=   410
 ExpMin= 6.54D-02 ExpMax= 6.94D+04 ExpMxC= 2.33D+03 IAcc=2 IRadAn=         4 AccDes= 0.00D+00
 Harris functional with IExCor=  908 and IRadAn=       4 diagonalized for initial guess.
 HarFok:  IExCor=  908 AccDes= 0.00D+00 IRadAn=         4 IDoV= 1 UseB2=F ITyADJ=14
 ICtDFT=  3500011 ScaDFX=  1.000000  1.000000  1.000000  1.000000
 FoFCou: FMM=F IPFlag=           0 FMFlag=      100000 FMFlg1=           0
         NFxFlg=           0 DoJE=T BraDBF=F KetDBF=T FulRan=T
         wScrn=  0.000000 ICntrl=     500 IOpCl=  0 I1Cent=   200000004 NGrid=           0
         NMat0=    1 NMatS0=      1 NMatT0=    0 NMatD0=    1 NMtDS0=    0 NMtDT0=    0
 Petite list used in FoFCou.
 Requested convergence on RMS density matrix=1.00D-08 within 128 cycles.
 Requested convergence on MAX density matrix=1.00D-06.
 Requested convergence on             energy=1.00D-06.
 No special actions if energy rises.
 Inv3:  Mode=1 IEnd=    24453075.
 Iteration    1 A*A^-1 deviation from unit magnitude is 6.66D-15 for   1814.
 Iteration    1 A*A^-1 deviation from orthogonality  is 7.13D-15 for   2444   2392.
 Iteration    1 A^-1*A deviation from unit magnitude is 7.11D-15 for   1855.
 Iteration    1 A^-1*A deviation from orthogonality  is 1.18D-13 for   2058   2032.
 Error on total polarization charges =  0.01141
 SCF Done:  E(RmPW1PW91) =  -1064.37462487     A.U. after   13 cycles
            NFock= 13  Conv=0.37D-08     -V/T= 2.0036
 DoSCS=F DFT=T ScalE2(SS,OS)=  1.000000  1.000000
 Range of M.O.s used for correlation:     1   410
 NBasis=   410 NAE=    74 NBE=    74 NFC=     0 NFV=     0
 NROrb=    410 NOA=    74 NOB=    74 NVA=   336 NVB=   336
 NEqPCM:  Using equilibrium solvation (IEInf=0, Eps=   4.7113, EpsInf=   2.0906)
          Differentiating once with respect to magnetic field using GIAOs.
          Electric field/nuclear overlap derivatives assumed to be zero.
 FoFJK:  IHMeth= 1 ICntrl=    6127 DoSepK=F KAlg= 0 I1Cent=   0 FoldK=F
 IRaf=         1 NMat=   1 IRICut=       1 DoRegI=T DoRafI=F ISym2E= 0.
          There are     3 degrees of freedom in the 1st order CPHF.  IDoFFX=0 NUNeed=     3.
      3 vectors produced by pass  0 Test12= 8.29D-13 3.33D-08 XBig12= 3.63D+01 6.14D-01.
 AX will form     3 AO Fock derivatives at one time.
      3 vectors produced by pass  1 Test12= 8.29D-13 3.33D-08 XBig12= 8.40D-02 9.41D-02.
      3 vectors produced by pass  2 Test12= 8.29D-13 3.33D-08 XBig12= 1.24D-03 1.25D-02.
      3 vectors produced by pass  3 Test12= 8.29D-13 3.33D-08 XBig12= 5.98D-06 4.27D-04.
      3 vectors produced by pass  4 Test12= 8.29D-13 3.33D-08 XBig12= 2.08D-08 2.11D-05.
      3 vectors produced by pass  5 Test12= 8.29D-13 3.33D-08 XBig12= 5.93D-11 9.05D-07.
      1 vectors produced by pass  6 Test12= 8.29D-13 3.33D-08 XBig12= 2.09D-13 6.30D-08.
 InvSVY:  IOpt=1 It=  1 EMax= 8.88D-16
 Solved reduced A of dimension    19 with     3 vectors.
 Calculating GIAO nuclear magnetic shielding tensors.
 SCF GIAO Magnetic shielding tensor (ppm):
      1  C    Isotropic =   103.4229   Anisotropy =    47.8690
   XX=    97.4576   YX=    10.4517   ZX=    -6.5007
   XY=    -3.5532   YY=   129.6181   ZY=   -15.4178
   XZ=    -3.1063   YZ=   -17.0811   ZZ=    83.1930
   Eigenvalues:    77.4309    97.5023   135.3356
      2  C    Isotropic =   137.7486   Anisotropy =    30.1012
   XX=   154.3756   YX=    -9.6846   ZX=    -2.2225
   XY=   -12.4443   YY=   118.4467   ZY=     8.8350
   XZ=     0.0117   YZ=     0.1199   ZZ=   140.4236
   Eigenvalues:   114.6860   140.7437   157.8161
      3  C    Isotropic =   104.7488   Anisotropy =    55.4739
   XX=   130.0849   YX=    11.6251   ZX=    18.8589
   XY=    10.8627   YY=    90.7904   ZY=     8.3199
   XZ=    19.5551   YZ=     6.3173   ZZ=    93.3712
   Eigenvalues:    83.7646    88.7504   141.7314
      4  C    Isotropic =   139.8206   Anisotropy =    29.8127
   XX=   146.2321   YX=    12.5448   ZX=    -3.3542
   XY=    13.2407   YY=   147.0425   ZY=    -7.9866
   XZ=     2.6087   YZ=     2.2850   ZZ=   126.1871
   Eigenvalues:   125.6652   134.1008   159.6957
      5  C    Isotropic =     7.5259   Anisotropy =   100.9562
   XX=   -68.8894   YX=    35.6473   ZX=    12.9439
   XY=    49.2468   YY=    20.4484   ZY=   -15.1737
   XZ=    22.7723   YZ=   -11.7006   ZZ=    71.0187
   Eigenvalues:   -88.7572    36.5049    74.8300
      6  H    Isotropic =    27.9167   Anisotropy =     4.6870
   XX=    28.2328   YX=    -0.8853   ZX=    -1.7871
   XY=    -0.4502   YY=    25.1723   ZY=    -1.1645
   XZ=    -0.9671   YZ=    -0.1873   ZZ=    30.3448
   Eigenvalues:    24.8576    27.8510    31.0413
      7  H    Isotropic =    29.9980   Anisotropy =     3.9474
   XX=    30.3827   YX=    -1.2143   ZX=    -0.4119
   XY=    -1.2805   YY=    27.1998   ZY=     0.6932
   XZ=    -0.6267   YZ=     0.0940   ZZ=    32.4113
   Eigenvalues:    26.7618    30.6025    32.6296
      8  H    Isotropic =    29.4252   Anisotropy =     4.2542
   XX=    30.1734   YX=     0.2294   ZX=     0.7109
   XY=    -0.2248   YY=    28.3566   ZY=    -2.9775
   XZ=     1.3277   YZ=    -2.6390   ZZ=    29.7456
   Eigenvalues:    26.0591    29.9552    32.2613
      9  H    Isotropic =    29.0764   Anisotropy =     3.8833
   XX=    31.4826   YX=    -0.8368   ZX=    -1.2052
   XY=     1.0257   YY=    31.2947   ZY=     0.6989
   XZ=    -1.0904   YZ=     0.4174   ZZ=    24.4520
   Eigenvalues:    24.2240    31.3400    31.6653
     10  O    Isotropic =   112.8279   Anisotropy =   209.8302
   XX=   161.3121   YX=   -76.7015   ZX=    -2.5995
   XY=   -94.0445   YY=   -74.3195   ZY=    21.8069
   XZ=   -14.4130   YZ=   -58.3695   ZZ=   251.4910
   Eigenvalues:  -103.1294   188.8983   252.7147
     11  O    Isotropic =  -134.8175   Anisotropy =   594.7210
   XX=  -252.0912   YX=    59.0952   ZX=    34.7781
   XY=    63.6550   YY=  -378.0607   ZY=  -126.1157
   XZ=    33.2334   YZ=  -174.0349   ZZ=   225.6994
   Eigenvalues:  -437.9130  -228.2026   261.6632
     12  C    Isotropic =   156.4208   Anisotropy =    26.0660
   XX=   162.9050   YX=    -8.6513   ZX=    -8.6097
   XY=    -5.4226   YY=   149.4974   ZY=     7.1137
   XZ=    -8.4745   YZ=    10.2952   ZZ=   156.8601
   Eigenvalues:   143.6260   151.8383   173.7982
     13  C    Isotropic =   174.9883   Anisotropy =    21.5070
   XX=   187.9088   YX=     2.5888   ZX=     2.1443
   XY=     5.8706   YY=   163.1955   ZY=     3.3902
   XZ=     3.2372   YZ=     4.2089   ZZ=   173.8605
   Eigenvalues:   161.5723   174.0663   189.3263
     14  C    Isotropic =   176.2817   Anisotropy =    16.7491
   XX=   172.4241   YX=    -2.7707   ZX=    -3.2079
   XY=     1.6970   YY=   183.5336   ZY=    -7.9983
   XZ=    -3.1360   YZ=    -6.9395   ZZ=   172.8874
   Eigenvalues:   167.2174   174.1800   187.4478
     15  O    Isotropic =   222.2618   Anisotropy =    62.4109
   XX=   205.5157   YX=    17.2140   ZX=    21.2173
   XY=    13.9197   YY=   210.4282   ZY=     4.1163
   XZ=    25.8304   YZ=     9.7681   ZZ=   250.8414
   Eigenvalues:   188.6462   214.2701   263.8691
     16  Si   Isotropic =   334.8685   Anisotropy =    53.4788
   XX=   365.6705   YX=   -19.9228   ZX=   -12.6170
   XY=    -7.7738   YY=   317.2897   ZY=     5.8127
   XZ=    -0.6627   YZ=     2.9599   ZZ=   321.6453
   Eigenvalues:   312.7895   321.2950   370.5211
     17  C    Isotropic =   184.7958   Anisotropy =    11.2960
   XX=   187.8691   YX=     0.7614   ZX=    -3.7352
   XY=    -1.0172   YY=   180.3782   ZY=    -7.5091
   XZ=    -2.1713   YZ=    -6.8762   ZZ=   186.1400
   Eigenvalues:   175.2579   186.8030   192.3265
     18  C    Isotropic =   185.0539   Anisotropy =     8.5078
   XX=   189.9104   YX=    -1.0204   ZX=    -0.6338
   XY=     3.2368   YY=   189.1446   ZY=     2.1187
   XZ=    -0.6567   YZ=     1.6930   ZZ=   176.1066
   Eigenvalues:   175.7887   188.6472   190.7257
     19  C    Isotropic =   186.0674   Anisotropy =    13.4957
   XX=   188.9347   YX=    -0.0269   ZX=     3.5784
   XY=    -0.5945   YY=   177.3947   ZY=     6.2833
   XZ=     1.5182   YZ=     6.2461   ZZ=   191.8729
   Eigenvalues:   174.9586   188.1791   195.0646
     20  H    Isotropic =    31.9468   Anisotropy =     6.2677
   XX=    31.6957   YX=    -0.6089   ZX=     2.3967
   XY=     0.5668   YY=    31.6098   ZY=     3.5837
   XZ=     2.4910   YZ=     2.8029   ZZ=    32.5348
   Eigenvalues:    28.0308    31.6843    36.1252
     21  H    Isotropic =    31.8778   Anisotropy =     7.1347
   XX=    31.0869   YX=     0.2437   ZX=    -1.3367
   XY=     1.0320   YY=    33.1116   ZY=    -4.3162
   XZ=    -0.8936   YZ=    -3.7125   ZZ=    31.4348
   Eigenvalues:    28.0961    30.9030    36.6342
     22  H    Isotropic =    32.1647   Anisotropy =    10.4817
   XX=    37.6946   YX=    -3.8755   ZX=    -0.5454
   XY=    -2.9191   YY=    30.9081   ZY=     0.5687
   XZ=    -0.5659   YZ=     0.6479   ZZ=    27.8915
   Eigenvalues:    27.7718    29.5699    39.1525
     23  H    Isotropic =    32.3775   Anisotropy =     9.6947
   XX=    38.6070   YX=    -0.9964   ZX=     1.3242
   XY=    -1.1318   YY=    28.8221   ZY=     0.4791
   XZ=     0.8793   YZ=     0.5274   ZZ=    29.7034
   Eigenvalues:    28.3912    29.9006    38.8406
     24  H    Isotropic =    32.1069   Anisotropy =     8.4673
   XX=    29.9360   YX=     1.2294   ZX=     0.1083
   XY=     0.9986   YY=    29.4511   ZY=    -2.1266
   XZ=    -0.3313   YZ=    -2.9985   ZZ=    36.9336
   Eigenvalues:    28.0789    30.4900    37.7517
     25  H    Isotropic =    32.0060   Anisotropy =     8.6706
   XX=    29.4979   YX=     0.6382   ZX=     1.5941
   XY=     0.4756   YY=    36.2754   ZY=     2.6786
   XZ=     1.4452   YZ=     3.6600   ZZ=    30.2446
   Eigenvalues:    27.9262    30.3054    37.7863
     26  H    Isotropic =    32.3524   Anisotropy =    10.2355
   XX=    38.6083   YX=     0.1475   ZX=    -2.4078
   XY=    -0.1690   YY=    28.6733   ZY=    -0.6444
   XZ=    -2.2035   YZ=    -0.6904   ZZ=    29.7755
   Eigenvalues:    28.2363    29.6448    39.1761
     27  H    Isotropic =    31.9413   Anisotropy =     7.9132
   XX=    30.1242   YX=     0.5527   ZX=    -0.6775
   XY=     0.0288   YY=    37.0748   ZY=    -0.6128
   XZ=    -0.3827   YZ=    -1.4530   ZZ=    28.6248
   Eigenvalues:    28.3622    30.2449    37.2168
     28  H    Isotropic =    32.0466   Anisotropy =     6.1978
   XX=    32.2980   YX=     1.8441   ZX=     1.1146
   XY=     1.3190   YY=    28.4226   ZY=     0.0711
   XZ=     1.9318   YZ=     0.8303   ZZ=    35.4190
   Eigenvalues:    27.8581    32.1032    36.1784
     29  H    Isotropic =    31.1425   Anisotropy =     9.7286
   XX=    30.4157   YX=    -2.0869   ZX=    -3.5937
   XY=    -2.1771   YY=    34.9583   ZY=     3.1836
   XZ=    -2.9827   YZ=     2.9895   ZZ=    28.0534
   Eigenvalues:    25.5224    30.2769    37.6282
     30  H    Isotropic =    31.3831   Anisotropy =     7.8050
   XX=    28.2205   YX=    -1.8834   ZX=     1.0867
   XY=    -1.1341   YY=    31.3269   ZY=    -3.2217
   XZ=     1.4505   YZ=    -2.3000   ZZ=    34.6019
   Eigenvalues:    27.6045    29.9584    36.5864
     31  H    Isotropic =    30.4481   Anisotropy =     7.2951
   XX=    34.2158   YX=     1.4535   ZX=     0.2336
   XY=     2.0579   YY=    32.4887   ZY=    -0.0687
   XZ=    -0.0317   YZ=     0.3832   ZZ=    24.6397
   Eigenvalues:    24.6361    31.3966    35.3115
     32  H    Isotropic =    30.6641   Anisotropy =     5.7088
   XX=    31.8960   YX=     0.2652   ZX=    -0.4620
   XY=     0.3258   YY=    25.9022   ZY=     1.6692
   XZ=    -0.1934   YZ=     1.2327   ZZ=    34.1942
   Eigenvalues:    25.6364    31.8859    34.4700
     33  H    Isotropic =    30.2438   Anisotropy =     5.6068
   XX=    32.8125   YX=     0.1774   ZX=    -2.2007
   XY=    -0.0569   YY=    33.9725   ZY=    -0.1619
   XZ=    -1.8893   YZ=    -0.0232   ZZ=    23.9464
   Eigenvalues:    23.4968    33.2529    33.9817
     34  H    Isotropic =    31.0392   Anisotropy =    11.3768
   XX=    36.0064   YX=    -2.9771   ZX=    -3.8077
   XY=    -2.2182   YY=    28.4088   ZY=     2.2487
   XZ=    -3.5489   YZ=     2.4975   ZZ=    28.7023
   Eigenvalues:    26.1099    28.3839    38.6237
     35  H    Isotropic =    30.5731   Anisotropy =     7.9751
   XX=    32.5006   YX=     2.7462   ZX=    -1.4904
   XY=     1.8943   YY=    33.1440   ZY=    -2.2299
   XZ=    -1.8256   YZ=    -1.9561   ZZ=    26.0746
   Eigenvalues:    25.3470    30.4824    35.8898
     36  H    Isotropic =    31.3285   Anisotropy =     8.6605
   XX=    33.5536   YX=     0.0343   ZX=     3.9419
   XY=    -0.1779   YY=    26.8268   ZY=     0.1612
   XZ=     3.0949   YZ=    -0.6136   ZZ=    33.6052
   Eigenvalues:    26.8189    30.0645    37.1022
     37  C    Isotropic =   141.1449   Anisotropy =    27.3642
   XX=   145.0250   YX=     4.9911   ZX=     6.9038
   XY=     8.9629   YY=   123.7326   ZY=     3.8356
   XZ=     8.4199   YZ=    -2.3107   ZZ=   154.6772
   Eigenvalues:   121.5809   142.4661   159.3877
     38  C    Isotropic =    45.5046   Anisotropy =   177.1858
   XX=    59.2925   YX=   -78.1931   ZX=   -66.6676
   XY=   -75.5079   YY=   -26.3702   ZY=    -2.4333
   XZ=   -67.5536   YZ=    -1.5532   ZZ=   103.5916
   Eigenvalues:   -79.2381    52.1234   163.6285
     39  C    Isotropic =    60.7611   Anisotropy =   147.8428
   XX=    63.1104   YX=   -73.4484   ZX=   -59.5670
   XY=   -74.3979   YY=     5.7858   ZY=    -9.7733
   XZ=   -56.1230   YZ=   -13.4052   ZZ=   113.3872
   Eigenvalues:   -56.0313    78.9917   159.3230
     40  H    Isotropic =    29.1658   Anisotropy =     2.9303
   XX=    29.6776   YX=     1.3283   ZX=    -0.1153
   XY=    -0.5752   YY=    27.5970   ZY=    -1.4767
   XZ=    -0.2653   YZ=    -1.8783   ZZ=    30.2230
   Eigenvalues:    26.7572    29.6209    31.1193
     41  H    Isotropic =    29.6250   Anisotropy =     6.3407
   XX=    33.3738   YX=    -2.3277   ZX=     1.1868
   XY=    -1.5093   YY=    26.1568   ZY=     1.0896
   XZ=    -0.4096   YZ=     1.9062   ZZ=    29.3446
   Eigenvalues:    25.1126    29.9103    33.8521
     42  H    Isotropic =    25.9408   Anisotropy =     6.1093
   XX=    24.9508   YX=    -1.4897   ZX=     2.0240
   XY=    -0.4724   YY=    23.5139   ZY=     0.8258
   XZ=     1.6212   YZ=    -0.1108   ZZ=    29.3575
   Eigenvalues:    22.7896    25.0191    30.0136
     43  H    Isotropic =    26.6841   Anisotropy =     6.6820
   XX=    26.1125   YX=    -1.1050   ZX=     1.5543
   XY=    -2.6353   YY=    24.3134   ZY=    -2.0500
   XZ=     2.4458   YZ=    -0.6532   ZZ=    29.6263
   Eigenvalues:    23.1365    25.7770    31.1387
     44  H    Isotropic =    26.5622   Anisotropy =     7.1551
   XX=    25.5401   YX=    -3.6313   ZX=     1.7477
   XY=    -1.2959   YY=    24.1364   ZY=    -0.9084
   XZ=     0.6427   YZ=    -3.2178   ZZ=    30.0101
   Eigenvalues:    22.1529    26.2015    31.3322
 End of Minotr F.D. properties file   721 does not exist.
 End of Minotr F.D. properties file   722 does not exist.
 End of Minotr F.D. properties file   788 does not exist.

 **********************************************************************

            Population analysis using the SCF density.

 **********************************************************************

 Orbital symmetries:
       Occupied  (A) (A) (A) (A) (A) (A) (A) (A) (A) (A) (A) (A)
                 (A) (A) (A) (A) (A) (A) (A) (A) (A) (A) (A) (A)
                 (A) (A) (A) (A) (A) (A) (A) (A) (A) (A) (A) (A)
                 (A) (A) (A) (A) (A) (A) (A) (A) (A) (A) (A) (A)
                 (A) (A) (A) (A) (A) (A) (A) (A) (A) (A) (A) (A)
                 (A) (A) (A) (A) (A) (A) (A) (A) (A) (A) (A) (A)
                 (A) (A)
       Virtual   (A) (A) (A) (A) (A) (A) (A) (A) (A) (A) (A) (A)
                 (A) (A) (A) (A) (A) (A) (A) (A) (A) (A) (A) (A)
                 (A) (A) (A) (A) (A) (A) (A) (A) (A) (A) (A) (A)
                 (A) (A) (A) (A) (A) (A) (A) (A) (A) (A) (A) (A)
                 (A) (A) (A) (A) (A) (A) (A) (A) (A) (A) (A) (A)
                 (A) (A) (A) (A) (A) (A) (A) (A) (A) (A) (A) (A)
                 (A) (A) (A) (A) (A) (A) (A) (A) (A) (A) (A) (A)
                 (A) (A) (A) (A) (A) (A) (A) (A) (A) (A) (A) (A)
                 (A) (A) (A) (A) (A) (A) (A) (A) (A) (A) (A) (A)
                 (A) (A) (A) (A) (A) (A) (A) (A) (A) (A) (A) (A)
                 (A) (A) (A) (A) (A) (A) (A) (A) (A) (A) (A) (A)
                 (A) (A) (A) (A) (A) (A) (A) (A) (A) (A) (A) (A)
                 (A) (A) (A) (A) (A) (A) (A) (A) (A) (A) (A) (A)
                 (A) (A) (A) (A) (A) (A) (A) (A) (A) (A) (A) (A)
                 (A) (A) (A) (A) (A) (A) (A) (A) (A) (A) (A) (A)
                 (A) (A) (A) (A) (A) (A) (A) (A) (A) (A) (A) (A)
                 (A) (A) (A) (A) (A) (A) (A) (A) (A) (A) (A) (A)
                 (A) (A) (A) (A) (A) (A) (A) (A) (A) (A) (A) (A)
                 (A) (A) (A) (A) (A) (A) (A) (A) (A) (A) (A) (A)
                 (A) (A) (A) (A) (A) (A) (A) (A) (A) (A) (A) (A)
                 (A) (A) (A) (A) (A) (A) (A) (A) (A) (A) (A) (A)
                 (A) (A) (A) (A) (A) (A) (A) (A) (A) (A) (A) (A)
                 (A) (A) (A) (A) (A) (A) (A) (A) (A) (A) (A) (A)
                 (A) (A) (A) (A) (A) (A) (A) (A) (A) (A) (A) (A)
                 (A) (A) (A) (A) (A) (A) (A) (A) (A) (A) (A) (A)
                 (A) (A) (A) (A) (A) (A) (A) (A) (A) (A) (A) (A)
                 (A) (A) (A) (A) (A) (A) (A) (A) (A) (A) (A) (A)
                 (A) (A) (A) (A) (A) (A) (A) (A) (A) (A) (A) (A)
 The electronic state is 1-A.
 Alpha  occ. eigenvalues --  -66.26898 -19.25960 -19.21196 -19.20118 -10.37269
 Alpha  occ. eigenvalues --  -10.32313 -10.30124 -10.25089 -10.25050 -10.25021
 Alpha  occ. eigenvalues --  -10.25012 -10.23581 -10.23529 -10.22535 -10.21808
 Alpha  occ. eigenvalues --  -10.20810 -10.20548 -10.20424  -5.32731  -3.66577
 Alpha  occ. eigenvalues --   -3.66347  -3.66313  -1.13522  -1.04919  -1.03854
 Alpha  occ. eigenvalues --   -0.85887  -0.83371  -0.81027  -0.77805  -0.73881
 Alpha  occ. eigenvalues --   -0.73140  -0.71919  -0.70285  -0.69885  -0.66708
 Alpha  occ. eigenvalues --   -0.63565  -0.61976  -0.58504  -0.56974  -0.53497
 Alpha  occ. eigenvalues --   -0.52894  -0.50616  -0.49141  -0.48326  -0.47206
 Alpha  occ. eigenvalues --   -0.46566  -0.45470  -0.45234  -0.44496  -0.43913
 Alpha  occ. eigenvalues --   -0.42921  -0.42531  -0.41892  -0.41618  -0.40908
 Alpha  occ. eigenvalues --   -0.40832  -0.40527  -0.40252  -0.39626  -0.38985
 Alpha  occ. eigenvalues --   -0.37905  -0.37682  -0.37214  -0.36205  -0.35935
 Alpha  occ. eigenvalues --   -0.35421  -0.34685  -0.33714  -0.32179  -0.31061
 Alpha  occ. eigenvalues --   -0.30370  -0.29601  -0.28394  -0.27251
 Alpha virt. eigenvalues --   -0.01400   0.00764   0.03981   0.05647   0.06278
 Alpha virt. eigenvalues --    0.06898   0.07185   0.08039   0.08587   0.08980
 Alpha virt. eigenvalues --    0.09556   0.09941   0.10395   0.10729   0.11161
 Alpha virt. eigenvalues --    0.11938   0.12326   0.13339   0.13605   0.13641
 Alpha virt. eigenvalues --    0.14329   0.14432   0.14792   0.15196   0.15836
 Alpha virt. eigenvalues --    0.16177   0.16455   0.17393   0.17603   0.18000
 Alpha virt. eigenvalues --    0.18696   0.19092   0.19682   0.20499   0.20922
 Alpha virt. eigenvalues --    0.21961   0.22739   0.23804   0.24111   0.24502
 Alpha virt. eigenvalues --    0.24817   0.25954   0.26962   0.27763   0.27894
 Alpha virt. eigenvalues --    0.28307   0.29582   0.30602   0.31619   0.32211
 Alpha virt. eigenvalues --    0.32691   0.33574   0.34202   0.35388   0.36048
 Alpha virt. eigenvalues --    0.36534   0.37588   0.38865   0.39406   0.40201
 Alpha virt. eigenvalues --    0.41339   0.41435   0.42946   0.42997   0.44691
 Alpha virt. eigenvalues --    0.44983   0.45279   0.47221   0.47786   0.49204
 Alpha virt. eigenvalues --    0.49577   0.50486   0.51261   0.52147   0.52815
 Alpha virt. eigenvalues --    0.54105   0.54484   0.55266   0.56177   0.56433
 Alpha virt. eigenvalues --    0.57091   0.57812   0.58520   0.58847   0.59113
 Alpha virt. eigenvalues --    0.59863   0.60045   0.60606   0.61162   0.61212
 Alpha virt. eigenvalues --    0.61710   0.62062   0.62573   0.62709   0.62931
 Alpha virt. eigenvalues --    0.64100   0.64355   0.64409   0.64939   0.65483
 Alpha virt. eigenvalues --    0.66235   0.66887   0.67315   0.67907   0.68334
 Alpha virt. eigenvalues --    0.68639   0.69026   0.69163   0.70065   0.70426
 Alpha virt. eigenvalues --    0.71208   0.71860   0.72997   0.73937   0.75615
 Alpha virt. eigenvalues --    0.75750   0.76578   0.77702   0.79923   0.81247
 Alpha virt. eigenvalues --    0.82393   0.85041   0.86322   0.87478   0.88244
 Alpha virt. eigenvalues --    0.89482   0.90326   0.92307   0.93664   0.95805
 Alpha virt. eigenvalues --    0.96038   0.97830   0.98246   1.00524   1.01702
 Alpha virt. eigenvalues --    1.03101   1.04812   1.05408   1.09077   1.11069
 Alpha virt. eigenvalues --    1.13117   1.15164   1.16232   1.17866   1.19072
 Alpha virt. eigenvalues --    1.19780   1.22750   1.24029   1.26459   1.27264
 Alpha virt. eigenvalues --    1.28187   1.31350   1.31893   1.32123   1.33194
 Alpha virt. eigenvalues --    1.35427   1.37602   1.38939   1.39791   1.41097
 Alpha virt. eigenvalues --    1.41513   1.44374   1.45847   1.46425   1.49001
 Alpha virt. eigenvalues --    1.49471   1.50036   1.51127   1.53296   1.53780
 Alpha virt. eigenvalues --    1.54451   1.55049   1.55721   1.57800   1.58459
 Alpha virt. eigenvalues --    1.58832   1.59233   1.59431   1.60937   1.61164
 Alpha virt. eigenvalues --    1.61496   1.62254   1.62652   1.63265   1.64528
 Alpha virt. eigenvalues --    1.65080   1.66662   1.67136   1.68282   1.68685
 Alpha virt. eigenvalues --    1.69153   1.70888   1.71889   1.72658   1.74979
 Alpha virt. eigenvalues --    1.75626   1.77993   1.78448   1.79264   1.81046
 Alpha virt. eigenvalues --    1.81644   1.81831   1.83869   1.86087   1.88044
 Alpha virt. eigenvalues --    1.89601   1.90430   1.93393   1.96218   1.98016
 Alpha virt. eigenvalues --    2.00001   2.04255   2.05695   2.09488   2.10593
 Alpha virt. eigenvalues --    2.16951   2.18479   2.19452   2.21603   2.24258
 Alpha virt. eigenvalues --    2.26587   2.28495   2.34667   2.36749   2.41254
 Alpha virt. eigenvalues --    2.41395   2.41802   2.42502   2.42606   2.43085
 Alpha virt. eigenvalues --    2.43926   2.44887   2.46235   2.46902   2.47498
 Alpha virt. eigenvalues --    2.48305   2.48519   2.49656   2.50293   2.51464
 Alpha virt. eigenvalues --    2.54070   2.54349   2.55759   2.58127   2.60231
 Alpha virt. eigenvalues --    2.62136   2.65597   2.66249   2.74299   2.79234
 Alpha virt. eigenvalues --    2.82452   2.87469   2.88640   2.89206   2.91604
 Alpha virt. eigenvalues --    2.92502   2.93496   2.95017   2.95909   2.98199
 Alpha virt. eigenvalues --    2.99521   3.01266   3.01897   3.03949   3.06292
 Alpha virt. eigenvalues --    3.07092   3.09653   3.12371   3.14188   3.15536
 Alpha virt. eigenvalues --    3.16093   3.16660   3.18308   3.18666   3.21632
 Alpha virt. eigenvalues --    3.22664   3.22947   3.23333   3.23798   3.25996
 Alpha virt. eigenvalues --    3.26665   3.28045   3.28670   3.29790   3.31597
 Alpha virt. eigenvalues --    3.33372   3.34151   3.36162   3.38969   3.41603
 Alpha virt. eigenvalues --    3.42309   3.52202   3.58755   3.61816   3.65669
 Alpha virt. eigenvalues --    3.77914   3.88829   3.90247   3.98812   4.04015
 Alpha virt. eigenvalues --    4.08342   4.08993   4.19359   4.22498   4.25630
 Alpha virt. eigenvalues --    4.95728   5.00208   5.02984   5.08021   5.15998
 Alpha virt. eigenvalues --    5.25277   5.51253   5.53937   5.78517   5.85477
 Alpha virt. eigenvalues --   11.51723  11.53783  11.59272  23.42473  23.49171
 Alpha virt. eigenvalues --   23.54353  23.55270  23.57540  23.60111  23.71072
 Alpha virt. eigenvalues --   23.74081  23.77765  23.79368  23.82899  23.88026
 Alpha virt. eigenvalues --   23.89956  24.26210  49.99414  50.04626  50.12010
 Alpha virt. eigenvalues --  141.30859
          Condensed to atoms (all electrons):
               1          2          3          4          5          6
     1  C    5.259654   0.248736  -0.033773  -0.004782  -0.055588   0.373317
     2  C    0.248736   5.543280   0.278036  -0.096274  -0.013509  -0.036011
     3  C   -0.033773   0.278036   5.197756   0.240509  -0.015723  -0.012723
     4  C   -0.004782  -0.096274   0.240509   5.820675   0.241512   0.002642
     5  C   -0.055588  -0.013509  -0.015723   0.241512   4.433618  -0.003579
     6  H    0.373317  -0.036011  -0.012723   0.002642  -0.003579   0.472157
     7  H   -0.046229   0.405399  -0.055870  -0.002121   0.000510   0.007260
     8  H    0.001385  -0.005693  -0.029070   0.371718  -0.024847   0.000041
     9  H   -0.001160   0.008529  -0.034241   0.357010  -0.029762   0.000095
    10  O    0.210904  -0.025553  -0.006305  -0.104084   0.340188  -0.034304
    11  O    0.000468  -0.000097   0.003501  -0.102955   0.653812   0.000531
    12  C    0.323007  -0.067335   0.007794  -0.002561   0.003657  -0.049083
    13  C   -0.074720   0.007655  -0.000131   0.000093  -0.000068  -0.007151
    14  C   -0.062084   0.290761  -0.055094   0.007354   0.000222  -0.000355
    15  O    0.004515  -0.065234   0.218565  -0.036939   0.001655  -0.000046
    16  Si   0.000429   0.001631  -0.044868  -0.013263   0.001640  -0.000131
    17  C    0.000004  -0.000170  -0.000725  -0.000226   0.000004  -0.000001
    18  C    0.000012  -0.000294  -0.001487  -0.004301  -0.000204   0.000000
    19  C   -0.000001  -0.000012   0.002497  -0.000382  -0.000005   0.000000
    20  H    0.000007  -0.000084   0.000570  -0.001053  -0.000155  -0.000001
    21  H    0.000004  -0.000122   0.000010   0.000467  -0.000108   0.000000
    22  H    0.000000   0.000008  -0.000105   0.000369  -0.000001   0.000000
    23  H    0.000000   0.000001  -0.000072  -0.000002   0.000000   0.000000
    24  H   -0.000001  -0.000001  -0.000015   0.000025  -0.000002   0.000000
    25  H   -0.000001   0.000041  -0.000128  -0.000023   0.000000   0.000000
    26  H    0.000000   0.000001  -0.000063   0.000002   0.000000   0.000000
    27  H    0.000000   0.000031   0.000421  -0.000032   0.000001   0.000000
    28  H    0.000002  -0.000032  -0.000092  -0.000039   0.000004   0.000000
    29  H   -0.007250  -0.032680   0.006511  -0.000298  -0.000002  -0.000566
    30  H   -0.006339  -0.040457  -0.009224  -0.000179   0.000012   0.004877
    31  H    0.006669  -0.038057  -0.004473   0.000504  -0.000083  -0.000206
    32  H   -0.045319  -0.004960  -0.000794   0.000246  -0.000367   0.008150
    33  H   -0.037056  -0.006561  -0.000221   0.000089  -0.000027  -0.000219
    34  H    0.008377  -0.000226   0.000013  -0.000001   0.000011  -0.000308
    35  H   -0.010949   0.000347  -0.000066   0.000329   0.000587   0.000425
    36  H   -0.004324  -0.000020   0.000000   0.000000  -0.000118   0.004983
    37  C    0.007269  -0.086825   0.307035  -0.092552   0.004115  -0.000630
    38  C   -0.016559   0.001244  -0.037110  -0.001875  -0.001907   0.004059
    39  C   -0.006238   0.002957  -0.001502  -0.000158   0.000071   0.002501
    40  H    0.000736  -0.010156  -0.031251   0.006386  -0.000191  -0.000159
    41  H   -0.000495   0.006553  -0.039808  -0.007873   0.000232   0.000167
    42  H   -0.001218   0.000869  -0.004305   0.001824   0.005410   0.001381
    43  H    0.000079  -0.000077  -0.000116   0.000025  -0.000069  -0.000261
    44  H    0.000094   0.000007  -0.000008   0.000004   0.000006  -0.000064
               7          8          9         10         11         12
     1  C   -0.046229   0.001385  -0.001160   0.210904   0.000468   0.323007
     2  C    0.405399  -0.005693   0.008529  -0.025553  -0.000097  -0.067335
     3  C   -0.055870  -0.029070  -0.034241  -0.006305   0.003501   0.007794
     4  C   -0.002121   0.371718   0.357010  -0.104084  -0.102955  -0.002561
     5  C    0.000510  -0.024847  -0.029762   0.340188   0.653812   0.003657
     6  H    0.007260   0.000041   0.000095  -0.034304   0.000531  -0.049083
     7  H    0.474498   0.002550  -0.000071   0.001938  -0.000026  -0.010367
     8  H    0.002550   0.402245  -0.016247   0.000520  -0.000029  -0.000226
     9  H   -0.000071  -0.016247   0.435512   0.006115   0.014646   0.000111
    10  O    0.001938   0.000520   0.006115   8.034935  -0.070575  -0.049550
    11  O   -0.000026  -0.000029   0.014646  -0.070575   7.878878  -0.000126
    12  C   -0.010367  -0.000226   0.000111  -0.049550  -0.000126   5.330712
    13  C   -0.000201   0.000008  -0.000005  -0.002581  -0.000033   0.315673
    14  C   -0.040100  -0.000166  -0.000138   0.003648   0.000006  -0.005091
    15  O    0.004942  -0.001812  -0.000885  -0.000031  -0.000022  -0.000110
    16  Si  -0.000210   0.000126  -0.003318  -0.000275  -0.000292   0.000003
    17  C    0.000060   0.000067  -0.000094   0.000000   0.000000   0.000000
    18  C    0.000007   0.000241  -0.003584  -0.000002  -0.000024   0.000000
    19  C   -0.000097  -0.000195   0.000008   0.000000   0.000000   0.000000
    20  H   -0.000001  -0.000066   0.001070  -0.000003  -0.000071   0.000000
    21  H   -0.000010   0.000843  -0.001574  -0.000001  -0.000011   0.000000
    22  H    0.000000  -0.000016   0.000387   0.000000   0.000000   0.000000
    23  H   -0.000001   0.000002  -0.000002   0.000000   0.000000   0.000000
    24  H   -0.000022   0.000026   0.000001   0.000000   0.000000   0.000000
    25  H   -0.000023  -0.000020  -0.000005   0.000000   0.000000   0.000000
    26  H   -0.000001   0.000000  -0.000004   0.000000   0.000000   0.000000
    27  H    0.000001  -0.000001  -0.000005   0.000000   0.000000   0.000000
    28  H    0.000006   0.000010  -0.000024   0.000000   0.000000   0.000000
    29  H   -0.007720  -0.000018   0.000016  -0.000008   0.000000   0.001957
    30  H    0.006908  -0.000008   0.000021   0.000031   0.000001  -0.000205
    31  H   -0.002769   0.000052  -0.000042  -0.000109   0.000000  -0.000018
    32  H    0.006202   0.000013   0.000009   0.002520  -0.000021   0.387784
    33  H    0.000451   0.000001  -0.000004   0.003169   0.000008   0.389409
    34  H   -0.000036  -0.000001   0.000000  -0.000089  -0.000001  -0.038934
    35  H    0.000060  -0.000004  -0.000010   0.011990   0.000194  -0.039141
    36  H    0.000002   0.000000   0.000000  -0.000412  -0.000002  -0.041916
    37  C    0.007850   0.006020  -0.008865  -0.000519   0.000121  -0.000667
    38  C   -0.000412  -0.000172   0.000374   0.001093  -0.002431   0.000490
    39  C   -0.000082  -0.000006  -0.000007  -0.000023   0.000018   0.000327
    40  H   -0.000067  -0.000134   0.000167  -0.000040  -0.000001  -0.000040
    41  H   -0.000080  -0.000019   0.002206  -0.000008  -0.000062   0.000018
    42  H    0.000059   0.000252   0.000909  -0.002010   0.005954  -0.000058
    43  H   -0.000003  -0.000002  -0.000003   0.000040  -0.000018   0.000005
    44  H    0.000013   0.000002   0.000004  -0.000012   0.000000  -0.000008
              13         14         15         16         17         18
     1  C   -0.074720  -0.062084   0.004515   0.000429   0.000004   0.000012
     2  C    0.007655   0.290761  -0.065234   0.001631  -0.000170  -0.000294
     3  C   -0.000131  -0.055094   0.218565  -0.044868  -0.000725  -0.001487
     4  C    0.000093   0.007354  -0.036939  -0.013263  -0.000226  -0.004301
     5  C   -0.000068   0.000222   0.001655   0.001640   0.000004  -0.000204
     6  H   -0.007151  -0.000355  -0.000046  -0.000131  -0.000001   0.000000
     7  H   -0.000201  -0.040100   0.004942  -0.000210   0.000060   0.000007
     8  H    0.000008  -0.000166  -0.001812   0.000126   0.000067   0.000241
     9  H   -0.000005  -0.000138  -0.000885  -0.003318  -0.000094  -0.003584
    10  O   -0.002581   0.003648  -0.000031  -0.000275   0.000000  -0.000002
    11  O   -0.000033   0.000006  -0.000022  -0.000292   0.000000  -0.000024
    12  C    0.315673  -0.005091  -0.000110   0.000003   0.000000   0.000000
    13  C    5.340196  -0.000249   0.000001   0.000002   0.000000   0.000000
    14  C   -0.000249   5.416307  -0.006516   0.000282   0.000017  -0.000004
    15  O    0.000001  -0.006516   8.256585   0.352490  -0.025085  -0.022176
    16  Si   0.000002   0.000282   0.352490  11.532568   0.319424   0.317441
    17  C    0.000000   0.000017  -0.025085   0.319424   5.772813  -0.057524
    18  C    0.000000  -0.000004  -0.022176   0.317441  -0.057524   5.797641
    19  C    0.000000   0.000004  -0.022336   0.336234  -0.055213  -0.050614
    20  H    0.000000   0.000002  -0.000919  -0.030036  -0.001465   0.366278
    21  H    0.000000   0.000002  -0.002023  -0.026467   0.002394   0.368404
    22  H    0.000000   0.000000   0.000719  -0.009854   0.000090   0.366182
    23  H    0.000000   0.000000   0.000881  -0.013022   0.000592  -0.000232
    24  H    0.000000   0.000004  -0.001333  -0.026585   0.002577  -0.000558
    25  H    0.000000   0.000002  -0.001360  -0.025474  -0.000763   0.002635
    26  H    0.000000   0.000001   0.000947  -0.011778   0.363008   0.000747
    27  H    0.000000   0.000117  -0.002193  -0.026030   0.370480   0.002343
    28  H    0.000000   0.000008  -0.001558  -0.029880   0.370175  -0.001647
    29  H    0.000134   0.391971  -0.000178   0.000005  -0.000005   0.000000
    30  H   -0.000151   0.382782   0.000310  -0.000127  -0.000001   0.000001
    31  H    0.000018   0.385562   0.007979   0.001588   0.000285   0.000037
    32  H   -0.045277   0.000937  -0.000036  -0.000031   0.000000   0.000000
    33  H   -0.038711   0.001239  -0.000003  -0.000003   0.000000   0.000000
    34  H    0.393110  -0.000008   0.000000   0.000000   0.000000   0.000000
    35  H    0.386304  -0.000070   0.000000   0.000001   0.000000   0.000000
    36  H    0.385241   0.000026   0.000000   0.000000   0.000000   0.000000
    37  C    0.000021  -0.011523  -0.040554  -0.007978  -0.001972  -0.002153
    38  C   -0.000022  -0.000674   0.004083   0.002910   0.000104  -0.000089
    39  C   -0.000015  -0.000990  -0.000059  -0.000252   0.000009   0.000000
    40  H    0.000001   0.000214  -0.000345  -0.003610  -0.001439   0.000279
    41  H   -0.000001  -0.000156  -0.003419   0.007776  -0.000569   0.001353
    42  H   -0.000017  -0.000050  -0.000054  -0.000233  -0.000008   0.000019
    43  H    0.000004   0.000067   0.000003   0.000011   0.000000   0.000000
    44  H   -0.000001   0.000153  -0.000019  -0.000056   0.000004   0.000000
              19         20         21         22         23         24
     1  C   -0.000001   0.000007   0.000004   0.000000   0.000000  -0.000001
     2  C   -0.000012  -0.000084  -0.000122   0.000008   0.000001  -0.000001
     3  C    0.002497   0.000570   0.000010  -0.000105  -0.000072  -0.000015
     4  C   -0.000382  -0.001053   0.000467   0.000369  -0.000002   0.000025
     5  C   -0.000005  -0.000155  -0.000108  -0.000001   0.000000  -0.000002
     6  H    0.000000  -0.000001   0.000000   0.000000   0.000000   0.000000
     7  H   -0.000097  -0.000001  -0.000010   0.000000  -0.000001  -0.000022
     8  H   -0.000195  -0.000066   0.000843  -0.000016   0.000002   0.000026
     9  H    0.000008   0.001070  -0.001574   0.000387  -0.000002   0.000001
    10  O    0.000000  -0.000003  -0.000001   0.000000   0.000000   0.000000
    11  O    0.000000  -0.000071  -0.000011   0.000000   0.000000   0.000000
    12  C    0.000000   0.000000   0.000000   0.000000   0.000000   0.000000
    13  C    0.000000   0.000000   0.000000   0.000000   0.000000   0.000000
    14  C    0.000004   0.000002   0.000002   0.000000   0.000000   0.000004
    15  O   -0.022336  -0.000919  -0.002023   0.000719   0.000881  -0.001333
    16  Si   0.336234  -0.030036  -0.026467  -0.009854  -0.013022  -0.026585
    17  C   -0.055213  -0.001465   0.002394   0.000090   0.000592   0.002577
    18  C   -0.050614   0.366278   0.368404   0.366182  -0.000232  -0.000558
    19  C    5.723314   0.002979  -0.000387  -0.000953   0.363773   0.368059
    20  H    0.002979   0.447854  -0.018976  -0.019619  -0.000073  -0.000102
    21  H   -0.000387  -0.018976   0.447822  -0.020163  -0.000080   0.001209
    22  H   -0.000953  -0.019619  -0.020163   0.434275   0.000570  -0.000043
    23  H    0.363773  -0.000073  -0.000080   0.000570   0.453548  -0.020649
    24  H    0.368059  -0.000102   0.001209  -0.000043  -0.020649   0.458419
    25  H    0.369156  -0.000102  -0.000070  -0.000054  -0.020920  -0.018437
    26  H   -0.000471   0.000108  -0.000023   0.000348   0.000762   0.000009
    27  H   -0.000625  -0.000019  -0.000100  -0.000051  -0.000023  -0.000082
    28  H    0.002733   0.000830  -0.000046   0.000024  -0.000087  -0.000116
    29  H    0.000001   0.000000   0.000000   0.000000   0.000000   0.000000
    30  H    0.000001  -0.000001   0.000000   0.000000   0.000000   0.000000
    31  H   -0.000020   0.000004   0.000002   0.000000  -0.000002  -0.000003
    32  H    0.000000   0.000000   0.000000   0.000000   0.000000   0.000000
    33  H    0.000000   0.000000   0.000000   0.000000   0.000000   0.000000
    34  H    0.000000   0.000000   0.000000   0.000000   0.000000   0.000000
    35  H    0.000000   0.000000   0.000000   0.000000   0.000000   0.000000
    36  H    0.000000   0.000000   0.000000   0.000000   0.000000   0.000000
    37  C   -0.000133   0.000160   0.000337   0.000069   0.000006  -0.000009
    38  C    0.000004   0.000001   0.000014  -0.000001   0.000000   0.000001
    39  C    0.000000  -0.000005   0.000000   0.000000   0.000000   0.000000
    40  H   -0.000061   0.000067  -0.000008  -0.000005   0.000001  -0.000003
    41  H    0.000011   0.004040  -0.000273   0.000047   0.000010   0.000000
    42  H    0.000000   0.000010  -0.000003  -0.000001   0.000000   0.000000
    43  H    0.000000   0.000000   0.000000   0.000000   0.000000   0.000000
    44  H    0.000000   0.000000   0.000000   0.000000   0.000000   0.000000
              25         26         27         28         29         30
     1  C   -0.000001   0.000000   0.000000   0.000002  -0.007250  -0.006339
     2  C    0.000041   0.000001   0.000031  -0.000032  -0.032680  -0.040457
     3  C   -0.000128  -0.000063   0.000421  -0.000092   0.006511  -0.009224
     4  C   -0.000023   0.000002  -0.000032  -0.000039  -0.000298  -0.000179
     5  C    0.000000   0.000000   0.000001   0.000004  -0.000002   0.000012
     6  H    0.000000   0.000000   0.000000   0.000000  -0.000566   0.004877
     7  H   -0.000023  -0.000001   0.000001   0.000006  -0.007720   0.006908
     8  H   -0.000020   0.000000  -0.000001   0.000010  -0.000018  -0.000008
     9  H   -0.000005  -0.000004  -0.000005  -0.000024   0.000016   0.000021
    10  O    0.000000   0.000000   0.000000   0.000000  -0.000008   0.000031
    11  O    0.000000   0.000000   0.000000   0.000000   0.000000   0.000001
    12  C    0.000000   0.000000   0.000000   0.000000   0.001957  -0.000205
    13  C    0.000000   0.000000   0.000000   0.000000   0.000134  -0.000151
    14  C    0.000002   0.000001   0.000117   0.000008   0.391971   0.382782
    15  O   -0.001360   0.000947  -0.002193  -0.001558  -0.000178   0.000310
    16  Si  -0.025474  -0.011778  -0.026030  -0.029880   0.000005  -0.000127
    17  C   -0.000763   0.363008   0.370480   0.370175  -0.000005  -0.000001
    18  C    0.002635   0.000747   0.002343  -0.001647   0.000000   0.000001
    19  C    0.369156  -0.000471  -0.000625   0.002733   0.000001   0.000001
    20  H   -0.000102   0.000108  -0.000019   0.000830   0.000000  -0.000001
    21  H   -0.000070  -0.000023  -0.000100  -0.000046   0.000000   0.000000
    22  H   -0.000054   0.000348  -0.000051   0.000024   0.000000   0.000000
    23  H   -0.020920   0.000762  -0.000023  -0.000087   0.000000   0.000000
    24  H   -0.018437   0.000009  -0.000082  -0.000116   0.000000   0.000000
    25  H    0.456928  -0.000086   0.001222  -0.000097   0.000002   0.000000
    26  H   -0.000086   0.453166  -0.021123  -0.023010   0.000000   0.000000
    27  H    0.001222  -0.021123   0.453572  -0.018752  -0.000004  -0.000003
    28  H   -0.000097  -0.023010  -0.018752   0.456656  -0.000001  -0.000009
    29  H    0.000002   0.000000  -0.000004  -0.000001   0.457410  -0.026557
    30  H    0.000000   0.000000  -0.000003  -0.000009  -0.026557   0.475185
    31  H    0.000027  -0.000001   0.000445  -0.000001  -0.025278  -0.025413
    32  H    0.000000   0.000000   0.000000   0.000000   0.000311   0.000079
    33  H    0.000000   0.000000   0.000000   0.000000   0.000354   0.000300
    34  H    0.000000   0.000000   0.000000   0.000000   0.000005   0.000004
    35  H    0.000000   0.000000   0.000000   0.000000  -0.000028   0.000000
    36  H    0.000000   0.000000   0.000000   0.000000   0.000044  -0.000008
    37  C   -0.000023   0.000178  -0.000115   0.000821  -0.000058   0.001360
    38  C    0.000000  -0.000003  -0.000055   0.000134  -0.000021   0.000836
    39  C    0.000000   0.000000   0.000002   0.000042   0.000039   0.002840
    40  H   -0.000016   0.000196   0.000086  -0.000429   0.000211  -0.002108
    41  H    0.000005  -0.000026   0.000029   0.001968   0.000007   0.000420
    42  H    0.000000   0.000000   0.000000   0.000005   0.000006   0.000037
    43  H    0.000000   0.000000   0.000000  -0.000001  -0.000001  -0.000001
    44  H    0.000000   0.000000   0.000003   0.000014   0.000006   0.001746
              31         32         33         34         35         36
     1  C    0.006669  -0.045319  -0.037056   0.008377  -0.010949  -0.004324
     2  C   -0.038057  -0.004960  -0.006561  -0.000226   0.000347  -0.000020
     3  C   -0.004473  -0.000794  -0.000221   0.000013  -0.000066   0.000000
     4  C    0.000504   0.000246   0.000089  -0.000001   0.000329   0.000000
     5  C   -0.000083  -0.000367  -0.000027   0.000011   0.000587  -0.000118
     6  H   -0.000206   0.008150  -0.000219  -0.000308   0.000425   0.004983
     7  H   -0.002769   0.006202   0.000451  -0.000036   0.000060   0.000002
     8  H    0.000052   0.000013   0.000001  -0.000001  -0.000004   0.000000
     9  H   -0.000042   0.000009  -0.000004   0.000000  -0.000010   0.000000
    10  O   -0.000109   0.002520   0.003169  -0.000089   0.011990  -0.000412
    11  O    0.000000  -0.000021   0.000008  -0.000001   0.000194  -0.000002
    12  C   -0.000018   0.387784   0.389409  -0.038934  -0.039141  -0.041916
    13  C    0.000018  -0.045277  -0.038711   0.393110   0.386304   0.385241
    14  C    0.385562   0.000937   0.001239  -0.000008  -0.000070   0.000026
    15  O    0.007979  -0.000036  -0.000003   0.000000   0.000000   0.000000
    16  Si   0.001588  -0.000031  -0.000003   0.000000   0.000001   0.000000
    17  C    0.000285   0.000000   0.000000   0.000000   0.000000   0.000000
    18  C    0.000037   0.000000   0.000000   0.000000   0.000000   0.000000
    19  C   -0.000020   0.000000   0.000000   0.000000   0.000000   0.000000
    20  H    0.000004   0.000000   0.000000   0.000000   0.000000   0.000000
    21  H    0.000002   0.000000   0.000000   0.000000   0.000000   0.000000
    22  H    0.000000   0.000000   0.000000   0.000000   0.000000   0.000000
    23  H   -0.000002   0.000000   0.000000   0.000000   0.000000   0.000000
    24  H   -0.000003   0.000000   0.000000   0.000000   0.000000   0.000000
    25  H    0.000027   0.000000   0.000000   0.000000   0.000000   0.000000
    26  H   -0.000001   0.000000   0.000000   0.000000   0.000000   0.000000
    27  H    0.000445   0.000000   0.000000   0.000000   0.000000   0.000000
    28  H   -0.000001   0.000000   0.000000   0.000000   0.000000   0.000000
    29  H   -0.025278   0.000311   0.000354   0.000005  -0.000028   0.000044
    30  H   -0.025413   0.000079   0.000300   0.000004   0.000000  -0.000008
    31  H    0.433733  -0.000142   0.000387  -0.000002   0.000005  -0.000004
    32  H   -0.000142   0.489979  -0.025352  -0.004800  -0.004784   0.007375
    33  H    0.000387  -0.025352   0.471806  -0.005659   0.007274  -0.004497
    34  H   -0.000002  -0.004800  -0.005659   0.476222  -0.027027  -0.027277
    35  H    0.000005  -0.004784   0.007274  -0.027027   0.464776  -0.027019
    36  H   -0.000004   0.007375  -0.004497  -0.027277  -0.027019   0.486354
    37  C   -0.000669  -0.000035   0.000026   0.000000   0.000003  -0.000012
    38  C    0.000124  -0.000035  -0.000008   0.000001  -0.000008   0.000035
    39  C   -0.000023  -0.000016   0.000000   0.000000  -0.000003   0.000071
    40  H    0.001017   0.000001   0.000004   0.000000   0.000000   0.000000
    41  H   -0.000179  -0.000001  -0.000001   0.000000   0.000000   0.000000
    42  H    0.000000   0.000012   0.000004   0.000000   0.000009   0.000003
    43  H   -0.000002   0.000000  -0.000002   0.000000  -0.000001   0.000013
    44  H   -0.000017   0.000001   0.000002   0.000000   0.000000   0.000001
              37         38         39         40         41         42
     1  C    0.007269  -0.016559  -0.006238   0.000736  -0.000495  -0.001218
     2  C   -0.086825   0.001244   0.002957  -0.010156   0.006553   0.000869
     3  C    0.307035  -0.037110  -0.001502  -0.031251  -0.039808  -0.004305
     4  C   -0.092552  -0.001875  -0.000158   0.006386  -0.007873   0.001824
     5  C    0.004115  -0.001907   0.000071  -0.000191   0.000232   0.005410
     6  H   -0.000630   0.004059   0.002501  -0.000159   0.000167   0.001381
     7  H    0.007850  -0.000412  -0.000082  -0.000067  -0.000080   0.000059
     8  H    0.006020  -0.000172  -0.000006  -0.000134  -0.000019   0.000252
     9  H   -0.008865   0.000374  -0.000007   0.000167   0.002206   0.000909
    10  O   -0.000519   0.001093  -0.000023  -0.000040  -0.000008  -0.002010
    11  O    0.000121  -0.002431   0.000018  -0.000001  -0.000062   0.005954
    12  C   -0.000667   0.000490   0.000327  -0.000040   0.000018  -0.000058
    13  C    0.000021  -0.000022  -0.000015   0.000001  -0.000001  -0.000017
    14  C   -0.011523  -0.000674  -0.000990   0.000214  -0.000156  -0.000050
    15  O   -0.040554   0.004083  -0.000059  -0.000345  -0.003419  -0.000054
    16  Si  -0.007978   0.002910  -0.000252  -0.003610   0.007776  -0.000233
    17  C   -0.001972   0.000104   0.000009  -0.001439  -0.000569  -0.000008
    18  C   -0.002153  -0.000089   0.000000   0.000279   0.001353   0.000019
    19  C   -0.000133   0.000004   0.000000  -0.000061   0.000011   0.000000
    20  H    0.000160   0.000001  -0.000005   0.000067   0.004040   0.000010
    21  H    0.000337   0.000014   0.000000  -0.000008  -0.000273  -0.000003
    22  H    0.000069  -0.000001   0.000000  -0.000005   0.000047  -0.000001
    23  H    0.000006   0.000000   0.000000   0.000001   0.000010   0.000000
    24  H   -0.000009   0.000001   0.000000  -0.000003   0.000000   0.000000
    25  H   -0.000023   0.000000   0.000000  -0.000016   0.000005   0.000000
    26  H    0.000178  -0.000003   0.000000   0.000196  -0.000026   0.000000
    27  H   -0.000115  -0.000055   0.000002   0.000086   0.000029   0.000000
    28  H    0.000821   0.000134   0.000042  -0.000429   0.001968   0.000005
    29  H   -0.000058  -0.000021   0.000039   0.000211   0.000007   0.000006
    30  H    0.001360   0.000836   0.002840  -0.002108   0.000420   0.000037
    31  H   -0.000669   0.000124  -0.000023   0.001017  -0.000179   0.000000
    32  H   -0.000035  -0.000035  -0.000016   0.000001  -0.000001   0.000012
    33  H    0.000026  -0.000008   0.000000   0.000004  -0.000001   0.000004
    34  H    0.000000   0.000001   0.000000   0.000000   0.000000   0.000000
    35  H    0.000003  -0.000008  -0.000003   0.000000   0.000000   0.000009
    36  H   -0.000012   0.000035   0.000071   0.000000   0.000000   0.000003
    37  C    5.493732   0.278469  -0.057253   0.399574   0.391283  -0.048253
    38  C    0.278469   5.133266   0.628429  -0.043562  -0.047246   0.388943
    39  C   -0.057253   0.628429   5.129088  -0.000083   0.000210  -0.033095
    40  H    0.399574  -0.043562  -0.000083   0.432774  -0.029426   0.004173
    41  H    0.391283  -0.047246   0.000210  -0.029426   0.457940  -0.002559
    42  H   -0.048253   0.388943  -0.033095   0.004173  -0.002559   0.454562
    43  H    0.006009  -0.036835   0.390711   0.000219  -0.000455  -0.008153
    44  H   -0.008142  -0.042671   0.390185   0.004087   0.000090   0.005710
              43         44
     1  C    0.000079   0.000094
     2  C   -0.000077   0.000007
     3  C   -0.000116  -0.000008
     4  C    0.000025   0.000004
     5  C   -0.000069   0.000006
     6  H   -0.000261  -0.000064
     7  H   -0.000003   0.000013
     8  H   -0.000002   0.000002
     9  H   -0.000003   0.000004
    10  O    0.000040  -0.000012
    11  O   -0.000018   0.000000
    12  C    0.000005  -0.000008
    13  C    0.000004  -0.000001
    14  C    0.000067   0.000153
    15  O    0.000003  -0.000019
    16  Si   0.000011  -0.000056
    17  C    0.000000   0.000004
    18  C    0.000000   0.000000
    19  C    0.000000   0.000000
    20  H    0.000000   0.000000
    21  H    0.000000   0.000000
    22  H    0.000000   0.000000
    23  H    0.000000   0.000000
    24  H    0.000000   0.000000
    25  H    0.000000   0.000000
    26  H    0.000000   0.000000
    27  H    0.000000   0.000003
    28  H   -0.000001   0.000014
    29  H   -0.000001   0.000006
    30  H   -0.000001   0.001746
    31  H   -0.000002  -0.000017
    32  H    0.000000   0.000001
    33  H   -0.000002   0.000002
    34  H    0.000000   0.000000
    35  H   -0.000001   0.000000
    36  H    0.000013   0.000001
    37  C    0.006009  -0.008142
    38  C   -0.036835  -0.042671
    39  C    0.390711   0.390185
    40  H    0.000219   0.004087
    41  H   -0.000455   0.000090
    42  H   -0.008153   0.005710
    43  H    0.447168  -0.031799
    44  H   -0.031799   0.453210
 Mulliken charges:
               1
     1  C   -0.031584
     2  C   -0.265646
     3  C    0.156144
     4  C   -0.579809
     5  C    0.459050
     6  H    0.263212
     7  H    0.247801
     8  H    0.292629
     9  H    0.272858
    10  O   -0.320597
    11  O   -0.381340
    12  C   -0.455512
    13  C   -0.659128
    14  C   -0.698423
    15  O   -0.618429
    16  Si   1.399214
    17  C   -1.056848
    18  C   -1.078727
    19  C   -1.037266
    20  H    0.248770
    21  H    0.248937
    22  H    0.247777
    23  H    0.235019
    24  H    0.237634
    25  H    0.237584
    26  H    0.237119
    27  H    0.240460
    28  H    0.242388
    29  H    0.241682
    30  H    0.233039
    31  H    0.259076
    32  H    0.228349
    33  H    0.243798
    34  H    0.226627
    35  H    0.236807
    36  H    0.221460
    37  C   -0.535516
    38  C   -0.212918
    39  C   -0.447688
    40  H    0.272942
    41  H    0.258288
    42  H    0.229866
    43  H    0.233444
    44  H    0.227454
 Sum of Mulliken charges =   0.00000
 Mulliken charges with hydrogens summed into heavy atoms:
               1
     1  C    0.231628
     2  C   -0.017845
     3  C    0.156144
     4  C   -0.014321
     5  C    0.459050
    10  O   -0.320597
    11  O   -0.381340
    12  C    0.016635
    13  C    0.025766
    14  C    0.035374
    15  O   -0.618429
    16  Si   1.399214
    17  C   -0.336881
    18  C   -0.333242
    19  C   -0.327029
    37  C   -0.004286
    38  C    0.016949
    39  C    0.013210
 Electronic spatial extent (au):  <R**2>=           5665.7354
 Charge=              0.0000 electrons
 Dipole moment (field-independent basis, Debye):
    X=             -2.0666    Y=             -4.0406    Z=              0.8793  Tot=              4.6228
 Quadrupole moment (field-independent basis, Debye-Ang):
   XX=           -119.2698   YY=           -130.9237   ZZ=           -116.5750
   XY=            -14.1128   XZ=              1.0792   YZ=             -0.4807
 Traceless Quadrupole moment (field-independent basis, Debye-Ang):
   XX=              2.9864   YY=             -8.6676   ZZ=              5.6812
   XY=            -14.1128   XZ=              1.0792   YZ=             -0.4807
 Octapole moment (field-independent basis, Debye-Ang**2):
  XXX=            -18.3128  YYY=            -47.9216  ZZZ=             -8.5024  XYY=            -20.6486
  XXY=            -19.9635  XXZ=              3.7381  XZZ=             21.2779  YZZ=              5.7741
  YYZ=             -0.9330  XYZ=              5.9633
 Hexadecapole moment (field-independent basis, Debye-Ang**3):
 XXXX=          -4910.7129 YYYY=          -1531.1486 ZZZZ=          -1373.9762 XXXY=            -78.9995
 XXXZ=             -9.2272 YYYX=            -63.9118 YYYZ=              4.6551 ZZZX=             20.6281
 ZZZY=            -23.1610 XXYY=          -1114.4453 XXZZ=          -1056.1569 YYZZ=           -436.9667
 XXYZ=             18.6527 YYXZ=              3.8575 ZZXY=             -9.8062
 N-N= 1.623680500429D+03 E-N=-5.742523755600D+03  KE= 1.060553991566D+03
 1\1\GINC-SWANNODE-0-1\SP\RmPW1PW91\6-311G(d)\C14H26O3Si1\ROOT\08-Mar-2
 018\0\\#mPW1PW91/6-311g(d) nmr=(giao) scrf=(solvent=chloroform)\\P_ng_
 correct1ginp010\\0,1\C,0,0.984898,-0.226836,0.768166\C,0,-0.522153,-0.
 418005,0.550034\C,0,-1.372222,0.773749,1.096027\C,0,-0.773087,2.066189
 ,0.53869\C,0,0.715388,2.187242,0.651258\H,0,1.246334,-0.35974,1.821325
 \H,0,-0.690169,-0.435747,-0.538612\H,0,-1.021879,2.181159,-0.524218\H,
 0,-1.205769,2.93121,1.052913\O,0,1.43801,1.084792,0.382753\O,0,1.25740
 9,3.270125,0.850932\C,0,1.827716,-1.237215,-0.035659\C,0,3.325792,-1.0
 65476,0.193383\C,0,-1.012735,-1.779415,1.070505\O,0,-2.663017,0.544859
 ,0.461417\Si,0,-4.117272,1.33615,0.70229\C,0,-5.02257,0.639998,2.19847
 \C,0,-3.955047,3.191313,0.907828\C,0,-5.222379,1.036235,-0.803746\H,0,
 -3.411936,3.444116,1.822505\H,0,-3.428694,3.633246,0.056811\H,0,-4.944
 304,3.655381,0.969141\H,0,-6.192723,1.522823,-0.669227\H,0,-4.752418,1
 .43929,-1.705479\H,0,-5.386933,-0.03563,-0.94679\H,0,-6.029053,1.06361
 1,2.266454\H,0,-5.112292,-0.447324,2.118403\H,0,-4.492983,0.874511,3.1
 25584\H,0,-0.601765,-2.600033,0.474495\H,0,-0.716096,-1.943515,2.11082
 6\H,0,-2.102183,-1.866499,1.010012\H,0,1.630622,-1.11228,-1.107313\H,0
 ,1.56028,-2.263538,0.233943\H,0,3.880106,-1.831275,-0.358648\H,0,3.675
 704,-0.087593,-0.151313\H,0,3.573053,-1.166929,1.254862\C,0,-1.512712,
 0.7986,2.655017\C,0,-0.27788,0.979381,3.492817\C,0,0.148131,0.090223,4
 .399608\H,0,-2.056187,-0.099235,2.977839\H,0,-2.171598,1.629468,2.9359
 85\H,0,0.26928,1.916091,3.393951\H,0,1.032511,0.290229,4.998452\H,0,-0
 .369848,-0.847994,4.574119\\Version=EM64L-G09RevD.01\State=1-A\HF=-106
 4.3746249\RMSD=3.688e-09\Dipole=-1.1691017,-1.3394934,0.383229\Quadrup
 ole=-3.1135851,-1.1516737,4.2652588,-11.2774391,1.0217039,-0.426607\PG
 =C01 [X(C14H26O3Si1)]\\@


 E PUR SI MUOVE    -- GALILEO GALILEI
 Job cpu time:       0 days  1 hours 12 minutes 54.2 seconds.
 File lengths (MBytes):  RWF=    234 Int=      0 D2E=      0 Chk=     11 Scr=      1
 Normal termination of Gaussian 09 at Thu Mar  8 13:14:00 2018.
