 Entering Gaussian System, Link 0=/usr/local/shared/gaussian/em64t/09-D01/g09/g09
 Initial command:
 /usr/local/shared/gaussian/em64t/09-D01/g09/l1.exe "/scratch/ah809/P_ng_2ginp009/Gau-30198.inp" -scrdir="/scratch/ah809/P_ng_2ginp009/"
 Entering Link 1 = /usr/local/shared/gaussian/em64t/09-D01/g09/l1.exe PID=     30219.
  
 Copyright (c) 1988,1990,1992,1993,1995,1998,2003,2009,2013,
            Gaussian, Inc.  All Rights Reserved.
  
 This is part of the Gaussian(R) 09 program.  It is based on
 the Gaussian(R) 03 system (copyright 2003, Gaussian, Inc.),
 the Gaussian(R) 98 system (copyright 1998, Gaussian, Inc.),
 the Gaussian(R) 94 system (copyright 1995, Gaussian, Inc.),
 the Gaussian 92(TM) system (copyright 1992, Gaussian, Inc.),
 the Gaussian 90(TM) system (copyright 1990, Gaussian, Inc.),
 the Gaussian 88(TM) system (copyright 1988, Gaussian, Inc.),
 the Gaussian 86(TM) system (copyright 1986, Carnegie Mellon
 University), and the Gaussian 82(TM) system (copyright 1983,
 Carnegie Mellon University). Gaussian is a federally registered
 trademark of Gaussian, Inc.
  
 This software contains proprietary and confidential information,
 including trade secrets, belonging to Gaussian, Inc.
  
 This software is provided under written license and may be
 used, copied, transmitted, or stored only in accord with that
 written license.
  
 The following legend is applicable only to US Government
 contracts under FAR:
  
                    RESTRICTED RIGHTS LEGEND
  
 Use, reproduction and disclosure by the US Government is
 subject to restrictions as set forth in subparagraphs (a)
 and (c) of the Commercial Computer Software - Restricted
 Rights clause in FAR 52.227-19.
  
 Gaussian, Inc.
 340 Quinnipiac St., Bldg. 40, Wallingford CT 06492
  
  
 ---------------------------------------------------------------
 Warning -- This program may not be used in any manner that
 competes with the business of Gaussian, Inc. or will provide
 assistance to any competitor of Gaussian, Inc.  The licensee
 of this program is prohibited from giving any competitor of
 Gaussian, Inc. access to this program.  By using this program,
 the user acknowledges that Gaussian, Inc. is engaged in the
 business of creating and licensing software in the field of
 computational chemistry and represents and warrants to the
 licensee that it is not a competitor of Gaussian, Inc. and that
 it will not use this program in any manner prohibited above.
 ---------------------------------------------------------------
  

 Cite this work as:
 Gaussian 09, Revision D.01,
 M. J. Frisch, G. W. Trucks, H. B. Schlegel, G. E. Scuseria, 
 M. A. Robb, J. R. Cheeseman, G. Scalmani, V. Barone, B. Mennucci, 
 G. A. Petersson, H. Nakatsuji, M. Caricato, X. Li, H. P. Hratchian, 
 A. F. Izmaylov, J. Bloino, G. Zheng, J. L. Sonnenberg, M. Hada, 
 M. Ehara, K. Toyota, R. Fukuda, J. Hasegawa, M. Ishida, T. Nakajima, 
 Y. Honda, O. Kitao, H. Nakai, T. Vreven, J. A. Montgomery, Jr., 
 J. E. Peralta, F. Ogliaro, M. Bearpark, J. J. Heyd, E. Brothers, 
 K. N. Kudin, V. N. Staroverov, T. Keith, R. Kobayashi, J. Normand, 
 K. Raghavachari, A. Rendell, J. C. Burant, S. S. Iyengar, J. Tomasi, 
 M. Cossi, N. Rega, J. M. Millam, M. Klene, J. E. Knox, J. B. Cross, 
 V. Bakken, C. Adamo, J. Jaramillo, R. Gomperts, R. E. Stratmann, 
 O. Yazyev, A. J. Austin, R. Cammi, C. Pomelli, J. W. Ochterski, 
 R. L. Martin, K. Morokuma, V. G. Zakrzewski, G. A. Voth, 
 P. Salvador, J. J. Dannenberg, S. Dapprich, A. D. Daniels, 
 O. Farkas, J. B. Foresman, J. V. Ortiz, J. Cioslowski, 
 and D. J. Fox, Gaussian, Inc., Wallingford CT, 2013.
 
 ******************************************
 Gaussian 09:  EM64L-G09RevD.01 24-Apr-2013
                 8-Mar-2018 
 ******************************************
 %mem=6000MB
 %chk=P_ng_2ginp009.chk
 --------------------------------------------------------
 #mPW1PW91/6-311g(d) nmr=(giao) scrf=(solvent=chloroform)
 --------------------------------------------------------
 1/38=1/1;
 2/12=2,17=6,18=5,40=1/2;
 3/5=4,6=6,7=1,11=2,16=1,25=1,30=1,70=2201,72=7,74=-7/1,2,8,3;
 4//1;
 5/5=2,38=5,53=7/2;
 8/6=1,10=90,11=11/1;
 10/13=100,45=16/2;
 6/7=2,8=2,9=2,10=2,28=1/1;
 99/9=1/99;
 -------------
 P_ng_2ginp009
 -------------
 Symbolic Z-matrix:
 Charge =  0 Multiplicity = 1
 C                     0.06038   0.24962   1.00511 
 C                    -0.90713   1.30662   0.43801 
 C                    -2.14122   1.48543   1.36888 
 C                    -1.60407   1.85811   2.75205 
 C                    -0.67244   0.82353   3.29805 
 H                    -0.32437  -0.75559   0.79368 
 H                    -0.37483   2.26623   0.41823 
 H                    -1.03932   2.79661   2.73319 
 H                    -2.42119   2.01036   3.46553 
 O                     0.23498   0.31544   2.44061 
 O                    -0.65552   0.53275   4.48934 
 C                     1.46448   0.35326   0.38007 
 C                     2.40912  -0.73647   0.87507 
 C                    -1.28369   0.99998  -1.02028 
 O                    -3.03836   2.45649   0.78738 
 Si                   -3.03629   4.12105   0.9169 
 C                    -3.56      4.69336   2.62766 
 C                    -1.37393   4.88384   0.49748 
 C                    -4.29353   4.82092  -0.31225 
 H                    -1.44387   5.97586   0.49965 
 H                    -0.60883   4.59522   1.22305 
 H                    -1.04428   4.56713  -0.49643 
 H                    -4.32217   5.91259  -0.25034 
 H                    -4.02417   4.53645  -1.33351 
 H                    -5.29292   4.43293  -0.09517 
 H                    -3.72969   5.77433   2.63295 
 H                    -4.48873   4.20011   2.92929 
 H                    -2.79339   4.47105   3.37447 
 H                    -2.02447   1.70759  -1.40447 
 H                    -0.41107   1.07499  -1.67618 
 H                    -1.69092  -0.01026  -1.12773 
 H                     1.90642   1.32551   0.63 
 H                     1.40842   0.28648  -0.7107 
 H                     2.5825   -0.65899   1.95278 
 H                     2.00535  -1.73094   0.6603 
 H                     3.37867  -0.6488    0.37434 
 C                    -2.99711   0.17046   1.4334 
 C                    -4.1371    0.19782   2.42407 
 C                    -5.42745   0.29468   2.07929 
 H                    -2.37796  -0.6958    1.69001 
 H                    -3.41344  -0.03385   0.43822 
 H                    -3.88493   0.10613   3.47916 
 H                    -6.20674   0.29725   2.83517 
 H                    -5.73443   0.38459   1.04168 
 
                          Input orientation:                          
 ---------------------------------------------------------------------
 Center     Atomic      Atomic             Coordinates (Angstroms)
 Number     Number       Type             X           Y           Z
 ---------------------------------------------------------------------
      1          6           0        0.060381    0.249617    1.005106
      2          6           0       -0.907133    1.306616    0.438014
      3          6           0       -2.141218    1.485430    1.368881
      4          6           0       -1.604066    1.858110    2.752054
      5          6           0       -0.672435    0.823529    3.298045
      6          1           0       -0.324367   -0.755586    0.793676
      7          1           0       -0.374830    2.266233    0.418232
      8          1           0       -1.039321    2.796605    2.733187
      9          1           0       -2.421185    2.010356    3.465533
     10          8           0        0.234978    0.315437    2.440607
     11          8           0       -0.655518    0.532752    4.489338
     12          6           0        1.464481    0.353258    0.380069
     13          6           0        2.409122   -0.736474    0.875073
     14          6           0       -1.283693    0.999977   -1.020275
     15          8           0       -3.038357    2.456492    0.787379
     16         14           0       -3.036292    4.121053    0.916896
     17          6           0       -3.560003    4.693360    2.627660
     18          6           0       -1.373929    4.883844    0.497482
     19          6           0       -4.293529    4.820924   -0.312247
     20          1           0       -1.443867    5.975862    0.499647
     21          1           0       -0.608830    4.595223    1.223047
     22          1           0       -1.044281    4.567132   -0.496434
     23          1           0       -4.322166    5.912591   -0.250338
     24          1           0       -4.024168    4.536448   -1.333509
     25          1           0       -5.292918    4.432931   -0.095174
     26          1           0       -3.729693    5.774333    2.632953
     27          1           0       -4.488728    4.200110    2.929285
     28          1           0       -2.793385    4.471054    3.374468
     29          1           0       -2.024469    1.707590   -1.404474
     30          1           0       -0.411073    1.074991   -1.676176
     31          1           0       -1.690924   -0.010264   -1.127735
     32          1           0        1.906422    1.325508    0.630003
     33          1           0        1.408424    0.286477   -0.710702
     34          1           0        2.582502   -0.658994    1.952783
     35          1           0        2.005352   -1.730942    0.660301
     36          1           0        3.378667   -0.648795    0.374335
     37          6           0       -2.997105    0.170456    1.433401
     38          6           0       -4.137102    0.197822    2.424066
     39          6           0       -5.427454    0.294681    2.079290
     40          1           0       -2.377963   -0.695801    1.690009
     41          1           0       -3.413439   -0.033848    0.438219
     42          1           0       -3.884930    0.106134    3.479163
     43          1           0       -6.206736    0.297253    2.835166
     44          1           0       -5.734426    0.384585    1.041676
 ---------------------------------------------------------------------
                    Distance matrix (angstroms):
                    1          2          3          4          5
     1  C    0.000000
     2  C    1.541079   0.000000
     3  C    2.550805   1.556102   0.000000
     4  C    2.899907   2.478839   1.529899   0.000000
     5  C    2.474664   2.910023   2.513386   1.495460   0.000000
     6  H    1.096890   2.172277   2.941762   3.507746   2.981043
     7  H    2.144894   1.097544   2.152560   2.669140   3.234700
     8  H    3.268449   2.739591   2.189678   1.095475   2.084874
     9  H    3.913064   3.457380   2.179422   1.095406   2.120080
    10  O    1.447577   2.509429   2.857234   2.420521   1.347871
    11  O    3.568270   4.132239   3.584990   2.382115   1.226383
    12  C    1.540425   2.556717   3.906485   4.160153   3.647211
    13  C    2.550660   3.919539   5.087858   5.134258   4.219052
    14  C    2.543962   1.537020   2.584392   3.881945   4.364935
    15  O    3.810496   2.446709   1.444287   2.505035   3.816752
    16  Si   4.958345   3.561418   2.819921   3.246535   4.704397
    17  C    5.957073   4.827246   3.726700   3.446709   4.874737
    18  C    4.877601   3.608046   3.591279   3.780360   4.982108
    19  C    6.448938   4.937705   4.310934   5.039982   6.490431
    20  H    5.942065   4.700398   4.626645   4.696263   5.913770
    21  H    4.402230   3.394142   3.469913   3.289399   4.305269
    22  H    4.702748   3.394550   3.765575   4.266712   5.343305
    23  H    7.269947   5.775057   5.194050   5.730728   7.197924
    24  H    6.366285   4.825559   4.489669   5.451808   6.816977
    25  H    6.882481   5.412323   4.556801   5.323912   6.774259
    26  H    6.894711   5.722333   4.745084   4.457497   5.856589
    27  H    6.324812   5.235128   3.913458   3.719899   5.108951
    28  H    5.619465   4.711091   3.655359   2.937576   4.220036
    29  H    3.504049   2.191799   2.784687   4.180445   4.972247
    30  H    2.844782   2.183924   3.526221   4.652497   4.987426
    31  H    2.771934   2.190906   2.944988   4.307102   4.617365
    32  H    2.169357   2.820161   4.117633   4.136459   3.744454
    33  H    2.182333   2.778855   4.285104   4.851371   4.548456
    34  H    2.843371   4.282021   5.220443   4.949949   3.821285
    35  H    2.797216   4.214112   5.295392   5.503147   4.544619
    36  H    3.495145   4.711239   6.001097   6.063477   5.208382
    37  C    3.088353   2.578689   1.570306   2.554913   3.050818
    38  C    4.431139   3.950510   2.599020   3.046376   3.627570
    39  C    5.592158   4.914377   3.566779   4.185119   4.937130
    40  H    2.703411   2.782177   2.217417   2.872163   2.793380
    41  H    3.531167   2.842255   2.189266   3.493876   4.052999
    42  H    4.659080   4.422332   3.065335   2.966555   3.296602
    43  H    6.529023   5.903469   4.482208   4.860839   5.578504
    44  H    5.796494   4.951495   3.772276   4.707074   5.559463
                    6          7          8          9         10
     6  H    0.000000
     7  H    3.045471   0.000000
     8  H    4.109857   2.466143   0.000000
     9  H    4.380171   3.679550   1.750447   0.000000
    10  O    2.042630   2.875321   2.804574   3.313371   0.000000
    11  O    3.927772   4.433694   2.890744   2.519736   2.244439
    12  C    2.144897   2.654053   4.216175   5.231105   2.399776
    13  C    2.734767   4.120114   5.275130   6.130858   2.878249
    14  C    2.700505   2.121023   4.168461   4.736795   3.840919
    15  O    4.205143   2.695708   2.810336   2.784322   4.246410
    16  Si   5.581338   3.282134   3.006820   3.365850   5.244580
    17  C    6.597261   4.573603   3.156367   3.032729   5.796816
    18  C    5.743908   2.802921   3.076834   4.261808   5.218684
    19  C    6.933598   4.734580   4.895141   5.067207   6.955932
    20  H    6.830236   3.861453   3.906409   5.047462   6.215003
    21  H    5.375540   2.475213   2.387650   3.872326   4.528911
    22  H    5.523947   2.564940   3.683102   4.912245   5.323497
    23  H    7.844549   5.415198   5.421057   5.713918   7.703044
    24  H    6.798461   4.641136   5.336139   5.655219   7.085281
    25  H    7.238595   5.398681   5.363793   5.176326   7.344493
    26  H    7.590720   5.335434   4.014351   4.070983   6.749456
    27  H    6.816278   5.193209   3.729167   3.058973   6.135380
    28  H    6.330427   4.410213   2.508338   2.490353   5.226111
    29  H    3.713414   2.521041   4.390525   4.895510   4.672027
    30  H    3.075500   2.409754   4.775053   5.599342   4.235824
    31  H    2.472813   3.050337   4.817657   5.070927   4.067953
    32  H    3.055186   2.476675   3.907034   5.218949   2.663129
    33  H    2.520241   2.893773   4.914526   5.922719   3.362821
    34  H    3.130934   4.433691   5.066340   5.869474   2.588118
    35  H    2.529170   4.658462   5.836572   6.439011   3.239040
    36  H    3.728232   4.752689   6.078946   7.089772   3.883556
    37  C    2.900057   3.507018   3.524063   2.801156   3.388487
    38  C    4.254892   4.738817   4.055302   2.704497   4.373693
    39  C    5.366317   5.672313   5.093419   3.728654   5.673986
    40  H    2.241482   3.795208   3.882922   3.236918   2.900597
    41  H    3.192119   3.811026   4.349112   3.785230   4.176422
    42  H    4.542247   5.133822   3.986553   2.401832   4.253945
    43  H    6.314936   6.612834   5.741022   4.202675   6.453812
    44  H    5.534459   5.714416   5.542839   4.415403   6.131523
                   11         12         13         14         15
    11  O    0.000000
    12  C    4.627386   0.000000
    13  C    4.905697   1.524759   0.000000
    14  C    5.564956   3.151455   4.499388   0.000000
    15  O    4.804498   4.986486   6.314883   2.909965   0.000000
    16  Si   5.595206   5.894185   7.297250   4.070055   1.669593
    17  C    5.404862   7.009536   8.257428   5.668341   2.943183
    18  C    5.948364   5.347576   6.785427   4.170869   2.957431
    19  C    7.394509   7.320794   8.787487   4.915288   2.893989
    20  H    6.794599   6.331387   7.748672   5.205310   3.874423
    21  H    5.212917   4.796196   6.136458   4.291122   3.265973
    22  H    6.425362   4.981855   6.475744   3.613353   3.174794
    23  H    8.053043   8.049154   9.528214   5.827426   3.830097
    24  H    7.828342   7.110604   8.606321   4.484969   3.129889
    25  H    7.598330   7.907720   9.326604   5.358626   3.125421
    26  H    6.353809   7.838558   9.119528   6.490259   3.859036
    27  H    5.529627   7.532428   8.727542   6.009336   3.119542
    28  H    4.617752   6.637175   7.773764   5.800113   3.288085
    29  H    6.163708   4.146273   5.552163   1.094109   2.528447
    30  H    6.194138   2.875195   4.212336   1.094212   3.857495
    31  H    5.737459   3.515992   4.620498   1.094519   3.401194
    32  H    4.699624   1.096836   2.136478   3.606414   5.074912
    33  H    5.600082   1.094250   2.136003   2.802215   5.169823
    34  H    4.282423   2.179003   1.094314   5.151575   6.531346
    35  H    5.183248   2.171396   1.094588   4.593481   6.556657
    36  H    5.882512   2.160614   1.094735   5.138189   7.140841
    37  C    3.866916   4.587883   5.510131   3.105545   2.375922
    38  C    4.061890   5.964882   6.791564   4.544104   2.997928
    39  C    5.351297   7.098560   7.995333   5.222595   3.471346
    40  H    3.508903   4.192952   4.856126   3.379161   3.344819
    41  H    4.933430   4.893602   5.881049   2.780614   2.542517
    42  H    3.410507   6.187217   6.863408   5.273550   3.672407
    43  H    5.797221   8.054701   8.896267   6.292424   4.346765
    44  H    6.140328   7.229313   8.222038   4.943619   3.409729
                   16         17         18         19         20
    16  Si   0.000000
    17  C    1.878436   0.000000
    18  C    1.876488   3.058245   0.000000
    19  C    1.892421   3.032719   3.030459   0.000000
    20  H    2.479966   3.263630   1.094257   3.180193   0.000000
    21  H    2.492215   3.269861   1.093217   3.998134   1.768264
    22  H    2.482860   4.013073   1.094003   3.264345   1.770979
    23  H    2.495098   3.217187   3.210865   1.093796   2.975077
    24  H    2.492544   3.991357   3.239904   1.093827   3.477115
    25  H    2.492772   3.238000   3.989115   1.093818   4.189229
    26  H    2.481732   1.094224   3.301944   3.146602   3.133147
    27  H    2.483048   1.093985   4.010378   3.306213   4.281076
    28  H    2.494226   1.093090   3.234548   3.995586   3.514291
    29  H    3.498192   5.246979   3.758887   4.004303   4.709663
    30  H    4.784798   6.444483   4.489904   5.564691   5.460715
    31  H    4.801907   6.302422   5.166634   5.547878   6.208310
    32  H    5.685754   6.724200   4.841489   7.179496   5.732994
    33  H    6.091679   7.433071   5.507902   7.296043   6.478396
    34  H    7.449346   8.175177   6.963785   9.079629   7.895858
    35  H    7.728510   8.724410   7.429767   9.140498   8.444984
    36  H    8.012336   9.042192   7.294685   9.447318   8.195036
    37  C    3.984411   4.711663   5.072147   5.133698   6.081709
    38  C    4.344547   4.536999   5.771105   5.374472   6.659028
    39  C    4.659392   4.810037   6.324049   5.243292   7.116183
    40  H    4.922721   5.596380   5.793327   6.173547   6.841095
    41  H    4.199354   5.211682   5.324172   4.990648   6.324524
    42  H    4.837869   4.676888   6.166203   6.063909   7.020685
    43  H    5.324746   5.135563   7.060992   5.833538   7.770854
    44  H    4.610498   5.080256   6.289150   4.856994   7.068597
                   21         22         23         24         25
    21  H    0.000000
    22  H    1.773985   0.000000
    23  H    4.206565   3.551810   0.000000
    24  H    4.266611   3.095378   1.776466   0.000000
    25  H    4.868750   4.269653   1.776465   1.775927   0.000000
    26  H    3.621867   4.296724   2.946779   4.165561   3.418437
    27  H    4.256873   4.871804   3.615292   4.301204   3.138197
    28  H    3.068601   4.248821   4.189799   4.866636   4.276393
    29  H    4.152869   3.156309   4.928841   3.465006   4.452472
    30  H    4.564716   3.740026   6.382165   5.015333   6.132515
    31  H    5.282766   4.665752   6.540143   5.114583   5.812274
    32  H    4.167641   4.525885   7.785348   7.024060   7.874799
    33  H    5.135561   4.938186   8.043927   6.925547   7.904425
    34  H    6.190631   6.816496   9.783349   9.024435   9.599170
    35  H    6.868114   7.092534   9.964454   8.922475   9.582735
    36  H    6.642301   6.893954  10.136313   9.198122  10.061847
    37  C    5.032561   5.183488   6.128856   5.269965   5.077006
    38  C    5.764398   6.098010   6.312311   5.740714   5.061485
    39  C    6.515132   6.640813   6.181403   5.622188   4.676698
    40  H    5.598466   5.853008   7.156516   6.263233   6.163419
    41  H    5.469011   5.258850   6.054753   4.939597   4.875353
    42  H    5.997901   6.616280   6.914861   6.542850   5.786146
    43  H    7.239339   7.482137   6.678620   6.333422   5.150319
    44  H    6.635820   6.469694   5.850011   5.079808   4.228057
                   26         27         28         29         30
    26  H    0.000000
    27  H    1.772604   0.000000
    28  H    1.767782   1.773637   0.000000
    29  H    5.978880   5.573751   5.573711   0.000000
    30  H    7.187882   6.899559   6.535875   1.754152   0.000000
    31  H    7.194506   6.481849   6.447283   1.771683   1.765385
    32  H    7.454505   7.378887   6.286075   4.442633   3.279025
    33  H    8.227809   7.958796   7.201007   3.779634   2.205553
    34  H    9.038481   8.635204   7.565629   6.172202   5.013735
    35  H    9.649417   9.082882   8.298152   5.685618   4.378527
    36  H    9.843105   9.588303   8.562002   6.157158   4.640923
    37  C    5.777460   4.549804   4.722752   3.370806   4.144299
    38  C    5.595274   4.049345   4.579230   4.626050   5.609341
    39  C    5.763291   4.105615   5.104694   5.070821   6.314783
    40  H    6.676747   5.473671   5.450355   3.934091   4.282004
    41  H    6.217060   5.028723   5.412963   2.890910   3.835934
    42  H    5.733119   4.174635   4.500551   5.465884   6.291573
    43  H    6.014569   4.265290   5.418711   6.120045   7.385580
    44  H    5.966615   4.435433   5.548952   4.636569   6.016766
                   31         32         33         34         35
    31  H    0.000000
    32  H    4.220762   0.000000
    33  H    3.141326   1.767789   0.000000
    34  H    5.307788   2.478927   3.060478   0.000000
    35  H    4.451995   3.058201   2.511165   1.775580   0.000000
    36  H    5.325851   2.476034   2.435959   1.767903   1.771669
    37  C    2.880657   5.101389   4.900951   5.664782   5.407178
    38  C    4.317682   6.404258   6.370831   6.790384   6.675383
    39  C    4.933524   7.546441   7.383316   8.067521   7.833472
    40  H    2.980212   4.854406   4.589663   4.967557   4.620094
    41  H    2.328052   5.494138   4.967191   6.215788   5.682671
    42  H    5.103991   6.568435   6.753302   6.689016   6.783528
    43  H    6.015955   8.470147   8.400236   8.885027   8.733957
    44  H    4.605666   7.709563   7.355322   8.431516   8.032750
                   36         37         38         39         40
    36  H    0.000000
    37  C    6.514849   0.000000
    38  C    7.836130   1.510549   0.000000
    39  C    9.019134   2.517777   1.339127   0.000000
    40  H    5.905252   1.095256   2.105225   3.229859   0.000000
    41  H    6.820187   1.097935   2.126252   2.618645   1.754244
    42  H    7.935346   2.231034   1.088681   2.091548   2.472877
    43  H    9.941360   3.504676   2.112410   1.085650   4.117893
    44  H    9.195743   2.773486   2.120690   1.085798   3.585166
                   41         42         43         44
    41  H    0.000000
    42  H    3.080461   0.000000
    43  H    3.695604   2.417032   0.000000
    44  H    2.434384   3.072379   1.856693   0.000000
 Stoichiometry    C14H26O3Si
 Framework group  C1[X(C14H26O3Si)]
 Deg. of freedom   126
 Full point group                 C1      NOp   1
 Largest Abelian subgroup         C1      NOp   1
 Largest concise Abelian subgroup C1      NOp   1
                         Standard orientation:                         
 ---------------------------------------------------------------------
 Center     Atomic      Atomic             Coordinates (Angstroms)
 Number     Number       Type             X           Y           Z
 ---------------------------------------------------------------------
      1          6           0       -2.367439   -0.364716   -0.404324
      2          6           0       -0.910042   -0.790666   -0.667921
      3          6           0        0.077627    0.354911   -0.302385
      4          6           0       -0.177746    0.710803    1.163465
      5          6           0       -1.592014    1.130420    1.408753
      6          1           0       -2.716961    0.282130   -1.218321
      7          1           0       -0.686406   -1.635181   -0.003554
      8          1           0        0.007548   -0.138773    1.829763
      9          1           0        0.491801    1.510416    1.498489
     10          8           0       -2.551955    0.394080    0.814553
     11          8           0       -1.873262    2.025182    2.198890
     12          6           0       -3.320069   -1.572713   -0.325908
     13          6           0       -4.776695   -1.160550   -0.143555
     14          6           0       -0.728103   -1.317667   -2.100262
     15          8           0        1.426819   -0.069466   -0.594872
     16         14           0        2.500425   -0.933105    0.348017
     17          6           0        3.155375    0.088289    1.782003
     18          6           0        1.768027   -2.526938    1.014726
     19          6           0        3.988338   -1.410463   -0.719457
     20          1           0        2.531759   -3.106239    1.542478
     21          1           0        0.953426   -2.328130    1.716170
     22          1           0        1.378601   -3.143053    0.198887
     23          1           0        4.716645   -1.974891   -0.130067
     24          1           0        3.667300   -2.029114   -1.562465
     25          1           0        4.476932   -0.514021   -1.112017
     26          1           0        3.987130   -0.428719    2.270072
     27          1           0        3.516393    1.058500    1.428223
     28          1           0        2.381391    0.261892    2.534104
     29          1           0        0.318230   -1.555177   -2.314388
     30          1           0       -1.295473   -2.240380   -2.255151
     31          1           0       -1.070813   -0.591259   -2.843803
     32          1           0       -3.037803   -2.208016    0.522482
     33          1           0       -3.248706   -2.181335   -1.232478
     34          1           0       -4.928932   -0.629717    0.801201
     35          1           0       -5.104624   -0.511543   -0.961709
     36          1           0       -5.419411   -2.046717   -0.135294
     37          6           0       -0.135689    1.603957   -1.229877
     38          6           0        0.678263    2.821404   -0.859655
     39          6           0        1.739855    3.252351   -1.552885
     40          1           0       -1.184870    1.918120   -1.240158
     41          1           0        0.112188    1.327927   -2.263234
     42          1           0        0.357813    3.391302    0.010836
     43          1           0        2.280527    4.142535   -1.246486
     44          1           0        2.099417    2.724030   -2.430695
 ---------------------------------------------------------------------
 Rotational constants (GHZ):      0.4921420      0.2689162      0.2350640
 Standard basis: 6-311G(d) (5D, 7F)
 There are   428 symmetry adapted cartesian basis functions of A   symmetry.
 There are   410 symmetry adapted basis functions of A   symmetry.
   410 basis functions,   720 primitive gaussians,   428 cartesian basis functions
    74 alpha electrons       74 beta electrons
       nuclear repulsion energy      1629.8095731279 Hartrees.
 NAtoms=   44 NActive=   44 NUniq=   44 SFac= 1.00D+00 NAtFMM=   60 NAOKFM=F Big=F
 Integral buffers will be    131072 words long.
 Raffenetti 2 integral format.
 Two-electron integral symmetry is turned on.
 ------------------------------------------------------------------------------
 Polarizable Continuum Model (PCM)
 =================================
 Model                : PCM (using non-symmetric T matrix).
 Atomic radii         : UFF (Universal Force Field).
 Polarization charges : Total charges.
 Charge compensation  : None.
 Solution method      : On-the-fly selection.
 Cavity type          : Scaled VdW (van der Waals Surface) (Alpha=1.100).
 Cavity algorithm     : GePol (No added spheres)
                        Default sphere list used, NSphG=   44.
                        Lebedev-Laikov grids with approx.  5.0 points / Ang**2.
                        Smoothing algorithm: Karplus/York (Gamma=1.0000).
                        Polarization charges: spherical gaussians, with
                                              point-specific exponents (IZeta= 3).
                        Self-potential: point-specific (ISelfS= 7).
                        Self-field    : sphere-specific E.n sum rule (ISelfD= 2).
 Solvent              : Chloroform, Eps=   4.711300 Eps(inf)=   2.090627
 ------------------------------------------------------------------------------
 One-electron integrals computed using PRISM.
 NBasis=   410 RedAO= T EigKep=  9.93D-04  NBF=   410
 NBsUse=   410 1.00D-06 EigRej= -1.00D+00 NBFU=   410
 ExpMin= 6.54D-02 ExpMax= 6.94D+04 ExpMxC= 2.33D+03 IAcc=2 IRadAn=         4 AccDes= 0.00D+00
 Harris functional with IExCor=  908 and IRadAn=       4 diagonalized for initial guess.
 HarFok:  IExCor=  908 AccDes= 0.00D+00 IRadAn=         4 IDoV= 1 UseB2=F ITyADJ=14
 ICtDFT=  3500011 ScaDFX=  1.000000  1.000000  1.000000  1.000000
 FoFCou: FMM=F IPFlag=           0 FMFlag=      100000 FMFlg1=           0
         NFxFlg=           0 DoJE=T BraDBF=F KetDBF=T FulRan=T
         wScrn=  0.000000 ICntrl=     500 IOpCl=  0 I1Cent=   200000004 NGrid=           0
         NMat0=    1 NMatS0=      1 NMatT0=    0 NMatD0=    1 NMtDS0=    0 NMtDT0=    0
 Petite list used in FoFCou.
 Requested convergence on RMS density matrix=1.00D-08 within 128 cycles.
 Requested convergence on MAX density matrix=1.00D-06.
 Requested convergence on             energy=1.00D-06.
 No special actions if energy rises.
 Inv3:  Mode=1 IEnd=    25386843.
 Iteration    1 A*A^-1 deviation from unit magnitude is 8.22D-15 for   2002.
 Iteration    1 A*A^-1 deviation from orthogonality  is 7.11D-15 for   2351    946.
 Iteration    1 A^-1*A deviation from unit magnitude is 8.77D-15 for   1917.
 Iteration    1 A^-1*A deviation from orthogonality  is 5.08D-12 for   2189   2137.
 Error on total polarization charges =  0.01142
 SCF Done:  E(RmPW1PW91) =  -1064.37642616     A.U. after   13 cycles
            NFock= 13  Conv=0.32D-08     -V/T= 2.0036
 DoSCS=F DFT=T ScalE2(SS,OS)=  1.000000  1.000000
 Range of M.O.s used for correlation:     1   410
 NBasis=   410 NAE=    74 NBE=    74 NFC=     0 NFV=     0
 NROrb=    410 NOA=    74 NOB=    74 NVA=   336 NVB=   336
 NEqPCM:  Using equilibrium solvation (IEInf=0, Eps=   4.7113, EpsInf=   2.0906)
          Differentiating once with respect to magnetic field using GIAOs.
          Electric field/nuclear overlap derivatives assumed to be zero.
 FoFJK:  IHMeth= 1 ICntrl=    6127 DoSepK=F KAlg= 0 I1Cent=   0 FoldK=F
 IRaf=         1 NMat=   1 IRICut=       1 DoRegI=T DoRafI=F ISym2E= 0.
          There are     3 degrees of freedom in the 1st order CPHF.  IDoFFX=0 NUNeed=     3.
      3 vectors produced by pass  0 Test12= 8.29D-13 3.33D-08 XBig12= 3.43D+01 1.36D+00.
 AX will form     3 AO Fock derivatives at one time.
      3 vectors produced by pass  1 Test12= 8.29D-13 3.33D-08 XBig12= 8.15D-02 1.11D-01.
      3 vectors produced by pass  2 Test12= 8.29D-13 3.33D-08 XBig12= 7.40D-04 1.14D-02.
      3 vectors produced by pass  3 Test12= 8.29D-13 3.33D-08 XBig12= 3.70D-06 3.76D-04.
      3 vectors produced by pass  4 Test12= 8.29D-13 3.33D-08 XBig12= 1.85D-08 3.10D-05.
      3 vectors produced by pass  5 Test12= 8.29D-13 3.33D-08 XBig12= 5.83D-11 1.29D-06.
      2 vectors produced by pass  6 Test12= 8.29D-13 3.33D-08 XBig12= 1.68D-13 8.08D-08.
 InvSVY:  IOpt=1 It=  1 EMax= 5.55D-17
 Solved reduced A of dimension    20 with     3 vectors.
 Calculating GIAO nuclear magnetic shielding tensors.
 SCF GIAO Magnetic shielding tensor (ppm):
      1  C    Isotropic =   100.9889   Anisotropy =    48.1951
   XX=    94.7186   YX=    -2.9759   ZX=   -14.4839
   XY=     5.5462   YY=    87.2352   ZY=    21.4867
   XZ=    -1.3871   YZ=    22.8521   ZZ=   121.0129
   Eigenvalues:    75.0968    94.7509   133.1190
      2  C    Isotropic =   139.6856   Anisotropy =    25.6905
   XX=   151.4406   YX=    11.1391   ZX=     4.7977
   XY=     8.9685   YY=   137.6405   ZY=    -8.3652
   XZ=     3.1182   YZ=    -0.6129   ZZ=   129.9755
   Eigenvalues:   125.1875   137.0566   156.8126
      3  C    Isotropic =   105.2681   Anisotropy =    52.6105
   XX=   135.1582   YX=   -17.0890   ZX=    -1.3775
   XY=   -12.7841   YY=    97.2879   ZY=     1.4637
   XZ=     2.5305   YZ=     3.6272   ZZ=    83.3581
   Eigenvalues:    82.6455    92.8170   140.3418
      4  C    Isotropic =   143.5958   Anisotropy =    28.8729
   XX=   155.0777   YX=    -8.4083   ZX=    -8.0026
   XY=    -6.7844   YY=   135.1312   ZY=    13.0171
   XZ=    -8.2082   YZ=     4.5977   ZZ=   140.5784
   Eigenvalues:   128.5509   139.3920   162.8444
      5  C    Isotropic =     9.8151   Anisotropy =    93.3687
   XX=   -65.9624   YX=   -28.4842   ZX=   -29.9997
   XY=   -40.5698   YY=    45.4671   ZY=   -22.8709
   XZ=   -35.5064   YZ=   -25.6183   ZZ=    49.9406
   Eigenvalues:   -86.5645    43.9490    72.0609
      6  H    Isotropic =    28.2145   Anisotropy =     2.0177
   XX=    29.1646   YX=     0.5209   ZX=     0.2580
   XY=     0.0031   YY=    26.5939   ZY=    -0.0186
   XZ=     0.7649   YZ=    -1.0336   ZZ=    28.8851
   Eigenvalues:    26.4287    28.6552    29.5597
      7  H    Isotropic =    30.1031   Anisotropy =     5.4576
   XX=    31.6479   YX=    -0.5332   ZX=     2.2104
   XY=    -0.3508   YY=    29.9679   ZY=    -2.8386
   XZ=     2.3382   YZ=    -2.3607   ZZ=    28.6934
   Eigenvalues:    26.1878    30.3800    33.7415
      8  H    Isotropic =    29.6547   Anisotropy =     4.7697
   XX=    30.3425   YX=    -2.4976   ZX=     1.0077
   XY=    -2.3322   YY=    28.1756   ZY=    -0.8013
   XZ=     1.0662   YZ=    -1.4494   ZZ=    30.4461
   Eigenvalues:    26.5703    29.5593    32.8345
      9  H    Isotropic =    29.1808   Anisotropy =     4.0739
   XX=    29.1840   YX=     0.9704   ZX=     1.4101
   XY=    -0.0374   YY=    29.4111   ZY=     2.3323
   XZ=    -0.4309   YZ=     2.7461   ZZ=    28.9475
   Eigenvalues:    26.6286    29.0171    31.8968
     10  O    Isotropic =   108.2145   Anisotropy =   198.0424
   XX=   159.9277   YX=    61.3315   ZX=    60.5553
   XY=    78.4377   YY=    89.3702   ZY=  -185.6769
   XZ=    68.0579   YZ=  -128.3618   ZZ=    75.3456
   Eigenvalues:  -108.3172   192.7180   240.2428
     11  O    Isotropic =  -128.8223   Anisotropy =   578.5168
   XX=  -240.6918   YX=   -53.3539   ZX=   -62.2815
   XY=   -42.4191   YY=  -120.0395   ZY=  -339.5806
   XZ=   -54.9079   YZ=  -312.4348   ZZ=   -25.7355
   Eigenvalues:  -431.4625  -211.8600   256.8556
     12  C    Isotropic =   155.9054   Anisotropy =    26.5946
   XX=   160.9136   YX=    12.4095   ZX=     0.4465
   XY=    10.1643   YY=   163.0566   ZY=    -1.8885
   XZ=    -1.9705   YZ=    -4.9684   ZZ=   143.7461
   Eigenvalues:   143.0397   151.0415   173.6352
     13  C    Isotropic =   174.9795   Anisotropy =    21.9403
   XX=   188.8606   YX=    -2.1265   ZX=     0.4610
   XY=    -5.1509   YY=   171.1877   ZY=    -4.8641
   XZ=    -0.9857   YZ=    -5.7936   ZZ=   164.8902
   Eigenvalues:   161.6933   173.6388   189.6064
     14  C    Isotropic =   176.0588   Anisotropy =    20.7584
   XX=   170.0093   YX=     1.2702   ZX=    -0.1497
   XY=    -1.0836   YY=   169.2242   ZY=     3.9249
   XZ=    -3.9079   YZ=     3.9588   ZZ=   188.9428
   Eigenvalues:   168.3161   169.9626   189.8978
     15  O    Isotropic =   245.5231   Anisotropy =    18.4525
   XX=   229.9625   YX=    -0.1624   ZX=   -11.6075
   XY=   -15.7578   YY=   249.3604   ZY=     5.2607
   XZ=     3.9057   YZ=    -6.3914   ZZ=   257.2463
   Eigenvalues:   226.6381   252.1064   257.8247
     16  Si   Isotropic =   335.7680   Anisotropy =    52.3029
   XX=   339.6191   YX=   -23.9767   ZX=    22.8641
   XY=   -18.6685   YY=   329.3226   ZY=   -16.7128
   XZ=     9.4784   YZ=   -11.4748   ZZ=   338.3623
   Eigenvalues:   312.4614   324.2059   370.6366
     17  C    Isotropic =   185.1619   Anisotropy =    11.3863
   XX=   183.1375   YX=    -1.4418   ZX=     6.9877
   XY=    -3.9758   YY=   186.3260   ZY=     4.7671
   XZ=     5.9376   YZ=     6.2277   ZZ=   186.0221
   Eigenvalues:   175.1050   187.6279   192.7528
     18  C    Isotropic =   185.5544   Anisotropy =     7.5526
   XX=   188.5556   YX=     0.3868   ZX=     1.9235
   XY=     3.8203   YY=   187.1991   ZY=    -4.7163
   XZ=     2.4999   YZ=    -5.8044   ZZ=   180.9084
   Eigenvalues:   177.1527   188.9209   190.5894
     19  C    Isotropic =   186.5864   Anisotropy =    13.1099
   XX=   188.9762   YX=    -5.1983   ZX=    -5.6913
   XY=    -5.9573   YY=   178.7675   ZY=    -1.5996
   XZ=    -3.0941   YZ=    -2.5545   ZZ=   192.0156
   Eigenvalues:   175.4642   188.9687   195.3264
     20  H    Isotropic =    32.2310   Anisotropy =    10.6674
   XX=    32.6095   YX=    -3.8901   ZX=     2.9668
   XY=    -3.2868   YY=    33.4024   ZY=    -3.6959
   XZ=     2.9145   YZ=    -4.0716   ZZ=    30.6811
   Eigenvalues:    27.8780    29.4724    39.3426
     21  H    Isotropic =    32.1553   Anisotropy =     6.0931
   XX=    34.0118   YX=    -1.7451   ZX=    -3.0556
   XY=    -0.4806   YY=    30.5034   ZY=    -1.6021
   XZ=    -3.0766   YZ=    -1.1956   ZZ=    31.9506
   Eigenvalues:    28.2995    31.9489    36.2173
     22  H    Isotropic =    31.9994   Anisotropy =     6.8750
   XX=    30.7922   YX=     1.0581   ZX=     2.8779
   XY=     1.2636   YY=    33.9759   ZY=     3.0074
   XZ=     2.3875   YZ=     2.2190   ZZ=    31.2301
   Eigenvalues:    28.1812    31.2343    36.5828
     23  H    Isotropic =    32.4006   Anisotropy =     9.7875
   XX=    35.5542   YX=    -4.1701   ZX=     1.7504
   XY=    -4.2978   YY=    31.1130   ZY=    -1.5183
   XZ=     2.3037   YZ=    -1.8519   ZZ=    30.5347
   Eigenvalues:    28.4416    29.8347    38.9256
     24  H    Isotropic =    32.0353   Anisotropy =     8.3707
   XX=    30.7817   YX=    -0.3879   ZX=    -0.6055
   XY=    -0.1057   YY=    30.8077   ZY=     4.4011
   XZ=     0.2790   YZ=     4.7622   ZZ=    34.5164
   Eigenvalues:    27.7152    30.7750    37.6157
     25  H    Isotropic =    31.9768   Anisotropy =     8.7929
   XX=    33.0550   YX=     2.8915   ZX=    -3.3000
   XY=     2.5201   YY=    32.7844   ZY=    -1.9857
   XZ=    -3.3192   YZ=    -3.0416   ZZ=    30.0910
   Eigenvalues:    27.8184    30.2733    37.8387
     26  H    Isotropic =    32.3701   Anisotropy =    10.4067
   XX=    35.0195   YX=    -2.3875   ZX=     4.7437
   XY=    -2.8206   YY=    29.8611   ZY=    -1.0862
   XZ=     4.7517   YZ=    -0.7191   ZZ=    32.2297
   Eigenvalues:    28.0622    29.7402    39.3080
     27  H    Isotropic =    31.9566   Anisotropy =     7.8933
   XX=    31.1314   YX=     3.1473   ZX=     0.8223
   XY=     3.0156   YY=    35.6354   ZY=    -1.4098
   XZ=     0.9047   YZ=    -0.3320   ZZ=    29.1029
   Eigenvalues:    28.1379    30.5130    37.2188
     28  H    Isotropic =    32.1361   Anisotropy =     6.2558
   XX=    33.6570   YX=    -0.9046   ZX=    -0.9857
   XY=    -1.7725   YY=    28.6682   ZY=     2.1661
   XZ=    -2.1417   YZ=     2.2723   ZZ=    34.0832
   Eigenvalues:    27.7744    32.3274    36.3066
     29  H    Isotropic =    30.4519   Anisotropy =     7.2329
   XX=    33.9582   YX=    -1.6477   ZX=    -0.6208
   XY=    -1.7742   YY=    27.3652   ZY=     3.7234
   XZ=    -1.5260   YZ=     3.4471   ZZ=    30.0322
   Eigenvalues:    24.8014    31.2804    35.2738
     30  H    Isotropic =    31.2532   Anisotropy =     9.3815
   XX=    30.2859   YX=     3.6961   ZX=    -0.2615
   XY=     3.4561   YY=    33.5182   ZY=     3.9827
   XZ=     0.0663   YZ=     4.2995   ZZ=    29.9554
   Eigenvalues:    26.0084    30.2437    37.5075
     31  H    Isotropic =    31.4699   Anisotropy =     8.6179
   XX=    28.2527   YX=     0.1784   ZX=     2.1837
   XY=    -0.1892   YY=    29.9747   ZY=    -1.6100
   XZ=     1.9467   YZ=    -2.4039   ZZ=    36.1823
   Eigenvalues:    27.6312    29.5633    37.2152
     32  H    Isotropic =    30.5453   Anisotropy =     5.0212
   XX=    32.3800   YX=     0.1503   ZX=     0.2521
   XY=    -0.0598   YY=    30.8581   ZY=    -4.2854
   XZ=     0.3099   YZ=    -3.8578   ZZ=    28.3979
   Eigenvalues:    25.3655    32.3777    33.8928
     33  H    Isotropic =    30.2012   Anisotropy =     5.6940
   XX=    32.5972   YX=     1.5296   ZX=    -1.7187
   XY=     1.6449   YY=    29.0424   ZY=     5.0232
   XZ=    -1.4507   YZ=     4.9643   ZZ=    28.9640
   Eigenvalues:    23.4589    33.1476    33.9972
     34  H    Isotropic =    30.5242   Anisotropy =     7.9713
   XX=    32.7395   YX=    -0.7830   ZX=    -3.0112
   XY=     0.0488   YY=    27.4752   ZY=     3.7397
   XZ=    -2.7308   YZ=     3.3637   ZZ=    31.3581
   Eigenvalues:    25.1725    30.5618    35.8384
     35  H    Isotropic =    31.2084   Anisotropy =     9.1649
   XX=    33.7806   YX=    -2.7161   ZX=     3.3882
   XY=    -1.9687   YY=    29.2292   ZY=    -3.3539
   XZ=     2.8388   YZ=    -2.7033   ZZ=    30.6154
   Eigenvalues:    26.8128    29.4941    37.3183
     36  H    Isotropic =    30.9912   Anisotropy =    11.2882
   XX=    35.3475   YX=     5.0118   ZX=    -0.4876
   XY=     4.3328   YY=    31.5196   ZY=    -0.0663
   XZ=    -0.7951   YZ=    -0.3539   ZZ=    26.1066
   Eigenvalues:    26.0583    28.3988    38.5167
     37  C    Isotropic =   145.0789   Anisotropy =    18.5752
   XX=   139.2095   YX=     3.2168   ZX=     9.8413
   XY=     0.9578   YY=   153.5266   ZY=   -11.4167
   XZ=     1.7032   YZ=    -3.8412   ZZ=   142.5005
   Eigenvalues:   132.7966   144.9777   157.4623
     38  C    Isotropic =    45.7769   Anisotropy =   177.3531
   XX=    91.1381   YX=   -41.1094   ZX=    34.8475
   XY=   -38.6023   YY=    17.4061   ZY=  -102.2051
   XZ=    35.9340   YZ=  -101.8362   ZZ=    28.7865
   Eigenvalues:   -79.2203    52.5387   164.0123
     39  C    Isotropic =    61.6993   Anisotropy =   144.0563
   XX=   108.7978   YX=   -34.5345   ZX=    17.2365
   XY=   -35.9732   YY=    26.4863   ZY=   -91.2095
   XZ=    18.4705   YZ=   -90.2859   ZZ=    49.8138
   Eigenvalues:   -54.7231    82.0841   157.7368
     40  H    Isotropic =    30.0441   Anisotropy =     5.2334
   XX=    32.5762   YX=    -0.6402   ZX=     0.5051
   XY=    -0.9609   YY=    31.6185   ZY=    -2.7047
   XZ=     1.2277   YZ=    -1.6689   ZZ=    25.9376
   Eigenvalues:    25.1499    31.4494    33.5330
     41  H    Isotropic =    29.6073   Anisotropy =     5.5273
   XX=    26.2142   YX=     3.0216   ZX=     1.0822
   XY=     2.2515   YY=    30.3573   ZY=    -1.8222
   XZ=    -0.5527   YZ=    -1.2139   ZZ=    32.2505
   Eigenvalues:    24.8198    30.7100    33.2922
     42  H    Isotropic =    25.7851   Anisotropy =     6.0941
   XX=    25.5929   YX=     0.9364   ZX=    -1.4503
   XY=     2.6151   YY=    28.4303   ZY=    -1.8216
   XZ=    -0.9375   YZ=    -1.2712   ZZ=    23.3321
   Eigenvalues:    22.6971    24.8104    29.8478
     43  H    Isotropic =    26.6206   Anisotropy =     6.4493
   XX=    27.9678   YX=     2.8693   ZX=    -0.5235
   XY=     1.5405   YY=    27.1599   ZY=    -1.9048
   XZ=    -1.9075   YZ=    -3.2126   ZZ=    24.7341
   Eigenvalues:    23.1092    25.8324    30.9201
     44  H    Isotropic =    26.6605   Anisotropy =     7.4697
   XX=    27.6815   YX=     0.5998   ZX=    -2.8160
   XY=     2.3480   YY=    26.1112   ZY=    -4.4575
   XZ=    -1.4504   YZ=    -3.2117   ZZ=    26.1887
   Eigenvalues:    22.2702    26.0709    31.6403
 End of Minotr F.D. properties file   721 does not exist.
 End of Minotr F.D. properties file   722 does not exist.
 End of Minotr F.D. properties file   788 does not exist.

 **********************************************************************

            Population analysis using the SCF density.

 **********************************************************************

 Orbital symmetries:
       Occupied  (A) (A) (A) (A) (A) (A) (A) (A) (A) (A) (A) (A)
                 (A) (A) (A) (A) (A) (A) (A) (A) (A) (A) (A) (A)
                 (A) (A) (A) (A) (A) (A) (A) (A) (A) (A) (A) (A)
                 (A) (A) (A) (A) (A) (A) (A) (A) (A) (A) (A) (A)
                 (A) (A) (A) (A) (A) (A) (A) (A) (A) (A) (A) (A)
                 (A) (A) (A) (A) (A) (A) (A) (A) (A) (A) (A) (A)
                 (A) (A)
       Virtual   (A) (A) (A) (A) (A) (A) (A) (A) (A) (A) (A) (A)
                 (A) (A) (A) (A) (A) (A) (A) (A) (A) (A) (A) (A)
                 (A) (A) (A) (A) (A) (A) (A) (A) (A) (A) (A) (A)
                 (A) (A) (A) (A) (A) (A) (A) (A) (A) (A) (A) (A)
                 (A) (A) (A) (A) (A) (A) (A) (A) (A) (A) (A) (A)
                 (A) (A) (A) (A) (A) (A) (A) (A) (A) (A) (A) (A)
                 (A) (A) (A) (A) (A) (A) (A) (A) (A) (A) (A) (A)
                 (A) (A) (A) (A) (A) (A) (A) (A) (A) (A) (A) (A)
                 (A) (A) (A) (A) (A) (A) (A) (A) (A) (A) (A) (A)
                 (A) (A) (A) (A) (A) (A) (A) (A) (A) (A) (A) (A)
                 (A) (A) (A) (A) (A) (A) (A) (A) (A) (A) (A) (A)
                 (A) (A) (A) (A) (A) (A) (A) (A) (A) (A) (A) (A)
                 (A) (A) (A) (A) (A) (A) (A) (A) (A) (A) (A) (A)
                 (A) (A) (A) (A) (A) (A) (A) (A) (A) (A) (A) (A)
                 (A) (A) (A) (A) (A) (A) (A) (A) (A) (A) (A) (A)
                 (A) (A) (A) (A) (A) (A) (A) (A) (A) (A) (A) (A)
                 (A) (A) (A) (A) (A) (A) (A) (A) (A) (A) (A) (A)
                 (A) (A) (A) (A) (A) (A) (A) (A) (A) (A) (A) (A)
                 (A) (A) (A) (A) (A) (A) (A) (A) (A) (A) (A) (A)
                 (A) (A) (A) (A) (A) (A) (A) (A) (A) (A) (A) (A)
                 (A) (A) (A) (A) (A) (A) (A) (A) (A) (A) (A) (A)
                 (A) (A) (A) (A) (A) (A) (A) (A) (A) (A) (A) (A)
                 (A) (A) (A) (A) (A) (A) (A) (A) (A) (A) (A) (A)
                 (A) (A) (A) (A) (A) (A) (A) (A) (A) (A) (A) (A)
                 (A) (A) (A) (A) (A) (A) (A) (A) (A) (A) (A) (A)
                 (A) (A) (A) (A) (A) (A) (A) (A) (A) (A) (A) (A)
                 (A) (A) (A) (A) (A) (A) (A) (A) (A) (A) (A) (A)
                 (A) (A) (A) (A) (A) (A) (A) (A) (A) (A) (A) (A)
 The electronic state is 1-A.
 Alpha  occ. eigenvalues --  -66.26913 -19.26482 -19.21186 -19.20313 -10.37642
 Alpha  occ. eigenvalues --  -10.32275 -10.31038 -10.25550 -10.25444 -10.24283
 Alpha  occ. eigenvalues --  -10.24048 -10.23963 -10.22836 -10.22687 -10.22025
 Alpha  occ. eigenvalues --  -10.20837 -10.20552 -10.20421  -5.32748  -3.66597
 Alpha  occ. eigenvalues --   -3.66363  -3.66326  -1.13668  -1.05155  -1.04064
 Alpha  occ. eigenvalues --   -0.86127  -0.83604  -0.80682  -0.78143  -0.74141
 Alpha  occ. eigenvalues --   -0.72558  -0.72052  -0.70331  -0.69913  -0.66608
 Alpha  occ. eigenvalues --   -0.64161  -0.61970  -0.58681  -0.56410  -0.53844
 Alpha  occ. eigenvalues --   -0.53223  -0.50029  -0.49609  -0.48281  -0.47779
 Alpha  occ. eigenvalues --   -0.47017  -0.45839  -0.44905  -0.44212  -0.43247
 Alpha  occ. eigenvalues --   -0.42735  -0.42520  -0.42191  -0.41718  -0.41634
 Alpha  occ. eigenvalues --   -0.40878  -0.40363  -0.40060  -0.39627  -0.39034
 Alpha  occ. eigenvalues --   -0.38460  -0.37797  -0.36915  -0.36575  -0.35873
 Alpha  occ. eigenvalues --   -0.35744  -0.34426  -0.33650  -0.32340  -0.31551
 Alpha  occ. eigenvalues --   -0.30369  -0.29067  -0.28444  -0.27264
 Alpha virt. eigenvalues --   -0.00619   0.01038   0.04044   0.05528   0.06010
 Alpha virt. eigenvalues --    0.06412   0.07661   0.08119   0.08682   0.08797
 Alpha virt. eigenvalues --    0.09205   0.09924   0.10153   0.10479   0.11504
 Alpha virt. eigenvalues --    0.11632   0.12660   0.12755   0.13292   0.13686
 Alpha virt. eigenvalues --    0.13932   0.14864   0.14901   0.14997   0.15691
 Alpha virt. eigenvalues --    0.16346   0.16822   0.17282   0.17851   0.18096
 Alpha virt. eigenvalues --    0.19095   0.19199   0.19828   0.20284   0.21144
 Alpha virt. eigenvalues --    0.21743   0.22445   0.23631   0.24376   0.24759
 Alpha virt. eigenvalues --    0.25654   0.25902   0.26378   0.26899   0.28107
 Alpha virt. eigenvalues --    0.28956   0.29111   0.30598   0.31663   0.32106
 Alpha virt. eigenvalues --    0.33118   0.33393   0.34423   0.35417   0.35924
 Alpha virt. eigenvalues --    0.36963   0.37929   0.38023   0.39344   0.40193
 Alpha virt. eigenvalues --    0.41154   0.41756   0.43007   0.43702   0.44337
 Alpha virt. eigenvalues --    0.44964   0.45558   0.46083   0.46990   0.47990
 Alpha virt. eigenvalues --    0.49860   0.50692   0.51176   0.51793   0.52229
 Alpha virt. eigenvalues --    0.53626   0.54940   0.55262   0.55422   0.56649
 Alpha virt. eigenvalues --    0.57137   0.57621   0.58315   0.58812   0.59411
 Alpha virt. eigenvalues --    0.59919   0.60286   0.60400   0.60886   0.61029
 Alpha virt. eigenvalues --    0.61329   0.61955   0.62313   0.62558   0.63092
 Alpha virt. eigenvalues --    0.63803   0.64051   0.64404   0.64987   0.65134
 Alpha virt. eigenvalues --    0.66082   0.66711   0.67080   0.67973   0.68341
 Alpha virt. eigenvalues --    0.69054   0.69442   0.69872   0.70301   0.71097
 Alpha virt. eigenvalues --    0.71810   0.72597   0.72716   0.73501   0.75245
 Alpha virt. eigenvalues --    0.76385   0.76816   0.77518   0.78852   0.80318
 Alpha virt. eigenvalues --    0.81867   0.82845   0.85050   0.88241   0.89339
 Alpha virt. eigenvalues --    0.89965   0.91314   0.92415   0.92839   0.93728
 Alpha virt. eigenvalues --    0.96007   0.96544   0.96734   0.99029   1.00424
 Alpha virt. eigenvalues --    1.01286   1.03648   1.06658   1.08258   1.10460
 Alpha virt. eigenvalues --    1.12130   1.14543   1.16409   1.17430   1.18345
 Alpha virt. eigenvalues --    1.21551   1.23620   1.24257   1.25437   1.27191
 Alpha virt. eigenvalues --    1.27833   1.28993   1.30865   1.32713   1.32927
 Alpha virt. eigenvalues --    1.34367   1.37712   1.38111   1.41158   1.41605
 Alpha virt. eigenvalues --    1.43069   1.45137   1.45332   1.47145   1.47554
 Alpha virt. eigenvalues --    1.49080   1.51810   1.52074   1.52750   1.53014
 Alpha virt. eigenvalues --    1.53750   1.54599   1.56006   1.57195   1.58552
 Alpha virt. eigenvalues --    1.58966   1.59458   1.59886   1.60296   1.60975
 Alpha virt. eigenvalues --    1.61272   1.62084   1.62386   1.63760   1.64477
 Alpha virt. eigenvalues --    1.65641   1.65755   1.66824   1.67808   1.69127
 Alpha virt. eigenvalues --    1.69771   1.71035   1.71729   1.73312   1.73793
 Alpha virt. eigenvalues --    1.75904   1.76115   1.79313   1.80281   1.81055
 Alpha virt. eigenvalues --    1.81711   1.82161   1.82482   1.83642   1.88404
 Alpha virt. eigenvalues --    1.90064   1.91731   1.94252   1.95026   1.98123
 Alpha virt. eigenvalues --    1.99292   2.00234   2.06058   2.09030   2.12738
 Alpha virt. eigenvalues --    2.14617   2.16634   2.20907   2.22796   2.25187
 Alpha virt. eigenvalues --    2.26847   2.30679   2.34572   2.36759   2.40541
 Alpha virt. eigenvalues --    2.40724   2.41816   2.42467   2.42602   2.43714
 Alpha virt. eigenvalues --    2.44318   2.44718   2.46354   2.46890   2.47397
 Alpha virt. eigenvalues --    2.48105   2.48996   2.49726   2.50360   2.51600
 Alpha virt. eigenvalues --    2.51891   2.52427   2.57612   2.58340   2.60657
 Alpha virt. eigenvalues --    2.62181   2.64023   2.67563   2.72026   2.79734
 Alpha virt. eigenvalues --    2.82446   2.87368   2.88268   2.89509   2.92451
 Alpha virt. eigenvalues --    2.93088   2.93969   2.95310   2.96061   2.97562
 Alpha virt. eigenvalues --    2.99703   3.00751   3.01056   3.02838   3.04781
 Alpha virt. eigenvalues --    3.08711   3.09366   3.12135   3.13665   3.14766
 Alpha virt. eigenvalues --    3.16124   3.17130   3.17895   3.20140   3.21170
 Alpha virt. eigenvalues --    3.22540   3.22887   3.23036   3.24531   3.25391
 Alpha virt. eigenvalues --    3.25859   3.28001   3.29044   3.29536   3.30427
 Alpha virt. eigenvalues --    3.32961   3.34090   3.35395   3.38099   3.39487
 Alpha virt. eigenvalues --    3.43925   3.51031   3.57897   3.59552   3.62998
 Alpha virt. eigenvalues --    3.78161   3.88250   3.90980   3.98107   4.04869
 Alpha virt. eigenvalues --    4.09153   4.10750   4.18614   4.20704   4.25050
 Alpha virt. eigenvalues --    4.94162   4.99981   5.02095   5.09359   5.14664
 Alpha virt. eigenvalues --    5.23534   5.49898   5.55069   5.77988   5.85594
 Alpha virt. eigenvalues --   11.52499  11.53911  11.59617  23.40589  23.49789
 Alpha virt. eigenvalues --   23.54633  23.55217  23.57527  23.60353  23.70280
 Alpha virt. eigenvalues --   23.73636  23.78704  23.79390  23.82857  23.84297
 Alpha virt. eigenvalues --   23.89594  24.27515  49.98933  50.05849  50.11585
 Alpha virt. eigenvalues --  141.29760
          Condensed to atoms (all electrons):
               1          2          3          4          5          6
     1  C    5.195245   0.276541  -0.045491  -0.007521  -0.049544   0.386295
     2  C    0.276541   5.537207   0.312441  -0.100485  -0.008545  -0.042059
     3  C   -0.045491   0.312441   5.204319   0.241392  -0.011424  -0.016364
     4  C   -0.007521  -0.100485   0.241392   5.872462   0.235182   0.002721
     5  C   -0.049544  -0.008545  -0.011424   0.235182   4.413203  -0.002238
     6  H    0.386295  -0.042059  -0.016364   0.002721  -0.002238   0.485922
     7  H   -0.050580   0.411134  -0.056738  -0.005494   0.000711   0.007864
     8  H    0.000283  -0.006770  -0.032447   0.365384  -0.029364   0.000216
     9  H   -0.000457   0.007127  -0.032942   0.369720  -0.027906   0.000086
    10  O    0.220901  -0.034357   0.004663  -0.110749   0.337565  -0.035947
    11  O    0.001148  -0.000017   0.002075  -0.100180   0.664227   0.000188
    12  C    0.323856  -0.070243   0.008973  -0.002642   0.002584  -0.050170
    13  C   -0.073836   0.008071  -0.000108   0.000071  -0.000005  -0.006143
    14  C   -0.066186   0.299942  -0.062291   0.007669   0.000005  -0.001416
    15  O    0.004286  -0.053631   0.236943  -0.024314   0.001686  -0.000068
    16  Si   0.002787  -0.012183  -0.044292  -0.008795   0.001586  -0.000297
    17  C    0.000010  -0.000352  -0.002074  -0.000795   0.000103   0.000001
    18  C   -0.000115  -0.001451  -0.001362  -0.002277  -0.000064  -0.000007
    19  C   -0.000001  -0.000251   0.002399  -0.000145   0.000001   0.000000
    20  H   -0.000002   0.000266  -0.000045   0.000061   0.000002   0.000000
    21  H   -0.000092  -0.000800   0.000796   0.000183   0.000034  -0.000010
    22  H   -0.000063  -0.000261   0.000125   0.000245   0.000008  -0.000003
    23  H    0.000000   0.000001  -0.000072   0.000000   0.000000   0.000000
    24  H   -0.000001   0.000000  -0.000078  -0.000021   0.000000   0.000000
    25  H    0.000000  -0.000021  -0.000128  -0.000038   0.000000   0.000000
    26  H    0.000000   0.000008  -0.000011   0.000116  -0.000002   0.000000
    27  H    0.000004  -0.000045   0.000552  -0.000376  -0.000040   0.000000
    28  H    0.000006  -0.000012  -0.000384   0.001571   0.000094   0.000000
    29  H    0.005680  -0.031044  -0.007739   0.000479  -0.000071  -0.000070
    30  H   -0.005820  -0.036478   0.007464  -0.000274   0.000009  -0.000979
    31  H   -0.005253  -0.038047  -0.009524  -0.000133   0.000010   0.005422
    32  H   -0.042415  -0.007171  -0.000926   0.000256  -0.000289   0.007862
    33  H   -0.038916  -0.005378  -0.000130   0.000097   0.000007   0.000118
    34  H   -0.011293   0.000428  -0.000061   0.000345   0.000619   0.000311
    35  H   -0.004403  -0.000078  -0.000003  -0.000002  -0.000103   0.005069
    36  H    0.008385  -0.000257   0.000012  -0.000001   0.000008  -0.000291
    37  C   -0.000852  -0.097615   0.266034  -0.087606  -0.008092   0.005897
    38  C   -0.000666   0.009158  -0.063751  -0.007779  -0.000043   0.000204
    39  C    0.000019  -0.000150  -0.002979   0.000004   0.000139   0.000002
    40  H    0.003441  -0.006072  -0.035210  -0.001284   0.003817  -0.000732
    41  H   -0.000009  -0.008509  -0.031590   0.005808  -0.000178   0.000002
    42  H   -0.000139  -0.000082  -0.004080   0.000591   0.001505   0.000128
    43  H   -0.000001   0.000018  -0.000130   0.000022  -0.000013  -0.000001
    44  H   -0.000001  -0.000071  -0.000292   0.000070   0.000003   0.000004
               7          8          9         10         11         12
     1  C   -0.050580   0.000283  -0.000457   0.220901   0.001148   0.323856
     2  C    0.411134  -0.006770   0.007127  -0.034357  -0.000017  -0.070243
     3  C   -0.056738  -0.032447  -0.032942   0.004663   0.002075   0.008973
     4  C   -0.005494   0.365384   0.369720  -0.110749  -0.100180  -0.002642
     5  C    0.000711  -0.029364  -0.027906   0.337565   0.664227   0.002584
     6  H    0.007864   0.000216   0.000086  -0.035947   0.000188  -0.050170
     7  H    0.476201   0.002513   0.000160   0.002618  -0.000020  -0.008896
     8  H    0.002513   0.416005  -0.017097   0.003396   0.001578  -0.000235
     9  H    0.000160  -0.017097   0.405924   0.004671   0.009482   0.000084
    10  O    0.002618   0.003396   0.004671   8.036474  -0.069289  -0.050180
    11  O   -0.000020   0.001578   0.009482  -0.069289   7.870440  -0.000122
    12  C   -0.008896  -0.000235   0.000084  -0.050180  -0.000122   5.327770
    13  C   -0.000126  -0.000003  -0.000003  -0.004301  -0.000015   0.314851
    14  C   -0.041284   0.000181  -0.000138   0.003130   0.000005  -0.003765
    15  O   -0.001925  -0.003124  -0.000583  -0.000028  -0.000017  -0.000082
    16  Si  -0.003999   0.002738  -0.004961  -0.000799  -0.000494  -0.000276
    17  C   -0.000151  -0.000348  -0.002671  -0.000001  -0.000003   0.000000
    18  C   -0.003016   0.002395   0.000355   0.000007   0.000001   0.000004
    19  C   -0.000054   0.000000  -0.000055   0.000000   0.000000   0.000000
    20  H    0.000509  -0.000029  -0.000002   0.000000   0.000000   0.000000
    21  H   -0.000545   0.005191   0.000023  -0.000041   0.000005   0.000098
    22  H   -0.000934  -0.000400   0.000002  -0.000004   0.000000   0.000054
    23  H   -0.000004   0.000004  -0.000002   0.000000   0.000000   0.000000
    24  H   -0.000028  -0.000006  -0.000006   0.000000   0.000000   0.000000
    25  H   -0.000006   0.000000  -0.000016   0.000000   0.000000   0.000000
    26  H    0.000002  -0.000038   0.000263   0.000000   0.000000   0.000000
    27  H   -0.000005   0.000025   0.000425   0.000000   0.000001   0.000000
    28  H   -0.000050   0.001073  -0.000985  -0.000002  -0.000057   0.000000
    29  H   -0.003489   0.000042  -0.000028  -0.000101   0.000000   0.000015
    30  H   -0.008323  -0.000041   0.000013  -0.000002   0.000000   0.001855
    31  H    0.007458  -0.000007   0.000013   0.000028   0.000001  -0.000259
    32  H    0.006143   0.000219   0.000007   0.002661  -0.000054   0.387198
    33  H    0.000096  -0.000001  -0.000002   0.003245   0.000007   0.388809
    34  H    0.000008  -0.000013  -0.000007   0.012011   0.000144  -0.038406
    35  H    0.000017   0.000001   0.000000  -0.000344  -0.000002  -0.042694
    36  H   -0.000038  -0.000001   0.000000  -0.000146   0.000000  -0.038417
    37  C    0.008399   0.006428  -0.008048  -0.002985   0.000392  -0.000096
    38  C   -0.000170   0.000128   0.004952  -0.000039  -0.000172   0.000002
    39  C   -0.000008   0.000016   0.001068  -0.000002   0.000017   0.000000
    40  H   -0.000263  -0.000077   0.000396   0.001029  -0.000234   0.000862
    41  H   -0.000085  -0.000130  -0.000005   0.000043  -0.000007  -0.000082
    42  H    0.000037   0.000394   0.000850  -0.000100   0.002927  -0.000003
    43  H   -0.000001  -0.000007   0.000016   0.000000  -0.000003   0.000000
    44  H    0.000004   0.000009   0.000007   0.000000   0.000001   0.000000
              13         14         15         16         17         18
     1  C   -0.073836  -0.066186   0.004286   0.002787   0.000010  -0.000115
     2  C    0.008071   0.299942  -0.053631  -0.012183  -0.000352  -0.001451
     3  C   -0.000108  -0.062291   0.236943  -0.044292  -0.002074  -0.001362
     4  C    0.000071   0.007669  -0.024314  -0.008795  -0.000795  -0.002277
     5  C   -0.000005   0.000005   0.001686   0.001586   0.000103  -0.000064
     6  H   -0.006143  -0.001416  -0.000068  -0.000297   0.000001  -0.000007
     7  H   -0.000126  -0.041284  -0.001925  -0.003999  -0.000151  -0.003016
     8  H   -0.000003   0.000181  -0.003124   0.002738  -0.000348   0.002395
     9  H   -0.000003  -0.000138  -0.000583  -0.004961  -0.002671   0.000355
    10  O   -0.004301   0.003130  -0.000028  -0.000799  -0.000001   0.000007
    11  O   -0.000015   0.000005  -0.000017  -0.000494  -0.000003   0.000001
    12  C    0.314851  -0.003765  -0.000082  -0.000276   0.000000   0.000004
    13  C    5.340771  -0.000330   0.000001   0.000022   0.000000   0.000000
    14  C   -0.000330   5.390560  -0.005759  -0.001168   0.000008   0.000842
    15  O    0.000001  -0.005759   8.246053   0.352131  -0.023502  -0.023591
    16  Si   0.000022  -0.001168   0.352131  11.526926   0.322574   0.312761
    17  C    0.000000   0.000008  -0.023502   0.322574   5.771579  -0.058701
    18  C    0.000000   0.000842  -0.023591   0.312761  -0.058701   5.800696
    19  C    0.000000  -0.000118  -0.021001   0.334987  -0.052434  -0.050873
    20  H    0.000000  -0.000029   0.000835  -0.010174   0.000442   0.365609
    21  H   -0.000002   0.000227  -0.001173  -0.031031  -0.001383   0.366209
    22  H   -0.000001   0.000505  -0.002019  -0.027956   0.002418   0.370251
    23  H    0.000000  -0.000002   0.000909  -0.013336   0.000500   0.000088
    24  H    0.000000   0.000063  -0.001208  -0.028331   0.002575  -0.000460
    25  H    0.000000  -0.000008  -0.001333  -0.026554  -0.000500   0.002573
    26  H    0.000000   0.000000   0.000899  -0.012104   0.364229   0.000940
    27  H    0.000000   0.000001  -0.002217  -0.024816   0.369820   0.002226
    28  H    0.000000   0.000001  -0.000993  -0.029059   0.369772  -0.001792
    29  H    0.000016   0.384063   0.007492   0.003338   0.000041  -0.000129
    30  H    0.000078   0.391452   0.000132  -0.000194   0.000001   0.000114
    31  H   -0.000099   0.385304  -0.000047  -0.000172   0.000000   0.000012
    32  H   -0.043877   0.001236  -0.000006  -0.000144   0.000001   0.000049
    33  H   -0.039133   0.000791  -0.000006  -0.000020   0.000000  -0.000002
    34  H    0.386044  -0.000075   0.000000   0.000003   0.000000   0.000000
    35  H    0.385890   0.000059   0.000000  -0.000001   0.000000   0.000000
    36  H    0.392552  -0.000001   0.000000  -0.000001   0.000000   0.000000
    37  C   -0.000016  -0.008573  -0.071629  -0.000850  -0.000077  -0.000304
    38  C   -0.000001  -0.000274  -0.001726   0.000414  -0.000045   0.000007
    39  C    0.000000   0.000024   0.002981   0.001227  -0.000120   0.000004
    40  H   -0.000019   0.000853   0.003655   0.000221   0.000001   0.000017
    41  H    0.000003   0.001289   0.000330  -0.000237   0.000024  -0.000005
    42  H    0.000000  -0.000035   0.000033  -0.000289   0.000024  -0.000001
    43  H    0.000000   0.000000   0.000132   0.000209   0.000003   0.000000
    44  H    0.000000   0.000002   0.000845  -0.000047   0.000002   0.000002
              19         20         21         22         23         24
     1  C   -0.000001  -0.000002  -0.000092  -0.000063   0.000000  -0.000001
     2  C   -0.000251   0.000266  -0.000800  -0.000261   0.000001   0.000000
     3  C    0.002399  -0.000045   0.000796   0.000125  -0.000072  -0.000078
     4  C   -0.000145   0.000061   0.000183   0.000245   0.000000  -0.000021
     5  C    0.000001   0.000002   0.000034   0.000008   0.000000   0.000000
     6  H    0.000000   0.000000  -0.000010  -0.000003   0.000000   0.000000
     7  H   -0.000054   0.000509  -0.000545  -0.000934  -0.000004  -0.000028
     8  H    0.000000  -0.000029   0.005191  -0.000400   0.000004  -0.000006
     9  H   -0.000055  -0.000002   0.000023   0.000002  -0.000002  -0.000006
    10  O    0.000000   0.000000  -0.000041  -0.000004   0.000000   0.000000
    11  O    0.000000   0.000000   0.000005   0.000000   0.000000   0.000000
    12  C    0.000000   0.000000   0.000098   0.000054   0.000000   0.000000
    13  C    0.000000   0.000000  -0.000002  -0.000001   0.000000   0.000000
    14  C   -0.000118  -0.000029   0.000227   0.000505  -0.000002   0.000063
    15  O   -0.021001   0.000835  -0.001173  -0.002019   0.000909  -0.001208
    16  Si   0.334987  -0.010174  -0.031031  -0.027956  -0.013336  -0.028331
    17  C   -0.052434   0.000442  -0.001383   0.002418   0.000500   0.002575
    18  C   -0.050873   0.365609   0.366209   0.370251   0.000088  -0.000460
    19  C    5.724259  -0.000913   0.003014  -0.000485   0.363686   0.368776
    20  H   -0.000913   0.436973  -0.020253  -0.020825   0.000625  -0.000089
    21  H    0.003014  -0.020253   0.453283  -0.019141  -0.000076  -0.000094
    22  H   -0.000485  -0.020825  -0.019141   0.451135  -0.000063   0.001246
    23  H    0.363686   0.000625  -0.000076  -0.000063   0.453241  -0.020702
    24  H    0.368776  -0.000089  -0.000094   0.001246  -0.020702   0.459781
    25  H    0.369700  -0.000044  -0.000109  -0.000078  -0.020511  -0.018120
    26  H   -0.000843   0.000341   0.000062  -0.000042   0.000827   0.000002
    27  H   -0.000394  -0.000026  -0.000027  -0.000099  -0.000051  -0.000108
    28  H    0.002826   0.000066   0.000983  -0.000019  -0.000083  -0.000116
    29  H    0.000186   0.000007  -0.000027   0.000343  -0.000014   0.000567
    30  H   -0.000003  -0.000003   0.000026   0.000230   0.000000  -0.000002
    31  H    0.000002   0.000000  -0.000009  -0.000008   0.000000  -0.000009
    32  H    0.000000  -0.000003   0.000045   0.000016   0.000000   0.000000
    33  H    0.000000   0.000000  -0.000002   0.000002   0.000000   0.000000
    34  H    0.000000   0.000000   0.000000   0.000000   0.000000   0.000000
    35  H    0.000000   0.000000   0.000000   0.000000   0.000000   0.000000
    36  H    0.000000   0.000000   0.000000   0.000000   0.000000   0.000000
    37  C   -0.000006   0.000005  -0.000087  -0.000093   0.000000  -0.000014
    38  C   -0.000040   0.000001   0.000006   0.000003  -0.000001  -0.000002
    39  C   -0.000060   0.000000   0.000001   0.000001  -0.000003  -0.000011
    40  H    0.000001   0.000000   0.000007   0.000003   0.000000   0.000000
    41  H   -0.000049   0.000000  -0.000001  -0.000005   0.000001  -0.000010
    42  H    0.000000   0.000000  -0.000001   0.000000   0.000000   0.000000
    43  H   -0.000003   0.000000   0.000000   0.000000   0.000000   0.000000
    44  H    0.000033   0.000000   0.000000   0.000000  -0.000002  -0.000002
              25         26         27         28         29         30
     1  C    0.000000   0.000000   0.000004   0.000006   0.005680  -0.005820
     2  C   -0.000021   0.000008  -0.000045  -0.000012  -0.031044  -0.036478
     3  C   -0.000128  -0.000011   0.000552  -0.000384  -0.007739   0.007464
     4  C   -0.000038   0.000116  -0.000376   0.001571   0.000479  -0.000274
     5  C    0.000000  -0.000002  -0.000040   0.000094  -0.000071   0.000009
     6  H    0.000000   0.000000   0.000000   0.000000  -0.000070  -0.000979
     7  H   -0.000006   0.000002  -0.000005  -0.000050  -0.003489  -0.008323
     8  H    0.000000  -0.000038   0.000025   0.001073   0.000042  -0.000041
     9  H   -0.000016   0.000263   0.000425  -0.000985  -0.000028   0.000013
    10  O    0.000000   0.000000   0.000000  -0.000002  -0.000101  -0.000002
    11  O    0.000000   0.000000   0.000001  -0.000057   0.000000   0.000000
    12  C    0.000000   0.000000   0.000000   0.000000   0.000015   0.001855
    13  C    0.000000   0.000000   0.000000   0.000000   0.000016   0.000078
    14  C   -0.000008   0.000000   0.000001   0.000001   0.384063   0.391452
    15  O   -0.001333   0.000899  -0.002217  -0.000993   0.007492   0.000132
    16  Si  -0.026554  -0.012104  -0.024816  -0.029059   0.003338  -0.000194
    17  C   -0.000500   0.364229   0.369820   0.369772   0.000041   0.000001
    18  C    0.002573   0.000940   0.002226  -0.001792  -0.000129   0.000114
    19  C    0.369700  -0.000843  -0.000394   0.002826   0.000186  -0.000003
    20  H   -0.000044   0.000341  -0.000026   0.000066   0.000007  -0.000003
    21  H   -0.000109   0.000062  -0.000027   0.000983  -0.000027   0.000026
    22  H   -0.000078  -0.000042  -0.000099  -0.000019   0.000343   0.000230
    23  H   -0.020511   0.000827  -0.000051  -0.000083  -0.000014   0.000000
    24  H   -0.018120   0.000002  -0.000108  -0.000116   0.000567  -0.000002
    25  H    0.455029  -0.000098   0.001116  -0.000092  -0.000013   0.000000
    26  H   -0.000098   0.450909  -0.020126  -0.022830   0.000000   0.000000
    27  H    0.001116  -0.020126   0.446324  -0.018811   0.000002   0.000000
    28  H   -0.000092  -0.022830  -0.018811   0.457934   0.000001   0.000000
    29  H   -0.000013   0.000000   0.000002   0.000001   0.427981  -0.024794
    30  H    0.000000   0.000000   0.000000   0.000000  -0.024794   0.459521
    31  H    0.000000   0.000000   0.000000   0.000000  -0.023834  -0.026776
    32  H    0.000000   0.000000   0.000000   0.000000  -0.000077   0.000195
    33  H    0.000000   0.000000   0.000000   0.000000   0.000310   0.001939
    34  H    0.000000   0.000000   0.000000   0.000000   0.000004  -0.000023
    35  H    0.000000   0.000000   0.000000   0.000000  -0.000005   0.000053
    36  H    0.000000   0.000000   0.000000   0.000000  -0.000001   0.000008
    37  C    0.000062   0.000001   0.000110  -0.000029  -0.000549  -0.000266
    38  C    0.000004   0.000008   0.000898  -0.000055  -0.000126   0.000011
    39  C    0.000040   0.000003   0.000961  -0.000016   0.000016  -0.000001
    40  H   -0.000001   0.000000   0.000005   0.000001   0.000028  -0.000063
    41  H   -0.000003   0.000000   0.000006   0.000000   0.000448   0.000219
    42  H    0.000001  -0.000001  -0.000010  -0.000023   0.000001   0.000001
    43  H   -0.000006   0.000000   0.000024   0.000001  -0.000001   0.000000
    44  H    0.000077   0.000000   0.000005  -0.000002   0.000018   0.000000
              31         32         33         34         35         36
     1  C   -0.005253  -0.042415  -0.038916  -0.011293  -0.004403   0.008385
     2  C   -0.038047  -0.007171  -0.005378   0.000428  -0.000078  -0.000257
     3  C   -0.009524  -0.000926  -0.000130  -0.000061  -0.000003   0.000012
     4  C   -0.000133   0.000256   0.000097   0.000345  -0.000002  -0.000001
     5  C    0.000010  -0.000289   0.000007   0.000619  -0.000103   0.000008
     6  H    0.005422   0.007862   0.000118   0.000311   0.005069  -0.000291
     7  H    0.007458   0.006143   0.000096   0.000008   0.000017  -0.000038
     8  H   -0.000007   0.000219  -0.000001  -0.000013   0.000001  -0.000001
     9  H    0.000013   0.000007  -0.000002  -0.000007   0.000000   0.000000
    10  O    0.000028   0.002661   0.003245   0.012011  -0.000344  -0.000146
    11  O    0.000001  -0.000054   0.000007   0.000144  -0.000002   0.000000
    12  C   -0.000259   0.387198   0.388809  -0.038406  -0.042694  -0.038417
    13  C   -0.000099  -0.043877  -0.039133   0.386044   0.385890   0.392552
    14  C    0.385304   0.001236   0.000791  -0.000075   0.000059  -0.000001
    15  O   -0.000047  -0.000006  -0.000006   0.000000   0.000000   0.000000
    16  Si  -0.000172  -0.000144  -0.000020   0.000003  -0.000001  -0.000001
    17  C    0.000000   0.000001   0.000000   0.000000   0.000000   0.000000
    18  C    0.000012   0.000049  -0.000002   0.000000   0.000000   0.000000
    19  C    0.000002   0.000000   0.000000   0.000000   0.000000   0.000000
    20  H    0.000000  -0.000003   0.000000   0.000000   0.000000   0.000000
    21  H   -0.000009   0.000045  -0.000002   0.000000   0.000000   0.000000
    22  H   -0.000008   0.000016   0.000002   0.000000   0.000000   0.000000
    23  H    0.000000   0.000000   0.000000   0.000000   0.000000   0.000000
    24  H   -0.000009   0.000000   0.000000   0.000000   0.000000   0.000000
    25  H    0.000000   0.000000   0.000000   0.000000   0.000000   0.000000
    26  H    0.000000   0.000000   0.000000   0.000000   0.000000   0.000000
    27  H    0.000000   0.000000   0.000000   0.000000   0.000000   0.000000
    28  H    0.000000   0.000000   0.000000   0.000000   0.000000   0.000000
    29  H   -0.023834  -0.000077   0.000310   0.000004  -0.000005  -0.000001
    30  H   -0.026776   0.000195   0.001939  -0.000023   0.000053   0.000008
    31  H    0.468923   0.000012   0.000263   0.000004  -0.000020   0.000001
    32  H    0.000012   0.484432  -0.024649  -0.004816   0.007371  -0.004698
    33  H    0.000263  -0.024649   0.470580   0.007165  -0.004498  -0.005587
    34  H    0.000004  -0.004816   0.007165   0.462870  -0.026934  -0.026575
    35  H   -0.000020   0.007371  -0.004498  -0.026934   0.484879  -0.026909
    36  H    0.000001  -0.004698  -0.005587  -0.026575  -0.026909   0.473816
    37  C    0.004104   0.000025   0.000002  -0.000001  -0.000017   0.000000
    38  C    0.000216   0.000001   0.000000   0.000000   0.000000   0.000000
    39  C    0.000001   0.000000   0.000000   0.000000   0.000000   0.000000
    40  H   -0.000158  -0.000037  -0.000009  -0.000001  -0.000028   0.000002
    41  H    0.000064   0.000002  -0.000008   0.000000   0.000001   0.000000
    42  H   -0.000002   0.000001   0.000000   0.000000   0.000000   0.000000
    43  H    0.000000   0.000000   0.000000   0.000000   0.000000   0.000000
    44  H   -0.000006   0.000000   0.000000   0.000000   0.000000   0.000000
              37         38         39         40         41         42
     1  C   -0.000852  -0.000666   0.000019   0.003441  -0.000009  -0.000139
     2  C   -0.097615   0.009158  -0.000150  -0.006072  -0.008509  -0.000082
     3  C    0.266034  -0.063751  -0.002979  -0.035210  -0.031590  -0.004080
     4  C   -0.087606  -0.007779   0.000004  -0.001284   0.005808   0.000591
     5  C   -0.008092  -0.000043   0.000139   0.003817  -0.000178   0.001505
     6  H    0.005897   0.000204   0.000002  -0.000732   0.000002   0.000128
     7  H    0.008399  -0.000170  -0.000008  -0.000263  -0.000085   0.000037
     8  H    0.006428   0.000128   0.000016  -0.000077  -0.000130   0.000394
     9  H   -0.008048   0.004952   0.001068   0.000396  -0.000005   0.000850
    10  O   -0.002985  -0.000039  -0.000002   0.001029   0.000043  -0.000100
    11  O    0.000392  -0.000172   0.000017  -0.000234  -0.000007   0.002927
    12  C   -0.000096   0.000002   0.000000   0.000862  -0.000082  -0.000003
    13  C   -0.000016  -0.000001   0.000000  -0.000019   0.000003   0.000000
    14  C   -0.008573  -0.000274   0.000024   0.000853   0.001289  -0.000035
    15  O   -0.071629  -0.001726   0.002981   0.003655   0.000330   0.000033
    16  Si  -0.000850   0.000414   0.001227   0.000221  -0.000237  -0.000289
    17  C   -0.000077  -0.000045  -0.000120   0.000001   0.000024   0.000024
    18  C   -0.000304   0.000007   0.000004   0.000017  -0.000005  -0.000001
    19  C   -0.000006  -0.000040  -0.000060   0.000001  -0.000049   0.000000
    20  H    0.000005   0.000001   0.000000   0.000000   0.000000   0.000000
    21  H   -0.000087   0.000006   0.000001   0.000007  -0.000001  -0.000001
    22  H   -0.000093   0.000003   0.000001   0.000003  -0.000005   0.000000
    23  H    0.000000  -0.000001  -0.000003   0.000000   0.000001   0.000000
    24  H   -0.000014  -0.000002  -0.000011   0.000000  -0.000010   0.000000
    25  H    0.000062   0.000004   0.000040  -0.000001  -0.000003   0.000001
    26  H    0.000001   0.000008   0.000003   0.000000   0.000000  -0.000001
    27  H    0.000110   0.000898   0.000961   0.000005   0.000006  -0.000010
    28  H   -0.000029  -0.000055  -0.000016   0.000001   0.000000  -0.000023
    29  H   -0.000549  -0.000126   0.000016   0.000028   0.000448   0.000001
    30  H   -0.000266   0.000011  -0.000001  -0.000063   0.000219   0.000001
    31  H    0.004104   0.000216   0.000001  -0.000158   0.000064  -0.000002
    32  H    0.000025   0.000001   0.000000  -0.000037   0.000002   0.000001
    33  H    0.000002   0.000000   0.000000  -0.000009  -0.000008   0.000000
    34  H   -0.000001   0.000000   0.000000  -0.000001   0.000000   0.000000
    35  H   -0.000017   0.000000   0.000000  -0.000028   0.000001   0.000000
    36  H    0.000000   0.000000   0.000000   0.000002   0.000000   0.000000
    37  C    5.513366   0.332560  -0.057261   0.379810   0.395496  -0.048416
    38  C    0.332560   5.032770   0.636938  -0.043082  -0.044077   0.394301
    39  C   -0.057261   0.636938   5.126581   0.001963  -0.001052  -0.037396
    40  H    0.379810  -0.043082   0.001963   0.462789  -0.021494  -0.003935
    41  H    0.395496  -0.044077  -0.001052  -0.021494   0.431578   0.004732
    42  H   -0.048416   0.394301  -0.037396  -0.003935   0.004732   0.472883
    43  H    0.006352  -0.038332   0.389800  -0.000333   0.000056  -0.008752
    44  H   -0.009195  -0.039182   0.387793   0.000124   0.005226   0.006231
              43         44
     1  C   -0.000001  -0.000001
     2  C    0.000018  -0.000071
     3  C   -0.000130  -0.000292
     4  C    0.000022   0.000070
     5  C   -0.000013   0.000003
     6  H   -0.000001   0.000004
     7  H   -0.000001   0.000004
     8  H   -0.000007   0.000009
     9  H    0.000016   0.000007
    10  O    0.000000   0.000000
    11  O   -0.000003   0.000001
    12  C    0.000000   0.000000
    13  C    0.000000   0.000000
    14  C    0.000000   0.000002
    15  O    0.000132   0.000845
    16  Si   0.000209  -0.000047
    17  C    0.000003   0.000002
    18  C    0.000000   0.000002
    19  C   -0.000003   0.000033
    20  H    0.000000   0.000000
    21  H    0.000000   0.000000
    22  H    0.000000   0.000000
    23  H    0.000000  -0.000002
    24  H    0.000000  -0.000002
    25  H   -0.000006   0.000077
    26  H    0.000000   0.000000
    27  H    0.000024   0.000005
    28  H    0.000001  -0.000002
    29  H   -0.000001   0.000018
    30  H    0.000000   0.000000
    31  H    0.000000  -0.000006
    32  H    0.000000   0.000000
    33  H    0.000000   0.000000
    34  H    0.000000   0.000000
    35  H    0.000000   0.000000
    36  H    0.000000   0.000000
    37  C    0.006352  -0.009195
    38  C   -0.038332  -0.039182
    39  C    0.389800   0.387793
    40  H   -0.000333   0.000124
    41  H    0.000056   0.005226
    42  H   -0.008752   0.006231
    43  H    0.459712  -0.033902
    44  H   -0.033902   0.461339
 Mulliken charges:
               1
     1  C   -0.025226
     2  C   -0.299909
     3  C    0.174480
     4  C   -0.643537
     5  C    0.474814
     6  H    0.248482
     7  H    0.262360
     8  H    0.281922
     9  H    0.290272
    10  O   -0.323024
    11  O   -0.381951
    12  C   -0.450446
    13  C   -0.660354
    14  C   -0.676760
    15  O   -0.619364
    16  Si   1.420654
    17  C   -1.060973
    18  C   -1.081013
    19  C   -1.042143
    20  H    0.246695
    21  H    0.244713
    22  H    0.245912
    23  H    0.235040
    24  H    0.236407
    25  H    0.239078
    26  H    0.237486
    27  H    0.244644
    28  H    0.241078
    29  H    0.261034
    30  H    0.240722
    31  H    0.232524
    32  H    0.231432
    33  H    0.244911
    34  H    0.238250
    35  H    0.222700
    36  H    0.228140
    37  C   -0.516367
    38  C   -0.173021
    39  C   -0.450542
    40  H    0.254004
    41  H    0.262205
    42  H    0.218624
    43  H    0.225137
    44  H    0.220908
 Sum of Mulliken charges =   0.00000
 Mulliken charges with hydrogens summed into heavy atoms:
               1
     1  C    0.223256
     2  C   -0.037549
     3  C    0.174480
     4  C   -0.071343
     5  C    0.474814
    10  O   -0.323024
    11  O   -0.381951
    12  C    0.025897
    13  C    0.028736
    14  C    0.057520
    15  O   -0.619364
    16  Si   1.420654
    17  C   -0.337764
    18  C   -0.343694
    19  C   -0.331617
    37  C   -0.000157
    38  C    0.045603
    39  C   -0.004496
 Electronic spatial extent (au):  <R**2>=           5479.8829
 Charge=              0.0000 electrons
 Dipole moment (field-independent basis, Debye):
    X=              1.3310    Y=             -3.9375    Z=             -2.6647  Tot=              4.9372
 Quadrupole moment (field-independent basis, Debye-Ang):
   XX=           -122.0536   YY=           -122.0551   ZZ=           -124.0097
   XY=              8.1858   XZ=             11.3428   YZ=             -6.5851
 Traceless Quadrupole moment (field-independent basis, Debye-Ang):
   XX=              0.6525   YY=              0.6510   ZZ=             -1.3035
   XY=              8.1858   XZ=             11.3428   YZ=             -6.5851
 Octapole moment (field-independent basis, Debye-Ang**2):
  XXX=              2.9010  YYY=             -8.9070  ZZZ=            -12.8971  XYY=             13.3239
  XXY=            -22.7325  XXZ=            -16.7614  XZZ=              8.8574  YZZ=            -20.6345
  YYZ=            -11.1581  XYZ=              8.6758
 Hexadecapole moment (field-independent basis, Debye-Ang**3):
 XXXX=          -4344.2882 YYYY=          -1989.8685 ZZZZ=          -1218.2965 XXXY=             44.7054
 XXXZ=             66.4674 YYYX=             58.9486 YYYZ=             24.7156 ZZZX=              3.7967
 ZZZY=            -26.9120 XXYY=          -1016.6728 XXZZ=           -944.1635 YYZZ=           -577.8192
 XXYZ=            -61.1104 YYXZ=             28.8357 ZZXY=             31.3613
 N-N= 1.629809573128D+03 E-N=-5.754640846768D+03  KE= 1.060531971376D+03
 1\1\GINC-SWANNODE-0-8\SP\RmPW1PW91\6-311G(d)\C14H26O3Si1\AH809\08-Mar-
 2018\0\\#mPW1PW91/6-311g(d) nmr=(giao) scrf=(solvent=chloroform)\\P_ng
 _2ginp009\\0,1\C,0,0.060381,0.249617,1.005106\C,0,-0.907133,1.306616,0
 .438014\C,0,-2.141218,1.48543,1.368881\C,0,-1.604066,1.85811,2.752054\
 C,0,-0.672435,0.823529,3.298045\H,0,-0.324367,-0.755586,0.793676\H,0,-
 0.37483,2.266233,0.418232\H,0,-1.039321,2.796605,2.733187\H,0,-2.42118
 5,2.010356,3.465533\O,0,0.234978,0.315437,2.440607\O,0,-0.655518,0.532
 752,4.489338\C,0,1.464481,0.353258,0.380069\C,0,2.409122,-0.736474,0.8
 75073\C,0,-1.283693,0.999977,-1.020275\O,0,-3.038357,2.456492,0.787379
 \Si,0,-3.036292,4.121053,0.916896\C,0,-3.560003,4.69336,2.62766\C,0,-1
 .373929,4.883844,0.497482\C,0,-4.293529,4.820924,-0.312247\H,0,-1.4438
 67,5.975862,0.499647\H,0,-0.60883,4.595223,1.223047\H,0,-1.044281,4.56
 7132,-0.496434\H,0,-4.322166,5.912591,-0.250338\H,0,-4.024168,4.536448
 ,-1.333509\H,0,-5.292918,4.432931,-0.095174\H,0,-3.729693,5.774333,2.6
 32953\H,0,-4.488728,4.20011,2.929285\H,0,-2.793385,4.471054,3.374468\H
 ,0,-2.024469,1.70759,-1.404474\H,0,-0.411073,1.074991,-1.676176\H,0,-1
 .690924,-0.010264,-1.127735\H,0,1.906422,1.325508,0.630003\H,0,1.40842
 4,0.286477,-0.710702\H,0,2.582502,-0.658994,1.952783\H,0,2.005352,-1.7
 30942,0.660301\H,0,3.378667,-0.648795,0.374335\C,0,-2.997105,0.170456,
 1.433401\C,0,-4.137102,0.197822,2.424066\C,0,-5.427454,0.294681,2.0792
 9\H,0,-2.377963,-0.695801,1.690009\H,0,-3.413439,-0.033848,0.438219\H,
 0,-3.88493,0.106134,3.479163\H,0,-6.206736,0.297253,2.835166\H,0,-5.73
 4426,0.384585,1.041676\\Version=EM64L-G09RevD.01\State=1-A\HF=-1064.37
 64262\RMSD=3.166e-09\Dipole=0.0600666,0.6888268,-1.815223\Quadrupole=2
 .5535923,3.9743591,-6.5279514,1.3360131,-7.2779982,6.7534526\PG=C01 [X
 (C14H26O3Si1)]\\@


 Make no judgements where you have no compassion.
                               -- Anne McCaffrey
 Job cpu time:       0 days  1 hours 17 minutes 42.6 seconds.
 File lengths (MBytes):  RWF=    239 Int=      0 D2E=      0 Chk=     11 Scr=      1
 Normal termination of Gaussian 09 at Thu Mar  8 13:23:35 2018.
