 Entering Gaussian System, Link 0=/usr/local/shared/gaussian/em64t/09-D01/g09/g09
 Initial command:
 /usr/local/shared/gaussian/em64t/09-D01/g09/l1.exe "/scratch/ah809/P_ng_4ginp004/Gau-30389.inp" -scrdir="/scratch/ah809/P_ng_4ginp004/"
 Entering Link 1 = /usr/local/shared/gaussian/em64t/09-D01/g09/l1.exe PID=     30410.
  
 Copyright (c) 1988,1990,1992,1993,1995,1998,2003,2009,2013,
            Gaussian, Inc.  All Rights Reserved.
  
 This is part of the Gaussian(R) 09 program.  It is based on
 the Gaussian(R) 03 system (copyright 2003, Gaussian, Inc.),
 the Gaussian(R) 98 system (copyright 1998, Gaussian, Inc.),
 the Gaussian(R) 94 system (copyright 1995, Gaussian, Inc.),
 the Gaussian 92(TM) system (copyright 1992, Gaussian, Inc.),
 the Gaussian 90(TM) system (copyright 1990, Gaussian, Inc.),
 the Gaussian 88(TM) system (copyright 1988, Gaussian, Inc.),
 the Gaussian 86(TM) system (copyright 1986, Carnegie Mellon
 University), and the Gaussian 82(TM) system (copyright 1983,
 Carnegie Mellon University). Gaussian is a federally registered
 trademark of Gaussian, Inc.
  
 This software contains proprietary and confidential information,
 including trade secrets, belonging to Gaussian, Inc.
  
 This software is provided under written license and may be
 used, copied, transmitted, or stored only in accord with that
 written license.
  
 The following legend is applicable only to US Government
 contracts under FAR:
  
                    RESTRICTED RIGHTS LEGEND
  
 Use, reproduction and disclosure by the US Government is
 subject to restrictions as set forth in subparagraphs (a)
 and (c) of the Commercial Computer Software - Restricted
 Rights clause in FAR 52.227-19.
  
 Gaussian, Inc.
 340 Quinnipiac St., Bldg. 40, Wallingford CT 06492
  
  
 ---------------------------------------------------------------
 Warning -- This program may not be used in any manner that
 competes with the business of Gaussian, Inc. or will provide
 assistance to any competitor of Gaussian, Inc.  The licensee
 of this program is prohibited from giving any competitor of
 Gaussian, Inc. access to this program.  By using this program,
 the user acknowledges that Gaussian, Inc. is engaged in the
 business of creating and licensing software in the field of
 computational chemistry and represents and warrants to the
 licensee that it is not a competitor of Gaussian, Inc. and that
 it will not use this program in any manner prohibited above.
 ---------------------------------------------------------------
  

 Cite this work as:
 Gaussian 09, Revision D.01,
 M. J. Frisch, G. W. Trucks, H. B. Schlegel, G. E. Scuseria, 
 M. A. Robb, J. R. Cheeseman, G. Scalmani, V. Barone, B. Mennucci, 
 G. A. Petersson, H. Nakatsuji, M. Caricato, X. Li, H. P. Hratchian, 
 A. F. Izmaylov, J. Bloino, G. Zheng, J. L. Sonnenberg, M. Hada, 
 M. Ehara, K. Toyota, R. Fukuda, J. Hasegawa, M. Ishida, T. Nakajima, 
 Y. Honda, O. Kitao, H. Nakai, T. Vreven, J. A. Montgomery, Jr., 
 J. E. Peralta, F. Ogliaro, M. Bearpark, J. J. Heyd, E. Brothers, 
 K. N. Kudin, V. N. Staroverov, T. Keith, R. Kobayashi, J. Normand, 
 K. Raghavachari, A. Rendell, J. C. Burant, S. S. Iyengar, J. Tomasi, 
 M. Cossi, N. Rega, J. M. Millam, M. Klene, J. E. Knox, J. B. Cross, 
 V. Bakken, C. Adamo, J. Jaramillo, R. Gomperts, R. E. Stratmann, 
 O. Yazyev, A. J. Austin, R. Cammi, C. Pomelli, J. W. Ochterski, 
 R. L. Martin, K. Morokuma, V. G. Zakrzewski, G. A. Voth, 
 P. Salvador, J. J. Dannenberg, S. Dapprich, A. D. Daniels, 
 O. Farkas, J. B. Foresman, J. V. Ortiz, J. Cioslowski, 
 and D. J. Fox, Gaussian, Inc., Wallingford CT, 2013.
 
 ******************************************
 Gaussian 09:  EM64L-G09RevD.01 24-Apr-2013
                 8-Mar-2018 
 ******************************************
 %mem=6000MB
 %chk=P_ng_4ginp004.chk
 --------------------------------------------------------
 #mPW1PW91/6-311g(d) nmr=(giao) scrf=(solvent=chloroform)
 --------------------------------------------------------
 1/38=1/1;
 2/12=2,17=6,18=5,40=1/2;
 3/5=4,6=6,7=1,11=2,16=1,25=1,30=1,70=2201,72=7,74=-7/1,2,8,3;
 4//1;
 5/5=2,38=5,53=7/2;
 8/6=1,10=90,11=11/1;
 10/13=100,45=16/2;
 6/7=2,8=2,9=2,10=2,28=1/1;
 99/9=1/99;
 -------------
 P_ng_4ginp004
 -------------
 Symbolic Z-matrix:
 Charge =  0 Multiplicity = 1
 C                     0.0933    2.07963  -0.46894 
 C                    -0.16446   1.31392   0.83382 
 C                    -1.16667   2.13164   1.71592 
 C                    -0.54124   3.5092    1.9702 
 C                     0.06504   4.18466   0.76887 
 H                    -0.83926   2.19929  -1.03062 
 H                    -0.61523   0.34034   0.60528 
 H                    -1.30435   4.195     2.35335 
 H                     0.23901   3.44738   2.73832 
 O                     0.58119   3.41179  -0.20786 
 O                     0.18141   5.40678   0.727 
 C                     1.09283   1.42853  -1.43831 
 C                     0.67972   0.04152  -1.90283 
 C                     1.14852   0.9907    1.58021 
 O                    -1.28058   1.3679    2.93799 
 Si                   -2.18838   1.67608   4.30855 
 C                    -1.32584   0.87087   5.78898 
 C                    -2.40837   3.48973   4.72223 
 C                    -3.89683   0.89453   4.17588 
 H                    -2.94121   3.59998   5.67192 
 H                    -1.44103   3.99028   4.82219 
 H                    -2.99243   4.00342   3.95362 
 H                    -4.43065   0.98145   5.12696 
 H                    -4.49466   1.38799   3.40497 
 H                    -3.8139   -0.16678   3.92434 
 H                    -1.90665   1.02874   6.70228 
 H                    -1.21768  -0.20527   5.62586 
 H                    -0.33097   1.30343   5.92881 
 H                     1.76974   0.30382   0.99673 
 H                     1.74412   1.88694   1.7778 
 H                     0.95808   0.49283   2.53599 
 H                     2.0962    1.39678  -0.99788 
 H                     1.19426   2.07768  -2.31823 
 H                     1.37734  -0.32253  -2.66392 
 H                     0.68412  -0.67801  -1.07925 
 H                    -0.3223    0.05773  -2.34306 
 C                    -2.55996   2.3082    1.0178 
 C                    -3.18809   1.02905   0.52586 
 C                    -3.60821   0.83018  -0.73001 
 H                    -2.47831   3.02111   0.18801 
 H                    -3.26967   2.76589   1.71643 
 H                    -3.30565   0.22515   1.25038 
 H                    -4.05716  -0.11557  -1.02014 
 H                    -3.52565   1.59731  -1.49383 
 
                          Input orientation:                          
 ---------------------------------------------------------------------
 Center     Atomic      Atomic             Coordinates (Angstroms)
 Number     Number       Type             X           Y           Z
 ---------------------------------------------------------------------
      1          6           0        0.093299    2.079633   -0.468939
      2          6           0       -0.164461    1.313921    0.833819
      3          6           0       -1.166667    2.131635    1.715921
      4          6           0       -0.541243    3.509204    1.970200
      5          6           0        0.065039    4.184665    0.768868
      6          1           0       -0.839255    2.199292   -1.030621
      7          1           0       -0.615234    0.340336    0.605281
      8          1           0       -1.304354    4.194995    2.353348
      9          1           0        0.239007    3.447379    2.738322
     10          8           0        0.581190    3.411790   -0.207855
     11          8           0        0.181409    5.406778    0.726995
     12          6           0        1.092834    1.428530   -1.438313
     13          6           0        0.679724    0.041524   -1.902834
     14          6           0        1.148519    0.990704    1.580210
     15          8           0       -1.280576    1.367897    2.937993
     16         14           0       -2.188383    1.676075    4.308554
     17          6           0       -1.325837    0.870874    5.788984
     18          6           0       -2.408368    3.489732    4.722227
     19          6           0       -3.896834    0.894534    4.175884
     20          1           0       -2.941211    3.599981    5.671921
     21          1           0       -1.441027    3.990282    4.822194
     22          1           0       -2.992430    4.003418    3.953615
     23          1           0       -4.430647    0.981445    5.126961
     24          1           0       -4.494664    1.387985    3.404965
     25          1           0       -3.813895   -0.166782    3.924340
     26          1           0       -1.906650    1.028741    6.702279
     27          1           0       -1.217682   -0.205271    5.625863
     28          1           0       -0.330965    1.303431    5.928813
     29          1           0        1.769744    0.303818    0.996734
     30          1           0        1.744123    1.886943    1.777800
     31          1           0        0.958080    0.492825    2.535992
     32          1           0        2.096196    1.396776   -0.997880
     33          1           0        1.194263    2.077675   -2.318228
     34          1           0        1.377337   -0.322529   -2.663917
     35          1           0        0.684116   -0.678010   -1.079254
     36          1           0       -0.322299    0.057728   -2.343061
     37          6           0       -2.559959    2.308200    1.017800
     38          6           0       -3.188087    1.029051    0.525858
     39          6           0       -3.608211    0.830184   -0.730011
     40          1           0       -2.478312    3.021106    0.188010
     41          1           0       -3.269666    2.765889    1.716434
     42          1           0       -3.305648    0.225147    1.250382
     43          1           0       -4.057157   -0.115568   -1.020136
     44          1           0       -3.525649    1.597311   -1.493833
 ---------------------------------------------------------------------
                    Distance matrix (angstroms):
                    1          2          3          4          5
     1  C    0.000000
     2  C    1.532949   0.000000
     3  C    2.522664   1.565624   0.000000
     4  C    2.897536   2.500519   1.534115   0.000000
     5  C    2.442156   2.880635   2.574673   1.505664   0.000000
     6  H    1.095199   2.171489   2.766816   3.287797   2.828005
     7  H    2.163590   1.096947   2.178612   3.451116   3.907480
     8  H    3.793876   3.450929   2.163961   1.095194   2.094259
     9  H    3.489768   2.888176   2.180001   1.096642   2.110120
    10  O    1.442513   2.458075   2.897363   2.452197   1.348234
    11  O    3.536653   4.108834   3.677206   2.380876   1.228355
    12  C    1.537105   2.599329   3.943209   4.314785   3.677539
    13  C    2.560046   3.133833   4.568710   5.340033   4.968043
    14  C    2.549170   1.544502   2.584614   3.057815   3.468947
    15  O    3.741829   2.382472   1.445590   2.463419   3.801311
    16  Si   5.309743   4.037474   2.823683   3.397254   4.888794
    17  C    6.529674   5.108693   4.266696   4.707386   6.173922
    18  C    5.932531   4.988887   3.524787   3.325686   4.714841
    19  C    6.236987   5.027514   3.877583   4.791819   6.174881
    20  H    7.016400   6.028569   4.577661   4.412576   5.780945
    21  H    5.831023   4.969876   3.630258   3.029013   4.328449
    22  H    5.725527   4.996392   3.441549   3.191630   4.418550
    23  H    7.279162   6.061514   4.859187   5.610897   7.033121
    24  H    6.044412   5.036560   3.805450   4.710378   5.963331
    25  H    6.293921   5.006213   4.143386   5.295450   6.628591
    26  H    7.518679   6.128244   5.160205   5.514490   7.003769
    27  H    6.639734   5.136234   4.555368   5.255356   6.671380
    28  H    6.458616   5.097725   4.374103   4.536548   5.923121
    29  H    2.848190   2.188150   3.532797   4.069742   4.244869
    30  H    2.794671   2.205028   2.921712   2.809207   3.019403
    31  H    3.506482   2.198111   2.805845   3.415645   4.189264
    32  H    2.181208   2.910766   4.307088   4.497548   3.875477
    33  H    2.152207   3.516369   4.674533   4.842713   3.904448
    34  H    3.498152   4.158036   5.628309   6.311748   5.815577
    35  H    2.885506   2.889242   4.374072   5.322916   5.238742
    36  H    2.788038   3.419868   4.635664   5.528548   5.183217
    37  C    3.049986   2.600164   1.568378   2.534697   3.236310
    38  C    3.586201   3.052590   2.591926   3.904237   4.538698
    39  C    3.915413   3.813001   3.692898   4.886162   5.195377
    40  H    2.816227   2.947110   2.201382   2.677065   2.856554
    41  H    4.068948   3.539706   2.196562   2.839226   3.745806
    42  H    4.236511   3.350524   2.902871   4.352597   5.222181
    43  H    4.727474   4.542430   4.570652   5.868793   6.219730
    44  H    3.792074   4.098275   4.019057   4.955960   4.970639
                    6          7          8          9         10
     6  H    0.000000
     7  H    2.486379   0.000000
     8  H    3.956058   4.288242   0.000000
     9  H    4.114037   3.864364   1.757583   0.000000
    10  O    2.040774   3.395063   3.275431   2.966195   0.000000
    11  O    3.797227   5.130135   2.514147   2.808558   2.239140
    12  C    2.119730   2.877141   5.270345   4.716890   2.389378
    13  C    2.779211   2.838458   6.269208   5.773596   3.773772
    14  C    3.496908   2.117614   4.108748   2.864208   3.062792
    15  O    4.078710   2.634408   2.887015   2.583263   4.188082
    16  Si   5.531789   4.239484   3.308972   3.390482   5.575051
    17  C    6.964802   5.259012   4.780569   4.288782   6.786390
    18  C    6.101034   5.484822   2.706997   3.308514   5.766215
    19  C    6.177287   4.881111   4.575547   5.068410   6.753254
    20  H    7.162696   6.458041   3.747835   4.329328   6.856711
    21  H    6.150221   5.637942   2.481086   2.731260   5.452101
    22  H    5.721332   5.502778   2.333914   3.496899   5.517120
    23  H    7.231671   5.950965   5.271958   5.795869   7.712675
    24  H    5.804710   4.897528   4.377589   5.205109   6.550767
    25  H    6.244872   4.637322   5.271708   5.558310   7.014128
    26  H    7.893495   6.270171   5.413051   5.115331   7.721284
    27  H    7.087588   5.085949   5.484451   4.878697   7.095868
    28  H    7.035243   5.417412   4.700274   3.885951   6.552549
    29  H    3.809182   2.417166   5.141181   3.906182   3.538811
    30  H    3.828659   3.055055   3.866726   2.371273   2.760507
    31  H    4.343175   2.495238   4.342583   3.047522   4.023816
    32  H    3.043350   3.322355   5.533941   4.649014   2.641905
    33  H    2.409962   3.852211   5.705239   5.325157   2.570874
    34  H    3.733700   3.885535   7.264464   6.685222   4.539959
    35  H    3.256055   2.358601   6.283546   5.638337   4.182869
    36  H    2.564379   2.976306   6.335430   6.133943   4.077392
    37  C    2.677445   2.797252   2.630633   3.477375   3.547810
    38  C    3.051082   2.664622   4.112344   4.742181   4.519207
    39  C    3.103537   3.313739   5.112418   5.803458   4.948577
    40  H    2.201578   3.291155   2.728531   3.750950   3.109646
    41  H    3.711366   3.763506   2.512062   3.717455   4.353064
    42  H    3.896578   2.769070   4.580546   5.016106   5.233417
    43  H    3.964036   3.833623   6.126930   6.728865   5.883563
    44  H    2.791713   3.802207   5.146155   5.958735   4.670353
                   11         12         13         14         15
    11  O    0.000000
    12  C    4.620142   0.000000
    13  C    5.995854   1.519943   0.000000
    14  C    4.600542   3.050619   3.640372   0.000000
    15  O    4.830991   4.978836   5.388474   2.808265   0.000000
    16  Si   5.688728   6.622246   7.034141   4.364460   1.672580
    17  C    6.962036   7.641647   7.992131   4.883705   2.894345
    18  C    5.132630   7.379649   8.081948   5.363661   2.992923
    19  C    6.991942   7.530016   7.656587   5.674712   2.932789
    20  H    6.121075   8.458377   9.118701   6.346362   3.900547
    21  H    4.627031   7.223363   8.081849   5.119929   3.233088
    22  H    4.738539   7.238254   7.967391   5.644197   3.302711
    23  H    7.759790   8.591365   8.741702   6.611098   3.855369
    24  H    6.722193   7.394533   7.533922   5.944163   3.247896
    25  H    7.566376   7.441711   7.361519   5.608946   3.121830
    26  H    7.696182   8.684813   9.039463   5.964151   3.831037
    27  H    7.579674   7.609886   7.768033   4.837000   3.115037
    28  H    6.645216   7.504492   7.996787   4.604022   3.138618
    29  H    5.351240   2.766340   3.108768   1.094613   3.768979
    30  H    3.991930   3.313262   4.252715   1.094089   3.280893
    31  H    5.293640   4.085193   4.470384   1.094381   2.436993
    32  H    4.766730   1.096232   2.159176   2.776605   5.185993
    33  H    4.624087   1.098147   2.140844   4.047396   5.852903
    34  H    6.764132   2.156213   1.094736   4.448545   6.426775
    35  H    6.367095   2.175657   1.093633   3.173803   4.917725
    36  H    6.187997   2.168010   1.094583   4.292529   5.524886
    37  C    4.147391   4.488787   4.915635   3.975539   2.491612
    38  C    5.527970   4.726927   4.672656   4.463102   3.093834
    39  C    6.117949   4.791611   4.514852   5.290498   4.377359
    40  H    3.613316   4.234892   4.818997   4.383453   3.424920
    41  H    4.456815   5.547284   6.009904   4.763423   2.720858
    42  H    6.267599   5.293756   5.085241   4.531497   2.873121
    43  H    7.177340   5.392728   4.820983   5.923234   5.057357
    44  H    5.760763   4.621899   4.502546   5.627216   4.973335
                   16         17         18         19         20
    16  Si   0.000000
    17  C    1.893147   0.000000
    18  C    1.873198   3.027914   0.000000
    19  C    1.883404   3.035239   3.041229   0.000000
    20  H    2.475264   3.173509   1.094530   3.235859   0.000000
    21  H    2.485542   3.267822   1.093751   4.004043   1.767745
    22  H    2.487770   3.994865   1.093511   3.245383   1.765775
    23  H    2.485970   3.176530   3.247295   1.094101   3.061394
    24  H    2.493672   3.999052   3.241165   1.093257   3.527780
    25  H    2.487173   3.277813   3.997777   1.093867   4.243126
    26  H    2.495663   1.093789   3.198250   3.218931   2.956895
    27  H    2.493397   1.093798   3.985892   3.238806   4.177633
    28  H    2.492811   1.093814   3.248286   3.994418   3.486190
    29  H    5.340226   5.733222   6.440960   6.524266   7.410476
    30  H    4.681216   5.152344   5.336831   6.209354   6.328588
    31  H    3.800301   3.992638   5.009396   5.140117   5.890071
    32  H    6.825970   7.618950   7.575697   7.933252   8.643832
    33  H    7.451028   8.575206   8.033733   8.336221   9.124804
    34  H    8.082334   8.954490   9.133456   8.722442  10.174583
    35  H    6.543809   7.321997   7.784004   7.146641   8.776250
    36  H    7.095442   8.233981   8.127031   7.481590   9.145829
    37  C    3.371456   5.133533   3.891244   3.709337   4.845090
    38  C    3.965708   5.585113   4.926705   3.720633   5.757829
    39  C    5.302696   6.907111   6.183827   4.914799   7.007239
    40  H    4.344197   6.109223   4.558906   4.736840   5.533774
    41  H    3.012632   4.894407   3.209451   3.153443   4.055795
    42  H    3.564532   4.993548   4.849364   3.058781   5.574256
    43  H    5.924292   7.402519   6.977924   5.295718   7.735261
    44  H    5.955013   7.642402   6.593101   5.725152   7.463262
                   21         22         23         24         25
    21  H    0.000000
    22  H    1.778048   0.000000
    23  H    4.252506   3.546481   0.000000
    24  H    4.255019   3.065651   1.770492   0.000000
    25  H    4.870095   4.250439   1.773445   1.774964   0.000000
    26  H    3.538679   4.193182   2.975639   4.207036   3.575445
    27  H    4.277667   4.864073   3.461263   4.267255   3.104349
    28  H    3.110629   4.274896   4.189753   4.869635   4.279047
    29  H    6.207513   6.716285   7.480829   6.798368   6.322133
    30  H    4.882371   5.625706   7.082697   6.466768   6.302141
    31  H    4.818157   5.471786   5.999187   5.593643   5.013416
    32  H    7.287762   7.563465   8.960238   7.926194   7.848703
    33  H    7.847831   7.782859   9.395327   8.099043   8.311973
    34  H    9.087649   9.033295   9.804632   8.616123   8.389176
    35  H    7.818969   7.795032   8.211680   7.155160   6.747548
    36  H    8.249692   7.895961   8.575139   7.226203   7.177880
    37  C    4.307531   3.417573   4.705843   3.207559   4.018192
    38  C    5.502691   4.542539   4.766169   3.182017   3.656683
    39  C    6.746102   5.690778   5.916367   4.265556   4.764371
    40  H    4.846744   3.925434   5.689030   4.132984   5.089850
    41  H    3.806416   2.571637   4.020424   2.500075   3.711010
    42  H    5.514607   4.656276   4.106760   2.721797   2.749904
    43  H    7.604930   6.545066   6.255376   4.693996   4.950721
    44  H    7.068533   5.978993   6.710680   4.998103   5.705410
                   26         27         28         29         30
    26  H    0.000000
    27  H    1.776551   0.000000
    28  H    1.776651   1.776014   0.000000
    29  H    6.826026   5.532876   5.453220   0.000000
    30  H    6.189923   5.287460   4.677327   1.765504   0.000000
    31  H    5.084470   3.842991   3.718865   1.750382   1.770956
    32  H    8.686235   7.577751   7.340225   2.297741   2.840531
    33  H    9.596117   8.610337   8.422557   3.803514   4.137169
    34  H   10.016792   8.687251   8.910502   3.734523   4.974450
    35  H    8.377191   6.985622   7.353197   2.540138   3.983134
    36  H    9.234241   8.023380   8.365151   3.948599   4.959599
    37  C    5.863201   5.417886   5.485984   4.771197   4.390920
    38  C    6.307952   5.605006   6.118035   5.032671   5.160430
    39  C    7.627167   6.869056   7.436682   5.672840   6.004443
    40  H    6.836082   6.447398   6.365401   5.107217   4.652173
    41  H    5.452903   5.321848   5.340307   5.654681   5.090618
    42  H    5.685608   4.867206   5.647933   5.082335   5.342277
    43  H    8.097519   7.227722   8.011614   6.180326   6.744876
    44  H    8.373809   7.698447   8.086287   5.993099   6.209506
                   31         32         33         34         35
    31  H    0.000000
    32  H    3.821084   0.000000
    33  H    5.111847   1.737937   0.000000
    34  H    5.280117   2.499689   2.431871   0.000000
    35  H    3.809976   2.511041   3.064165   1.765808   0.000000
    36  H    5.062987   3.074358   2.526017   1.770962   1.775215
    37  C    4.239940   5.154943   5.027565   5.998173   4.882531
    38  C    4.638844   5.511864   5.328548   5.731015   4.525969
    39  C    5.624198   5.738732   5.209839   5.470323   4.562970
    40  H    4.869704   4.997090   4.545228   5.846316   5.028953
    41  H    4.869531   6.167207   6.056302   7.093690   5.942113
    42  H    4.461370   5.967187   6.034570   6.127971   4.707559
    43  H    6.178090   6.336516   5.837189   5.681424   4.774883
    44  H    6.128883   5.647240   4.815386   5.393900   4.803237
                   36         37         38         39         40
    36  H    0.000000
    37  C    4.622460   0.000000
    38  C    4.169761   1.507572   0.000000
    39  C    3.741101   2.517580   1.339126   0.000000
    40  H    4.453799   1.097020   2.141543   2.630508   0.000000
    41  H    5.700930   1.096017   2.107305   3.137939   1.739959
    42  H    4.673460   2.224692   1.088585   2.092742   3.103306
    43  H    3.966021   3.502776   2.110813   1.086357   3.713636
    44  H    3.654170   2.783203   2.125093   1.085691   2.439816
                   41         42         43         44
    41  H    0.000000
    42  H    2.583383   0.000000
    43  H    4.051142   2.415803   0.000000
    44  H    3.425918   3.076028   1.854951   0.000000
 Stoichiometry    C14H26O3Si
 Framework group  C1[X(C14H26O3Si)]
 Deg. of freedom   126
 Full point group                 C1      NOp   1
 Largest Abelian subgroup         C1      NOp   1
 Largest concise Abelian subgroup C1      NOp   1
                         Standard orientation:                         
 ---------------------------------------------------------------------
 Center     Atomic      Atomic             Coordinates (Angstroms)
 Number     Number       Type             X           Y           Z
 ---------------------------------------------------------------------
      1          6           0       -2.440519   -0.073327    0.045826
      2          6           0       -1.145557    0.260143    0.795363
      3          6           0        0.076757   -0.090180   -0.118092
      4          6           0       -0.019915   -1.580636   -0.468384
      5          6           0       -1.382439   -2.068353   -0.883938
      6          1           0       -2.514411    0.523181   -0.869695
      7          1           0       -1.116578    1.333412    1.020191
      8          1           0        0.652945   -1.807300   -1.302249
      9          1           0        0.305726   -2.201293    0.375042
     10          8           0       -2.466857   -1.454651   -0.369018
     11          8           0       -1.504481   -3.065567   -1.590709
     12          6           0       -3.743399    0.176449    0.822233
     13          6           0       -3.930641    1.621573    1.254415
     14          6           0       -1.076992   -0.446257    2.167143
     15          8           0        1.233990    0.187058    0.702690
     16         14           0        2.859881    0.028210    0.343846
     17          6           0        3.799468   -0.282335    1.957768
     18          6           0        3.281555   -1.381153   -0.815790
     19          6           0        3.546285    1.619097   -0.394493
     20          1           0        4.366680   -1.464507   -0.932198
     21          1           0        2.913481   -2.334500   -0.425991
     22          1           0        2.853809   -1.218561   -1.808949
     23          1           0        4.633684    1.553914   -0.496334
     24          1           0        3.123330    1.805676   -1.385203
     25          1           0        3.312136    2.472082    0.249040
     26          1           0        4.873059   -0.364777    1.765468
     27          1           0        3.632655    0.540911    2.658362
     28          1           0        3.455908   -1.210587    2.423326
     29          1           0       -1.862612   -0.078481    2.834765
     30          1           0       -1.197937   -1.530255    2.081395
     31          1           0       -0.127963   -0.250312    2.675689
     32          1           0       -3.811947   -0.489874    1.690011
     33          1           0       -4.588092   -0.110704    0.181948
     34          1           0       -4.917357    1.752024    1.710289
     35          1           0       -3.182735    1.922024    1.993603
     36          1           0       -3.862125    2.299126    0.397478
     37          6           0        0.091694    0.759257   -1.436441
     38          6           0       -0.023990    2.248325   -1.231340
     39          6           0       -0.941368    3.021876   -1.825728
     40          1           0       -0.701045    0.418250   -2.113738
     41          1           0        1.026091    0.582291   -1.981269
     42          1           0        0.694089    2.712078   -0.557312
     43          1           0       -0.968638    4.091585   -1.638241
     44          1           0       -1.677337    2.618064   -2.514211
 ---------------------------------------------------------------------
 Rotational constants (GHZ):      0.5148533      0.2617618      0.2324258
 Standard basis: 6-311G(d) (5D, 7F)
 There are   428 symmetry adapted cartesian basis functions of A   symmetry.
 There are   410 symmetry adapted basis functions of A   symmetry.
   410 basis functions,   720 primitive gaussians,   428 cartesian basis functions
    74 alpha electrons       74 beta electrons
       nuclear repulsion energy      1630.2945793840 Hartrees.
 NAtoms=   44 NActive=   44 NUniq=   44 SFac= 1.00D+00 NAtFMM=   60 NAOKFM=F Big=F
 Integral buffers will be    131072 words long.
 Raffenetti 2 integral format.
 Two-electron integral symmetry is turned on.
 ------------------------------------------------------------------------------
 Polarizable Continuum Model (PCM)
 =================================
 Model                : PCM (using non-symmetric T matrix).
 Atomic radii         : UFF (Universal Force Field).
 Polarization charges : Total charges.
 Charge compensation  : None.
 Solution method      : On-the-fly selection.
 Cavity type          : Scaled VdW (van der Waals Surface) (Alpha=1.100).
 Cavity algorithm     : GePol (No added spheres)
                        Default sphere list used, NSphG=   44.
                        Lebedev-Laikov grids with approx.  5.0 points / Ang**2.
                        Smoothing algorithm: Karplus/York (Gamma=1.0000).
                        Polarization charges: spherical gaussians, with
                                              point-specific exponents (IZeta= 3).
                        Self-potential: point-specific (ISelfS= 7).
                        Self-field    : sphere-specific E.n sum rule (ISelfD= 2).
 Solvent              : Chloroform, Eps=   4.711300 Eps(inf)=   2.090627
 ------------------------------------------------------------------------------
 One-electron integrals computed using PRISM.
 NBasis=   410 RedAO= T EigKep=  1.09D-03  NBF=   410
 NBsUse=   410 1.00D-06 EigRej= -1.00D+00 NBFU=   410
 ExpMin= 6.54D-02 ExpMax= 6.94D+04 ExpMxC= 2.33D+03 IAcc=2 IRadAn=         4 AccDes= 0.00D+00
 Harris functional with IExCor=  908 and IRadAn=       4 diagonalized for initial guess.
 HarFok:  IExCor=  908 AccDes= 0.00D+00 IRadAn=         4 IDoV= 1 UseB2=F ITyADJ=14
 ICtDFT=  3500011 ScaDFX=  1.000000  1.000000  1.000000  1.000000
 FoFCou: FMM=F IPFlag=           0 FMFlag=      100000 FMFlg1=           0
         NFxFlg=           0 DoJE=T BraDBF=F KetDBF=T FulRan=T
         wScrn=  0.000000 ICntrl=     500 IOpCl=  0 I1Cent=   200000004 NGrid=           0
         NMat0=    1 NMatS0=      1 NMatT0=    0 NMatD0=    1 NMtDS0=    0 NMtDT0=    0
 Petite list used in FoFCou.
 Requested convergence on RMS density matrix=1.00D-08 within 128 cycles.
 Requested convergence on MAX density matrix=1.00D-06.
 Requested convergence on             energy=1.00D-06.
 No special actions if energy rises.
 Inv3:  Mode=1 IEnd=    23772675.
 Iteration    1 A*A^-1 deviation from unit magnitude is 8.22D-15 for   2424.
 Iteration    1 A*A^-1 deviation from orthogonality  is 6.66D-15 for   2157    827.
 Iteration    1 A^-1*A deviation from unit magnitude is 7.55D-15 for   1811.
 Iteration    1 A^-1*A deviation from orthogonality  is 1.67D-12 for   2093   2072.
 Error on total polarization charges =  0.01105
 SCF Done:  E(RmPW1PW91) =  -1064.37703593     A.U. after   13 cycles
            NFock= 13  Conv=0.31D-08     -V/T= 2.0036
 DoSCS=F DFT=T ScalE2(SS,OS)=  1.000000  1.000000
 Range of M.O.s used for correlation:     1   410
 NBasis=   410 NAE=    74 NBE=    74 NFC=     0 NFV=     0
 NROrb=    410 NOA=    74 NOB=    74 NVA=   336 NVB=   336
 NEqPCM:  Using equilibrium solvation (IEInf=0, Eps=   4.7113, EpsInf=   2.0906)
          Differentiating once with respect to magnetic field using GIAOs.
          Electric field/nuclear overlap derivatives assumed to be zero.
 FoFJK:  IHMeth= 1 ICntrl=    6127 DoSepK=F KAlg= 0 I1Cent=   0 FoldK=F
 IRaf=         1 NMat=   1 IRICut=       1 DoRegI=T DoRafI=F ISym2E= 0.
          There are     3 degrees of freedom in the 1st order CPHF.  IDoFFX=0 NUNeed=     3.
      3 vectors produced by pass  0 Test12= 8.29D-13 3.33D-08 XBig12= 3.76D+01 1.07D+00.
 AX will form     3 AO Fock derivatives at one time.
      3 vectors produced by pass  1 Test12= 8.29D-13 3.33D-08 XBig12= 7.57D-02 1.04D-01.
      3 vectors produced by pass  2 Test12= 8.29D-13 3.33D-08 XBig12= 9.18D-04 1.25D-02.
      3 vectors produced by pass  3 Test12= 8.29D-13 3.33D-08 XBig12= 6.13D-06 8.38D-04.
      3 vectors produced by pass  4 Test12= 8.29D-13 3.33D-08 XBig12= 3.81D-08 5.48D-05.
      3 vectors produced by pass  5 Test12= 8.29D-13 3.33D-08 XBig12= 8.15D-11 1.73D-06.
      1 vectors produced by pass  6 Test12= 8.29D-13 3.33D-08 XBig12= 2.23D-13 1.04D-07.
 InvSVY:  IOpt=1 It=  1 EMax= 8.88D-16
 Solved reduced A of dimension    19 with     3 vectors.
 Calculating GIAO nuclear magnetic shielding tensors.
 SCF GIAO Magnetic shielding tensor (ppm):
      1  C    Isotropic =   107.7427   Anisotropy =    60.0861
   XX=    98.5931   YX=   -10.1695   ZX=    -4.5642
   XY=     0.1836   YY=   141.6799   ZY=    18.9868
   XZ=    -4.6792   YZ=    18.1055   ZZ=    82.9551
   Eigenvalues:    77.1432    98.2848   147.8001
      2  C    Isotropic =   148.2041   Anisotropy =    21.1726
   XX=   161.8356   YX=    -2.3886   ZX=     2.0256
   XY=    -4.0106   YY=   135.9727   ZY=    -5.8784
   XZ=    -6.4492   YZ=   -12.8216   ZZ=   146.8039
   Eigenvalues:   130.1094   152.1837   162.3192
      3  C    Isotropic =   105.3103   Anisotropy =    56.8015
   XX=   131.2844   YX=     7.1804   ZX=    23.0403
   XY=     1.2524   YY=    83.7613   ZY=     2.0432
   XZ=    20.8492   YZ=     2.8352   ZZ=   100.8853
   Eigenvalues:    83.3558    89.3972   143.1780
      4  C    Isotropic =   143.2354   Anisotropy =    37.2859
   XX=   149.9285   YX=    14.7724   ZX=     7.5426
   XY=    11.7160   YY=   149.8343   ZY=     1.5983
   XZ=    14.7639   YZ=    14.9539   ZZ=   129.9434
   Eigenvalues:   124.6916   136.9220   168.0927
      5  C    Isotropic =     8.8598   Anisotropy =    95.7237
   XX=   -76.4891   YX=    20.0619   ZX=    13.5367
   XY=    29.5102   YY=    43.9877   ZY=   -21.2679
   XZ=    26.2338   YZ=   -18.1360   ZZ=    59.0807
   Eigenvalues:   -85.2082    39.1119    72.6756
      6  H    Isotropic =    27.9750   Anisotropy =     2.7333
   XX=    28.9350   YX=    -0.3474   ZX=    -0.0083
   XY=    -0.9242   YY=    27.3981   ZY=    -2.3233
   XZ=    -0.6280   YZ=    -2.1609   ZZ=    27.5920
   Eigenvalues:    25.1293    28.9986    29.7972
      7  H    Isotropic =    29.9025   Anisotropy =     4.2351
   XX=    29.4446   YX=    -0.6280   ZX=    -2.5552
   XY=     0.0214   YY=    32.4692   ZY=    -0.6215
   XZ=    -2.0827   YZ=    -1.5426   ZZ=    27.7937
   Eigenvalues:    25.9840    30.9976    32.7259
      8  H    Isotropic =    29.3834   Anisotropy =     4.5699
   XX=    32.0835   YX=     0.1788   ZX=    -1.7823
   XY=     1.5660   YY=    29.1991   ZY=     3.0982
   XZ=    -0.9717   YZ=     3.2214   ZZ=    26.8676
   Eigenvalues:    24.3236    31.3966    32.4300
      9  H    Isotropic =    29.4391   Anisotropy =     4.1893
   XX=    29.4010   YX=    -0.9222   ZX=     0.2869
   XY=    -1.4314   YY=    31.4372   ZY=    -1.4101
   XZ=     0.6054   YZ=    -0.6115   ZZ=    27.4791
   Eigenvalues:    27.2222    28.8631    32.2319
     10  O    Isotropic =   111.7209   Anisotropy =   186.7013
   XX=   197.0817   YX=   -50.9672   ZX=   -40.5081
   XY=   -72.0627   YY=   -16.9532   ZY=  -108.2072
   XZ=   -56.9846   YZ=  -158.0897   ZZ=   155.0341
   Eigenvalues:  -109.0356   208.0098   236.1884
     11  O    Isotropic =  -130.1417   Anisotropy =   594.7559
   XX=  -273.1055   YX=    68.5279   ZX=    49.1395
   XY=    75.3039   YY=  -149.2996   ZY=  -287.3291
   XZ=    51.6830   YZ=  -336.8940   ZZ=    31.9800
   Eigenvalues:  -432.1232  -224.6641   266.3623
     12  C    Isotropic =   159.8875   Anisotropy =    26.2470
   XX=   167.7047   YX=    -5.2136   ZX=   -13.1288
   XY=    -1.6904   YY=   162.6157   ZY=     6.9471
   XZ=   -11.7621   YZ=     9.7161   ZZ=   149.3421
   Eigenvalues:   141.3168   160.9601   177.3855
     13  C    Isotropic =   178.4923   Anisotropy =    14.7139
   XX=   175.9225   YX=    -2.1889   ZX=    -2.5953
   XY=    -4.0813   YY=   186.5212   ZY=     3.5459
   XZ=    -2.1997   YZ=     2.8826   ZZ=   173.0332
   Eigenvalues:   171.5443   175.6311   188.3016
     14  C    Isotropic =   179.8795   Anisotropy =    15.4125
   XX=   177.8061   YX=    -1.7831   ZX=    -2.4296
   XY=    -1.0486   YY=   178.1981   ZY=    -9.3035
   XZ=    -2.4360   YZ=    -8.1361   ZZ=   183.6342
   Eigenvalues:   170.8193   178.6647   190.1545
     15  O    Isotropic =   244.7927   Anisotropy =    17.5330
   XX=   239.6836   YX=     5.6858   ZX=     5.9187
   XY=     9.1575   YY=   247.4054   ZY=     8.3967
   XZ=    -2.5532   YZ=     4.5813   ZZ=   247.2893
   Eigenvalues:   234.8092   243.0876   256.4814
     16  Si   Isotropic =   333.8645   Anisotropy =    55.0477
   XX=   367.8740   YX=    -9.9312   ZX=   -18.0124
   XY=    -3.5136   YY=   311.9798   ZY=    -0.7912
   XZ=    -1.6971   YZ=    -2.4032   ZZ=   321.7396
   Eigenvalues:   310.4090   320.6215   370.5629
     17  C    Isotropic =   185.8752   Anisotropy =    12.9541
   XX=   188.9473   YX=    -1.0690   ZX=     2.9721
   XY=    -0.3684   YY=   175.5508   ZY=    -3.4449
   XZ=     0.8069   YZ=    -3.5511   ZZ=   193.1275
   Eigenvalues:   174.8714   188.2429   194.5113
     18  C    Isotropic =   184.6707   Anisotropy =    10.0954
   XX=   190.0593   YX=    -0.0984   ZX=    -0.9098
   XY=     4.0013   YY=   183.5050   ZY=     6.6887
   XZ=     1.7967   YZ=     6.8069   ZZ=   180.4477
   Eigenvalues:   175.0063   187.6047   191.4009
     19  C    Isotropic =   184.6533   Anisotropy =    10.6840
   XX=   187.2106   YX=     2.1066   ZX=    -2.0217
   XY=    -0.5552   YY=   188.7988   ZY=    -6.0081
   XZ=    -2.4792   YZ=    -5.2576   ZZ=   177.9506
   Eigenvalues:   175.2893   186.8947   191.7760
     20  H    Isotropic =    32.1280   Anisotropy =    10.5293
   XX=    38.2020   YX=    -2.5622   ZX=    -2.1320
   XY=    -1.7621   YY=    29.2363   ZY=     1.2711
   XZ=    -1.6445   YZ=     1.3964   ZZ=    28.9457
   Eigenvalues:    27.7491    29.4873    39.1475
     21  H    Isotropic =    31.8744   Anisotropy =     6.8917
   XX=    31.3307   YX=     0.6998   ZX=    -0.9814
   XY=     1.1040   YY=    36.1690   ZY=    -1.3743
   XZ=    -0.2567   YZ=    -0.5725   ZZ=    28.1234
   Eigenvalues:    27.9289    31.2254    36.4689
     22  H    Isotropic =    31.9418   Anisotropy =     6.1502
   XX=    31.5539   YX=    -1.3427   ZX=     1.2233
   XY=    -0.7440   YY=    28.8055   ZY=     1.3714
   XZ=     1.8052   YZ=     0.6821   ZZ=    35.4659
   Eigenvalues:    28.1509    31.6326    36.0419
     23  H    Isotropic =    32.2734   Anisotropy =    10.2056
   XX=    38.5820   YX=     1.7390   ZX=    -1.4251
   XY=     1.3008   YY=    29.6603   ZY=    -0.8309
   XZ=    -1.5394   YZ=    -0.8046   ZZ=    28.5780
   Eigenvalues:    28.0977    29.6454    39.0772
     24  H    Isotropic =    32.0310   Anisotropy =     6.3500
   XX=    31.8051   YX=     0.7265   ZX=     1.8696
   XY=     0.2560   YY=    30.0652   ZY=    -3.4751
   XZ=     1.8704   YZ=    -2.4966   ZZ=    34.2226
   Eigenvalues:    28.0244    31.8042    36.2643
     25  H    Isotropic =    31.9052   Anisotropy =     7.9379
   XX=    30.0186   YX=     0.3526   ZX=    -0.2487
   XY=    -0.0832   YY=    35.8599   ZY=     3.5815
   XZ=    -0.2446   YZ=     2.6924   ZZ=    29.8370
   Eigenvalues:    28.4500    30.0684    37.1971
     26  H    Isotropic =    32.3508   Anisotropy =     9.8370
   XX=    38.7226   YX=    -1.0526   ZX=     1.1314
   XY=    -0.9252   YY=    28.4359   ZY=    -0.2434
   XZ=     0.6581   YZ=    -0.1794   ZZ=    29.8940
   Eigenvalues:    28.3311    29.8126    38.9088
     27  H    Isotropic =    31.9282   Anisotropy =     8.5297
   XX=    29.5032   YX=    -0.4133   ZX=     1.2027
   XY=    -0.3858   YY=    31.6434   ZY=     3.7098
   XZ=     0.9024   YZ=     4.6167   ZZ=    34.6378
   Eigenvalues:    28.0849    30.0850    37.6147
     28  H    Isotropic =    32.0492   Anisotropy =     8.0570
   XX=    30.1695   YX=     1.1572   ZX=     0.7082
   XY=     1.1876   YY=    33.5112   ZY=    -3.9680
   XZ=     0.1693   YZ=    -4.7360   ZZ=    32.4670
   Eigenvalues:    28.0252    30.7019    37.4205
     29  H    Isotropic =    31.1940   Anisotropy =     9.6570
   XX=    32.3081   YX=    -2.5562   ZX=    -3.3216
   XY=    -2.3485   YY=    26.2819   ZY=     0.2923
   XZ=    -3.6040   YZ=     0.4984   ZZ=    34.9921
   Eigenvalues:    25.3343    30.6158    37.6320
     30  H    Isotropic =    31.4355   Anisotropy =     7.8460
   XX=    28.2347   YX=     0.6074   ZX=    -0.5969
   XY=     0.3792   YY=    35.1694   ZY=    -2.9366
   XZ=    -0.7097   YZ=    -2.7787   ZZ=    30.9024
   Eigenvalues:    28.0770    29.5634    36.6661
     31  H    Isotropic =    30.6561   Anisotropy =     8.3773
   XX=    34.2108   YX=     1.4854   ZX=     2.3127
   XY=     0.8527   YY=    24.2343   ZY=    -0.4260
   XZ=     2.3209   YZ=    -0.4131   ZZ=    33.5232
   Eigenvalues:    24.0472    31.6801    36.2410
     32  H    Isotropic =    30.3405   Anisotropy =     6.0757
   XX=    31.1622   YX=     0.8006   ZX=    -2.5926
   XY=     0.5218   YY=    30.1326   ZY=    -3.3701
   XZ=    -1.9824   YZ=    -2.7778   ZZ=    29.7267
   Eigenvalues:    26.4817    30.1489    34.3910
     33  H    Isotropic =    30.1921   Anisotropy =     9.2559
   XX=    34.8837   YX=     1.2553   ZX=     2.9506
   XY=     1.4456   YY=    28.2467   ZY=     3.4010
   XZ=     2.3659   YZ=     2.4199   ZZ=    27.4460
   Eigenvalues:    24.7676    29.4460    36.3627
     34  H    Isotropic =    31.0081   Anisotropy =    11.9983
   XX=    35.4473   YX=    -2.9010   ZX=    -4.2016
   XY=    -3.6655   YY=    29.3768   ZY=     2.2437
   XZ=    -4.4593   YZ=     1.8620   ZZ=    28.2000
   Eigenvalues:    26.0673    27.9499    39.0069
     35  H    Isotropic =    31.3141   Anisotropy =     5.9138
   XX=    31.9400   YX=    -0.9120   ZX=     1.7473
   XY=    -0.3869   YY=    30.9414   ZY=     4.4194
   XZ=     1.8576   YZ=     3.6266   ZZ=    31.0609
   Eigenvalues:    26.4282    32.2575    35.2566
     36  H    Isotropic =    31.3925   Anisotropy =     8.2543
   XX=    29.4055   YX=    -2.0575   ZX=    -0.9339
   XY=    -2.3032   YY=    34.2625   ZY=    -4.1644
   XZ=    -0.8763   YZ=    -3.4453   ZZ=    30.5094
   Eigenvalues:    26.6862    30.5959    36.8954
     37  C    Isotropic =   141.0743   Anisotropy =    35.4771
   XX=   122.8060   YX=    -4.1405   ZX=    -0.6862
   XY=    -6.2718   YY=   159.5576   ZY=   -10.6946
   XZ=     0.6370   YZ=   -10.0877   ZZ=   140.8593
   Eigenvalues:   121.9518   136.5455   164.7257
     38  C    Isotropic =    45.3810   Anisotropy =   179.8108
   XX=    70.5954   YX=   -31.0488   ZX=   -82.0075
   XY=   -31.7758   YY=   -22.2039   ZY=   -63.6613
   XZ=   -80.7413   YZ=   -63.4633   ZZ=    87.7517
   Eigenvalues:   -80.6676    51.5558   165.2549
     39  C    Isotropic =    63.9916   Anisotropy =   142.9237
   XX=    93.4381   YX=   -32.1951   ZX=   -60.6985
   XY=   -33.8426   YY=     0.0684   ZY=   -60.4452
   XZ=   -57.8403   YZ=   -64.1955   ZZ=    98.4685
   Eigenvalues:   -52.5613    85.2621   159.2741
     40  H    Isotropic =    29.6710   Anisotropy =     5.2243
   XX=    28.7321   YX=    -0.3608   ZX=     2.0663
   XY=     0.7312   YY=    28.3302   ZY=    -0.8493
   XZ=     1.7326   YZ=    -2.0410   ZZ=    31.9507
   Eigenvalues:    27.1739    28.6853    33.1539
     41  H    Isotropic =    29.4882   Anisotropy =     4.6760
   XX=    31.2698   YX=    -1.7174   ZX=    -1.0321
   XY=    -1.4403   YY=    27.9047   ZY=    -1.2546
   XZ=    -2.6822   YZ=    -0.2523   ZZ=    29.2902
   Eigenvalues:    26.4868    29.3723    32.6055
     42  H    Isotropic =    25.7687   Anisotropy =     6.5855
   XX=    27.0847   YX=    -1.4217   ZX=    -0.0075
   XY=    -2.6542   YY=    27.7970   ZY=    -3.1147
   XZ=     0.1254   YZ=    -2.3997   ZZ=    22.4242
   Eigenvalues:    21.1614    25.9856    30.1590
     43  H    Isotropic =    26.6769   Anisotropy =     6.8952
   XX=    26.5071   YX=    -3.4202   ZX=    -0.0272
   XY=    -1.6678   YY=    28.2273   ZY=    -2.1485
   XZ=     0.3792   YZ=    -4.0143   ZZ=    25.2963
   Eigenvalues:    22.8556    25.9014    31.2737
     44  H    Isotropic =    26.7524   Anisotropy =     7.1665
   XX=    27.1203   YX=    -1.5720   ZX=     0.8439
   XY=    -3.6423   YY=    26.1222   ZY=    -4.6406
   XZ=     0.2911   YZ=    -2.9772   ZZ=    27.0147
   Eigenvalues:    22.1709    26.5563    31.5301
 End of Minotr F.D. properties file   721 does not exist.
 End of Minotr F.D. properties file   722 does not exist.
 End of Minotr F.D. properties file   788 does not exist.

 **********************************************************************

            Population analysis using the SCF density.

 **********************************************************************

 Orbital symmetries:
       Occupied  (A) (A) (A) (A) (A) (A) (A) (A) (A) (A) (A) (A)
                 (A) (A) (A) (A) (A) (A) (A) (A) (A) (A) (A) (A)
                 (A) (A) (A) (A) (A) (A) (A) (A) (A) (A) (A) (A)
                 (A) (A) (A) (A) (A) (A) (A) (A) (A) (A) (A) (A)
                 (A) (A) (A) (A) (A) (A) (A) (A) (A) (A) (A) (A)
                 (A) (A) (A) (A) (A) (A) (A) (A) (A) (A) (A) (A)
                 (A) (A)
       Virtual   (A) (A) (A) (A) (A) (A) (A) (A) (A) (A) (A) (A)
                 (A) (A) (A) (A) (A) (A) (A) (A) (A) (A) (A) (A)
                 (A) (A) (A) (A) (A) (A) (A) (A) (A) (A) (A) (A)
                 (A) (A) (A) (A) (A) (A) (A) (A) (A) (A) (A) (A)
                 (A) (A) (A) (A) (A) (A) (A) (A) (A) (A) (A) (A)
                 (A) (A) (A) (A) (A) (A) (A) (A) (A) (A) (A) (A)
                 (A) (A) (A) (A) (A) (A) (A) (A) (A) (A) (A) (A)
                 (A) (A) (A) (A) (A) (A) (A) (A) (A) (A) (A) (A)
                 (A) (A) (A) (A) (A) (A) (A) (A) (A) (A) (A) (A)
                 (A) (A) (A) (A) (A) (A) (A) (A) (A) (A) (A) (A)
                 (A) (A) (A) (A) (A) (A) (A) (A) (A) (A) (A) (A)
                 (A) (A) (A) (A) (A) (A) (A) (A) (A) (A) (A) (A)
                 (A) (A) (A) (A) (A) (A) (A) (A) (A) (A) (A) (A)
                 (A) (A) (A) (A) (A) (A) (A) (A) (A) (A) (A) (A)
                 (A) (A) (A) (A) (A) (A) (A) (A) (A) (A) (A) (A)
                 (A) (A) (A) (A) (A) (A) (A) (A) (A) (A) (A) (A)
                 (A) (A) (A) (A) (A) (A) (A) (A) (A) (A) (A) (A)
                 (A) (A) (A) (A) (A) (A) (A) (A) (A) (A) (A) (A)
                 (A) (A) (A) (A) (A) (A) (A) (A) (A) (A) (A) (A)
                 (A) (A) (A) (A) (A) (A) (A) (A) (A) (A) (A) (A)
                 (A) (A) (A) (A) (A) (A) (A) (A) (A) (A) (A) (A)
                 (A) (A) (A) (A) (A) (A) (A) (A) (A) (A) (A) (A)
                 (A) (A) (A) (A) (A) (A) (A) (A) (A) (A) (A) (A)
                 (A) (A) (A) (A) (A) (A) (A) (A) (A) (A) (A) (A)
                 (A) (A) (A) (A) (A) (A) (A) (A) (A) (A) (A) (A)
                 (A) (A) (A) (A) (A) (A) (A) (A) (A) (A) (A) (A)
                 (A) (A) (A) (A) (A) (A) (A) (A) (A) (A) (A) (A)
                 (A) (A) (A) (A) (A) (A) (A) (A) (A) (A) (A) (A)
 The electronic state is 1-A.
 Alpha  occ. eigenvalues --  -66.27041 -19.26250 -19.21392 -19.20032 -10.37425
 Alpha  occ. eigenvalues --  -10.32294 -10.30480 -10.25223 -10.25142 -10.25108
 Alpha  occ. eigenvalues --  -10.24641 -10.23703 -10.23251 -10.22565 -10.22259
 Alpha  occ. eigenvalues --  -10.20919 -10.20543 -10.20531  -5.32869  -3.66715
 Alpha  occ. eigenvalues --   -3.66484  -3.66451  -1.13550  -1.04891  -1.04184
 Alpha  occ. eigenvalues --   -0.86035  -0.83287  -0.81127  -0.77487  -0.74027
 Alpha  occ. eigenvalues --   -0.73559  -0.71913  -0.70352  -0.69932  -0.67005
 Alpha  occ. eigenvalues --   -0.63379  -0.62134  -0.58909  -0.54952  -0.53317
 Alpha  occ. eigenvalues --   -0.53076  -0.51516  -0.51141  -0.48149  -0.47406
 Alpha  occ. eigenvalues --   -0.46757  -0.45458  -0.45113  -0.44616  -0.43776
 Alpha  occ. eigenvalues --   -0.42911  -0.42761  -0.41983  -0.41554  -0.40965
 Alpha  occ. eigenvalues --   -0.40525  -0.40298  -0.39715  -0.39414  -0.39269
 Alpha  occ. eigenvalues --   -0.38541  -0.37994  -0.37394  -0.37075  -0.36514
 Alpha  occ. eigenvalues --   -0.35278  -0.34448  -0.33380  -0.31866  -0.31205
 Alpha  occ. eigenvalues --   -0.30417  -0.29617  -0.28470  -0.27459
 Alpha virt. eigenvalues --   -0.00620   0.00449   0.03904   0.05328   0.06178
 Alpha virt. eigenvalues --    0.06317   0.06882   0.07952   0.08360   0.09132
 Alpha virt. eigenvalues --    0.09618   0.10221   0.10594   0.11198   0.11530
 Alpha virt. eigenvalues --    0.11797   0.12647   0.12908   0.13850   0.14075
 Alpha virt. eigenvalues --    0.14369   0.14807   0.14984   0.15201   0.15398
 Alpha virt. eigenvalues --    0.16144   0.16517   0.16832   0.17565   0.17688
 Alpha virt. eigenvalues --    0.18241   0.19499   0.19994   0.20239   0.20909
 Alpha virt. eigenvalues --    0.21949   0.23040   0.23519   0.24234   0.24536
 Alpha virt. eigenvalues --    0.25026   0.25588   0.26338   0.27499   0.28178
 Alpha virt. eigenvalues --    0.28789   0.30486   0.30834   0.31676   0.32073
 Alpha virt. eigenvalues --    0.33021   0.33299   0.34652   0.35431   0.36265
 Alpha virt. eigenvalues --    0.37176   0.37932   0.38873   0.39566   0.40317
 Alpha virt. eigenvalues --    0.40895   0.41686   0.42551   0.43170   0.44345
 Alpha virt. eigenvalues --    0.45014   0.46471   0.46583   0.47547   0.48807
 Alpha virt. eigenvalues --    0.48942   0.49741   0.50436   0.51821   0.52579
 Alpha virt. eigenvalues --    0.52827   0.53919   0.54954   0.55445   0.56035
 Alpha virt. eigenvalues --    0.56816   0.57041   0.57596   0.57767   0.58788
 Alpha virt. eigenvalues --    0.59372   0.59778   0.60396   0.61079   0.61414
 Alpha virt. eigenvalues --    0.61560   0.61929   0.62389   0.62795   0.62993
 Alpha virt. eigenvalues --    0.63519   0.64007   0.64285   0.64909   0.65702
 Alpha virt. eigenvalues --    0.66496   0.66684   0.67108   0.67320   0.68066
 Alpha virt. eigenvalues --    0.68760   0.69028   0.69686   0.70764   0.70991
 Alpha virt. eigenvalues --    0.72137   0.72669   0.73296   0.74171   0.74444
 Alpha virt. eigenvalues --    0.75424   0.77558   0.78430   0.80537   0.81082
 Alpha virt. eigenvalues --    0.82585   0.83433   0.86034   0.86973   0.88284
 Alpha virt. eigenvalues --    0.89887   0.91108   0.91477   0.92875   0.95080
 Alpha virt. eigenvalues --    0.95706   0.97013   0.98554   0.99293   1.00713
 Alpha virt. eigenvalues --    1.02531   1.03949   1.04670   1.06576   1.09840
 Alpha virt. eigenvalues --    1.11798   1.12668   1.15259   1.17752   1.18967
 Alpha virt. eigenvalues --    1.20845   1.23230   1.25310   1.26011   1.27751
 Alpha virt. eigenvalues --    1.28471   1.29202   1.31151   1.31847   1.33140
 Alpha virt. eigenvalues --    1.33299   1.34788   1.36643   1.40531   1.40977
 Alpha virt. eigenvalues --    1.42071   1.44203   1.44917   1.48006   1.48874
 Alpha virt. eigenvalues --    1.50082   1.51773   1.52950   1.53430   1.53899
 Alpha virt. eigenvalues --    1.54588   1.55201   1.56487   1.56688   1.57585
 Alpha virt. eigenvalues --    1.58944   1.59432   1.60059   1.60324   1.60415
 Alpha virt. eigenvalues --    1.61578   1.61654   1.63422   1.64224   1.64320
 Alpha virt. eigenvalues --    1.64843   1.65715   1.66815   1.68912   1.69466
 Alpha virt. eigenvalues --    1.69963   1.71562   1.72498   1.73582   1.75146
 Alpha virt. eigenvalues --    1.76218   1.76707   1.78606   1.79317   1.80194
 Alpha virt. eigenvalues --    1.80534   1.82035   1.83886   1.85178   1.87399
 Alpha virt. eigenvalues --    1.90106   1.92474   1.93663   1.95163   1.97249
 Alpha virt. eigenvalues --    2.00852   2.03698   2.06669   2.09632   2.12119
 Alpha virt. eigenvalues --    2.13534   2.16737   2.19563   2.21799   2.24302
 Alpha virt. eigenvalues --    2.27823   2.29472   2.34069   2.37440   2.40958
 Alpha virt. eigenvalues --    2.41461   2.41993   2.42102   2.42512   2.43198
 Alpha virt. eigenvalues --    2.44602   2.45160   2.45869   2.46459   2.48298
 Alpha virt. eigenvalues --    2.48412   2.48879   2.50103   2.51517   2.52302
 Alpha virt. eigenvalues --    2.53112   2.54057   2.54301   2.57949   2.59889
 Alpha virt. eigenvalues --    2.62151   2.64422   2.66315   2.72526   2.81541
 Alpha virt. eigenvalues --    2.83113   2.87100   2.88294   2.89671   2.91470
 Alpha virt. eigenvalues --    2.92955   2.93244   2.94914   2.95873   2.97037
 Alpha virt. eigenvalues --    2.99976   3.01363   3.01624   3.03958   3.07453
 Alpha virt. eigenvalues --    3.08834   3.09930   3.13703   3.14510   3.14817
 Alpha virt. eigenvalues --    3.15671   3.16967   3.18646   3.19803   3.21410
 Alpha virt. eigenvalues --    3.22668   3.22982   3.23238   3.24110   3.24956
 Alpha virt. eigenvalues --    3.26747   3.27818   3.28681   3.29805   3.33558
 Alpha virt. eigenvalues --    3.34516   3.34707   3.37889   3.39452   3.40348
 Alpha virt. eigenvalues --    3.44406   3.51117   3.56261   3.59543   3.63426
 Alpha virt. eigenvalues --    3.77100   3.88835   3.90442   3.98415   4.00523
 Alpha virt. eigenvalues --    4.08493   4.11130   4.19584   4.22187   4.24715
 Alpha virt. eigenvalues --    4.94620   4.99488   5.01624   5.08887   5.14191
 Alpha virt. eigenvalues --    5.24050   5.51080   5.53539   5.77946   5.85653
 Alpha virt. eigenvalues --   11.52907  11.53677  11.59546  23.41607  23.48977
 Alpha virt. eigenvalues --   23.54597  23.55052  23.58240  23.60612  23.70092
 Alpha virt. eigenvalues --   23.75998  23.77754  23.77989  23.80909  23.86201
 Alpha virt. eigenvalues --   23.88391  24.26811  49.98318  50.04499  50.11589
 Alpha virt. eigenvalues --  141.29999
          Condensed to atoms (all electrons):
               1          2          3          4          5          6
     1  C    5.238664   0.235535  -0.057984  -0.003754  -0.054412   0.397879
     2  C    0.235535   5.625283   0.284755  -0.069392  -0.019319  -0.052064
     3  C   -0.057984   0.284755   5.209462   0.206921  -0.014846  -0.016739
     4  C   -0.003754  -0.069392   0.206921   5.885409   0.231819   0.003056
     5  C   -0.054412  -0.019319  -0.014846   0.231819   4.409605  -0.002945
     6  H    0.397879  -0.052064  -0.016739   0.003056  -0.002945   0.476479
     7  H   -0.024199   0.389090  -0.039746   0.007922   0.000213  -0.000639
     8  H   -0.001271   0.008143  -0.032765   0.355704  -0.027191   0.000192
     9  H    0.002017  -0.007570  -0.029674   0.373534  -0.019673  -0.000278
    10  O    0.211693  -0.041454   0.002601  -0.107185   0.349121  -0.032725
    11  O    0.001352  -0.000371   0.004872  -0.103147   0.660130   0.000251
    12  C    0.342948  -0.053043   0.008881  -0.001544   0.003890  -0.049046
    13  C   -0.074871   0.002159  -0.000556   0.000123  -0.000155   0.001533
    14  C   -0.084209   0.294017  -0.078590  -0.008895   0.000516   0.007631
    15  O    0.003634  -0.060454   0.217537  -0.029691   0.001637  -0.000030
    16  Si   0.000060   0.003156  -0.047889  -0.011083   0.001565  -0.000028
    17  C    0.000000   0.000030   0.002556  -0.000393  -0.000006   0.000000
    18  C    0.000014  -0.000199  -0.001529  -0.006454  -0.000270   0.000000
    19  C    0.000002  -0.000291  -0.000334  -0.000153   0.000004   0.000000
    20  H    0.000000   0.000007  -0.000112   0.000449  -0.000002   0.000000
    21  H    0.000005  -0.000095   0.000145   0.000232  -0.000122   0.000001
    22  H    0.000009  -0.000084   0.000952  -0.001622  -0.000188  -0.000003
    23  H    0.000000   0.000006  -0.000022  -0.000010   0.000000   0.000000
    24  H    0.000001  -0.000050   0.000233  -0.000047   0.000004  -0.000001
    25  H   -0.000002   0.000019   0.000282  -0.000023   0.000001   0.000000
    26  H    0.000000   0.000001  -0.000069  -0.000001   0.000000   0.000000
    27  H   -0.000001   0.000042  -0.000124  -0.000021   0.000000   0.000000
    28  H    0.000000   0.000006   0.000005   0.000026  -0.000002   0.000000
    29  H   -0.007365  -0.033934   0.007515  -0.000678   0.000022  -0.000301
    30  H   -0.006513  -0.038468  -0.011145   0.006983  -0.001770   0.000530
    31  H    0.006734  -0.034343  -0.006060  -0.000132  -0.000103  -0.000131
    32  H   -0.039334  -0.012856  -0.000455   0.000154  -0.000086   0.007484
    33  H   -0.047056   0.009368  -0.000169   0.000270  -0.000227  -0.007958
    34  H    0.007816  -0.000100   0.000011  -0.000001   0.000005  -0.000291
    35  H   -0.009712   0.004618   0.000194  -0.000009  -0.000002  -0.000489
    36  H   -0.002155  -0.002879  -0.000225   0.000003  -0.000005   0.005227
    37  C    0.003361  -0.092795   0.318553  -0.098710   0.003721   0.004272
    38  C   -0.003689  -0.014438  -0.062894   0.008312  -0.000294   0.000077
    39  C   -0.001105   0.000063  -0.002276  -0.000088  -0.000034   0.003475
    40  H   -0.000572  -0.000999  -0.025077  -0.005608   0.002956  -0.001614
    41  H   -0.000252   0.006394  -0.041347  -0.003295  -0.000166   0.000712
    42  H    0.000179  -0.001281  -0.000687   0.000031  -0.000007   0.000023
    43  H    0.000051   0.000030  -0.000341   0.000016   0.000000   0.000020
    44  H    0.000056  -0.000211   0.000294  -0.000055  -0.000016   0.001086
               7          8          9         10         11         12
     1  C   -0.024199  -0.001271   0.002017   0.211693   0.001352   0.342948
     2  C    0.389090   0.008143  -0.007570  -0.041454  -0.000371  -0.053043
     3  C   -0.039746  -0.032765  -0.029674   0.002601   0.004872   0.008881
     4  C    0.007922   0.355704   0.373534  -0.107185  -0.103147  -0.001544
     5  C    0.000213  -0.027191  -0.019673   0.349121   0.660130   0.003890
     6  H   -0.000639   0.000192  -0.000278  -0.032725   0.000251  -0.049046
     7  H    0.441888  -0.000077  -0.000201   0.003118   0.000020  -0.008053
     8  H   -0.000077   0.427294  -0.015612   0.005448   0.013625   0.000054
     9  H   -0.000201  -0.015612   0.392984  -0.000548   0.000709   0.000017
    10  O    0.003118   0.005448  -0.000548   8.023510  -0.070006  -0.047543
    11  O    0.000020   0.013625   0.000709  -0.070006   7.877569  -0.000152
    12  C   -0.008053   0.000054   0.000017  -0.047543  -0.000152   5.316479
    13  C    0.001975  -0.000002  -0.000009   0.003790   0.000001   0.285174
    14  C   -0.038882   0.000089   0.000429   0.000042  -0.000012  -0.008183
    15  O    0.003014  -0.000715  -0.001321  -0.000030  -0.000019  -0.000063
    16  Si   0.000386  -0.002813   0.000378  -0.000184  -0.000319   0.000011
    17  C    0.000003   0.000029  -0.000115   0.000000   0.000000   0.000000
    18  C    0.000027  -0.004428   0.000322  -0.000003  -0.000033   0.000000
    19  C   -0.000031  -0.000121   0.000051   0.000000   0.000000   0.000000
    20  H    0.000000   0.000443  -0.000021   0.000000   0.000000   0.000000
    21  H    0.000006  -0.001958   0.001321  -0.000001  -0.000001   0.000000
    22  H    0.000002   0.001451  -0.000131  -0.000003  -0.000078   0.000000
    23  H   -0.000001  -0.000001   0.000000   0.000000   0.000000   0.000000
    24  H   -0.000014  -0.000046   0.000013   0.000000   0.000000   0.000000
    25  H   -0.000029  -0.000003  -0.000002   0.000000   0.000000   0.000000
    26  H    0.000000  -0.000002   0.000003   0.000000   0.000000   0.000000
    27  H   -0.000004  -0.000005  -0.000018   0.000000   0.000000   0.000000
    28  H    0.000004  -0.000003   0.000079   0.000000   0.000000   0.000000
    29  H   -0.006169   0.000019   0.000159  -0.000072   0.000002   0.002244
    30  H    0.006709   0.000421  -0.000608   0.009045  -0.000323  -0.003235
    31  H   -0.002526  -0.000130   0.000435  -0.000107   0.000002   0.000012
    32  H    0.000187   0.000002  -0.000056   0.003163  -0.000020   0.391194
    33  H   -0.000283  -0.000012   0.000011   0.004018  -0.000026   0.403415
    34  H    0.000248   0.000000   0.000000  -0.000120   0.000000  -0.033560
    35  H   -0.000016   0.000000  -0.000001  -0.000050   0.000000  -0.034857
    36  H    0.000229   0.000000  -0.000001  -0.000022   0.000000  -0.043383
    37  C   -0.009910  -0.007601   0.005347  -0.003036  -0.000101  -0.000626
    38  C    0.007964   0.000119  -0.000177   0.000324  -0.000001  -0.000156
    39  C    0.001856  -0.000007   0.000000  -0.000019   0.000000  -0.000136
    40  H   -0.000037   0.000095   0.000232   0.000291   0.000183   0.000485
    41  H    0.000237   0.002716  -0.000273  -0.000095   0.000005  -0.000004
    42  H    0.000133  -0.000010   0.000022   0.000004   0.000000   0.000019
    43  H    0.000120   0.000001  -0.000001   0.000000   0.000000  -0.000012
    44  H   -0.000030   0.000003   0.000002  -0.000021   0.000000   0.000058
              13         14         15         16         17         18
     1  C   -0.074871  -0.084209   0.003634   0.000060   0.000000   0.000014
     2  C    0.002159   0.294017  -0.060454   0.003156   0.000030  -0.000199
     3  C   -0.000556  -0.078590   0.217537  -0.047889   0.002556  -0.001529
     4  C    0.000123  -0.008895  -0.029691  -0.011083  -0.000393  -0.006454
     5  C   -0.000155   0.000516   0.001637   0.001565  -0.000006  -0.000270
     6  H    0.001533   0.007631  -0.000030  -0.000028   0.000000   0.000000
     7  H    0.001975  -0.038882   0.003014   0.000386   0.000003   0.000027
     8  H   -0.000002   0.000089  -0.000715  -0.002813   0.000029  -0.004428
     9  H   -0.000009   0.000429  -0.001321   0.000378  -0.000115   0.000322
    10  O    0.003790   0.000042  -0.000030  -0.000184   0.000000  -0.000003
    11  O    0.000001  -0.000012  -0.000019  -0.000319   0.000000  -0.000033
    12  C    0.285174  -0.008183  -0.000063   0.000011   0.000000   0.000000
    13  C    5.370029  -0.002365  -0.000001  -0.000006   0.000000   0.000000
    14  C   -0.002365   5.422953  -0.007428  -0.000478   0.000003  -0.000057
    15  O   -0.000001  -0.007428   8.252892   0.355368  -0.022822  -0.021608
    16  Si  -0.000006  -0.000478   0.355368  11.527334   0.330993   0.318063
    17  C    0.000000   0.000003  -0.022822   0.330993   5.727893  -0.049871
    18  C    0.000000  -0.000057  -0.021608   0.318063  -0.049871   5.803629
    19  C    0.000000   0.000012  -0.025589   0.323629  -0.056208  -0.058579
    20  H    0.000000   0.000000   0.000662  -0.008987  -0.000794   0.367288
    21  H    0.000000  -0.000016  -0.001909  -0.026769  -0.000348   0.367950
    22  H    0.000000  -0.000004  -0.000997  -0.029889   0.002996   0.366637
    23  H    0.000000   0.000000   0.000990  -0.010953  -0.000100   0.000357
    24  H    0.000000   0.000002  -0.001628  -0.029990   0.002761  -0.001651
    25  H    0.000000   0.000002  -0.002503  -0.025793  -0.000694   0.002425
    26  H    0.000000  -0.000001   0.000942  -0.012627   0.363983  -0.000215
    27  H    0.000000   0.000021  -0.001272  -0.025546   0.369498   0.002664
    28  H    0.000000   0.000062  -0.001282  -0.027297   0.369311  -0.000460
    29  H   -0.000800   0.387822   0.000274   0.000111  -0.000004  -0.000001
    30  H    0.000543   0.384654   0.000027  -0.000339  -0.000004  -0.000007
    31  H   -0.000042   0.386951   0.008165   0.000769   0.000099   0.000037
    32  H   -0.036745   0.005228  -0.000001   0.000000   0.000000   0.000000
    33  H   -0.038201  -0.000379   0.000004   0.000001   0.000000   0.000000
    34  H    0.389639  -0.000104   0.000000   0.000000   0.000000   0.000000
    35  H    0.384156   0.000269  -0.000018  -0.000009   0.000000   0.000000
    36  H    0.384590   0.000487   0.000000   0.000002   0.000000   0.000000
    37  C    0.000045   0.007962  -0.049650  -0.004506  -0.000113  -0.002016
    38  C   -0.000035  -0.000161   0.003897  -0.002532  -0.000032   0.000172
    39  C   -0.000025  -0.000007   0.000451   0.000579   0.000000  -0.000001
    40  H   -0.000031  -0.000275   0.003508   0.001352   0.000011  -0.000036
    41  H    0.000000  -0.000102  -0.004268   0.006653   0.000010   0.000785
    42  H    0.000001  -0.000055   0.003952   0.000398  -0.000042   0.000069
    43  H    0.000032  -0.000002   0.000013   0.000003   0.000000   0.000000
    44  H    0.000048   0.000003  -0.000006  -0.000011   0.000000   0.000000
              19         20         21         22         23         24
     1  C    0.000002   0.000000   0.000005   0.000009   0.000000   0.000001
     2  C   -0.000291   0.000007  -0.000095  -0.000084   0.000006  -0.000050
     3  C   -0.000334  -0.000112   0.000145   0.000952  -0.000022   0.000233
     4  C   -0.000153   0.000449   0.000232  -0.001622  -0.000010  -0.000047
     5  C    0.000004  -0.000002  -0.000122  -0.000188   0.000000   0.000004
     6  H    0.000000   0.000000   0.000001  -0.000003   0.000000  -0.000001
     7  H   -0.000031   0.000000   0.000006   0.000002  -0.000001  -0.000014
     8  H   -0.000121   0.000443  -0.001958   0.001451  -0.000001  -0.000046
     9  H    0.000051  -0.000021   0.001321  -0.000131   0.000000   0.000013
    10  O    0.000000   0.000000  -0.000001  -0.000003   0.000000   0.000000
    11  O    0.000000   0.000000  -0.000001  -0.000078   0.000000   0.000000
    12  C    0.000000   0.000000   0.000000   0.000000   0.000000   0.000000
    13  C    0.000000   0.000000   0.000000   0.000000   0.000000   0.000000
    14  C    0.000012   0.000000  -0.000016  -0.000004   0.000000   0.000002
    15  O   -0.025589   0.000662  -0.001909  -0.000997   0.000990  -0.001628
    16  Si   0.323629  -0.008987  -0.026769  -0.029889  -0.010953  -0.029990
    17  C   -0.056208  -0.000794  -0.000348   0.002996  -0.000100   0.002761
    18  C   -0.058579   0.367288   0.367950   0.366637   0.000357  -0.001651
    19  C    5.774980  -0.000322   0.002482  -0.001445   0.363806   0.368808
    20  H   -0.000322   0.430357  -0.020063  -0.019491   0.000316   0.000021
    21  H    0.002482  -0.020063   0.445788  -0.018996  -0.000037  -0.000045
    22  H   -0.001445  -0.019491  -0.018996   0.448301   0.000082   0.000818
    23  H    0.363806   0.000316  -0.000037   0.000082   0.449230  -0.021979
    24  H    0.368808   0.000021  -0.000045   0.000818  -0.021979   0.455696
    25  H    0.370588  -0.000040  -0.000098  -0.000008  -0.021253  -0.018839
    26  H    0.000596   0.000500  -0.000078  -0.000061   0.000607  -0.000065
    27  H   -0.001099  -0.000051  -0.000057  -0.000098  -0.000066  -0.000106
    28  H    0.002533  -0.000065   0.001231  -0.000101  -0.000015  -0.000117
    29  H    0.000001   0.000000  -0.000001   0.000000   0.000000   0.000000
    30  H    0.000001   0.000000  -0.000009  -0.000004   0.000000   0.000000
    31  H   -0.000014   0.000000   0.000012   0.000003   0.000000  -0.000001
    32  H    0.000000   0.000000   0.000000   0.000000   0.000000   0.000000
    33  H    0.000000   0.000000   0.000000   0.000000   0.000000   0.000000
    34  H    0.000000   0.000000   0.000000   0.000000   0.000000   0.000000
    35  H    0.000000   0.000000   0.000000   0.000000   0.000000   0.000000
    36  H    0.000000   0.000000   0.000000   0.000000   0.000000   0.000000
    37  C   -0.000007   0.000066   0.000238   0.000191   0.000014   0.000948
    38  C   -0.002098  -0.000005   0.000003   0.000065   0.000114   0.000355
    39  C   -0.000119   0.000000   0.000001  -0.000003   0.000002   0.000240
    40  H    0.000034  -0.000003   0.000011  -0.000062   0.000000  -0.000006
    41  H    0.000920   0.000070  -0.000235   0.003429   0.000011   0.002074
    42  H   -0.000823   0.000001   0.000000   0.000026   0.000243  -0.001203
    43  H    0.000012   0.000000   0.000000   0.000000  -0.000001   0.000013
    44  H   -0.000005   0.000000   0.000000   0.000000   0.000000  -0.000009
              25         26         27         28         29         30
     1  C   -0.000002   0.000000  -0.000001   0.000000  -0.007365  -0.006513
     2  C    0.000019   0.000001   0.000042   0.000006  -0.033934  -0.038468
     3  C    0.000282  -0.000069  -0.000124   0.000005   0.007515  -0.011145
     4  C   -0.000023  -0.000001  -0.000021   0.000026  -0.000678   0.006983
     5  C    0.000001   0.000000   0.000000  -0.000002   0.000022  -0.001770
     6  H    0.000000   0.000000   0.000000   0.000000  -0.000301   0.000530
     7  H   -0.000029   0.000000  -0.000004   0.000004  -0.006169   0.006709
     8  H   -0.000003  -0.000002  -0.000005  -0.000003   0.000019   0.000421
     9  H   -0.000002   0.000003  -0.000018   0.000079   0.000159  -0.000608
    10  O    0.000000   0.000000   0.000000   0.000000  -0.000072   0.009045
    11  O    0.000000   0.000000   0.000000   0.000000   0.000002  -0.000323
    12  C    0.000000   0.000000   0.000000   0.000000   0.002244  -0.003235
    13  C    0.000000   0.000000   0.000000   0.000000  -0.000800   0.000543
    14  C    0.000002  -0.000001   0.000021   0.000062   0.387822   0.384654
    15  O   -0.002503   0.000942  -0.001272  -0.001282   0.000274   0.000027
    16  Si  -0.025793  -0.012627  -0.025546  -0.027297   0.000111  -0.000339
    17  C   -0.000694   0.363983   0.369498   0.369311  -0.000004  -0.000004
    18  C    0.002425  -0.000215   0.002664  -0.000460  -0.000001  -0.000007
    19  C    0.370588   0.000596  -0.001099   0.002533   0.000001   0.000001
    20  H   -0.000040   0.000500  -0.000051  -0.000065   0.000000   0.000000
    21  H   -0.000098  -0.000078  -0.000057   0.001231  -0.000001  -0.000009
    22  H   -0.000008  -0.000061  -0.000098  -0.000101   0.000000  -0.000004
    23  H   -0.021253   0.000607  -0.000066  -0.000015   0.000000   0.000000
    24  H   -0.018839  -0.000065  -0.000106  -0.000117   0.000000   0.000000
    25  H    0.452334  -0.000027   0.001152  -0.000088   0.000001   0.000000
    26  H   -0.000027   0.453954  -0.020908  -0.020834   0.000000  -0.000001
    27  H    0.001152  -0.020908   0.456855  -0.018213   0.000000  -0.000005
    28  H   -0.000088  -0.020834  -0.018213   0.459611  -0.000003  -0.000002
    29  H    0.000001   0.000000   0.000000  -0.000003   0.461997  -0.026994
    30  H    0.000000  -0.000001  -0.000005  -0.000002  -0.026994   0.475127
    31  H   -0.000011   0.000002   0.000084   0.000182  -0.026869  -0.023888
    32  H    0.000000   0.000000   0.000000   0.000000  -0.001634   0.001220
    33  H    0.000000   0.000000   0.000000   0.000000   0.000284  -0.000215
    34  H    0.000000   0.000000   0.000000   0.000000   0.000004   0.000005
    35  H    0.000000   0.000000   0.000000   0.000000   0.003231  -0.000100
    36  H    0.000000   0.000000   0.000000   0.000000  -0.000077  -0.000006
    37  C    0.000125   0.000010  -0.000015  -0.000015  -0.000114  -0.000074
    38  C   -0.000228  -0.000001  -0.000002   0.000002  -0.000035  -0.000048
    39  C   -0.000057   0.000000   0.000000   0.000000  -0.000001  -0.000004
    40  H   -0.000015  -0.000001   0.000000   0.000001  -0.000008  -0.000007
    41  H   -0.000040   0.000012   0.000006  -0.000001   0.000010   0.000014
    42  H    0.000988   0.000001  -0.000015   0.000001   0.000002  -0.000007
    43  H   -0.000009   0.000000   0.000000   0.000000  -0.000001   0.000000
    44  H    0.000001   0.000000   0.000000   0.000000   0.000001   0.000000
              31         32         33         34         35         36
     1  C    0.006734  -0.039334  -0.047056   0.007816  -0.009712  -0.002155
     2  C   -0.034343  -0.012856   0.009368  -0.000100   0.004618  -0.002879
     3  C   -0.006060  -0.000455  -0.000169   0.000011   0.000194  -0.000225
     4  C   -0.000132   0.000154   0.000270  -0.000001  -0.000009   0.000003
     5  C   -0.000103  -0.000086  -0.000227   0.000005  -0.000002  -0.000005
     6  H   -0.000131   0.007484  -0.007958  -0.000291  -0.000489   0.005227
     7  H   -0.002526   0.000187  -0.000283   0.000248  -0.000016   0.000229
     8  H   -0.000130   0.000002  -0.000012   0.000000   0.000000   0.000000
     9  H    0.000435  -0.000056   0.000011   0.000000  -0.000001  -0.000001
    10  O   -0.000107   0.003163   0.004018  -0.000120  -0.000050  -0.000022
    11  O    0.000002  -0.000020  -0.000026   0.000000   0.000000   0.000000
    12  C    0.000012   0.391194   0.403415  -0.033560  -0.034857  -0.043383
    13  C   -0.000042  -0.036745  -0.038201   0.389639   0.384156   0.384590
    14  C    0.386951   0.005228  -0.000379  -0.000104   0.000269   0.000487
    15  O    0.008165  -0.000001   0.000004   0.000000  -0.000018   0.000000
    16  Si   0.000769   0.000000   0.000001   0.000000  -0.000009   0.000002
    17  C    0.000099   0.000000   0.000000   0.000000   0.000000   0.000000
    18  C    0.000037   0.000000   0.000000   0.000000   0.000000   0.000000
    19  C   -0.000014   0.000000   0.000000   0.000000   0.000000   0.000000
    20  H    0.000000   0.000000   0.000000   0.000000   0.000000   0.000000
    21  H    0.000012   0.000000   0.000000   0.000000   0.000000   0.000000
    22  H    0.000003   0.000000   0.000000   0.000000   0.000000   0.000000
    23  H    0.000000   0.000000   0.000000   0.000000   0.000000   0.000000
    24  H   -0.000001   0.000000   0.000000   0.000000   0.000000   0.000000
    25  H   -0.000011   0.000000   0.000000   0.000000   0.000000   0.000000
    26  H    0.000002   0.000000   0.000000   0.000000   0.000000   0.000000
    27  H    0.000084   0.000000   0.000000   0.000000   0.000000   0.000000
    28  H    0.000182   0.000000   0.000000   0.000000   0.000000   0.000000
    29  H   -0.026869  -0.001634   0.000284   0.000004   0.003231  -0.000077
    30  H   -0.023888   0.001220  -0.000215   0.000005  -0.000100  -0.000006
    31  H    0.430230   0.000176   0.000018  -0.000003  -0.000053   0.000009
    32  H    0.000176   0.478199  -0.033290  -0.004245  -0.006162   0.007035
    33  H    0.000018  -0.033290   0.475115  -0.006291   0.006549  -0.004802
    34  H   -0.000003  -0.004245  -0.006291   0.462578  -0.026819  -0.025205
    35  H   -0.000053  -0.006162   0.006549  -0.026819   0.474329  -0.027079
    36  H    0.000009   0.007035  -0.004802  -0.025205  -0.027079   0.475275
    37  C    0.000314  -0.000003   0.000015  -0.000001   0.000017  -0.000076
    38  C    0.000009  -0.000023  -0.000012   0.000005   0.000020   0.000535
    39  C    0.000003  -0.000004  -0.000004   0.000006   0.000042   0.001357
    40  H   -0.000036  -0.000022  -0.000010   0.000002   0.000008  -0.000067
    41  H   -0.000014   0.000002  -0.000003   0.000000   0.000000   0.000007
    42  H    0.000013  -0.000001   0.000000   0.000000   0.000002   0.000000
    43  H    0.000000   0.000001   0.000000  -0.000001   0.000003   0.000048
    44  H    0.000000   0.000001  -0.000002  -0.000002   0.000004   0.000036
              37         38         39         40         41         42
     1  C    0.003361  -0.003689  -0.001105  -0.000572  -0.000252   0.000179
     2  C   -0.092795  -0.014438   0.000063  -0.000999   0.006394  -0.001281
     3  C    0.318553  -0.062894  -0.002276  -0.025077  -0.041347  -0.000687
     4  C   -0.098710   0.008312  -0.000088  -0.005608  -0.003295   0.000031
     5  C    0.003721  -0.000294  -0.000034   0.002956  -0.000166  -0.000007
     6  H    0.004272   0.000077   0.003475  -0.001614   0.000712   0.000023
     7  H   -0.009910   0.007964   0.001856  -0.000037   0.000237   0.000133
     8  H   -0.007601   0.000119  -0.000007   0.000095   0.002716  -0.000010
     9  H    0.005347  -0.000177   0.000000   0.000232  -0.000273   0.000022
    10  O   -0.003036   0.000324  -0.000019   0.000291  -0.000095   0.000004
    11  O   -0.000101  -0.000001   0.000000   0.000183   0.000005   0.000000
    12  C   -0.000626  -0.000156  -0.000136   0.000485  -0.000004   0.000019
    13  C    0.000045  -0.000035  -0.000025  -0.000031   0.000000   0.000001
    14  C    0.007962  -0.000161  -0.000007  -0.000275  -0.000102  -0.000055
    15  O   -0.049650   0.003897   0.000451   0.003508  -0.004268   0.003952
    16  Si  -0.004506  -0.002532   0.000579   0.001352   0.006653   0.000398
    17  C   -0.000113  -0.000032   0.000000   0.000011   0.000010  -0.000042
    18  C   -0.002016   0.000172  -0.000001  -0.000036   0.000785   0.000069
    19  C   -0.000007  -0.002098  -0.000119   0.000034   0.000920  -0.000823
    20  H    0.000066  -0.000005   0.000000  -0.000003   0.000070   0.000001
    21  H    0.000238   0.000003   0.000001   0.000011  -0.000235   0.000000
    22  H    0.000191   0.000065  -0.000003  -0.000062   0.003429   0.000026
    23  H    0.000014   0.000114   0.000002   0.000000   0.000011   0.000243
    24  H    0.000948   0.000355   0.000240  -0.000006   0.002074  -0.001203
    25  H    0.000125  -0.000228  -0.000057  -0.000015  -0.000040   0.000988
    26  H    0.000010  -0.000001   0.000000  -0.000001   0.000012   0.000001
    27  H   -0.000015  -0.000002   0.000000   0.000000   0.000006  -0.000015
    28  H   -0.000015   0.000002   0.000000   0.000001  -0.000001   0.000001
    29  H   -0.000114  -0.000035  -0.000001  -0.000008   0.000010   0.000002
    30  H   -0.000074  -0.000048  -0.000004  -0.000007   0.000014  -0.000007
    31  H    0.000314   0.000009   0.000003  -0.000036  -0.000014   0.000013
    32  H   -0.000003  -0.000023  -0.000004  -0.000022   0.000002  -0.000001
    33  H    0.000015  -0.000012  -0.000004  -0.000010  -0.000003   0.000000
    34  H   -0.000001   0.000005   0.000006   0.000002   0.000000   0.000000
    35  H    0.000017   0.000020   0.000042   0.000008   0.000000   0.000002
    36  H   -0.000076   0.000535   0.001357  -0.000067   0.000007   0.000000
    37  C    5.479849   0.315930  -0.057450   0.384613   0.392220  -0.047392
    38  C    0.315930   5.073200   0.621674  -0.045465  -0.042045   0.397767
    39  C   -0.057450   0.621674   5.140074   0.001969  -0.002088  -0.038095
    40  H    0.384613  -0.045465   0.001969   0.446974  -0.026169   0.004474
    41  H    0.392220  -0.042045  -0.002088  -0.026169   0.443856  -0.001530
    42  H   -0.047392   0.397767  -0.038095   0.004474  -0.001530   0.453107
    43  H    0.006393  -0.039191   0.392574   0.000145  -0.000345  -0.007761
    44  H   -0.009065  -0.040822   0.388406   0.004335   0.000129   0.005753
              43         44
     1  C    0.000051   0.000056
     2  C    0.000030  -0.000211
     3  C   -0.000341   0.000294
     4  C    0.000016  -0.000055
     5  C    0.000000  -0.000016
     6  H    0.000020   0.001086
     7  H    0.000120  -0.000030
     8  H    0.000001   0.000003
     9  H   -0.000001   0.000002
    10  O    0.000000  -0.000021
    11  O    0.000000   0.000000
    12  C   -0.000012   0.000058
    13  C    0.000032   0.000048
    14  C   -0.000002   0.000003
    15  O    0.000013  -0.000006
    16  Si   0.000003  -0.000011
    17  C    0.000000   0.000000
    18  C    0.000000   0.000000
    19  C    0.000012  -0.000005
    20  H    0.000000   0.000000
    21  H    0.000000   0.000000
    22  H    0.000000   0.000000
    23  H   -0.000001   0.000000
    24  H    0.000013  -0.000009
    25  H   -0.000009   0.000001
    26  H    0.000000   0.000000
    27  H    0.000000   0.000000
    28  H    0.000000   0.000000
    29  H   -0.000001   0.000001
    30  H    0.000000   0.000000
    31  H    0.000000   0.000000
    32  H    0.000001   0.000001
    33  H    0.000000  -0.000002
    34  H   -0.000001  -0.000002
    35  H    0.000003   0.000004
    36  H    0.000048   0.000036
    37  C    0.006393  -0.009065
    38  C   -0.039191  -0.040822
    39  C    0.392574   0.388406
    40  H    0.000145   0.004335
    41  H   -0.000345   0.000129
    42  H   -0.007761   0.005753
    43  H    0.451720  -0.032561
    44  H   -0.032561   0.457963
 Mulliken charges:
               1
     1  C   -0.033557
     2  C   -0.326032
     3  C    0.205886
     4  C   -0.628969
     5  C    0.476633
     6  H    0.255352
     7  H    0.265496
     8  H    0.278927
     9  H    0.298224
    10  O   -0.312942
    11  O   -0.384112
    12  C   -0.471285
    13  C   -0.669993
    14  C   -0.668953
    15  O   -0.623664
    16  Si   1.397239
    17  C   -1.038629
    18  C   -1.083021
    19  C   -1.061221
    20  H    0.249776
    21  H    0.251413
    22  H    0.248306
    23  H    0.238659
    24  H    0.243808
    25  H    0.241844
    26  H    0.234278
    27  H    0.237302
    28  H    0.235443
    29  H    0.241361
    30  H    0.228497
    31  H    0.260205
    32  H    0.240893
    33  H    0.239872
    34  H    0.236426
    35  H    0.231935
    36  H    0.231140
    37  C   -0.540927
    38  C   -0.176159
    39  C   -0.451251
    40  H    0.254438
    41  H    0.261997
    42  H    0.231697
    43  H    0.229030
    44  H    0.224640
 Sum of Mulliken charges =   0.00000
 Mulliken charges with hydrogens summed into heavy atoms:
               1
     1  C    0.221795
     2  C   -0.060536
     3  C    0.205886
     4  C   -0.051819
     5  C    0.476633
    10  O   -0.312942
    11  O   -0.384112
    12  C    0.009480
    13  C    0.029508
    14  C    0.061109
    15  O   -0.623664
    16  Si   1.397239
    17  C   -0.331606
    18  C   -0.333526
    19  C   -0.336910
    37  C   -0.024492
    38  C    0.055538
    39  C    0.002419
 Electronic spatial extent (au):  <R**2>=           5495.7642
 Charge=              0.0000 electrons
 Dipole moment (field-independent basis, Debye):
    X=              1.5917    Y=              4.1242    Z=              1.4702  Tot=              4.6588
 Quadrupole moment (field-independent basis, Debye-Ang):
   XX=           -114.9982   YY=           -132.0550   ZZ=           -122.0127
   XY=            -12.5258   XZ=             -5.6408   YZ=             -8.4001
 Traceless Quadrupole moment (field-independent basis, Debye-Ang):
   XX=              8.0238   YY=             -9.0330   ZZ=              1.0093
   XY=            -12.5258   XZ=             -5.6408   YZ=             -8.4001
 Octapole moment (field-independent basis, Debye-Ang**2):
  XXX=             -2.1379  YYY=             40.4320  ZZZ=              2.1224  XYY=             21.5588
  XXY=             18.1428  XXZ=              7.6325  XZZ=            -10.0035  YZZ=              8.9022
  YYZ=             33.7167  XYZ=             19.4115
 Hexadecapole moment (field-independent basis, Debye-Ang**3):
 XXXX=          -4291.9649 YYYY=          -1878.4309 ZZZZ=          -1223.9429 XXXY=            -52.3224
 XXXZ=            -45.5203 YYYX=            -76.3309 YYYZ=            -86.0142 ZZZX=             -8.7342
 ZZZY=             12.7144 XXYY=          -1118.1191 XXZZ=           -961.3360 YYZZ=           -553.7394
 XXYZ=            -14.7322 YYXZ=            -15.5183 ZZXY=            -21.8937
 N-N= 1.630294579384D+03 E-N=-5.755541906049D+03  KE= 1.060516127411D+03
 1\1\GINC-SWANNODE-0-12\SP\RmPW1PW91\6-311G(d)\C14H26O3Si1\ROOT\08-Mar-
 2018\0\\#mPW1PW91/6-311g(d) nmr=(giao) scrf=(solvent=chloroform)\\P_ng
 _4ginp004\\0,1\C,0,0.093299,2.079633,-0.468939\C,0,-0.164461,1.313921,
 0.833819\C,0,-1.166667,2.131635,1.715921\C,0,-0.541243,3.509204,1.9702
 \C,0,0.065039,4.184665,0.768868\H,0,-0.839255,2.199292,-1.030621\H,0,-
 0.615234,0.340336,0.605281\H,0,-1.304354,4.194995,2.353348\H,0,0.23900
 7,3.447379,2.738322\O,0,0.58119,3.41179,-0.207855\O,0,0.181409,5.40677
 8,0.726995\C,0,1.092834,1.42853,-1.438313\C,0,0.679724,0.041524,-1.902
 834\C,0,1.148519,0.990704,1.58021\O,0,-1.280576,1.367897,2.937993\Si,0
 ,-2.188383,1.676075,4.308554\C,0,-1.325837,0.870874,5.788984\C,0,-2.40
 8368,3.489732,4.722227\C,0,-3.896834,0.894534,4.175884\H,0,-2.941211,3
 .599981,5.671921\H,0,-1.441027,3.990282,4.822194\H,0,-2.99243,4.003418
 ,3.953615\H,0,-4.430647,0.981445,5.126961\H,0,-4.494664,1.387985,3.404
 965\H,0,-3.813895,-0.166782,3.92434\H,0,-1.90665,1.028741,6.702279\H,0
 ,-1.217682,-0.205271,5.625863\H,0,-0.330965,1.303431,5.928813\H,0,1.76
 9744,0.303818,0.996734\H,0,1.744123,1.886943,1.7778\H,0,0.95808,0.4928
 25,2.535992\H,0,2.096196,1.396776,-0.99788\H,0,1.194263,2.077675,-2.31
 8228\H,0,1.377337,-0.322529,-2.663917\H,0,0.684116,-0.67801,-1.079254\
 H,0,-0.322299,0.057728,-2.343061\C,0,-2.559959,2.3082,1.0178\C,0,-3.18
 8087,1.029051,0.525858\C,0,-3.608211,0.830184,-0.730011\H,0,-2.478312,
 3.021106,0.18801\H,0,-3.269666,2.765889,1.716434\H,0,-3.305648,0.22514
 7,1.250382\H,0,-4.057157,-0.115568,-1.020136\H,0,-3.525649,1.597311,-1
 .493833\\Version=EM64L-G09RevD.01\State=1-A\HF=-1064.3770359\RMSD=3.10
 5e-09\Dipole=-0.7829947,-1.6378076,0.2530477\Quadrupole=2.3145874,-10.
 3417806,8.0271932,-6.5447932,0.4420586,7.2484097\PG=C01 [X(C14H26O3Si1
 )]\\@


 IT IS THE BEHAVIOR AND DISTRIBUTION OF THE ELECTRONS 
 AROUND THE NUCLEUS THAT GIVES THE FUNDAMENTAL 
 CHARACTER OF AN ATOM:  IT MUST BE THE SAME FOR MOLECULES.

                               -- C. A. COULSON, 1951
 Job cpu time:       0 days  1 hours  8 minutes 56.3 seconds.
 File lengths (MBytes):  RWF=    230 Int=      0 D2E=      0 Chk=     11 Scr=      1
 Normal termination of Gaussian 09 at Thu Mar  8 13:55:09 2018.
