 Entering Gaussian System, Link 0=/usr/local/shared/gaussian/em64t/09-D01/g09/g09
 Initial command:
 /usr/local/shared/gaussian/em64t/09-D01/g09/l1.exe "/scratch/ah809/P_ng_3ginp001/Gau-30277.inp" -scrdir="/scratch/ah809/P_ng_3ginp001/"
 Entering Link 1 = /usr/local/shared/gaussian/em64t/09-D01/g09/l1.exe PID=     30285.
  
 Copyright (c) 1988,1990,1992,1993,1995,1998,2003,2009,2013,
            Gaussian, Inc.  All Rights Reserved.
  
 This is part of the Gaussian(R) 09 program.  It is based on
 the Gaussian(R) 03 system (copyright 2003, Gaussian, Inc.),
 the Gaussian(R) 98 system (copyright 1998, Gaussian, Inc.),
 the Gaussian(R) 94 system (copyright 1995, Gaussian, Inc.),
 the Gaussian 92(TM) system (copyright 1992, Gaussian, Inc.),
 the Gaussian 90(TM) system (copyright 1990, Gaussian, Inc.),
 the Gaussian 88(TM) system (copyright 1988, Gaussian, Inc.),
 the Gaussian 86(TM) system (copyright 1986, Carnegie Mellon
 University), and the Gaussian 82(TM) system (copyright 1983,
 Carnegie Mellon University). Gaussian is a federally registered
 trademark of Gaussian, Inc.
  
 This software contains proprietary and confidential information,
 including trade secrets, belonging to Gaussian, Inc.
  
 This software is provided under written license and may be
 used, copied, transmitted, or stored only in accord with that
 written license.
  
 The following legend is applicable only to US Government
 contracts under FAR:
  
                    RESTRICTED RIGHTS LEGEND
  
 Use, reproduction and disclosure by the US Government is
 subject to restrictions as set forth in subparagraphs (a)
 and (c) of the Commercial Computer Software - Restricted
 Rights clause in FAR 52.227-19.
  
 Gaussian, Inc.
 340 Quinnipiac St., Bldg. 40, Wallingford CT 06492
  
  
 ---------------------------------------------------------------
 Warning -- This program may not be used in any manner that
 competes with the business of Gaussian, Inc. or will provide
 assistance to any competitor of Gaussian, Inc.  The licensee
 of this program is prohibited from giving any competitor of
 Gaussian, Inc. access to this program.  By using this program,
 the user acknowledges that Gaussian, Inc. is engaged in the
 business of creating and licensing software in the field of
 computational chemistry and represents and warrants to the
 licensee that it is not a competitor of Gaussian, Inc. and that
 it will not use this program in any manner prohibited above.
 ---------------------------------------------------------------
  

 Cite this work as:
 Gaussian 09, Revision D.01,
 M. J. Frisch, G. W. Trucks, H. B. Schlegel, G. E. Scuseria, 
 M. A. Robb, J. R. Cheeseman, G. Scalmani, V. Barone, B. Mennucci, 
 G. A. Petersson, H. Nakatsuji, M. Caricato, X. Li, H. P. Hratchian, 
 A. F. Izmaylov, J. Bloino, G. Zheng, J. L. Sonnenberg, M. Hada, 
 M. Ehara, K. Toyota, R. Fukuda, J. Hasegawa, M. Ishida, T. Nakajima, 
 Y. Honda, O. Kitao, H. Nakai, T. Vreven, J. A. Montgomery, Jr., 
 J. E. Peralta, F. Ogliaro, M. Bearpark, J. J. Heyd, E. Brothers, 
 K. N. Kudin, V. N. Staroverov, T. Keith, R. Kobayashi, J. Normand, 
 K. Raghavachari, A. Rendell, J. C. Burant, S. S. Iyengar, J. Tomasi, 
 M. Cossi, N. Rega, J. M. Millam, M. Klene, J. E. Knox, J. B. Cross, 
 V. Bakken, C. Adamo, J. Jaramillo, R. Gomperts, R. E. Stratmann, 
 O. Yazyev, A. J. Austin, R. Cammi, C. Pomelli, J. W. Ochterski, 
 R. L. Martin, K. Morokuma, V. G. Zakrzewski, G. A. Voth, 
 P. Salvador, J. J. Dannenberg, S. Dapprich, A. D. Daniels, 
 O. Farkas, J. B. Foresman, J. V. Ortiz, J. Cioslowski, 
 and D. J. Fox, Gaussian, Inc., Wallingford CT, 2013.
 
 ******************************************
 Gaussian 09:  EM64L-G09RevD.01 24-Apr-2013
                 8-Mar-2018 
 ******************************************
 %mem=6000MB
 %chk=P_ng_3ginp001.chk
 --------------------------------------------------------
 #mPW1PW91/6-311g(d) nmr=(giao) scrf=(solvent=chloroform)
 --------------------------------------------------------
 1/38=1/1;
 2/12=2,17=6,18=5,40=1/2;
 3/5=4,6=6,7=1,11=2,16=1,25=1,30=1,70=2201,72=7,74=-7/1,2,8,3;
 4//1;
 5/5=2,38=5,53=7/2;
 8/6=1,10=90,11=11/1;
 10/13=100,45=16/2;
 6/7=2,8=2,9=2,10=2,28=1/1;
 99/9=1/99;
 -------------
 P_ng_3ginp001
 -------------
 Symbolic Z-matrix:
 Charge =  0 Multiplicity = 1
 C                    -0.28422   0.32264  -0.18259 
 C                    -1.59842  -0.08166   0.49942 
 C                    -1.83359   0.83403   1.74518 
 C                    -1.86241   2.2839    1.24721 
 C                    -0.71213   2.66276   0.35424 
 H                     0.55585   0.13698   0.49553 
 H                    -1.52014  -1.12521   0.83175 
 H                    -2.78081   2.49426   0.68804 
 H                    -1.8526    2.97255   2.10065 
 O                    -0.25203   1.72765  -0.50355 
 O                    -0.28694   3.81382   0.32069 
 C                     0.00817  -0.46325  -1.47117 
 C                     1.41941  -0.2106   -1.99027 
 C                    -2.79122  -0.05838  -0.48023 
 O                    -3.08805   0.38619   2.30727 
 Si                   -4.13054   1.19343   3.3376 
 C                    -3.28362   2.02577   4.7873 
 C                    -5.14421   2.48374   2.41696 
 C                    -5.35272  -0.06201   4.05403 
 H                    -5.95255   2.85786   3.05243 
 H                    -4.52518   3.33576   2.12358 
 H                    -5.58823   2.05075   1.51586 
 H                    -4.81851  -0.8294    4.62165 
 H                    -6.06346   0.43405   4.72122 
 H                    -5.91109  -0.54952   3.24969 
 H                    -4.02551   2.47565   5.45433 
 H                    -2.705     1.30178   5.36838 
 H                    -2.61161   2.82039   4.45181 
 H                    -3.73756  -0.26695   0.0279 
 H                    -2.8853    0.9028   -0.99445 
 H                    -2.67748  -0.83299  -1.24597 
 H                    -0.68973  -0.16915  -2.26349 
 H                    -0.11427  -1.53713  -1.28998 
 H                     1.59763  -0.79776  -2.89676 
 H                     1.5703    0.84474  -2.23778 
 H                     2.16824  -0.50086  -1.24646 
 C                    -0.70057   0.66851   2.81633 
 C                    -0.49415  -0.74485   3.29718 
 C                     0.67744  -1.39204   3.25815 
 H                    -0.9381    1.26798   3.7003 
 H                     0.24584   1.07776   2.44349 
 H                    -1.36465  -1.25413   3.70821 
 H                     0.75928  -2.41027   3.62763 
 H                     1.579    -0.92864   2.86959 
 
                          Input orientation:                          
 ---------------------------------------------------------------------
 Center     Atomic      Atomic             Coordinates (Angstroms)
 Number     Number       Type             X           Y           Z
 ---------------------------------------------------------------------
      1          6           0       -0.284221    0.322643   -0.182591
      2          6           0       -1.598420   -0.081655    0.499420
      3          6           0       -1.833593    0.834034    1.745180
      4          6           0       -1.862411    2.283903    1.247208
      5          6           0       -0.712128    2.662759    0.354239
      6          1           0        0.555853    0.136977    0.495532
      7          1           0       -1.520135   -1.125209    0.831751
      8          1           0       -2.780812    2.494264    0.688038
      9          1           0       -1.852602    2.972553    2.100652
     10          8           0       -0.252031    1.727646   -0.503550
     11          8           0       -0.286941    3.813818    0.320688
     12          6           0        0.008173   -0.463245   -1.471169
     13          6           0        1.419406   -0.210600   -1.990265
     14          6           0       -2.791215   -0.058378   -0.480230
     15          8           0       -3.088048    0.386191    2.307268
     16         14           0       -4.130536    1.193433    3.337598
     17          6           0       -3.283621    2.025771    4.787295
     18          6           0       -5.144206    2.483737    2.416961
     19          6           0       -5.352716   -0.062013    4.054028
     20          1           0       -5.952549    2.857857    3.052428
     21          1           0       -4.525177    3.335764    2.123580
     22          1           0       -5.588234    2.050751    1.515858
     23          1           0       -4.818508   -0.829395    4.621647
     24          1           0       -6.063465    0.434049    4.721220
     25          1           0       -5.911087   -0.549524    3.249690
     26          1           0       -4.025509    2.475654    5.454330
     27          1           0       -2.704996    1.301778    5.368376
     28          1           0       -2.611608    2.820385    4.451807
     29          1           0       -3.737557   -0.266949    0.027904
     30          1           0       -2.885303    0.902796   -0.994447
     31          1           0       -2.677477   -0.832988   -1.245968
     32          1           0       -0.689731   -0.169145   -2.263488
     33          1           0       -0.114265   -1.537133   -1.289976
     34          1           0        1.597633   -0.797762   -2.896762
     35          1           0        1.570302    0.844737   -2.237781
     36          1           0        2.168240   -0.500857   -1.246455
     37          6           0       -0.700569    0.668509    2.816333
     38          6           0       -0.494148   -0.744847    3.297182
     39          6           0        0.677443   -1.392036    3.258148
     40          1           0       -0.938099    1.267983    3.700299
     41          1           0        0.245840    1.077756    2.443493
     42          1           0       -1.364651   -1.254134    3.708211
     43          1           0        0.759281   -2.410274    3.627629
     44          1           0        1.579000   -0.928641    2.869591
 ---------------------------------------------------------------------
                    Distance matrix (angstroms):
                    1          2          3          4          5
     1  C    0.000000
     2  C    1.534834   0.000000
     3  C    2.525545   1.563877   0.000000
     4  C    2.895091   2.494943   1.533273   0.000000
     5  C    2.438736   2.887629   2.556685   1.504685   0.000000
     6  H    1.095467   2.165342   2.785132   3.319986   2.829720
     7  H    2.157000   1.097988   2.184317   3.451348   3.902511
     8  H    3.421535   2.840596   2.184293   1.095620   2.102205
     9  H    3.833411   3.457852   2.167945   1.096678   2.108699
    10  O    1.441556   2.468255   2.890790   2.442928   1.349788
    11  O    3.527265   4.114199   3.646974   2.383524   1.227537
    12  C    1.537383   2.570987   3.926823   4.293656   3.690914
    13  C    2.540547   3.914388   5.062293   5.241574   4.277421
    14  C    2.553191   1.543702   2.581838   3.054996   3.524703
    15  O    3.750318   2.388762   1.445740   2.495441   3.826497
    16  Si   5.286222   4.011573   2.817962   3.271582   4.769157
    17  C    6.049530   5.066263   3.574532   3.823439   5.164331
    18  C    5.920089   4.778158   3.759384   3.489761   4.891849
    19  C    6.617140   5.170141   4.303244   5.056065   6.530534
    20  H    7.001614   5.840978   4.771850   4.507491   5.897482
    21  H    5.690609   4.783571   3.694112   2.994121   4.257094
    22  H    5.831264   4.636692   3.953520   3.742765   5.049784
    23  H    6.705792   5.284017   4.466629   5.460584   6.875192
    24  H    7.580200   6.166537   5.187352   5.756698   7.257719
    25  H    6.648522   5.136339   4.561112   5.331981   6.762512
    26  H    7.099829   6.081260   4.610554   4.734515   6.084770
    27  H    6.134500   5.181229   3.755753   4.319554   5.564653
    28  H    5.756135   5.006970   3.446263   3.334451   4.519174
    29  H    3.509623   2.198310   2.790391   3.392598   4.224086
    30  H    2.785914   2.203826   2.935367   2.824674   3.104692
    31  H    2.862504   2.185233   3.526765   4.073729   4.317813
    32  H    2.176333   2.909816   4.287681   4.440451   3.856511
    33  H    2.171164   2.742822   4.217902   4.908527   4.549723
    34  H    3.487607   4.718222   5.998641   6.216193   5.280077
    35  H    2.817027   4.288504   5.239331   5.099006   3.902981
    36  H    2.797235   4.172713   5.171700   5.497217   4.568064
    37  C    3.047378   2.595567   1.567964   2.534073   3.168450
    38  C    3.645878   3.080051   2.587603   3.904851   4.507794
    39  C    3.962778   3.808836   3.681000   4.899721   5.177350
    40  H    4.049452   3.535983   2.193789   2.811423   3.632159
    41  H    2.783429   2.919751   2.207053   2.707510   2.791938
    42  H    4.334962   3.424280   2.904108   4.338434   5.197785
    43  H    4.803697   4.557073   4.559840   5.880049   6.214160
    44  H    3.788551   4.053529   4.002139   4.979546   4.947163
                    6          7          8          9         10
     6  H    0.000000
     7  H    2.452730   0.000000
     8  H    4.089889   3.835433   0.000000
     9  H    4.051858   4.302592   1.756648   0.000000
    10  O    2.044766   3.395570   2.898675   3.300529   0.000000
    11  O    3.776246   5.116243   2.845270   2.515411   2.243368
    12  C    2.127941   2.842070   4.602985   5.293874   2.409148
    13  C    2.654378   4.176265   5.668459   6.129772   2.959868
    14  C    3.491868   2.115435   2.807301   4.090048   3.104494
    15  O    4.077071   2.630557   2.675868   2.873723   4.212267
    16  Si   5.581727   4.297623   3.245625   3.143929   5.484761
    17  C    6.060391   5.355827   4.156466   3.187830   6.105117
    18  C    6.456767   5.354556   2.928296   3.342701   5.747559
    19  C    6.900267   5.118802   4.947639   5.027431   7.070459
    20  H    7.503346   6.359443   3.972714   4.210534   6.813095
    21  H    6.220904   5.531671   2.410749   2.697240   5.267602
    22  H    6.515627   5.206165   2.960339   3.891870   5.714671
    23  H    6.844155   5.032900   5.538248   5.441215   7.325218
    24  H    7.858757   6.180704   5.593465   5.571602   7.921135
    25  H    7.062435   5.045622   5.062147   5.495145   7.162208
    26  H    7.144786   6.372703   4.926171   4.026859   7.091896
    27  H    5.977835   5.279690   4.830459   3.767769   6.377924
    28  H    5.734597   5.464781   3.781659   2.475313   5.596181
    29  H    4.337649   2.509928   2.995903   4.282956   4.050894
    30  H    3.827280   3.051473   2.318285   3.863936   2.802763
    31  H    3.798431   2.396195   3.849891   5.134435   3.604278
    32  H    3.042595   3.344269   4.491979   5.501659   2.624267
    33  H    2.537665   2.578348   5.222564   5.903850   3.360986
    34  H    3.669700   4.871294   6.546679   7.147975   3.940356
    35  H    3.000172   4.780535   5.496685   5.921645   2.666080
    36  H    2.457874   4.279353   6.099683   6.279719   3.372810
    37  C    2.692070   2.797799   3.491480   2.673574   3.513486
    38  C    3.119192   2.697346   4.746399   4.134748   4.540639
    39  C    3.159859   3.284501   5.802441   5.175960   4.974606
    40  H    3.712358   3.780833   3.738057   2.510129   4.284195
    41  H    2.185343   3.251067   3.774750   2.848026   3.058643
    42  H    3.993098   2.883543   5.017713   4.548321   5.279002
    43  H    4.042264   3.829369   6.725173   6.174821   5.933951
    44  H    2.796163   3.714306   5.956796   5.252283   4.667613
                   11         12         13         14         15
    11  O    0.000000
    12  C    4.646624   0.000000
    13  C    4.944498   1.524752   0.000000
    14  C    4.680466   2.997074   4.475791   0.000000
    15  O    4.851941   4.958297   6.256364   2.838291   0.000000
    16  Si   5.544492   6.557266   7.820440   4.235165   1.673320
    17  C    5.668137   7.496631   8.547230   5.686208   2.979430
    18  C    5.454952   7.095722   8.352490   4.515820   2.939306
    19  C    7.390668   7.708951   9.078392   5.207763   2.894957
    20  H    6.362026   8.186749   9.444041   5.565800   3.856133
    21  H    4.630507   6.921413   8.052235   4.615913   3.286193
    22  H    5.713190   6.823656   8.155589   4.031886   3.106126
    23  H    7.784136   7.781602   9.111084   5.543783   3.135042
    24  H    8.009728   8.718693  10.072386   6.164835   3.831783
    25  H    7.697326   7.571763   9.017102   4.887446   3.119819
    26  H    6.490135   8.536408   9.606511   6.569916   3.892132
    27  H    6.134859   7.566767   8.570156   6.005302   3.217982
    28  H    4.843256   7.261344   8.181457   5.713539   3.278924
    29  H    5.352115   4.039337   5.538091   1.094196   2.458445
    30  H    4.117659   3.235048   4.556514   1.094133   3.348030
    31  H    5.455445   2.720320   4.210201   1.095131   3.778949
    32  H    4.764892   1.096054   2.127164   2.758353   5.191544
    33  H    5.590772   1.095928   2.145283   3.163616   5.048042
    34  H    5.930453   2.161157   1.094651   5.064415   7.102062
    35  H    4.337114   2.176869   1.094427   4.788260   6.524413
    36  H    5.205792   2.172050   1.094648   5.037766   6.406588
    37  C    4.036372   4.490641   5.326398   3.970704   2.457419
    38  C    5.448291   4.802999   5.648381   4.473991   2.997915
    39  C    6.054719   4.865903   5.430667   5.271214   4.271438
    40  H    4.281011   5.535040   6.334553   4.761312   2.709312
    41  H    3.503740   4.213757   4.763961   4.366081   3.407584
    42  H    6.190388   5.416284   6.427485   4.583444   2.761051
    43  H    7.125290   5.509340   6.069190   5.917089   4.936143
    44  H    5.698207   4.639643   4.915206   5.574714   4.881222
                   16         17         18         19         20
    16  Si   0.000000
    17  C    1.873946   0.000000
    18  C    1.881484   3.047949   0.000000
    19  C    1.892919   3.029468   3.033860   0.000000
    20  H    2.484222   3.290183   1.094167   3.144621   0.000000
    21  H    2.493825   3.217595   1.093261   3.994539   1.768769
    22  H    2.485682   4.001770   1.093903   3.310823   1.773469
    23  H    2.492774   3.245811   3.992939   1.093821   4.164652
    24  H    2.495454   3.203978   3.218053   1.093795   2.944828
    25  H    2.493188   3.987474   3.237625   1.093803   3.413338
    26  H    2.477030   1.094408   3.236844   3.187801   3.103014
    27  H    2.483538   1.093905   4.007196   3.255435   4.281541
    28  H    2.489092   1.093419   3.266188   3.997514   3.622368
    29  H    3.638849   5.302304   3.905449   4.342858   4.880404
    30  H    4.516823   5.903242   4.386311   5.701411   5.441274
    31  H    5.217934   6.703743   5.522904   5.986757   6.544054
    32  H    6.713265   7.826842   6.984750   7.852765   8.069632
    33  H    6.708268   7.724786   7.430282   7.627301   8.500469
    34  H    8.697357   9.531197   9.190010   9.857087  10.284049
    35  H    7.981603   8.620157   8.332920   9.398789   9.414470
    36  H    7.972374   8.515443   8.706336   9.211541   9.783076
    37  C    3.508837   3.521223   4.816686   4.869089   5.694935
    38  C    4.120908   4.204512   5.729012   4.964349   6.544732
    39  C    5.459636   5.450663   7.044204   6.226171   7.877862
    40  H    3.213839   2.693933   4.562494   4.624160   5.300202
    41  H    4.468274   4.341571   5.570465   5.936053   6.477622
    42  H    3.711881   3.950272   5.470287   4.176770   6.195751
    43  H    6.081211   6.112968   7.763261   6.561452   8.551767
    44  H    6.109094   6.004267   7.553191   7.085381   8.431799
                   21         22         23         24         25
    21  H    0.000000
    22  H    1.775014   0.000000
    23  H    4.865689   4.305072   0.000000
    24  H    4.187364   3.621314   1.776548   0.000000
    25  H    4.276018   3.141948   1.776041   1.776523   0.000000
    26  H    3.476112   4.258429   3.499365   2.976385   4.191365
    27  H    4.240148   4.869899   3.092965   3.528609   4.265580
    28  H    3.057450   4.251169   4.268506   4.205056   4.867025
    29  H    4.241668   3.318244   4.752607   5.284739   3.896663
    30  H    4.281426   3.863323   6.186944   6.556622   5.410850
    31  H    5.669774   4.941269   6.246033   6.976936   5.545045
    32  H    6.800103   6.573182   8.055297   8.833290   7.602788
    33  H    7.406324   7.121092   7.588022   8.684067   7.428801
    34  H    8.931891   8.900670   9.884045  10.873980   9.706769
    35  H    7.898199   8.172448   9.522151  10.337831   9.382296
    36  H    8.418945   8.619975   9.130017  10.210199   9.246254
    37  C    4.713999   5.243195   4.739230   5.695983   5.368510
    38  C    5.854735   6.077680   4.523433   5.868132   5.420667
    39  C    7.120856   7.358469   5.690446   7.135475   6.642185
    40  H    4.430450   5.196948   4.506157   5.292174   5.313849
    41  H    5.288057   5.986956   5.833455   6.738674   6.419170
    42  H    5.793716   5.793732   3.597763   5.094605   4.623505
    43  H    7.950133   8.040601   5.882090   7.472348   6.935347
    44  H    7.483492   7.878998   6.633827   7.980772   7.509301
                   26         27         28         29         30
    26  H    0.000000
    27  H    1.768934   0.000000
    28  H    1.767203   1.776228   0.000000
    29  H    6.086944   5.661071   5.510926   0.000000
    30  H    6.735034   6.377869   5.780462   1.771960   0.000000
    31  H    7.593306   6.950362   6.768760   1.751262   1.766182
    32  H    8.814028   8.029337   7.597769   3.814353   2.753191
    33  H    8.768464   7.687975   7.628418   4.059362   3.703950
    34  H   10.586582   9.551607   9.209243   6.107347   5.158238
    35  H    9.650988   8.737316   8.132782   5.877290   4.626193
    36  H    9.598055   8.411534   8.145415   6.046250   5.250909
    37  C    4.613028   3.306309   3.310199   4.227732   4.398863
    38  C    5.243608   3.656004   4.304379   4.629932   5.181740
    39  C    6.473021   4.811506   5.476054   5.585027   6.003664
    40  H    3.750626   2.430133   2.403196   4.866155   5.095646
    41  H    5.409592   4.160836   3.903215   4.848789   4.653396
    42  H    4.903103   3.329468   4.325453   4.488861   5.392562
    43  H    7.078372   5.367564   6.277098   6.146008   6.754481
    44  H    7.048448   5.437952   5.841216   6.064553   6.181824
                   31         32         33         34         35
    31  H    0.000000
    32  H    2.329628   0.000000
    33  H    2.658536   1.774902   0.000000
    34  H    4.582895   2.455245   2.461509   0.000000
    35  H    4.673551   2.477169   3.067475   1.769973   0.000000
    36  H    4.857086   3.051620   2.507108   1.771231   1.775072
    37  C    4.760772   5.148433   4.697913   6.330177   5.543643
    38  C    5.041320   5.593812   4.670551   6.537835   6.117561
    39  C    5.644031   5.818341   4.618797   6.251626   6.000466
    40  H    5.648458   6.139526   5.783617   7.363318   6.460031
    41  H    5.080241   4.958399   4.572320   5.819213   4.870608
    42  H    5.142447   6.106874   5.159983   7.253211   6.955144
    43  H    6.168556   6.467423   5.070335   6.772792   6.756914
    44  H    5.921535   5.663257   4.532042   5.767868   5.406496
                   36         37         38         39         40
    36  H    0.000000
    37  C    5.109181   0.000000
    38  C    5.271857   1.507117   0.000000
    39  C    4.827849   2.517928   1.339031   0.000000
    40  H    6.103156   1.094160   2.100257   3.143434   0.000000
    41  H    4.450096   1.096441   2.144353   2.636250   1.737084
    42  H    6.131677   2.221037   1.089079   2.095643   2.557945
    43  H    5.421045   3.502609   2.110433   1.086288   4.051661
    44  H    4.179957   2.783911   2.124749   1.085595   3.442531
                   41         42         43         44
    41  H    0.000000
    42  H    3.103370   0.000000
    43  H    3.719160   2.419554   0.000000
    44  H    2.446325   3.078037   1.855208   0.000000
 Stoichiometry    C14H26O3Si
 Framework group  C1[X(C14H26O3Si)]
 Deg. of freedom   126
 Full point group                 C1      NOp   1
 Largest Abelian subgroup         C1      NOp   1
 Largest concise Abelian subgroup C1      NOp   1
                         Standard orientation:                         
 ---------------------------------------------------------------------
 Center     Atomic      Atomic             Coordinates (Angstroms)
 Number     Number       Type             X           Y           Z
 ---------------------------------------------------------------------
      1          6           0        2.360046    0.081901    0.298533
      2          6           0        0.999170    0.256616    0.986432
      3          6           0       -0.136509    0.124811   -0.080607
      4          6           0        0.008635   -1.254718   -0.733874
      5          6           0        1.400105   -1.582441   -1.203435
      6          1           0        2.518585    0.895310   -0.417902
      7          1           0        0.953848    1.257391    1.435845
      8          1           0       -0.290742   -2.053765   -0.046647
      9          1           0       -0.654404   -1.327754   -1.604360
     10          8           0        2.432744   -1.147387   -0.450899
     11          8           0        1.587780   -2.319352   -2.167068
     12          6           0        3.550349    0.113549    1.271017
     13          6           0        4.887261    0.176682    0.540571
     14          6           0        0.814838   -0.723691    2.164582
     15          8           0       -1.366901    0.292076    0.659880
     16         14           0       -2.919755   -0.172937    0.244658
     17          6           0       -3.410189    0.271841   -1.508430
     18          6           0       -3.170386   -2.022232    0.483984
     19          6           0       -4.134846    0.704106    1.401157
     20          1           0       -4.231553   -2.276565    0.403714
     21          1           0       -2.628972   -2.594893   -0.273742
     22          1           0       -2.816773   -2.332217    1.471654
     23          1           0       -4.048772    1.788767    1.289147
     24          1           0       -5.162720    0.409966    1.170195
     25          1           0       -3.922996    0.443780    2.442192
     26          1           0       -4.454648    0.001196   -1.691693
     27          1           0       -3.306819    1.347115   -1.680850
     28          1           0       -2.794908   -0.259281   -2.239800
     29          1           0       -0.186852   -0.651947    2.599019
     30          1           0        0.983814   -1.763190    1.867907
     31          1           0        1.516586   -0.492581    2.972944
     32          1           0        3.558928   -0.789408    1.892248
     33          1           0        3.468750    0.982721    1.933542
     34          1           0        5.709115    0.214831    1.262624
     35          1           0        5.037068   -0.702550   -0.093684
     36          1           0        4.948027    1.070280   -0.088750
     37          6           0       -0.040562    1.239432   -1.179209
     38          6           0       -0.051147    2.648664   -0.645025
     39          6           0        0.893708    3.561389   -0.904224
     40          1           0       -0.890920    1.157798   -1.862884
     41          1           0        0.843825    1.085700   -1.808820
     42          1           0       -0.895224    2.927308   -0.015751
     43          1           0        0.822331    4.563715   -0.491586
     44          1           0        1.750175    3.341241   -1.533919
 ---------------------------------------------------------------------
 Rotational constants (GHZ):      0.5550148      0.2483872      0.2253537
 Standard basis: 6-311G(d) (5D, 7F)
 There are   428 symmetry adapted cartesian basis functions of A   symmetry.
 There are   410 symmetry adapted basis functions of A   symmetry.
   410 basis functions,   720 primitive gaussians,   428 cartesian basis functions
    74 alpha electrons       74 beta electrons
       nuclear repulsion energy      1625.9084610057 Hartrees.
 NAtoms=   44 NActive=   44 NUniq=   44 SFac= 1.00D+00 NAtFMM=   60 NAOKFM=F Big=F
 Integral buffers will be    131072 words long.
 Raffenetti 2 integral format.
 Two-electron integral symmetry is turned on.
 ------------------------------------------------------------------------------
 Polarizable Continuum Model (PCM)
 =================================
 Model                : PCM (using non-symmetric T matrix).
 Atomic radii         : UFF (Universal Force Field).
 Polarization charges : Total charges.
 Charge compensation  : None.
 Solution method      : On-the-fly selection.
 Cavity type          : Scaled VdW (van der Waals Surface) (Alpha=1.100).
 Cavity algorithm     : GePol (No added spheres)
                        Default sphere list used, NSphG=   44.
                        Lebedev-Laikov grids with approx.  5.0 points / Ang**2.
                        Smoothing algorithm: Karplus/York (Gamma=1.0000).
                        Polarization charges: spherical gaussians, with
                                              point-specific exponents (IZeta= 3).
                        Self-potential: point-specific (ISelfS= 7).
                        Self-field    : sphere-specific E.n sum rule (ISelfD= 2).
 Solvent              : Chloroform, Eps=   4.711300 Eps(inf)=   2.090627
 ------------------------------------------------------------------------------
 One-electron integrals computed using PRISM.
 NBasis=   410 RedAO= T EigKep=  1.05D-03  NBF=   410
 NBsUse=   410 1.00D-06 EigRej= -1.00D+00 NBFU=   410
 ExpMin= 6.54D-02 ExpMax= 6.94D+04 ExpMxC= 2.33D+03 IAcc=2 IRadAn=         4 AccDes= 0.00D+00
 Harris functional with IExCor=  908 and IRadAn=       4 diagonalized for initial guess.
 HarFok:  IExCor=  908 AccDes= 0.00D+00 IRadAn=         4 IDoV= 1 UseB2=F ITyADJ=14
 ICtDFT=  3500011 ScaDFX=  1.000000  1.000000  1.000000  1.000000
 FoFCou: FMM=F IPFlag=           0 FMFlag=      100000 FMFlg1=           0
         NFxFlg=           0 DoJE=T BraDBF=F KetDBF=T FulRan=T
         wScrn=  0.000000 ICntrl=     500 IOpCl=  0 I1Cent=   200000004 NGrid=           0
         NMat0=    1 NMatS0=      1 NMatT0=    0 NMatD0=    1 NMtDS0=    0 NMtDT0=    0
 Petite list used in FoFCou.
 Requested convergence on RMS density matrix=1.00D-08 within 128 cycles.
 Requested convergence on MAX density matrix=1.00D-06.
 Requested convergence on             energy=1.00D-06.
 No special actions if energy rises.
 Inv3:  Mode=1 IEnd=    25038963.
 Iteration    1 A*A^-1 deviation from unit magnitude is 8.33D-15 for   1850.
 Iteration    1 A*A^-1 deviation from orthogonality  is 7.77D-15 for   2130    533.
 Iteration    1 A^-1*A deviation from unit magnitude is 9.77D-15 for   2340.
 Iteration    1 A^-1*A deviation from orthogonality  is 1.03D-12 for   2805   2800.
 Error on total polarization charges =  0.01140
 SCF Done:  E(RmPW1PW91) =  -1064.37761235     A.U. after   12 cycles
            NFock= 12  Conv=0.97D-08     -V/T= 2.0036
 DoSCS=F DFT=T ScalE2(SS,OS)=  1.000000  1.000000
 Range of M.O.s used for correlation:     1   410
 NBasis=   410 NAE=    74 NBE=    74 NFC=     0 NFV=     0
 NROrb=    410 NOA=    74 NOB=    74 NVA=   336 NVB=   336
 NEqPCM:  Using equilibrium solvation (IEInf=0, Eps=   4.7113, EpsInf=   2.0906)
          Differentiating once with respect to magnetic field using GIAOs.
          Electric field/nuclear overlap derivatives assumed to be zero.
 FoFJK:  IHMeth= 1 ICntrl=    6127 DoSepK=F KAlg= 0 I1Cent=   0 FoldK=F
 IRaf=         1 NMat=   1 IRICut=       1 DoRegI=T DoRafI=F ISym2E= 0.
          There are     3 degrees of freedom in the 1st order CPHF.  IDoFFX=0 NUNeed=     3.
      3 vectors produced by pass  0 Test12= 8.29D-13 3.33D-08 XBig12= 3.54D+01 1.05D+00.
 AX will form     3 AO Fock derivatives at one time.
      3 vectors produced by pass  1 Test12= 8.29D-13 3.33D-08 XBig12= 8.82D-02 1.05D-01.
      3 vectors produced by pass  2 Test12= 8.29D-13 3.33D-08 XBig12= 6.45D-04 1.06D-02.
      3 vectors produced by pass  3 Test12= 8.29D-13 3.33D-08 XBig12= 4.27D-06 8.53D-04.
      3 vectors produced by pass  4 Test12= 8.29D-13 3.33D-08 XBig12= 2.51D-08 6.04D-05.
      3 vectors produced by pass  5 Test12= 8.29D-13 3.33D-08 XBig12= 5.63D-11 1.22D-06.
      2 vectors produced by pass  6 Test12= 8.29D-13 3.33D-08 XBig12= 1.52D-13 8.38D-08.
 InvSVY:  IOpt=1 It=  1 EMax= 5.55D-17
 Solved reduced A of dimension    20 with     3 vectors.
 Calculating GIAO nuclear magnetic shielding tensors.
 SCF GIAO Magnetic shielding tensor (ppm):
      1  C    Isotropic =   106.4354   Anisotropy =    42.5842
   XX=   102.4897   YX=    -1.0712   ZX=     1.2920
   XY=     2.7407   YY=   122.3494   ZY=    21.1255
   XZ=     5.6739   YZ=    23.3237   ZZ=    94.4669
   Eigenvalues:    81.8327   102.6486   134.8248
      2  C    Isotropic =   144.1340   Anisotropy =    27.9433
   XX=   162.0488   YX=     2.1613   ZX=     1.9481
   XY=     2.4863   YY=   135.7127   ZY=     1.7306
   XZ=     6.2086   YZ=    -8.8699   ZZ=   134.6404
   Eigenvalues:   130.8836   138.7554   162.7629
      3  C    Isotropic =   105.0720   Anisotropy =    56.5792
   XX=   134.8751   YX=    -1.7216   ZX=   -21.1579
   XY=     2.4201   YY=    83.2798   ZY=    -2.4996
   XZ=   -16.8138   YZ=    -2.6618   ZZ=    97.0611
   Eigenvalues:    82.4938    89.9307   142.7914
      4  C    Isotropic =   144.4169   Anisotropy =    35.0163
   XX=   156.1552   YX=   -11.6010   ZX=    -7.2309
   XY=    -8.7036   YY=   142.1358   ZY=     4.2018
   XZ=   -13.5022   YZ=    17.3710   ZZ=   134.9598
   Eigenvalues:   126.8814   138.6082   167.7611
      5  C    Isotropic =     8.9022   Anisotropy =    94.8742
   XX=   -73.6198   YX=   -15.1229   ZX=   -27.3634
   XY=   -18.9883   YY=    57.0515   ZY=   -22.3147
   XZ=   -42.6804   YZ=   -18.6314   ZZ=    43.2748
   Eigenvalues:   -86.6840    41.2389    72.1516
      6  H    Isotropic =    28.0947   Anisotropy =     3.4284
   XX=    30.2319   YX=     0.0720   ZX=     0.5952
   XY=     0.1544   YY=    29.2152   ZY=    -2.4867
   XZ=     0.6054   YZ=    -2.0952   ZZ=    24.8370
   Eigenvalues:    23.8020    30.1018    30.3803
      7  H    Isotropic =    30.0357   Anisotropy =     5.4416
   XX=    27.9550   YX=    -0.2968   ZX=     1.9042
   XY=    -0.7712   YY=    33.5827   ZY=     0.1890
   XZ=     1.3032   YZ=    -0.6449   ZZ=    28.5694
   Eigenvalues:    26.6190    29.8247    33.6635
      8  H    Isotropic =    29.2517   Anisotropy =     4.6486
   XX=    30.4278   YX=     1.5279   ZX=    -0.7520
   XY=     1.9730   YY=    30.6221   ZY=    -0.6229
   XZ=    -0.6368   YZ=     0.1783   ZZ=    26.7052
   Eigenvalues:    26.5773    28.8270    32.3508
      9  H    Isotropic =    29.5441   Anisotropy =     3.6105
   XX=    31.1059   YX=    -0.5693   ZX=     1.8466
   XY=    -1.5908   YY=    28.1276   ZY=     2.9848
   XZ=     0.3618   YZ=     3.1304   ZZ=    29.3990
   Eigenvalues:    25.2386    31.4427    31.9512
     10  O    Isotropic =   120.6377   Anisotropy =   202.3067
   XX=   188.1368   YX=    46.8971   ZX=    62.2468
   XY=    56.9182   YY=    88.3328   ZY=  -131.7040
   XZ=    85.3676   YZ=  -195.0606   ZZ=    85.4437
   Eigenvalues:  -103.6805   210.0849   255.5089
     11  O    Isotropic =  -135.5760   Anisotropy =   601.3496
   XX=  -268.8427   YX=   -36.2790   ZX=   -76.8875
   XY=   -37.6645   YY=    40.9138   ZY=  -290.6897
   XZ=   -78.6284   YZ=  -339.8093   ZZ=  -178.7993
   Eigenvalues:  -443.9309  -228.1209   265.3237
     12  C    Isotropic =   156.9747   Anisotropy =    21.9353
   XX=   164.5616   YX=     2.8121   ZX=    12.8641
   XY=    -0.8740   YY=   149.8290   ZY=     7.1660
   XZ=     5.4645   YZ=     6.7669   ZZ=   156.5335
   Eigenvalues:   144.4211   154.9048   171.5982
     13  C    Isotropic =   174.1844   Anisotropy =    23.0378
   XX=   186.6833   YX=     2.5706   ZX=    -4.1196
   XY=     0.2947   YY=   163.8577   ZY=    -7.5996
   XZ=    -8.2534   YZ=    -6.5527   ZZ=   172.0123
   Eigenvalues:   159.6295   173.3808   189.5430
     14  C    Isotropic =   178.0355   Anisotropy =    15.3027
   XX=   176.9678   YX=     2.4433   ZX=     1.8025
   XY=     2.6223   YY=   179.0785   ZY=   -10.5312
   XZ=     2.4973   YZ=    -8.7539   ZZ=   178.0601
   Eigenvalues:   167.7314   178.1377   188.2372
     15  O    Isotropic =   245.1655   Anisotropy =    19.2685
   XX=   240.1010   YX=   -14.9626   ZX=     0.5546
   XY=   -11.5491   YY=   246.0360   ZY=     5.4036
   XZ=    10.8971   YZ=    10.7565   ZZ=   249.3596
   Eigenvalues:   225.6267   251.8587   258.0112
     16  Si   Isotropic =   334.2380   Anisotropy =    54.3353
   XX=   364.9478   YX=    15.2292   ZX=    17.2421
   XY=     8.0352   YY=   319.6297   ZY=     9.1728
   XZ=     3.2508   YZ=     6.7576   ZZ=   318.1365
   Eigenvalues:   310.8813   321.3711   370.4615
     17  C    Isotropic =   185.2779   Anisotropy =     6.7836
   XX=   187.7146   YX=     1.8087   ZX=     2.1008
   XY=     4.3254   YY=   179.6036   ZY=    -3.6204
   XZ=    -0.7391   YZ=    -3.2983   ZZ=   188.5154
   Eigenvalues:   177.4663   188.5670   189.8003
     18  C    Isotropic =   184.8582   Anisotropy =    10.9295
   XX=   187.5648   YX=     2.6163   ZX=     1.2222
   XY=    -0.0055   YY=   191.6108   ZY=    -2.0022
   XZ=     1.4001   YZ=    -1.9980   ZZ=   175.3989
   Eigenvalues:   174.9855   187.4445   192.1445
     19  C    Isotropic =   186.2867   Anisotropy =    13.4214
   XX=   189.6737   YX=    -1.2540   ZX=    -3.8178
   XY=     0.5093   YY=   183.7884   ZY=     9.2823
   XZ=    -1.9333   YZ=     9.8628   ZZ=   185.3981
   Eigenvalues:   174.7953   188.8306   195.2343
     20  H    Isotropic =    32.2834   Anisotropy =    10.4121
   XX=    37.4125   YX=     3.9355   ZX=    -0.0153
   XY=     3.5916   YY=    31.4052   ZY=    -0.0226
   XZ=     0.1452   YZ=     0.1612   ZZ=    28.0324
   Eigenvalues:    28.0310    29.5944    39.2248
     21  H    Isotropic =    32.0370   Anisotropy =     6.3939
   XX=    32.1517   YX=    -0.1267   ZX=    -2.6200
   XY=    -1.0841   YY=    33.3462   ZY=     3.3899
   XZ=    -2.7350   YZ=     2.5636   ZZ=    30.6130
   Eigenvalues:    27.7500    32.0613    36.2996
     22  H    Isotropic =    31.9505   Anisotropy =     7.4196
   XX=    30.4936   YX=     0.4122   ZX=     1.5057
   XY=     0.0245   YY=    31.1302   ZY=    -4.1738
   XZ=     1.3933   YZ=    -3.2688   ZZ=    34.2278
   Eigenvalues:    28.1977    30.7569    36.8969
     23  H    Isotropic =    32.0122   Anisotropy =     8.6403
   XX=    29.9162   YX=    -1.3322   ZX=    -1.4651
   XY=    -0.9955   YY=    37.4298   ZY=     0.5423
   XZ=    -1.2618   YZ=     1.5073   ZZ=    28.6905
   Eigenvalues:    27.8026    30.4615    37.7724
     24  H    Isotropic =    32.3443   Anisotropy =     9.7519
   XX=    38.7480   YX=     0.7614   ZX=    -0.3106
   XY=     1.1935   YY=    29.0507   ZY=     0.7553
   XZ=     0.0953   YZ=     0.8089   ZZ=    29.2343
   Eigenvalues:    28.2924    29.8950    38.8456
     25  H    Isotropic =    31.9561   Anisotropy =     8.6006
   XX=    29.9020   YX=    -1.0713   ZX=    -0.9221
   XY=    -0.8150   YY=    28.3527   ZY=     0.0134
   XZ=    -0.4915   YZ=    -0.8522   ZZ=    37.6136
   Eigenvalues:    27.8588    30.3197    37.6898
     26  H    Isotropic =    32.1553   Anisotropy =    10.4638
   XX=    37.6874   YX=     1.4165   ZX=     3.4938
   XY=     1.7866   YY=    28.3169   ZY=     0.2854
   XZ=     2.9054   YZ=     0.1696   ZZ=    30.4616
   Eigenvalues:    27.9886    29.3462    39.1312
     27  H    Isotropic =    31.8911   Anisotropy =     7.3046
   XX=    30.4424   YX=     0.0006   ZX=     0.9575
   XY=    -0.1327   YY=    35.5481   ZY=    -2.5827
   XZ=     0.8541   YZ=    -3.2024   ZZ=    29.6828
   Eigenvalues:    28.1991    30.7133    36.7609
     28  H    Isotropic =    31.9562   Anisotropy =     6.5237
   XX=    32.5834   YX=    -1.7231   ZX=    -0.9273
   XY=    -1.5636   YY=    28.9849   ZY=     2.0149
   XZ=    -1.9938   YZ=     2.8413   ZZ=    34.3003
   Eigenvalues:    27.8064    31.7569    36.3054
     29  H    Isotropic =    30.6994   Anisotropy =     7.9868
   XX=    34.7295   YX=    -0.6245   ZX=    -2.0931
   XY=     0.0474   YY=    24.9166   ZY=    -2.1651
   XZ=    -2.0292   YZ=    -2.3324   ZZ=    32.4521
   Eigenvalues:    24.2289    31.8454    36.0240
     30  H    Isotropic =    31.3945   Anisotropy =     7.1235
   XX=    28.8335   YX=    -0.5504   ZX=     0.4586
   XY=    -0.5575   YY=    35.4717   ZY=    -1.9421
   XZ=     0.3166   YZ=    -1.9655   ZZ=    29.8783
   Eigenvalues:    28.7033    29.3367    36.1435
     31  H    Isotropic =    31.0750   Anisotropy =     9.7524
   XX=    31.7043   YX=     1.6139   ZX=     3.1323
   XY=     0.9978   YY=    25.8574   ZY=    -0.8293
   XZ=     3.5709   YZ=    -0.7839   ZZ=    35.6633
   Eigenvalues:    25.3297    30.3186    37.5766
     32  H    Isotropic =    30.2028   Anisotropy =     4.5438
   XX=    33.0945   YX=    -0.0835   ZX=     0.0402
   XY=    -0.0129   YY=    27.7476   ZY=    -4.2991
   XZ=    -0.1699   YZ=    -4.4137   ZZ=    29.7665
   Eigenvalues:    24.2845    33.0920    33.2320
     33  H    Isotropic =    30.6629   Anisotropy =     6.7217
   XX=    32.2713   YX=     0.9439   ZX=     0.2821
   XY=     1.3023   YY=    29.3287   ZY=     5.0329
   XZ=     0.5248   YZ=     4.7037   ZZ=    30.3888
   Eigenvalues:    24.9174    31.9274    35.1440
     34  H    Isotropic =    30.9675   Anisotropy =    11.4444
   XX=    37.2266   YX=     0.6099   ZX=     3.9282
   XY=     0.3806   YY=    26.0320   ZY=    -0.1562
   XZ=     3.0386   YZ=    -0.1354   ZZ=    29.6440
   Eigenvalues:    25.9757    28.3298    38.5971
     35  H    Isotropic =    30.6120   Anisotropy =     8.0857
   XX=    32.8815   YX=    -1.8786   ZX=    -2.5776
   XY=    -1.7203   YY=    30.2731   ZY=     3.6836
   XZ=    -1.9143   YZ=     4.0736   ZZ=    28.6815
   Eigenvalues:    25.4613    30.3723    36.0025
     36  H    Isotropic =    31.2312   Anisotropy =     8.6640
   XX=    32.0725   YX=     2.6477   ZX=    -2.5235
   XY=     2.2272   YY=    32.0234   ZY=    -3.5869
   XZ=    -1.4744   YZ=    -4.4276   ZZ=    29.5978
   Eigenvalues:    26.6185    30.0680    37.0072
     37  C    Isotropic =   141.3135   Anisotropy =    35.3604
   XX=   123.3119   YX=     2.3811   ZX=    -1.0949
   XY=     5.6873   YY=   163.5053   ZY=    -5.1462
   XZ=    -2.0212   YZ=    -5.0279   ZZ=   137.1234
   Eigenvalues:   122.8305   136.2230   164.8871
     38  C    Isotropic =    44.7292   Anisotropy =   180.3162
   XX=    38.4961   YX=    25.9635   ZX=    86.6233
   XY=    27.9733   YY=    11.6607   ZY=   -74.4573
   XZ=    86.9386   YZ=   -74.8044   ZZ=    84.0309
   Eigenvalues:   -81.1676    50.4152   164.9400
     39  C    Isotropic =    64.7653   Anisotropy =   141.1606
   XX=    71.0336   YX=    32.6953   ZX=    68.3206
   XY=    34.3218   YY=    34.1211   ZY=   -68.6013
   XZ=    66.5178   YZ=   -72.5854   ZZ=    89.1414
   Eigenvalues:   -51.5396    86.9632   158.8724
     40  H    Isotropic =    29.4671   Anisotropy =     6.3662
   XX=    31.6613   YX=     2.2670   ZX=     2.1917
   XY=     1.7605   YY=    27.9091   ZY=    -1.4984
   XZ=     3.5223   YZ=    -0.4073   ZZ=    28.8308
   Eigenvalues:    25.4905    29.1995    33.7112
     41  H    Isotropic =    29.8017   Anisotropy =     5.1786
   XX=    29.5847   YX=     0.9241   ZX=    -2.0725
   XY=    -0.3417   YY=    29.3252   ZY=    -1.7395
   XZ=    -2.1434   YZ=    -2.8437   ZZ=    30.4952
   Eigenvalues:    26.9720    29.1790    33.2541
     42  H    Isotropic =    25.6908   Anisotropy =     7.2336
   XX=    25.2504   YX=     1.0754   ZX=     0.5393
   XY=     2.4290   YY=    29.8089   ZY=    -1.4449
   XZ=     0.7016   YZ=    -0.9873   ZZ=    22.0133
   Eigenvalues:    21.5971    24.9623    30.5132
     43  H    Isotropic =    26.7109   Anisotropy =     6.9828
   XX=    26.0440   YX=     3.6629   ZX=     0.9673
   XY=     1.7765   YY=    29.7661   ZY=    -0.7270
   XZ=     0.2169   YZ=    -2.2994   ZZ=    24.3224
   Eigenvalues:    23.1479    25.6187    31.3660
     44  H    Isotropic =    26.7651   Anisotropy =     7.2517
   XX=    26.9874   YX=     1.9354   ZX=    -0.2657
   XY=     4.0668   YY=    28.3334   ZY=    -3.8023
   XZ=     0.7082   YZ=    -2.3803   ZZ=    24.9743
   Eigenvalues:    22.3627    26.3329    31.5995
 End of Minotr F.D. properties file   721 does not exist.
 End of Minotr F.D. properties file   722 does not exist.
 End of Minotr F.D. properties file   788 does not exist.

 **********************************************************************

            Population analysis using the SCF density.

 **********************************************************************

 Orbital symmetries:
       Occupied  (A) (A) (A) (A) (A) (A) (A) (A) (A) (A) (A) (A)
                 (A) (A) (A) (A) (A) (A) (A) (A) (A) (A) (A) (A)
                 (A) (A) (A) (A) (A) (A) (A) (A) (A) (A) (A) (A)
                 (A) (A) (A) (A) (A) (A) (A) (A) (A) (A) (A) (A)
                 (A) (A) (A) (A) (A) (A) (A) (A) (A) (A) (A) (A)
                 (A) (A) (A) (A) (A) (A) (A) (A) (A) (A) (A) (A)
                 (A) (A)
       Virtual   (A) (A) (A) (A) (A) (A) (A) (A) (A) (A) (A) (A)
                 (A) (A) (A) (A) (A) (A) (A) (A) (A) (A) (A) (A)
                 (A) (A) (A) (A) (A) (A) (A) (A) (A) (A) (A) (A)
                 (A) (A) (A) (A) (A) (A) (A) (A) (A) (A) (A) (A)
                 (A) (A) (A) (A) (A) (A) (A) (A) (A) (A) (A) (A)
                 (A) (A) (A) (A) (A) (A) (A) (A) (A) (A) (A) (A)
                 (A) (A) (A) (A) (A) (A) (A) (A) (A) (A) (A) (A)
                 (A) (A) (A) (A) (A) (A) (A) (A) (A) (A) (A) (A)
                 (A) (A) (A) (A) (A) (A) (A) (A) (A) (A) (A) (A)
                 (A) (A) (A) (A) (A) (A) (A) (A) (A) (A) (A) (A)
                 (A) (A) (A) (A) (A) (A) (A) (A) (A) (A) (A) (A)
                 (A) (A) (A) (A) (A) (A) (A) (A) (A) (A) (A) (A)
                 (A) (A) (A) (A) (A) (A) (A) (A) (A) (A) (A) (A)
                 (A) (A) (A) (A) (A) (A) (A) (A) (A) (A) (A) (A)
                 (A) (A) (A) (A) (A) (A) (A) (A) (A) (A) (A) (A)
                 (A) (A) (A) (A) (A) (A) (A) (A) (A) (A) (A) (A)
                 (A) (A) (A) (A) (A) (A) (A) (A) (A) (A) (A) (A)
                 (A) (A) (A) (A) (A) (A) (A) (A) (A) (A) (A) (A)
                 (A) (A) (A) (A) (A) (A) (A) (A) (A) (A) (A) (A)
                 (A) (A) (A) (A) (A) (A) (A) (A) (A) (A) (A) (A)
                 (A) (A) (A) (A) (A) (A) (A) (A) (A) (A) (A) (A)
                 (A) (A) (A) (A) (A) (A) (A) (A) (A) (A) (A) (A)
                 (A) (A) (A) (A) (A) (A) (A) (A) (A) (A) (A) (A)
                 (A) (A) (A) (A) (A) (A) (A) (A) (A) (A) (A) (A)
                 (A) (A) (A) (A) (A) (A) (A) (A) (A) (A) (A) (A)
                 (A) (A) (A) (A) (A) (A) (A) (A) (A) (A) (A) (A)
                 (A) (A) (A) (A) (A) (A) (A) (A) (A) (A) (A) (A)
                 (A) (A) (A) (A) (A) (A) (A) (A) (A) (A) (A) (A)
 The electronic state is 1-A.
 Alpha  occ. eigenvalues --  -66.27023 -19.26374 -19.21358 -19.20331 -10.37665
 Alpha  occ. eigenvalues --  -10.32220 -10.30482 -10.25535 -10.25067 -10.24633
 Alpha  occ. eigenvalues --  -10.24442 -10.23755 -10.23043 -10.22248 -10.21956
 Alpha  occ. eigenvalues --  -10.20871 -10.20610 -10.20541  -5.32853  -3.66700
 Alpha  occ. eigenvalues --   -3.66468  -3.66435  -1.13677  -1.05130  -1.04140
 Alpha  occ. eigenvalues --   -0.85945  -0.83236  -0.81102  -0.77642  -0.74066
 Alpha  occ. eigenvalues --   -0.73277  -0.71446  -0.70306  -0.69987  -0.66576
 Alpha  occ. eigenvalues --   -0.64055  -0.62190  -0.58728  -0.54982  -0.53471
 Alpha  occ. eigenvalues --   -0.53208  -0.51317  -0.50263  -0.47961  -0.47487
 Alpha  occ. eigenvalues --   -0.46746  -0.45330  -0.45175  -0.44688  -0.43906
 Alpha  occ. eigenvalues --   -0.42861  -0.42727  -0.42512  -0.41637  -0.40986
 Alpha  occ. eigenvalues --   -0.40657  -0.40359  -0.39685  -0.39337  -0.38857
 Alpha  occ. eigenvalues --   -0.38341  -0.37922  -0.37088  -0.36699  -0.36398
 Alpha  occ. eigenvalues --   -0.35663  -0.34539  -0.33309  -0.31797  -0.31159
 Alpha  occ. eigenvalues --   -0.30336  -0.29678  -0.28601  -0.27347
 Alpha virt. eigenvalues --   -0.00761   0.00797   0.03821   0.05489   0.05918
 Alpha virt. eigenvalues --    0.06564   0.07385   0.08095   0.08380   0.09132
 Alpha virt. eigenvalues --    0.09382   0.09888   0.10343   0.10854   0.11191
 Alpha virt. eigenvalues --    0.11956   0.12701   0.12933   0.13863   0.13999
 Alpha virt. eigenvalues --    0.14404   0.14876   0.15026   0.15207   0.15633
 Alpha virt. eigenvalues --    0.16221   0.16358   0.17383   0.17434   0.17845
 Alpha virt. eigenvalues --    0.18407   0.19338   0.19448   0.20363   0.21653
 Alpha virt. eigenvalues --    0.21972   0.22199   0.22653   0.23783   0.24976
 Alpha virt. eigenvalues --    0.25281   0.25411   0.26629   0.27911   0.28074
 Alpha virt. eigenvalues --    0.29045   0.30103   0.31113   0.31660   0.31947
 Alpha virt. eigenvalues --    0.32747   0.33554   0.34908   0.35269   0.35430
 Alpha virt. eigenvalues --    0.36907   0.38094   0.38823   0.39725   0.40602
 Alpha virt. eigenvalues --    0.40963   0.42055   0.43147   0.43971   0.44698
 Alpha virt. eigenvalues --    0.45434   0.46214   0.46896   0.47459   0.48631
 Alpha virt. eigenvalues --    0.49118   0.50158   0.51116   0.51406   0.52464
 Alpha virt. eigenvalues --    0.53153   0.53429   0.54734   0.55899   0.56554
 Alpha virt. eigenvalues --    0.56976   0.57512   0.58319   0.58550   0.59108
 Alpha virt. eigenvalues --    0.59462   0.59643   0.59942   0.60845   0.60914
 Alpha virt. eigenvalues --    0.61471   0.61667   0.62223   0.62692   0.63119
 Alpha virt. eigenvalues --    0.63636   0.64040   0.64556   0.65116   0.66016
 Alpha virt. eigenvalues --    0.66496   0.67195   0.67251   0.67486   0.67882
 Alpha virt. eigenvalues --    0.68967   0.69258   0.69800   0.70184   0.71540
 Alpha virt. eigenvalues --    0.71681   0.72360   0.73102   0.73787   0.74551
 Alpha virt. eigenvalues --    0.75196   0.76444   0.78459   0.79802   0.80924
 Alpha virt. eigenvalues --    0.82956   0.83832   0.84926   0.87155   0.88436
 Alpha virt. eigenvalues --    0.89666   0.91226   0.92186   0.93371   0.94388
 Alpha virt. eigenvalues --    0.95228   0.96548   0.98729   1.00676   1.00720
 Alpha virt. eigenvalues --    1.02377   1.04324   1.05560   1.06660   1.08003
 Alpha virt. eigenvalues --    1.11238   1.13081   1.15217   1.17075   1.18818
 Alpha virt. eigenvalues --    1.21354   1.21779   1.25006   1.26166   1.28492
 Alpha virt. eigenvalues --    1.28591   1.30259   1.31139   1.32077   1.32682
 Alpha virt. eigenvalues --    1.33951   1.35915   1.37778   1.39632   1.41339
 Alpha virt. eigenvalues --    1.42284   1.45299   1.45731   1.47663   1.49079
 Alpha virt. eigenvalues --    1.49880   1.50787   1.51879   1.52761   1.53962
 Alpha virt. eigenvalues --    1.54886   1.55328   1.56043   1.56892   1.57903
 Alpha virt. eigenvalues --    1.58756   1.59358   1.59496   1.59878   1.61024
 Alpha virt. eigenvalues --    1.61419   1.62030   1.62584   1.63547   1.64379
 Alpha virt. eigenvalues --    1.64942   1.65926   1.67373   1.67723   1.68927
 Alpha virt. eigenvalues --    1.70278   1.70981   1.71841   1.73015   1.73676
 Alpha virt. eigenvalues --    1.75255   1.76511   1.77513   1.80520   1.81096
 Alpha virt. eigenvalues --    1.81595   1.82210   1.83069   1.84250   1.86869
 Alpha virt. eigenvalues --    1.89558   1.91055   1.92562   1.96425   1.98703
 Alpha virt. eigenvalues --    1.98922   2.02814   2.07500   2.10142   2.12470
 Alpha virt. eigenvalues --    2.12936   2.17095   2.20694   2.21163   2.27199
 Alpha virt. eigenvalues --    2.28010   2.29745   2.34069   2.36681   2.41133
 Alpha virt. eigenvalues --    2.41626   2.41950   2.42218   2.42642   2.43401
 Alpha virt. eigenvalues --    2.44158   2.44495   2.46086   2.46706   2.47674
 Alpha virt. eigenvalues --    2.48355   2.48817   2.49962   2.50624   2.51842
 Alpha virt. eigenvalues --    2.52547   2.54048   2.56367   2.58864   2.59078
 Alpha virt. eigenvalues --    2.62514   2.65022   2.66562   2.71508   2.79811
 Alpha virt. eigenvalues --    2.81301   2.86680   2.88371   2.90445   2.91323
 Alpha virt. eigenvalues --    2.92729   2.92964   2.95733   2.96327   2.97644
 Alpha virt. eigenvalues --    3.00476   3.00919   3.02999   3.05494   3.07124
 Alpha virt. eigenvalues --    3.09780   3.11354   3.11962   3.13615   3.14898
 Alpha virt. eigenvalues --    3.16160   3.16881   3.18136   3.18599   3.19246
 Alpha virt. eigenvalues --    3.22558   3.22973   3.23638   3.23823   3.25346
 Alpha virt. eigenvalues --    3.26829   3.28222   3.29165   3.29570   3.31209
 Alpha virt. eigenvalues --    3.33750   3.34318   3.37559   3.39900   3.40778
 Alpha virt. eigenvalues --    3.44210   3.51378   3.56700   3.58907   3.63544
 Alpha virt. eigenvalues --    3.76579   3.90105   3.90443   3.98860   4.01037
 Alpha virt. eigenvalues --    4.08254   4.11134   4.19998   4.21133   4.24958
 Alpha virt. eigenvalues --    4.94577   4.99763   5.02164   5.09417   5.13367
 Alpha virt. eigenvalues --    5.24404   5.50288   5.53310   5.77116   5.84834
 Alpha virt. eigenvalues --   11.52459  11.54550  11.59110  23.41522  23.48868
 Alpha virt. eigenvalues --   23.54676  23.55307  23.57519  23.62473  23.69727
 Alpha virt. eigenvalues --   23.74694  23.77716  23.78255  23.81185  23.85875
 Alpha virt. eigenvalues --   23.88774  24.27062  49.98144  50.05750  50.11568
 Alpha virt. eigenvalues --  141.28998
          Condensed to atoms (all electrons):
               1          2          3          4          5          6
     1  C    5.299582   0.248507  -0.054018  -0.002556  -0.056571   0.390680
     2  C    0.248507   5.557971   0.292161  -0.081620  -0.016087  -0.044083
     3  C   -0.054018   0.292161   5.199597   0.226652  -0.013678  -0.017949
     4  C   -0.002556  -0.081620   0.226652   5.884485   0.238201   0.003305
     5  C   -0.056571  -0.016087  -0.013678   0.238201   4.401722  -0.003186
     6  H    0.390680  -0.044083  -0.017949   0.003305  -0.003186   0.472956
     7  H   -0.031210   0.390411  -0.038094   0.008107   0.000225  -0.000240
     8  H    0.002319  -0.008568  -0.028679   0.371779  -0.021548  -0.000275
     9  H   -0.001258   0.008054  -0.031957   0.353075  -0.025729   0.000190
    10  O    0.199540  -0.034644  -0.000878  -0.106026   0.347166  -0.034969
    11  O    0.000862  -0.000171   0.003475  -0.103863   0.663235   0.000301
    12  C    0.320009  -0.052594   0.008305  -0.002337   0.003173  -0.047771
    13  C   -0.077000   0.007244  -0.000124   0.000100  -0.000181  -0.008231
    14  C   -0.080688   0.296080  -0.077016  -0.007859   0.000553   0.007308
    15  O    0.003951  -0.059770   0.221199  -0.023980   0.001616  -0.000030
    16  Si   0.000411   0.001872  -0.048986  -0.009328   0.000948  -0.000143
    17  C    0.000009  -0.000246  -0.000087  -0.002124   0.000070   0.000002
    18  C    0.000002  -0.000066  -0.000952   0.000670   0.000142   0.000001
    19  C   -0.000001  -0.000031   0.002333  -0.000138   0.000001   0.000000
    20  H    0.000000   0.000000  -0.000034   0.000153  -0.000001   0.000000
    21  H   -0.000001   0.000018  -0.000141   0.001449   0.000082   0.000001
    22  H   -0.000002   0.000087   0.000580  -0.000201  -0.000039   0.000000
    23  H    0.000000  -0.000010  -0.000083  -0.000020   0.000000   0.000000
    24  H    0.000000   0.000002  -0.000080  -0.000002   0.000000   0.000000
    25  H   -0.000001   0.000045  -0.000154  -0.000042   0.000000   0.000000
    26  H    0.000000   0.000007  -0.000076   0.000052   0.000000   0.000000
    27  H    0.000003  -0.000093   0.000095   0.000174   0.000004  -0.000001
    28  H    0.000008  -0.000087   0.000362   0.001270  -0.000051  -0.000002
    29  H    0.006936  -0.033904  -0.006339   0.000007  -0.000120  -0.000128
    30  H   -0.007587  -0.040473  -0.010762   0.006713  -0.001499   0.000614
    31  H   -0.007659  -0.033526   0.006919  -0.000536   0.000002  -0.000303
    32  H   -0.038526  -0.010353  -0.000565   0.000137  -0.000201   0.007263
    33  H   -0.048931   0.001361  -0.000152   0.000142  -0.000026   0.000656
    34  H    0.008656  -0.000263   0.000014  -0.000003   0.000009  -0.000195
    35  H   -0.011764   0.000756  -0.000046   0.000285   0.000522   0.000274
    36  H   -0.004590  -0.000423  -0.000024  -0.000009  -0.000070   0.005987
    37  C    0.001605  -0.093111   0.325603  -0.106735   0.002322   0.004467
    38  C   -0.001893  -0.015966  -0.059194   0.008768  -0.000212   0.000395
    39  C   -0.000884  -0.000218  -0.002942  -0.000054  -0.000040   0.003609
    40  H   -0.000508   0.007492  -0.039816  -0.004645  -0.000035   0.000710
    41  H    0.000180  -0.002619  -0.025067  -0.005666   0.004470  -0.001397
    42  H    0.000172  -0.000939  -0.001801  -0.000030  -0.000005  -0.000016
    43  H    0.000047   0.000003  -0.000325   0.000017   0.000000   0.000027
    44  H    0.000064  -0.000139   0.000211  -0.000057  -0.000022   0.001091
               7          8          9         10         11         12
     1  C   -0.031210   0.002319  -0.001258   0.199540   0.000862   0.320009
     2  C    0.390411  -0.008568   0.008054  -0.034644  -0.000171  -0.052594
     3  C   -0.038094  -0.028679  -0.031957  -0.000878   0.003475   0.008305
     4  C    0.008107   0.371779   0.353075  -0.106026  -0.103863  -0.002337
     5  C    0.000225  -0.021548  -0.025729   0.347166   0.663235   0.003173
     6  H   -0.000240  -0.000275   0.000190  -0.034969   0.000301  -0.047771
     7  H    0.448802  -0.000166  -0.000017   0.003313   0.000023  -0.003485
     8  H   -0.000166   0.394734  -0.016527  -0.000547   0.001290   0.000003
     9  H   -0.000017  -0.016527   0.426739   0.005653   0.014933   0.000069
    10  O    0.003313  -0.000547   0.005653   8.033807  -0.069749  -0.047543
    11  O    0.000023   0.001290   0.014933  -0.069749   7.869639  -0.000151
    12  C   -0.003485   0.000003   0.000069  -0.047543  -0.000151   5.318778
    13  C   -0.000323   0.000011  -0.000004  -0.002077  -0.000013   0.317061
    14  C   -0.038555   0.000366   0.000116  -0.000504  -0.000004  -0.014042
    15  O    0.002308  -0.001382  -0.001586  -0.000024  -0.000016  -0.000074
    16  Si  -0.000437  -0.006206  -0.001245  -0.000466  -0.001096   0.000008
    17  C    0.000003   0.000222   0.002536   0.000000   0.000008   0.000000
    18  C    0.000030  -0.001877  -0.000433  -0.000001   0.000009   0.000000
    19  C   -0.000027  -0.000070  -0.000017   0.000000   0.000000   0.000000
    20  H   -0.000001   0.000353   0.000008   0.000000   0.000000   0.000000
    21  H    0.000004   0.000063   0.000276   0.000000  -0.000012   0.000000
    22  H    0.000005   0.000129   0.000058   0.000001   0.000002   0.000000
    23  H   -0.000018  -0.000007  -0.000009   0.000000   0.000000   0.000000
    24  H    0.000000   0.000001  -0.000003   0.000000   0.000000   0.000000
    25  H   -0.000007  -0.000019  -0.000008   0.000000   0.000000   0.000000
    26  H    0.000000   0.000000   0.000032   0.000000   0.000000   0.000000
    27  H   -0.000010   0.000012  -0.000234   0.000000   0.000000   0.000000
    28  H    0.000000  -0.000131   0.003189  -0.000003  -0.000078   0.000000
    29  H   -0.002344   0.000400  -0.000130  -0.000158   0.000002   0.000066
    30  H    0.006691  -0.000111   0.000474   0.008893  -0.000224  -0.003125
    31  H   -0.005727   0.000175   0.000011   0.000013   0.000001   0.002991
    32  H    0.000356  -0.000064   0.000006   0.002281  -0.000037   0.388212
    33  H    0.002140  -0.000014  -0.000004   0.003318   0.000007   0.394527
    34  H   -0.000018   0.000000   0.000000  -0.000209   0.000000  -0.038678
    35  H   -0.000051  -0.000008  -0.000008   0.011067   0.000155  -0.038010
    36  H    0.000042   0.000000   0.000000  -0.000321  -0.000002  -0.042871
    37  C   -0.010440   0.005554  -0.006402  -0.003214   0.000008  -0.000390
    38  C    0.009540  -0.000185   0.000141   0.000299  -0.000002  -0.000053
    39  C    0.003016   0.000000   0.000001  -0.000017   0.000000   0.000074
    40  H    0.000270  -0.000183   0.002623  -0.000101   0.000037   0.000008
    41  H   -0.000189   0.000181  -0.000138   0.000151   0.000358   0.000526
    42  H   -0.000074   0.000020  -0.000015   0.000003   0.000000   0.000010
    43  H    0.000153  -0.000001   0.000001   0.000000   0.000000  -0.000004
    44  H   -0.000053   0.000002   0.000001  -0.000018   0.000000   0.000057
              13         14         15         16         17         18
     1  C   -0.077000  -0.080688   0.003951   0.000411   0.000009   0.000002
     2  C    0.007244   0.296080  -0.059770   0.001872  -0.000246  -0.000066
     3  C   -0.000124  -0.077016   0.221199  -0.048986  -0.000087  -0.000952
     4  C    0.000100  -0.007859  -0.023980  -0.009328  -0.002124   0.000670
     5  C   -0.000181   0.000553   0.001616   0.000948   0.000070   0.000142
     6  H   -0.008231   0.007308  -0.000030  -0.000143   0.000002   0.000001
     7  H   -0.000323  -0.038555   0.002308  -0.000437   0.000003   0.000030
     8  H    0.000011   0.000366  -0.001382  -0.006206   0.000222  -0.001877
     9  H   -0.000004   0.000116  -0.001586  -0.001245   0.002536  -0.000433
    10  O   -0.002077  -0.000504  -0.000024  -0.000466   0.000000  -0.000001
    11  O   -0.000013  -0.000004  -0.000016  -0.001096   0.000008   0.000009
    12  C    0.317061  -0.014042  -0.000074   0.000008   0.000000   0.000000
    13  C    5.343667  -0.000034   0.000001   0.000001   0.000000   0.000000
    14  C   -0.000034   5.432081  -0.006252  -0.000874  -0.000002   0.000094
    15  O    0.000001  -0.006252   8.262307   0.349928  -0.021848  -0.024390
    16  Si   0.000001  -0.000874   0.349928  11.531188   0.316005   0.318116
    17  C    0.000000  -0.000002  -0.021848   0.316005   5.801369  -0.058487
    18  C    0.000000   0.000094  -0.024390   0.318116  -0.058487   5.779032
    19  C    0.000000  -0.000029  -0.021548   0.336380  -0.051128  -0.053748
    20  H    0.000000   0.000002   0.000892  -0.011754   0.000852   0.364757
    21  H    0.000000   0.000004  -0.001166  -0.029698  -0.001554   0.370506
    22  H    0.000000   0.000268  -0.002213  -0.025832   0.002299   0.369896
    23  H    0.000000  -0.000001  -0.001311  -0.028357  -0.000550   0.002583
    24  H    0.000000  -0.000002   0.000902  -0.014360  -0.000124   0.000633
    25  H    0.000000   0.000001  -0.001194  -0.026906   0.002607  -0.000541
    26  H    0.000000   0.000000   0.000755  -0.009954   0.366029   0.000243
    27  H    0.000000   0.000003  -0.001853  -0.027180   0.369845   0.002462
    28  H    0.000000   0.000001  -0.001035  -0.028619   0.365060  -0.001419
    29  H    0.000012   0.386010   0.006869   0.001275   0.000041   0.000274
    30  H   -0.000212   0.385197   0.000151  -0.000911   0.000004   0.000148
    31  H    0.000297   0.390930   0.000203   0.000242   0.000000  -0.000006
    32  H   -0.043935   0.003094   0.000000  -0.000008   0.000000   0.000000
    33  H   -0.038960  -0.000789  -0.000012  -0.000004   0.000000   0.000000
    34  H    0.393444   0.000007   0.000000   0.000000   0.000000   0.000000
    35  H    0.385328  -0.000072   0.000000   0.000001   0.000000   0.000000
    36  H    0.386137   0.000003   0.000000   0.000000   0.000000   0.000000
    37  C   -0.000046   0.008082  -0.059391  -0.013569  -0.003293  -0.000421
    38  C    0.000008  -0.000167   0.002515  -0.000489   0.000785   0.000022
    39  C   -0.000020  -0.000015   0.000532   0.000397   0.000010   0.000000
    40  H   -0.000003  -0.000140  -0.003171  -0.004450  -0.002502  -0.000121
    41  H   -0.000018  -0.000261   0.003619   0.001971  -0.000059   0.000018
    42  H    0.000000  -0.000068   0.004616   0.002193  -0.000045   0.000022
    43  H    0.000000  -0.000002   0.000015   0.000010   0.000000   0.000000
    44  H    0.000016   0.000004  -0.000010  -0.000004  -0.000001   0.000000
              19         20         21         22         23         24
     1  C   -0.000001   0.000000  -0.000001  -0.000002   0.000000   0.000000
     2  C   -0.000031   0.000000   0.000018   0.000087  -0.000010   0.000002
     3  C    0.002333  -0.000034  -0.000141   0.000580  -0.000083  -0.000080
     4  C   -0.000138   0.000153   0.001449  -0.000201  -0.000020  -0.000002
     5  C    0.000001  -0.000001   0.000082  -0.000039   0.000000   0.000000
     6  H    0.000000   0.000000   0.000001   0.000000   0.000000   0.000000
     7  H   -0.000027  -0.000001   0.000004   0.000005  -0.000018   0.000000
     8  H   -0.000070   0.000353   0.000063   0.000129  -0.000007   0.000001
     9  H   -0.000017   0.000008   0.000276   0.000058  -0.000009  -0.000003
    10  O    0.000000   0.000000   0.000000   0.000001   0.000000   0.000000
    11  O    0.000000   0.000000  -0.000012   0.000002   0.000000   0.000000
    12  C    0.000000   0.000000   0.000000   0.000000   0.000000   0.000000
    13  C    0.000000   0.000000   0.000000   0.000000   0.000000   0.000000
    14  C   -0.000029   0.000002   0.000004   0.000268  -0.000001  -0.000002
    15  O   -0.021548   0.000892  -0.001166  -0.002213  -0.001311   0.000902
    16  Si   0.336380  -0.011754  -0.029698  -0.025832  -0.028357  -0.014360
    17  C   -0.051128   0.000852  -0.001554   0.002299  -0.000550  -0.000124
    18  C   -0.053748   0.364757   0.370506   0.369896   0.002583   0.000633
    19  C    5.723986  -0.000971   0.002784  -0.000394   0.368748   0.364064
    20  H   -0.000971   0.447286  -0.022405  -0.020024   0.000006   0.000832
    21  H    0.002784  -0.022405   0.456187  -0.019037  -0.000116  -0.000078
    22  H   -0.000394  -0.020024  -0.019037   0.450509  -0.000104  -0.000031
    23  H    0.368748   0.000006  -0.000116  -0.000104   0.458830  -0.020415
    24  H    0.364064   0.000832  -0.000078  -0.000031  -0.020415   0.453093
    25  H    0.369454  -0.000085  -0.000085   0.001072  -0.018121  -0.020553
    26  H   -0.000974   0.000313   0.000065  -0.000030  -0.000078   0.000639
    27  H   -0.000473  -0.000048  -0.000027  -0.000104   0.001271  -0.000103
    28  H    0.003040  -0.000008   0.001222  -0.000046  -0.000080  -0.000054
    29  H    0.000025   0.000006  -0.000008   0.000572  -0.000016  -0.000007
    30  H    0.000001  -0.000005  -0.000001   0.000098  -0.000001   0.000000
    31  H    0.000000   0.000000  -0.000002  -0.000010   0.000001   0.000000
    32  H    0.000000   0.000000   0.000000   0.000000   0.000000   0.000000
    33  H    0.000000   0.000000   0.000000   0.000000   0.000000   0.000000
    34  H    0.000000   0.000000   0.000000   0.000000   0.000000   0.000000
    35  H    0.000000   0.000000   0.000000   0.000000   0.000000   0.000000
    36  H    0.000000   0.000000   0.000000   0.000000   0.000000   0.000000
    37  C   -0.000255   0.000011  -0.000044  -0.000054  -0.000001   0.000006
    38  C   -0.000038   0.000000   0.000002   0.000003   0.000019  -0.000004
    39  C    0.000000   0.000000   0.000000   0.000000  -0.000003   0.000000
    40  H   -0.000039   0.000004  -0.000047  -0.000004  -0.000021   0.000004
    41  H    0.000000   0.000000   0.000009   0.000004   0.000000   0.000000
    42  H    0.000143   0.000000   0.000001   0.000001   0.000411  -0.000008
    43  H    0.000000   0.000000   0.000000   0.000000  -0.000001   0.000000
    44  H    0.000000   0.000000   0.000000   0.000000   0.000000   0.000000
              25         26         27         28         29         30
     1  C   -0.000001   0.000000   0.000003   0.000008   0.006936  -0.007587
     2  C    0.000045   0.000007  -0.000093  -0.000087  -0.033904  -0.040473
     3  C   -0.000154  -0.000076   0.000095   0.000362  -0.006339  -0.010762
     4  C   -0.000042   0.000052   0.000174   0.001270   0.000007   0.006713
     5  C    0.000000   0.000000   0.000004  -0.000051  -0.000120  -0.001499
     6  H    0.000000   0.000000  -0.000001  -0.000002  -0.000128   0.000614
     7  H   -0.000007   0.000000  -0.000010   0.000000  -0.002344   0.006691
     8  H   -0.000019   0.000000   0.000012  -0.000131   0.000400  -0.000111
     9  H   -0.000008   0.000032  -0.000234   0.003189  -0.000130   0.000474
    10  O    0.000000   0.000000   0.000000  -0.000003  -0.000158   0.008893
    11  O    0.000000   0.000000   0.000000  -0.000078   0.000002  -0.000224
    12  C    0.000000   0.000000   0.000000   0.000000   0.000066  -0.003125
    13  C    0.000000   0.000000   0.000000   0.000000   0.000012  -0.000212
    14  C    0.000001   0.000000   0.000003   0.000001   0.386010   0.385197
    15  O   -0.001194   0.000755  -0.001853  -0.001035   0.006869   0.000151
    16  Si  -0.026906  -0.009954  -0.027180  -0.028619   0.001275  -0.000911
    17  C    0.002607   0.366029   0.369845   0.365060   0.000041   0.000004
    18  C   -0.000541   0.000243   0.002462  -0.001419   0.000274   0.000148
    19  C    0.369454  -0.000974  -0.000473   0.003040   0.000025   0.000001
    20  H   -0.000085   0.000313  -0.000048  -0.000008   0.000006  -0.000005
    21  H   -0.000085   0.000065  -0.000027   0.001222  -0.000008  -0.000001
    22  H    0.001072  -0.000030  -0.000104  -0.000046   0.000572   0.000098
    23  H   -0.018121  -0.000078   0.001271  -0.000080  -0.000016  -0.000001
    24  H   -0.020553   0.000639  -0.000103  -0.000054  -0.000007   0.000000
    25  H    0.457186  -0.000061  -0.000073  -0.000098   0.000125  -0.000005
    26  H   -0.000061   0.434876  -0.020674  -0.019853   0.000000   0.000000
    27  H   -0.000073  -0.020674   0.449814  -0.019688   0.000001   0.000000
    28  H   -0.000098  -0.019853  -0.019688   0.450551   0.000004  -0.000003
    29  H    0.000125   0.000000   0.000001   0.000004   0.430265  -0.023887
    30  H   -0.000005   0.000000   0.000000  -0.000003  -0.023887   0.476162
    31  H    0.000000   0.000000   0.000000   0.000000  -0.026952  -0.026483
    32  H    0.000000   0.000000   0.000000   0.000000   0.000288   0.001837
    33  H    0.000000   0.000000   0.000000   0.000000  -0.000169   0.000325
    34  H    0.000000   0.000000   0.000000   0.000000  -0.000002  -0.000007
    35  H    0.000000   0.000000   0.000000   0.000000   0.000000   0.000019
    36  H    0.000000   0.000000   0.000000   0.000000   0.000003   0.000005
    37  C   -0.000016   0.000390  -0.000502  -0.000879   0.000255  -0.000074
    38  C   -0.000005  -0.000051   0.000852   0.000168   0.000012  -0.000045
    39  C    0.000000  -0.000001   0.000089  -0.000010  -0.000001  -0.000003
    40  H   -0.000007   0.000703  -0.000621   0.000710  -0.000034   0.000014
    41  H    0.000001  -0.000011  -0.000036  -0.000121  -0.000020  -0.000016
    42  H   -0.000011   0.000001   0.000208   0.000002   0.000008  -0.000005
    43  H    0.000000   0.000000  -0.000002   0.000000   0.000000   0.000000
    44  H    0.000000   0.000000   0.000001   0.000001  -0.000001   0.000000
              31         32         33         34         35         36
     1  C   -0.007659  -0.038526  -0.048931   0.008656  -0.011764  -0.004590
     2  C   -0.033526  -0.010353   0.001361  -0.000263   0.000756  -0.000423
     3  C    0.006919  -0.000565  -0.000152   0.000014  -0.000046  -0.000024
     4  C   -0.000536   0.000137   0.000142  -0.000003   0.000285  -0.000009
     5  C    0.000002  -0.000201  -0.000026   0.000009   0.000522  -0.000070
     6  H   -0.000303   0.007263   0.000656  -0.000195   0.000274   0.005987
     7  H   -0.005727   0.000356   0.002140  -0.000018  -0.000051   0.000042
     8  H    0.000175  -0.000064  -0.000014   0.000000  -0.000008   0.000000
     9  H    0.000011   0.000006  -0.000004   0.000000  -0.000008   0.000000
    10  O    0.000013   0.002281   0.003318  -0.000209   0.011067  -0.000321
    11  O    0.000001  -0.000037   0.000007   0.000000   0.000155  -0.000002
    12  C    0.002991   0.388212   0.394527  -0.038678  -0.038010  -0.042871
    13  C    0.000297  -0.043935  -0.038960   0.393444   0.385328   0.386137
    14  C    0.390930   0.003094  -0.000789   0.000007  -0.000072   0.000003
    15  O    0.000203   0.000000  -0.000012   0.000000   0.000000   0.000000
    16  Si   0.000242  -0.000008  -0.000004   0.000000   0.000001   0.000000
    17  C    0.000000   0.000000   0.000000   0.000000   0.000000   0.000000
    18  C   -0.000006   0.000000   0.000000   0.000000   0.000000   0.000000
    19  C    0.000000   0.000000   0.000000   0.000000   0.000000   0.000000
    20  H    0.000000   0.000000   0.000000   0.000000   0.000000   0.000000
    21  H   -0.000002   0.000000   0.000000   0.000000   0.000000   0.000000
    22  H   -0.000010   0.000000   0.000000   0.000000   0.000000   0.000000
    23  H    0.000001   0.000000   0.000000   0.000000   0.000000   0.000000
    24  H    0.000000   0.000000   0.000000   0.000000   0.000000   0.000000
    25  H    0.000000   0.000000   0.000000   0.000000   0.000000   0.000000
    26  H    0.000000   0.000000   0.000000   0.000000   0.000000   0.000000
    27  H    0.000000   0.000000   0.000000   0.000000   0.000000   0.000000
    28  H    0.000000   0.000000   0.000000   0.000000   0.000000   0.000000
    29  H   -0.026952   0.000288  -0.000169  -0.000002   0.000000   0.000003
    30  H   -0.026483   0.001837   0.000325  -0.000007   0.000019   0.000005
    31  H    0.457634  -0.002252   0.000377   0.000011  -0.000016  -0.000027
    32  H   -0.002252   0.474501  -0.023789  -0.004744  -0.004528   0.007441
    33  H    0.000377  -0.023789   0.471790  -0.005115   0.007045  -0.004853
    34  H    0.000011  -0.004744  -0.005115   0.471482  -0.026148  -0.026899
    35  H   -0.000016  -0.004528   0.007045  -0.026148   0.466174  -0.027683
    36  H   -0.000027   0.007441  -0.004853  -0.026899  -0.027683   0.486452
    37  C   -0.000111  -0.000008   0.000016   0.000000   0.000002  -0.000025
    38  C   -0.000043  -0.000011   0.000094   0.000000  -0.000002   0.000008
    39  C    0.000000  -0.000002   0.000153   0.000000   0.000000   0.000020
    40  H    0.000011   0.000002   0.000002   0.000000   0.000000   0.000001
    41  H   -0.000007  -0.000019  -0.000007   0.000001   0.000003  -0.000015
    42  H    0.000003  -0.000001  -0.000002   0.000000   0.000000   0.000000
    43  H    0.000000   0.000000   0.000004   0.000000   0.000000  -0.000003
    44  H    0.000001   0.000001   0.000009  -0.000001  -0.000003   0.000080
              37         38         39         40         41         42
     1  C    0.001605  -0.001893  -0.000884  -0.000508   0.000180   0.000172
     2  C   -0.093111  -0.015966  -0.000218   0.007492  -0.002619  -0.000939
     3  C    0.325603  -0.059194  -0.002942  -0.039816  -0.025067  -0.001801
     4  C   -0.106735   0.008768  -0.000054  -0.004645  -0.005666  -0.000030
     5  C    0.002322  -0.000212  -0.000040  -0.000035   0.004470  -0.000005
     6  H    0.004467   0.000395   0.003609   0.000710  -0.001397  -0.000016
     7  H   -0.010440   0.009540   0.003016   0.000270  -0.000189  -0.000074
     8  H    0.005554  -0.000185   0.000000  -0.000183   0.000181   0.000020
     9  H   -0.006402   0.000141   0.000001   0.002623  -0.000138  -0.000015
    10  O   -0.003214   0.000299  -0.000017  -0.000101   0.000151   0.000003
    11  O    0.000008  -0.000002   0.000000   0.000037   0.000358   0.000000
    12  C   -0.000390  -0.000053   0.000074   0.000008   0.000526   0.000010
    13  C   -0.000046   0.000008  -0.000020  -0.000003  -0.000018   0.000000
    14  C    0.008082  -0.000167  -0.000015  -0.000140  -0.000261  -0.000068
    15  O   -0.059391   0.002515   0.000532  -0.003171   0.003619   0.004616
    16  Si  -0.013569  -0.000489   0.000397  -0.004450   0.001971   0.002193
    17  C   -0.003293   0.000785   0.000010  -0.002502  -0.000059  -0.000045
    18  C   -0.000421   0.000022   0.000000  -0.000121   0.000018   0.000022
    19  C   -0.000255  -0.000038   0.000000  -0.000039   0.000000   0.000143
    20  H    0.000011   0.000000   0.000000   0.000004   0.000000   0.000000
    21  H   -0.000044   0.000002   0.000000  -0.000047   0.000009   0.000001
    22  H   -0.000054   0.000003   0.000000  -0.000004   0.000004   0.000001
    23  H   -0.000001   0.000019  -0.000003  -0.000021   0.000000   0.000411
    24  H    0.000006  -0.000004   0.000000   0.000004   0.000000  -0.000008
    25  H   -0.000016  -0.000005   0.000000  -0.000007   0.000001  -0.000011
    26  H    0.000390  -0.000051  -0.000001   0.000703  -0.000011   0.000001
    27  H   -0.000502   0.000852   0.000089  -0.000621  -0.000036   0.000208
    28  H   -0.000879   0.000168  -0.000010   0.000710  -0.000121   0.000002
    29  H    0.000255   0.000012  -0.000001  -0.000034  -0.000020   0.000008
    30  H   -0.000074  -0.000045  -0.000003   0.000014  -0.000016  -0.000005
    31  H   -0.000111  -0.000043   0.000000   0.000011  -0.000007   0.000003
    32  H   -0.000008  -0.000011  -0.000002   0.000002  -0.000019  -0.000001
    33  H    0.000016   0.000094   0.000153   0.000002  -0.000007  -0.000002
    34  H    0.000000   0.000000   0.000000   0.000000   0.000001   0.000000
    35  H    0.000002  -0.000002   0.000000   0.000000   0.000003   0.000000
    36  H   -0.000025   0.000008   0.000020   0.000001  -0.000015   0.000000
    37  C    5.458667   0.324804  -0.058449   0.395957   0.383109  -0.044684
    38  C    0.324804   5.056631   0.619256  -0.042042  -0.044902   0.397475
    39  C   -0.058449   0.619256   5.149212  -0.000888   0.001776  -0.039888
    40  H    0.395957  -0.042042  -0.000888   0.444369  -0.027074  -0.001716
    41  H    0.383109  -0.044902   0.001776  -0.027074   0.452913   0.004650
    42  H   -0.044684   0.397475  -0.039888  -0.001716   0.004650   0.456174
    43  H    0.006400  -0.039585   0.392639  -0.000379   0.000143  -0.007757
    44  H   -0.008943  -0.039840   0.387423   0.000160   0.004310   0.005678
              43         44
     1  C    0.000047   0.000064
     2  C    0.000003  -0.000139
     3  C   -0.000325   0.000211
     4  C    0.000017  -0.000057
     5  C    0.000000  -0.000022
     6  H    0.000027   0.001091
     7  H    0.000153  -0.000053
     8  H   -0.000001   0.000002
     9  H    0.000001   0.000001
    10  O    0.000000  -0.000018
    11  O    0.000000   0.000000
    12  C   -0.000004   0.000057
    13  C    0.000000   0.000016
    14  C   -0.000002   0.000004
    15  O    0.000015  -0.000010
    16  Si   0.000010  -0.000004
    17  C    0.000000  -0.000001
    18  C    0.000000   0.000000
    19  C    0.000000   0.000000
    20  H    0.000000   0.000000
    21  H    0.000000   0.000000
    22  H    0.000000   0.000000
    23  H   -0.000001   0.000000
    24  H    0.000000   0.000000
    25  H    0.000000   0.000000
    26  H    0.000000   0.000000
    27  H   -0.000002   0.000001
    28  H    0.000000   0.000001
    29  H    0.000000  -0.000001
    30  H    0.000000   0.000000
    31  H    0.000000   0.000001
    32  H    0.000000   0.000001
    33  H    0.000004   0.000009
    34  H    0.000000  -0.000001
    35  H    0.000000  -0.000003
    36  H   -0.000003   0.000080
    37  C    0.006400  -0.008943
    38  C   -0.039585  -0.039840
    39  C    0.392639   0.387423
    40  H   -0.000379   0.000160
    41  H    0.000143   0.004310
    42  H   -0.007757   0.005678
    43  H    0.453866  -0.032790
    44  H   -0.032790   0.458856
 Mulliken charges:
               1
     1  C   -0.057892
     2  C   -0.282065
     3  C    0.172512
     4  C   -0.647713
     5  C    0.474838
     6  H    0.259085
     7  H    0.256047
     8  H    0.308955
     9  H    0.267538
    10  O   -0.314036
    11  O   -0.378928
    12  C   -0.462749
    13  C   -0.662145
    14  C   -0.682832
    15  O   -0.630125
    16  Si   1.429929
    17  C   -1.085704
    18  C   -1.067200
    19  C   -1.041079
    20  H    0.239860
    21  H    0.241750
    22  H    0.242541
    23  H    0.237460
    24  H    0.235649
    25  H    0.237501
    26  H    0.247657
    27  H    0.246888
    28  H    0.246677
    29  H    0.260765
    30  H    0.228094
    31  H    0.243840
    32  H    0.243625
    33  H    0.240862
    34  H    0.228659
    35  H    0.236707
    36  H    0.221638
    37  C   -0.506202
    38  C   -0.177069
    39  C   -0.454772
    40  H    0.275469
    41  H    0.249252
    42  H    0.225274
    43  H    0.227525
    44  H    0.223914
 Sum of Mulliken charges =   0.00000
 Mulliken charges with hydrogens summed into heavy atoms:
               1
     1  C    0.201193
     2  C   -0.026018
     3  C    0.172512
     4  C   -0.071220
     5  C    0.474838
    10  O   -0.314036
    11  O   -0.378928
    12  C    0.021737
    13  C    0.024858
    14  C    0.049867
    15  O   -0.630125
    16  Si   1.429929
    17  C   -0.344482
    18  C   -0.343048
    19  C   -0.330470
    37  C    0.018520
    38  C    0.048206
    39  C   -0.003333
 Electronic spatial extent (au):  <R**2>=           5613.8517
 Charge=              0.0000 electrons
 Dipole moment (field-independent basis, Debye):
    X=             -1.7906    Y=              2.9720    Z=              2.5546  Tot=              4.3087
 Quadrupole moment (field-independent basis, Debye-Ang):
   XX=           -116.4701   YY=           -125.2691   ZZ=           -125.7145
   XY=             10.1891   XZ=              9.2119   YZ=             -8.2482
 Traceless Quadrupole moment (field-independent basis, Debye-Ang):
   XX=              6.0144   YY=             -2.7845   ZZ=             -3.2299
   XY=             10.1891   XZ=              9.2119   YZ=             -8.2482
 Octapole moment (field-independent basis, Debye-Ang**2):
  XXX=            -10.1716  YYY=             20.0145  ZZZ=             19.5242  XYY=             -7.2450
  XXY=             12.3501  XXZ=             12.9888  XZZ=              0.1739  YZZ=             11.8297
  YYZ=             23.3350  XYZ=            -17.5666
 Hexadecapole moment (field-independent basis, Debye-Ang**3):
 XXXX=          -4747.1689 YYYY=          -1668.0348 ZZZZ=          -1161.6950 XXXY=             52.3649
 XXXZ=             74.9577 YYYX=             10.4035 YYYZ=             -8.4665 ZZZX=             17.3478
 ZZZY=            -20.6739 XXYY=          -1121.3240 XXZZ=          -1016.2301 YYZZ=           -533.9399
 XXYZ=            -32.6608 YYXZ=             26.4900 ZZXY=             44.5994
 N-N= 1.625908461006D+03 E-N=-5.746796713556D+03  KE= 1.060518948197D+03
 1\1\GINC-SWANNODE-0-8\SP\RmPW1PW91\6-311G(d)\C14H26O3Si1\AH809\08-Mar-
 2018\0\\#mPW1PW91/6-311g(d) nmr=(giao) scrf=(solvent=chloroform)\\P_ng
 _3ginp001\\0,1\C,0,-0.284221,0.322643,-0.182591\C,0,-1.59842,-0.081655
 ,0.49942\C,0,-1.833593,0.834034,1.74518\C,0,-1.862411,2.283903,1.24720
 8\C,0,-0.712128,2.662759,0.354239\H,0,0.555853,0.136977,0.495532\H,0,-
 1.520135,-1.125209,0.831751\H,0,-2.780812,2.494264,0.688038\H,0,-1.852
 602,2.972553,2.100652\O,0,-0.252031,1.727646,-0.50355\O,0,-0.286941,3.
 813818,0.320688\C,0,0.008173,-0.463245,-1.471169\C,0,1.419406,-0.2106,
 -1.990265\C,0,-2.791215,-0.058378,-0.48023\O,0,-3.088048,0.386191,2.30
 7268\Si,0,-4.130536,1.193433,3.337598\C,0,-3.283621,2.025771,4.787295\
 C,0,-5.144206,2.483737,2.416961\C,0,-5.352716,-0.062013,4.054028\H,0,-
 5.952549,2.857857,3.052428\H,0,-4.525177,3.335764,2.12358\H,0,-5.58823
 4,2.050751,1.515858\H,0,-4.818508,-0.829395,4.621647\H,0,-6.063465,0.4
 34049,4.72122\H,0,-5.911087,-0.549524,3.24969\H,0,-4.025509,2.475654,5
 .45433\H,0,-2.704996,1.301778,5.368376\H,0,-2.611608,2.820385,4.451807
 \H,0,-3.737557,-0.266949,0.027904\H,0,-2.885303,0.902796,-0.994447\H,0
 ,-2.677477,-0.832988,-1.245968\H,0,-0.689731,-0.169145,-2.263488\H,0,-
 0.114265,-1.537133,-1.289976\H,0,1.597633,-0.797762,-2.896762\H,0,1.57
 0302,0.844737,-2.237781\H,0,2.16824,-0.500857,-1.246455\C,0,-0.700569,
 0.668509,2.816333\C,0,-0.494148,-0.744847,3.297182\C,0,0.677443,-1.392
 036,3.258148\H,0,-0.938099,1.267983,3.700299\H,0,0.24584,1.077756,2.44
 3493\H,0,-1.364651,-1.254134,3.708211\H,0,0.759281,-2.410274,3.627629\
 H,0,1.579,-0.928641,2.869591\\Version=EM64L-G09RevD.01\State=1-A\HF=-1
 064.3776123\RMSD=9.656e-09\Dipole=-0.6577232,-1.4445388,0.5952847\Quad
 rupole=2.1732148,-5.5831681,3.4099533,-9.1002574,0.9461297,7.0321193\P
 G=C01 [X(C14H26O3Si1)]\\@


 NATURE GIVES TO EVERY TIME AND SEASON SOME BEAUTY OF ITS OWN.

                                                    --DICKENS
 Job cpu time:       0 days  1 hours 14 minutes 48.5 seconds.
 File lengths (MBytes):  RWF=    237 Int=      0 D2E=      0 Chk=     11 Scr=      1
 Normal termination of Gaussian 09 at Thu Mar  8 13:20:41 2018.
