 Entering Gaussian System, Link 0=/usr/local/shared/gaussian/em64t/09-D01/g09/g09
 Initial command:
 /usr/local/shared/gaussian/em64t/09-D01/g09/l1.exe "/scratch/ah809/P_ng_3ginp006/Gau-30216.inp" -scrdir="/scratch/ah809/P_ng_3ginp006/"
 Entering Link 1 = /usr/local/shared/gaussian/em64t/09-D01/g09/l1.exe PID=     30238.
  
 Copyright (c) 1988,1990,1992,1993,1995,1998,2003,2009,2013,
            Gaussian, Inc.  All Rights Reserved.
  
 This is part of the Gaussian(R) 09 program.  It is based on
 the Gaussian(R) 03 system (copyright 2003, Gaussian, Inc.),
 the Gaussian(R) 98 system (copyright 1998, Gaussian, Inc.),
 the Gaussian(R) 94 system (copyright 1995, Gaussian, Inc.),
 the Gaussian 92(TM) system (copyright 1992, Gaussian, Inc.),
 the Gaussian 90(TM) system (copyright 1990, Gaussian, Inc.),
 the Gaussian 88(TM) system (copyright 1988, Gaussian, Inc.),
 the Gaussian 86(TM) system (copyright 1986, Carnegie Mellon
 University), and the Gaussian 82(TM) system (copyright 1983,
 Carnegie Mellon University). Gaussian is a federally registered
 trademark of Gaussian, Inc.
  
 This software contains proprietary and confidential information,
 including trade secrets, belonging to Gaussian, Inc.
  
 This software is provided under written license and may be
 used, copied, transmitted, or stored only in accord with that
 written license.
  
 The following legend is applicable only to US Government
 contracts under FAR:
  
                    RESTRICTED RIGHTS LEGEND
  
 Use, reproduction and disclosure by the US Government is
 subject to restrictions as set forth in subparagraphs (a)
 and (c) of the Commercial Computer Software - Restricted
 Rights clause in FAR 52.227-19.
  
 Gaussian, Inc.
 340 Quinnipiac St., Bldg. 40, Wallingford CT 06492
  
  
 ---------------------------------------------------------------
 Warning -- This program may not be used in any manner that
 competes with the business of Gaussian, Inc. or will provide
 assistance to any competitor of Gaussian, Inc.  The licensee
 of this program is prohibited from giving any competitor of
 Gaussian, Inc. access to this program.  By using this program,
 the user acknowledges that Gaussian, Inc. is engaged in the
 business of creating and licensing software in the field of
 computational chemistry and represents and warrants to the
 licensee that it is not a competitor of Gaussian, Inc. and that
 it will not use this program in any manner prohibited above.
 ---------------------------------------------------------------
  

 Cite this work as:
 Gaussian 09, Revision D.01,
 M. J. Frisch, G. W. Trucks, H. B. Schlegel, G. E. Scuseria, 
 M. A. Robb, J. R. Cheeseman, G. Scalmani, V. Barone, B. Mennucci, 
 G. A. Petersson, H. Nakatsuji, M. Caricato, X. Li, H. P. Hratchian, 
 A. F. Izmaylov, J. Bloino, G. Zheng, J. L. Sonnenberg, M. Hada, 
 M. Ehara, K. Toyota, R. Fukuda, J. Hasegawa, M. Ishida, T. Nakajima, 
 Y. Honda, O. Kitao, H. Nakai, T. Vreven, J. A. Montgomery, Jr., 
 J. E. Peralta, F. Ogliaro, M. Bearpark, J. J. Heyd, E. Brothers, 
 K. N. Kudin, V. N. Staroverov, T. Keith, R. Kobayashi, J. Normand, 
 K. Raghavachari, A. Rendell, J. C. Burant, S. S. Iyengar, J. Tomasi, 
 M. Cossi, N. Rega, J. M. Millam, M. Klene, J. E. Knox, J. B. Cross, 
 V. Bakken, C. Adamo, J. Jaramillo, R. Gomperts, R. E. Stratmann, 
 O. Yazyev, A. J. Austin, R. Cammi, C. Pomelli, J. W. Ochterski, 
 R. L. Martin, K. Morokuma, V. G. Zakrzewski, G. A. Voth, 
 P. Salvador, J. J. Dannenberg, S. Dapprich, A. D. Daniels, 
 O. Farkas, J. B. Foresman, J. V. Ortiz, J. Cioslowski, 
 and D. J. Fox, Gaussian, Inc., Wallingford CT, 2013.
 
 ******************************************
 Gaussian 09:  EM64L-G09RevD.01 24-Apr-2013
                 8-Mar-2018 
 ******************************************
 %mem=6000MB
 %chk=P_ng_3ginp006.chk
 --------------------------------------------------------
 #mPW1PW91/6-311g(d) nmr=(giao) scrf=(solvent=chloroform)
 --------------------------------------------------------
 1/38=1/1;
 2/12=2,17=6,18=5,40=1/2;
 3/5=4,6=6,7=1,11=2,16=1,25=1,30=1,70=2201,72=7,74=-7/1,2,8,3;
 4//1;
 5/5=2,38=5,53=7/2;
 8/6=1,10=90,11=11/1;
 10/13=100,45=16/2;
 6/7=2,8=2,9=2,10=2,28=1/1;
 99/9=1/99;
 -------------
 P_ng_3ginp006
 -------------
 Symbolic Z-matrix:
 Charge =  0 Multiplicity = 1
 C                    -0.79495   0.39444  -0.63373 
 C                    -1.13799  -0.4339    0.61518 
 C                    -1.61863   0.47986   1.79372 
 C                    -0.92439   1.85616   1.7207 
 C                     0.33936   1.88632   0.90967 
 H                    -0.37061  -0.29781  -1.37296 
 H                    -0.18575  -0.89369   0.90826 
 H                    -1.57926   2.62171   1.28899 
 H                    -0.68172   2.21526   2.72804 
 O                     0.28792   1.29169  -0.30493 
 O                     1.33715   2.49632   1.27951 
 C                    -1.94371   1.14708  -1.32012 
 C                    -1.48611   1.83751  -2.60031 
 C                    -2.08784  -1.59392   0.29099 
 O                    -3.03815   0.65798   1.56067 
 Si                   -4.18692   1.31613   2.58725 
 C                    -5.66153   1.88765   1.55182 
 C                    -4.82203   0.02678   3.8002 
 C                    -3.57221   2.80319   3.55011 
 H                    -5.65997   0.42677   4.37895 
 H                    -5.16807  -0.86279   3.26569 
 H                    -4.04013  -0.27617   4.50154 
 H                    -3.23776   3.59471   2.87337 
 H                    -4.37475   3.21063   4.17269 
 H                    -2.74082   2.53735   4.20824 
 H                    -5.34853   2.65295   0.83564 
 H                    -6.08559   1.04585   0.99684 
 H                    -6.44032   2.30916   2.19386 
 H                    -2.24422  -2.22961   1.16783 
 H                    -3.06744  -1.25186  -0.05513 
 H                    -1.66279  -2.22498  -0.49726 
 H                    -2.36277   1.91801  -0.66862 
 H                    -2.75358   0.45404  -1.57 
 H                    -2.33353   2.33456  -3.0832 
 H                    -0.72538   2.59661  -2.3933 
 H                    -1.06953   1.11438  -3.30862 
 C                    -1.33861  -0.2304    3.16257 
 C                     0.10201  -0.54524   3.47208 
 C                     0.83685   0.11201   4.37837 
 H                    -1.91094  -1.16512   3.21598 
 H                    -1.73487   0.38211   3.98089 
 H                     0.55859  -1.38226   2.94739 
 H                     1.86946  -0.1695    4.56549 
 H                     0.44011   0.94676   4.94815 
 
                          Input orientation:                          
 ---------------------------------------------------------------------
 Center     Atomic      Atomic             Coordinates (Angstroms)
 Number     Number       Type             X           Y           Z
 ---------------------------------------------------------------------
      1          6           0       -0.794947    0.394437   -0.633734
      2          6           0       -1.137991   -0.433900    0.615177
      3          6           0       -1.618629    0.479862    1.793716
      4          6           0       -0.924394    1.856163    1.720702
      5          6           0        0.339357    1.886321    0.909668
      6          1           0       -0.370611   -0.297809   -1.372959
      7          1           0       -0.185746   -0.893687    0.908255
      8          1           0       -1.579260    2.621706    1.288987
      9          1           0       -0.681718    2.215261    2.728044
     10          8           0        0.287920    1.291688   -0.304927
     11          8           0        1.337152    2.496317    1.279509
     12          6           0       -1.943714    1.147083   -1.320116
     13          6           0       -1.486109    1.837514   -2.600305
     14          6           0       -2.087839   -1.593918    0.290987
     15          8           0       -3.038154    0.657978    1.560674
     16         14           0       -4.186916    1.316132    2.587245
     17          6           0       -5.661525    1.887654    1.551821
     18          6           0       -4.822031    0.026777    3.800198
     19          6           0       -3.572214    2.803191    3.550110
     20          1           0       -5.659971    0.426771    4.378946
     21          1           0       -5.168070   -0.862794    3.265693
     22          1           0       -4.040133   -0.276167    4.501540
     23          1           0       -3.237764    3.594712    2.873371
     24          1           0       -4.374747    3.210630    4.172685
     25          1           0       -2.740820    2.537347    4.208245
     26          1           0       -5.348534    2.652949    0.835640
     27          1           0       -6.085588    1.045847    0.996841
     28          1           0       -6.440320    2.309161    2.193859
     29          1           0       -2.244218   -2.229614    1.167825
     30          1           0       -3.067438   -1.251860   -0.055131
     31          1           0       -1.662792   -2.224975   -0.497259
     32          1           0       -2.362767    1.918013   -0.668621
     33          1           0       -2.753577    0.454036   -1.570002
     34          1           0       -2.333534    2.334560   -3.083200
     35          1           0       -0.725379    2.596608   -2.393297
     36          1           0       -1.069531    1.114383   -3.308616
     37          6           0       -1.338611   -0.230404    3.162570
     38          6           0        0.102012   -0.545235    3.472077
     39          6           0        0.836850    0.112009    4.378371
     40          1           0       -1.910935   -1.165120    3.215980
     41          1           0       -1.734873    0.382109    3.980888
     42          1           0        0.558593   -1.382256    2.947385
     43          1           0        1.869461   -0.169502    4.565493
     44          1           0        0.440105    0.946759    4.948153
 ---------------------------------------------------------------------
                    Distance matrix (angstroms):
                    1          2          3          4          5
     1  C    0.000000
     2  C    1.537400   0.000000
     3  C    2.564812   1.566821   0.000000
     4  C    2.774305   2.551901   1.543210   0.000000
     5  C    2.427849   2.766353   2.567757   1.501916   0.000000
     6  H    1.098052   2.135434   3.491440   3.810119   3.238034
     7  H    2.099552   1.097301   2.173438   2.960970   2.829166
     8  H    3.045116   3.159979   2.200863   1.096031   2.089441
     9  H    3.824889   3.419129   2.182288   1.096623   2.111229
    10  O    1.444221   2.420221   2.949287   2.427243   1.353320
    11  O    3.553061   3.892794   3.614850   2.391451   1.226569
    12  C    1.535338   2.625653   3.201064   3.284567   3.275793
    13  C    2.535267   3.952193   4.600891   4.357404   3.956592
    14  C    2.545630   1.533934   2.603635   3.911617   4.287903
    15  O    3.149104   2.386793   1.449512   2.435003   3.652426
    16  Si   4.767566   4.030832   2.815161   3.418564   4.860713
    17  C    5.539849   5.170036   4.287820   4.740245   6.035143
    18  C    6.001028   4.891700   3.806973   4.781478   6.201048
    19  C    5.569547   5.001803   3.507032   3.354780   4.807595
    20  H    6.985447   5.946008   4.797778   5.615613   7.082239
    21  H    5.992526   4.842595   4.070377   5.271481   6.590921
    22  H    6.111627   4.852950   3.710468   4.689107   6.062824
    23  H    5.339373   5.073283   3.672811   3.114944   4.423858
    24  H    6.621750   6.034489   4.551129   4.444293   5.884203
    25  H    5.641210   4.930264   3.364893   3.154566   4.559817
    26  H    5.291039   5.225506   4.421810   4.581617   5.739800
    27  H    5.574405   5.178227   4.572644   5.274326   6.480271
    28  H    6.597855   6.175056   5.172538   5.554685   6.913173
    29  H    3.497377   2.180309   2.850327   4.329109   4.866459
    30  H    2.865186   2.200258   2.918243   4.172053   4.731307
    31  H    2.762806   2.172759   3.544949   4.703219   4.784433
    32  H    2.186449   2.946134   2.947053   2.789553   3.129453
    33  H    2.171723   2.858943   3.550123   4.017537   4.215026
    34  H    3.482989   4.771969   5.266432   5.029117   4.825791
    35  H    2.819656   4.290122   4.775938   4.184836   3.542280
    36  H    2.783651   4.218770   5.170872   5.085798   4.513842
    37  C    3.885604   2.563371   1.567370   2.569887   3.517338
    38  C    4.306414   3.116389   2.613106   3.144445   3.540443
    39  C    5.278610   4.284815   3.584011   3.634179   3.927796
    40  H    4.300924   2.810036   2.194138   3.512445   4.437813
    41  H    4.709389   3.514278   2.192439   2.817473   3.999685
    42  H    4.220559   3.035946   3.088484   3.767142   3.857972
    43  H    5.869332   4.971888   4.502354   4.472335   4.464603
    44  H    5.743507   4.813656   3.795636   3.620126   4.147564
                    6          7          8          9         10
     6  H    0.000000
     7  H    2.364991   0.000000
     8  H    4.131629   3.800635   0.000000
     9  H    4.819806   3.636369   1.744037   0.000000
    10  O    2.025057   2.544019   2.792109   3.315433   0.000000
    11  O    4.214164   3.734859   2.919122   2.500616   2.249990
    12  C    2.136623   3.495831   3.019066   4.372784   2.455954
    13  C    2.703760   4.632537   3.968655   5.401948   2.951926
    14  C    2.719832   2.118797   4.361897   4.735638   3.784979
    15  O    4.078666   3.312031   2.461384   3.056252   3.865854
    16  Si   5.731684   4.869463   3.192157   3.621418   5.328172
    17  C    6.428402   6.175289   4.156056   5.127310   6.260877
    18  C    6.832426   5.541275   4.853391   4.804286   6.675601
    19  C    6.641014   5.666963   3.019516   3.062094   5.660970
    20  H    7.847723   6.614865   5.569362   5.541406   7.619984
    21  H    6.697157   5.511989   5.378537   5.467252   6.867237
    22  H    6.926442   5.305594   4.977355   4.542186   6.655249
    23  H    6.434563   5.772540   2.491515   2.908157   5.275978
    24  H    7.687419   6.711904   4.059223   4.088546   6.743279
    25  H    6.693716   5.402808   3.142993   2.556293   5.576168
    26  H    6.193916   6.264047   3.796568   5.054892   5.909614
    27  H    6.331060   6.211101   4.782852   5.793652   6.509734
    28  H    7.507320   7.143578   4.954431   5.784087   7.249027
    29  H    3.701062   2.467668   4.898179   4.963124   4.580425
    30  H    3.149565   3.059501   4.361862   5.045657   4.217874
    31  H    2.480030   2.435049   5.166040   5.575014   4.026064
    32  H    3.061804   3.889938   2.222903   3.801528   2.747853
    33  H    2.506516   3.814691   3.775133   5.086031   3.398938
    34  H    3.702345   5.564736   4.446055   6.042622   3.959596
    35  H    3.089434   4.834626   3.780074   5.135705   2.662871
    36  H    2.495905   4.753464   4.865162   6.148463   3.300948
    37  C    4.638167   2.617437   3.420929   2.569358   4.121396
    38  C    4.874317   2.603345   4.197865   2.964482   4.204118
    39  C    5.890985   3.754841   4.656228   3.074621   4.860684
    40  H    4.917640   2.894054   4.261850   3.629880   4.823656
    41  H    5.566613   3.669949   3.505188   2.457478   4.825685
    42  H    4.550255   2.225037   4.832433   3.811641   4.219096
    43  H    6.348196   4.257195   5.515434   3.946116   5.325161
    44  H    6.493279   4.483270   4.502530   2.792216   5.266591
                   11         12         13         14         15
    11  O    0.000000
    12  C    4.398018   0.000000
    13  C    4.843323   1.524789   0.000000
    14  C    5.425658   3.182689   4.527292   0.000000
    15  O    4.754140   3.120252   4.594986   2.754313   0.000000
    16  Si   5.798132   4.508659   5.871701   4.259967   1.675312
    17  C    7.030370   4.755900   5.888698   5.146093   2.897284
    18  C    7.098453   5.979750   7.441343   4.734662   2.931911
    19  C    5.417719   5.395721   6.565971   5.670963   2.974057
    20  H    7.927753   6.841690   8.253561   5.792644   3.856169
    21  H    7.585939   5.955310   7.433602   4.344104   3.123520
    22  H    6.854440   6.349196   7.837531   4.824591   3.244269
    23  H    4.967567   5.025016   6.009756   5.908715   3.222953
    24  H    6.442554   6.351300   7.490198   6.586441   3.889102
    25  H    5.020860   5.755952   6.958478   5.730501   3.260378
    26  H    6.702235   4.302059   5.233448   5.381882   3.137426
    27  H    7.568410   4.746963   5.892487   4.842374   3.123332
    28  H    7.833271   5.823909   6.910186   6.148092   3.834327
    29  H    5.930692   4.205025   5.595986   1.094262   3.020406
    30  H    5.935529   2.935621   4.303806   1.093808   2.501832
    31  H    5.869171   3.482354   4.577973   1.095550   3.799754
    32  H    4.221261   1.092879   2.122831   3.651040   2.648319
    33  H    5.387457   1.094822   2.140563   2.846156   3.150192
    34  H    5.703800   2.161140   1.094702   5.184442   4.987282
    35  H    4.213502   2.176506   1.094434   5.159669   4.974043
    36  H    5.362160   2.172417   1.094605   4.618332   5.271979
    37  C    4.259182   4.728435   6.124440   3.265961   2.498748
    38  C    3.947653   5.478508   6.713676   4.001814   3.868052
    39  C    3.941849   6.424614   7.554828   5.307608   4.822152
    40  H    5.263659   5.091515   6.559379   2.961545   2.708200
    41  H    4.604852   5.359985   6.744790   4.200552   2.762622
    42  H    4.293168   5.556137   6.732354   3.755643   4.361435
    43  H    4.264696   7.135411   8.163126   5.996715   5.813634
    44  H    4.082251   6.709241   7.841107   5.876626   4.863815
                   16         17         18         19         20
    16  Si   0.000000
    17  C    1.890294   0.000000
    18  C    1.880708   3.036908   0.000000
    19  C    1.875183   3.032588   3.055006   0.000000
    20  H    2.484159   3.182266   1.094115   3.270026   0.000000
    21  H    2.484084   3.278082   1.093972   4.008378   1.773211
    22  H    2.494291   4.001484   1.093170   3.256780   1.770036
    23  H    2.484891   3.245791   4.012365   1.093772   4.262592
    24  H    2.477503   3.205463   3.236623   1.094379   3.073144
    25  H    2.492027   4.001151   3.286473   1.093175   3.606260
    26  H    2.490895   1.093872   3.995321   3.247496   4.196174
    27  H    2.491464   1.093833   3.239427   3.990550   3.464540
    28  H    2.493730   1.093802   3.226215   3.210843   2.987799
    29  H    4.284990   5.364451   4.320394   5.724332   5.388418
    30  H    3.850969   4.378142   4.424598   5.449404   5.403709
    31  H    5.331492   6.091167   5.789587   6.731236   6.840071
    32  H    3.780270   3.976567   5.440138   4.477052   6.210740
    33  H    4.481113   4.500800   5.770624   5.692472   6.621016
    34  H    6.051956   5.723519   7.674611   6.764225   8.389783
    35  H    6.199004   6.358625   7.857860   6.593272   8.655730
    36  H    6.672329   6.731137   8.111682   7.493839   8.980176
    37  C    3.291749   5.076245   3.550623   3.787066   4.537136
    38  C    4.758416   6.544058   4.968004   4.971718   5.913346
    39  C    5.467748   7.305558   5.688979   5.231474   6.504441
    40  H    3.425202   5.114272   3.199439   4.314972   4.235785
    41  H    2.971053   4.856504   3.112789   3.069695   3.945483
    42  H    5.470910   7.164480   5.627058   5.911414   6.632683
    43  H    6.542192   8.368385   6.737972   6.283290   7.555309
    44  H    5.207653   7.046293   5.463904   4.636763   6.148602
                   21         22         23         24         25
    21  H    0.000000
    22  H    1.773046   0.000000
    23  H    4.873331   4.275329   0.000000
    24  H    4.247915   3.518219   1.768747   0.000000
    25  H    4.282628   3.112892   1.773940   1.767567   0.000000
    26  H    4.277636   4.871392   3.081333   3.520673   4.264739
    27  H    3.103617   4.267847   4.257720   4.207047   4.870848
    28  H    3.581724   4.215473   3.517207   2.999165   4.218545
    29  H    3.849436   4.260859   6.149699   6.569977   5.675798
    30  H    3.948658   4.760395   5.665192   6.284688   5.713243
    31  H    5.319992   5.868355   6.907274   7.662172   6.781123
    32  H    5.575073   5.861616   4.015302   5.399738   4.930550
    33  H    5.563071   6.249164   5.462769   6.573086   6.142352
    34  H    7.652850   8.201016   6.155189   7.588275   7.305626
    35  H    7.983053   8.171855   5.919973   7.537044   6.902599
    36  H    7.995548   8.470929   7.005015   8.443256   7.830787
    37  C    3.882693   3.015486   4.280412   4.698848   3.274152
    38  C    5.283673   4.276629   5.352730   5.885469   4.257458
    39  C    6.184445   4.893957   5.567470   6.066671   4.325613
    40  H    3.271514   2.641285   4.953166   5.112029   3.921933
    41  H    3.721307   2.453290   3.715655   3.873790   2.389283
    42  H    5.758978   4.978666   6.260033   6.850825   5.276285
    43  H    7.190061   5.910903   6.566303   7.111239   5.358111
    44  H    6.128359   4.665570   4.984285   5.376733   3.632591
                   26         27         28         29         30
    26  H    0.000000
    27  H    1.775390   0.000000
    28  H    1.776217   1.776133   0.000000
    29  H    5.795390   5.051139   6.265820   0.000000
    30  H    4.609165   3.936411   5.395847   1.768987   0.000000
    31  H    6.257432   5.700152   7.115144   1.763684   1.765067
    32  H    3.423118   4.170591   4.997322   4.537554   3.304698
    33  H    4.166069   4.247496   5.585715   3.867444   2.302916
    34  H    4.954685   5.690819   6.686829   6.237858   4.750813
    35  H    5.639395   6.529145   7.333838   6.187154   5.075723
    36  H    6.152391   6.610786   7.781394   5.709705   4.491759
    37  C    5.459653   5.371498   5.780590   2.965800   3.792864
    38  C    6.847454   6.851622   7.251450   3.694794   4.794364
    39  C    7.567450   7.760602   7.909284   5.028298   6.062965
    40  H    5.662222   5.219261   5.799197   2.332202   3.470618
    41  H    5.301683   5.317312   5.389641   3.872190   4.553574
    42  H    7.458988   7.337946   7.948531   3.426456   4.709587
    43  H    8.601017   8.803133   8.990043   5.719315   6.847966
    44  H    7.302889   7.629374   7.535418   5.620126   6.493815
                   31         32         33         34         35
    31  H    0.000000
    32  H    4.205197   0.000000
    33  H    3.085075   1.763079   0.000000
    34  H    5.284538   2.450420   2.450015   0.000000
    35  H    5.265108   2.473062   3.063008   1.769406   0.000000
    36  H    4.405338   3.047598   2.508954   1.771256   1.775737
    37  C    4.180641   4.510279   4.986765   6.824848   6.263841
    38  C    4.657434   5.411849   5.880093   7.562854   6.705100
    39  C    5.956633   6.242702   6.956385   8.406314   7.380331
    40  H    3.869498   4.979958   5.122239   7.218450   6.857123
    41  H    5.182266   4.936718   5.644051   7.353353   6.822999
    42  H    4.184531   5.701019   5.894847   7.651606   6.782538
    43  H    6.506400   7.047370   7.707501   9.079537   7.925233
    44  H    6.643387   6.351974   7.275213   8.609396   7.614279
                   36         37         38         39         40
    36  H    0.000000
    37  C    6.614915   0.000000
    38  C    7.078463   1.506754   0.000000
    39  C    7.983033   2.515561   1.339151   0.000000
    40  H    6.962359   1.097316   2.121744   3.245387   0.000000
    41  H    7.356342   1.096285   2.119670   2.616239   1.734935
    42  H    6.929758   2.229899   1.088289   2.087577   2.493564
    43  H    8.502213   3.501946   2.112016   1.086531   4.135678
    44  H    8.395316   2.781699   2.125830   1.085756   3.603865
                   41         42         43         44
    41  H    0.000000
    42  H    3.072637   0.000000
    43  H    3.692866   2.409859   0.000000
    44  H    2.446418   3.072690   1.853517   0.000000
 Stoichiometry    C14H26O3Si
 Framework group  C1[X(C14H26O3Si)]
 Deg. of freedom   126
 Full point group                 C1      NOp   1
 Largest Abelian subgroup         C1      NOp   1
 Largest concise Abelian subgroup C1      NOp   1
                         Standard orientation:                         
 ---------------------------------------------------------------------
 Center     Atomic      Atomic             Coordinates (Angstroms)
 Number     Number       Type             X           Y           Z
 ---------------------------------------------------------------------
      1          6           0        2.143077   -0.948521    0.661584
      2          6           0        1.126779   -0.013794    1.337619
      3          6           0        0.027941    0.463207    0.327691
      4          6           0        0.615808    0.559971   -1.095877
      5          6           0        2.113193    0.658700   -1.157867
      6          1           0        2.931642   -1.153504    1.397701
      7          1           0        1.717074    0.861736    1.636063
      8          1           0        0.344068   -0.306307   -1.709883
      9          1           0        0.203153    1.429755   -1.621018
     10          8           0        2.805123   -0.218414   -0.394074
     11          8           0        2.684960    1.424101   -1.927098
     12          6           0        1.628815   -2.303382    0.154487
     13          6           0        2.756709   -3.169943   -0.394976
     14          6           0        0.570630   -0.613576    2.635275
     15          8           0       -0.969972   -0.587817    0.352268
     16         14           0       -2.510302   -0.576175   -0.306454
     17          6           0       -3.074595   -2.364097   -0.547536
     18          6           0       -3.734941    0.243561    0.862031
     19          6           0       -2.607996    0.269218   -1.977406
     20          1           0       -4.755883    0.132892    0.484518
     21          1           0       -3.684018   -0.216737    1.853145
     22          1           0       -3.527040    1.311532    0.968023
     23          1           0       -1.941268   -0.213146   -2.697917
     24          1           0       -3.626936    0.212510   -2.372641
     25          1           0       -2.334892    1.325418   -1.907509
     26          1           0       -2.401177   -2.885302   -1.234128
     27          1           0       -3.074245   -2.895208    0.408702
     28          1           0       -4.086321   -2.394115   -0.962157
     29          1           0       -0.074838    0.102330    3.153212
     30          1           0       -0.008774   -1.525241    2.463310
     31          1           0        1.388637   -0.868037    3.318169
     32          1           0        0.896411   -2.178903   -0.647058
     33          1           0        1.136247   -2.848491    0.966193
     34          1           0        2.363784   -4.140210   -0.715231
     35          1           0        3.235104   -2.699676   -1.259716
     36          1           0        3.520791   -3.349442    0.367991
     37          6           0       -0.562580    1.836951    0.797545
     38          6           0        0.407526    2.985824    0.893945
     39          6           0        0.446851    4.010393    0.032528
     40          1           0       -1.044824    1.714958    1.775634
     41          1           0       -1.375420    2.135442    0.125210
     42          1           0        1.094505    2.995470    1.737946
     43          1           0        1.163490    4.816837    0.161468
     44          1           0       -0.219249    4.071859   -0.822690
 ---------------------------------------------------------------------
 Rotational constants (GHZ):      0.4336813      0.3215485      0.2502323
 Standard basis: 6-311G(d) (5D, 7F)
 There are   428 symmetry adapted cartesian basis functions of A   symmetry.
 There are   410 symmetry adapted basis functions of A   symmetry.
   410 basis functions,   720 primitive gaussians,   428 cartesian basis functions
    74 alpha electrons       74 beta electrons
       nuclear repulsion energy      1647.2641843999 Hartrees.
 NAtoms=   44 NActive=   44 NUniq=   44 SFac= 1.00D+00 NAtFMM=   60 NAOKFM=F Big=F
 Integral buffers will be    131072 words long.
 Raffenetti 2 integral format.
 Two-electron integral symmetry is turned on.
 ------------------------------------------------------------------------------
 Polarizable Continuum Model (PCM)
 =================================
 Model                : PCM (using non-symmetric T matrix).
 Atomic radii         : UFF (Universal Force Field).
 Polarization charges : Total charges.
 Charge compensation  : None.
 Solution method      : On-the-fly selection.
 Cavity type          : Scaled VdW (van der Waals Surface) (Alpha=1.100).
 Cavity algorithm     : GePol (No added spheres)
                        Default sphere list used, NSphG=   44.
                        Lebedev-Laikov grids with approx.  5.0 points / Ang**2.
                        Smoothing algorithm: Karplus/York (Gamma=1.0000).
                        Polarization charges: spherical gaussians, with
                                              point-specific exponents (IZeta= 3).
                        Self-potential: point-specific (ISelfS= 7).
                        Self-field    : sphere-specific E.n sum rule (ISelfD= 2).
 Solvent              : Chloroform, Eps=   4.711300 Eps(inf)=   2.090627
 ------------------------------------------------------------------------------
 One-electron integrals computed using PRISM.
 NBasis=   410 RedAO= T EigKep=  6.90D-04  NBF=   410
 NBsUse=   410 1.00D-06 EigRej= -1.00D+00 NBFU=   410
 ExpMin= 6.54D-02 ExpMax= 6.94D+04 ExpMxC= 2.33D+03 IAcc=2 IRadAn=         4 AccDes= 0.00D+00
 Harris functional with IExCor=  908 and IRadAn=       4 diagonalized for initial guess.
 HarFok:  IExCor=  908 AccDes= 0.00D+00 IRadAn=         4 IDoV= 1 UseB2=F ITyADJ=14
 ICtDFT=  3500011 ScaDFX=  1.000000  1.000000  1.000000  1.000000
 FoFCou: FMM=F IPFlag=           0 FMFlag=      100000 FMFlg1=           0
         NFxFlg=           0 DoJE=T BraDBF=F KetDBF=T FulRan=T
         wScrn=  0.000000 ICntrl=     500 IOpCl=  0 I1Cent=   200000004 NGrid=           0
         NMat0=    1 NMatS0=      1 NMatT0=    0 NMatD0=    1 NMtDS0=    0 NMtDT0=    0
 Petite list used in FoFCou.
 Requested convergence on RMS density matrix=1.00D-08 within 128 cycles.
 Requested convergence on MAX density matrix=1.00D-06.
 Requested convergence on             energy=1.00D-06.
 No special actions if energy rises.
 Inv3:  Mode=1 IEnd=    25038963.
 Iteration    1 A*A^-1 deviation from unit magnitude is 8.22D-15 for   1326.
 Iteration    1 A*A^-1 deviation from orthogonality  is 9.33D-15 for   2450   1033.
 Iteration    1 A^-1*A deviation from unit magnitude is 7.99D-15 for   1199.
 Iteration    1 A^-1*A deviation from orthogonality  is 1.64D-11 for   2736   2506.
 Error on total polarization charges =  0.01112
 SCF Done:  E(RmPW1PW91) =  -1064.37373016     A.U. after   13 cycles
            NFock= 13  Conv=0.34D-08     -V/T= 2.0036
 DoSCS=F DFT=T ScalE2(SS,OS)=  1.000000  1.000000
 Range of M.O.s used for correlation:     1   410
 NBasis=   410 NAE=    74 NBE=    74 NFC=     0 NFV=     0
 NROrb=    410 NOA=    74 NOB=    74 NVA=   336 NVB=   336
 NEqPCM:  Using equilibrium solvation (IEInf=0, Eps=   4.7113, EpsInf=   2.0906)
          Differentiating once with respect to magnetic field using GIAOs.
          Electric field/nuclear overlap derivatives assumed to be zero.
 FoFJK:  IHMeth= 1 ICntrl=    6127 DoSepK=F KAlg= 0 I1Cent=   0 FoldK=F
 IRaf=         1 NMat=   1 IRICut=       1 DoRegI=T DoRafI=F ISym2E= 0.
          There are     3 degrees of freedom in the 1st order CPHF.  IDoFFX=0 NUNeed=     3.
      3 vectors produced by pass  0 Test12= 8.29D-13 3.33D-08 XBig12= 2.99D+01 9.74D-01.
 AX will form     3 AO Fock derivatives at one time.
      3 vectors produced by pass  1 Test12= 8.29D-13 3.33D-08 XBig12= 6.87D-02 9.67D-02.
      3 vectors produced by pass  2 Test12= 8.29D-13 3.33D-08 XBig12= 5.61D-04 7.77D-03.
      3 vectors produced by pass  3 Test12= 8.29D-13 3.33D-08 XBig12= 2.15D-06 3.05D-04.
      3 vectors produced by pass  4 Test12= 8.29D-13 3.33D-08 XBig12= 6.80D-09 1.73D-05.
      3 vectors produced by pass  5 Test12= 8.29D-13 3.33D-08 XBig12= 2.83D-11 9.85D-07.
      2 vectors produced by pass  6 Test12= 8.29D-13 3.33D-08 XBig12= 1.04D-13 5.84D-08.
 InvSVY:  IOpt=1 It=  1 EMax= 8.88D-16
 Solved reduced A of dimension    20 with     3 vectors.
 Calculating GIAO nuclear magnetic shielding tensors.
 SCF GIAO Magnetic shielding tensor (ppm):
      1  C    Isotropic =   100.5510   Anisotropy =    44.2233
   XX=    88.2119   YX=    10.1005   ZX=   -20.0770
   XY=    -0.5814   YY=    97.1256   ZY=    -6.1160
   XZ=   -16.7816   YZ=   -16.6066   ZZ=   116.3155
   Eigenvalues:    79.0479    92.5718   130.0332
      2  C    Isotropic =   142.5242   Anisotropy =     8.0829
   XX=   145.0740   YX=     0.4336   ZX=    -5.5213
   XY=    -1.4885   YY=   144.5518   ZY=    -8.9735
   XZ=     3.4179   YZ=    -2.5973   ZZ=   137.9469
   Eigenvalues:   134.4578   145.2021   147.9128
      3  C    Isotropic =   104.7905   Anisotropy =    48.7877
   XX=   116.7474   YX=    20.9192   ZX=     2.1219
   XY=    23.1427   YY=   113.3927   ZY=     1.2244
   XZ=     4.7042   YZ=    -0.2705   ZZ=    84.2313
   Eigenvalues:    83.6650    93.3908   137.3156
      4  C    Isotropic =   140.1962   Anisotropy =    30.0964
   XX=   151.6968   YX=     7.8934   ZX=   -10.3769
   XY=     6.9680   YY=   130.9133   ZY=    -8.5327
   XZ=   -11.9395   YZ=     1.2646   ZZ=   137.9784
   Eigenvalues:   128.5293   131.7988   160.2605
      5  C    Isotropic =     8.5386   Anisotropy =   101.9706
   XX=   -39.6102   YX=    39.5825   ZX=   -34.6073
   XY=    50.3383   YY=    27.7480   ZY=    43.4658
   XZ=   -43.9554   YZ=    43.7923   ZZ=    37.4780
   Eigenvalues:   -86.8059    35.9028    76.5190
      6  H    Isotropic =    27.8608   Anisotropy =     5.0117
   XX=    29.5652   YX=    -1.4086   ZX=     0.9000
   XY=    -1.1778   YY=    25.4341   ZY=    -0.4802
   XZ=     2.6559   YZ=    -0.3229   ZZ=    28.5831
   Eigenvalues:    25.0588    27.3216    31.2019
      7  H    Isotropic =    30.0306   Anisotropy =     6.3225
   XX=    30.0037   YX=     1.6205   ZX=     2.4163
   XY=     2.2975   YY=    32.1804   ZY=     1.6483
   XZ=     1.4054   YZ=     1.6289   ZZ=    27.9075
   Eigenvalues:    26.7338    29.1123    34.2456
      8  H    Isotropic =    29.3936   Anisotropy =     2.9794
   XX=    30.3472   YX=     0.3343   ZX=     0.3590
   XY=     0.0955   YY=    27.8664   ZY=     0.8304
   XZ=     1.4858   YZ=     1.6439   ZZ=    29.9672
   Eigenvalues:    27.2807    29.5202    31.3799
      9  H    Isotropic =    29.2143   Anisotropy =     3.8289
   XX=    29.1365   YX=    -0.6296   ZX=    -0.7561
   XY=     0.4733   YY=    29.2222   ZY=    -2.4789
   XZ=    -1.0813   YZ=    -2.2645   ZZ=    29.2842
   Eigenvalues:    26.6756    29.2005    31.7669
     10  O    Isotropic =    91.6232   Anisotropy =   211.4734
   XX=    67.8338   YX=   -69.9569   ZX=    99.0388
   XY=  -106.6749   YY=   131.4609   ZY=   140.9571
   XZ=   101.0787   YZ=   110.2492   ZZ=    75.5749
   Eigenvalues:  -119.8852   162.1493   232.6055
     11  O    Isotropic =  -118.3355   Anisotropy =   585.0279
   XX=  -217.1627   YX=    25.0330   ZX=     6.5618
   XY=    11.2504   YY=   -96.7202   ZY=   356.4440
   XZ=   -21.1555   YZ=   322.2962   ZZ=   -41.1235
   Eigenvalues:  -411.1528  -215.5367   271.6831
     12  C    Isotropic =   161.5950   Anisotropy =    10.1582
   XX=   161.6566   YX=    -0.3252   ZX=    -0.9937
   XY=     4.1593   YY=   166.6174   ZY=     1.7459
   XZ=     2.1684   YZ=     5.4524   ZZ=   156.5109
   Eigenvalues:   155.3601   161.0577   168.3671
     13  C    Isotropic =   174.3847   Anisotropy =    23.7825
   XX=   180.8097   YX=   -12.7409   ZX=    -0.2226
   XY=    -9.3648   YY=   175.0135   ZY=     6.0968
   XZ=     1.2294   YZ=     9.5016   ZZ=   167.3310
   Eigenvalues:   160.0991   172.8153   190.2397
     14  C    Isotropic =   175.2430   Anisotropy =    18.6287
   XX=   173.3566   YX=    -0.4327   ZX=    -3.2129
   XY=     1.5118   YY=   167.5056   ZY=    -6.4411
   XZ=    -4.2027   YZ=    -5.4340   ZZ=   184.8669
   Eigenvalues:   165.6217   172.4453   187.6621
     15  O    Isotropic =   230.0778   Anisotropy =    52.3766
   XX=   197.1586   YX=     9.0696   ZX=   -20.1016
   XY=     4.8365   YY=   247.1039   ZY=    18.6918
   XZ=   -13.2998   YZ=    16.7437   ZZ=   245.9708
   Eigenvalues:   189.3849   235.8528   264.9955
     16  Si   Isotropic =   334.2657   Anisotropy =    52.9106
   XX=   359.6863   YX=    -7.9074   ZX=    25.4230
   XY=     5.7995   YY=   322.1462   ZY=     5.7371
   XZ=    18.3297   YZ=    -1.9140   ZZ=   320.9646
   Eigenvalues:   310.6986   322.5591   369.5394
     17  C    Isotropic =   186.4018   Anisotropy =    12.5182
   XX=   187.7977   YX=     1.4020   ZX=     3.4313
   XY=    -1.3129   YY=   194.6616   ZY=     1.0382
   XZ=     3.3329   YZ=     1.2819   ZZ=   176.7461
   Eigenvalues:   175.7288   188.7294   194.7473
     18  C    Isotropic =   184.4212   Anisotropy =    12.4560
   XX=   190.0541   YX=    -3.2563   ZX=    -2.8149
   XY=    -2.0685   YY=   179.1835   ZY=     6.1418
   XZ=    -1.6732   YZ=     6.6113   ZZ=   184.0260
   Eigenvalues:   174.7260   185.8124   192.7252
     19  C    Isotropic =   185.4493   Anisotropy =     6.1682
   XX=   188.3307   YX=     1.6935   ZX=     2.7402
   XY=     4.0965   YY=   181.2643   ZY=    -3.7480
   XZ=     0.0619   YZ=    -5.5303   ZZ=   186.7529
   Eigenvalues:   177.6538   189.1327   189.5614
     20  H    Isotropic =    32.3539   Anisotropy =    10.2869
   XX=    39.0713   YX=    -0.0898   ZX=     1.1085
   XY=     0.0093   YY=    28.7538   ZY=     0.6606
   XZ=     1.2586   YZ=     0.5625   ZZ=    29.2367
   Eigenvalues:    28.2895    29.5605    39.2118
     21  H    Isotropic =    31.9646   Anisotropy =     7.9354
   XX=    30.6258   YX=     0.1958   ZX=    -1.8787
   XY=     0.1188   YY=    29.0437   ZY=    -1.8565
   XZ=    -1.2899   YZ=    -2.6946   ZZ=    36.2243
   Eigenvalues:    28.3411    30.2978    37.2548
     22  H    Isotropic =    32.0571   Anisotropy =     6.3698
   XX=    31.8887   YX=     0.2090   ZX=    -1.1379
   XY=     1.0388   YY=    35.7602   ZY=     1.7692
   XZ=    -0.8950   YZ=     2.2252   ZZ=    28.5224
   Eigenvalues:    27.6968    32.1709    36.3036
     23  H    Isotropic =    31.9142   Anisotropy =     6.7472
   XX=    32.0543   YX=    -1.3954   ZX=    -1.7407
   XY=    -0.8288   YY=    29.0041   ZY=     1.6757
   XZ=    -2.2688   YZ=     2.0938   ZZ=    34.6841
   Eigenvalues:    28.3561    30.9740    36.4123
     24  H    Isotropic =    32.1529   Anisotropy =    10.5867
   XX=    36.3106   YX=    -0.0830   ZX=     5.0184
   XY=     0.3484   YY=    28.4729   ZY=    -0.6740
   XZ=     4.3114   YZ=    -0.9236   ZZ=    31.6754
   Eigenvalues:    27.8586    29.3895    39.2108
     25  H    Isotropic =    31.9261   Anisotropy =     6.9158
   XX=    30.1599   YX=     1.6798   ZX=     2.0475
   XY=     2.1648   YY=    35.8578   ZY=    -0.7727
   XZ=     1.3584   YZ=    -1.8393   ZZ=    29.7607
   Eigenvalues:    27.6230    31.6187    36.5367
     26  H    Isotropic =    32.0985   Anisotropy =     7.9897
   XX=    31.8788   YX=    -1.3310   ZX=    -2.2100
   XY=    -2.0493   YY=    33.5988   ZY=     4.0156
   XZ=    -2.1168   YZ=     3.4025   ZZ=    30.8180
   Eigenvalues:    28.0263    30.8443    37.4250
     27  H    Isotropic =    31.9651   Anisotropy =     8.4228
   XX=    29.2022   YX=     1.5189   ZX=     0.0387
   XY=     1.4278   YY=    33.5013   ZY=    -4.5535
   XZ=    -0.1071   YZ=    -3.6230   ZZ=    33.1918
   Eigenvalues:    28.1640    30.1511    37.5803
     28  H    Isotropic =    32.3505   Anisotropy =     9.9584
   XX=    36.9414   YX=     2.5989   ZX=     3.4427
   XY=     2.0942   YY=    30.5822   ZY=     0.7337
   XZ=     3.3292   YZ=     0.9081   ZZ=    29.5280
   Eigenvalues:    28.2103    29.8519    38.9894
     29  H    Isotropic =    30.9319   Anisotropy =     8.4194
   XX=    29.4070   YX=    -3.4148   ZX=    -2.5051
   XY=    -2.7543   YY=    29.0103   ZY=     1.3783
   XZ=    -2.7204   YZ=     1.8420   ZZ=    34.3785
   Eigenvalues:    26.0631    30.1879    36.5448
     30  H    Isotropic =    30.7669   Anisotropy =     5.7311
   XX=    29.6759   YX=     2.9978   ZX=     0.3022
   XY=     2.9723   YY=    32.1549   ZY=    -1.5873
   XZ=    -0.0429   YZ=    -1.7611   ZZ=    30.4699
   Eigenvalues:    27.3125    30.4006    34.5876
     31  H    Isotropic =    31.3701   Anisotropy =    10.9956
   XX=    30.9842   YX=    -1.5169   ZX=     3.8503
   XY=    -1.7208   YY=    27.3380   ZY=    -2.3397
   XZ=     4.1586   YZ=    -2.0447   ZZ=    35.7881
   Eigenvalues:    26.6445    28.7653    38.7005
     32  H    Isotropic =    30.0982   Anisotropy =     8.8799
   XX=    32.7978   YX=    -4.0129   ZX=     3.3941
   XY=    -3.9389   YY=    30.2367   ZY=     1.8096
   XZ=     3.2637   YZ=     2.1027   ZZ=    27.2600
   Eigenvalues:    23.6578    30.6186    36.0181
     33  H    Isotropic =    30.3287   Anisotropy =     4.8508
   XX=    29.5149   YX=    -0.5728   ZX=    -4.3254
   XY=    -0.8129   YY=    32.6456   ZY=    -1.2294
   XZ=    -4.2370   YZ=    -1.0526   ZZ=    28.8257
   Eigenvalues:    24.6606    32.7630    33.5626
     34  H    Isotropic =    30.9496   Anisotropy =    10.6382
   XX=    28.9759   YX=    -0.7930   ZX=    -0.3114
   XY=    -0.0610   YY=    36.4940   ZY=     3.6965
   XZ=     0.0791   YZ=     4.3638   ZZ=    27.3789
   Eigenvalues:    25.8520    28.9551    38.0417
     35  H    Isotropic =    30.7324   Anisotropy =     7.9141
   XX=    30.1477   YX=    -1.1774   ZX=    -4.9675
   XY=    -1.9279   YY=    30.2395   ZY=    -0.4437
   XZ=    -4.7185   YZ=    -0.0704   ZZ=    31.8101
   Eigenvalues:    25.6599    30.5289    36.0085
     36  H    Isotropic =    31.2764   Anisotropy =    10.2492
   XX=    33.9488   YX=    -4.1255   ZX=     3.7050
   XY=    -4.6850   YY=    30.1393   ZY=    -1.1583
   XZ=     2.6708   YZ=    -0.9417   ZZ=    29.7411
   Eigenvalues:    26.8342    28.8858    38.1092
     37  C    Isotropic =   140.3404   Anisotropy =    26.6983
   XX=   143.4209   YX=     0.3580   ZX=     5.5186
   XY=     3.8767   YY=   155.4922   ZY=     7.7569
   XZ=    -6.4108   YZ=    10.7422   ZZ=   122.1082
   Eigenvalues:   119.6776   143.2043   158.1393
     38  C    Isotropic =    47.6543   Anisotropy =   169.9918
   XX=    31.9040   YX=   -68.8405   ZX=   -96.4392
   XY=   -70.6776   YY=    67.6203   ZY=     2.0282
   XZ=   -91.7728   YZ=     0.6338   ZZ=    43.4387
   Eigenvalues:   -75.5218    57.5025   160.9822
     39  C    Isotropic =    60.1925   Anisotropy =   146.2885
   XX=    40.4305   YX=   -61.7564   ZX=   -84.2556
   XY=   -68.7732   YY=    74.7841   ZY=    -7.8662
   XZ=   -81.6713   YZ=    -5.2263   ZZ=    65.3627
   Eigenvalues:   -54.6532    77.5125   157.7181
     40  H    Isotropic =    29.3856   Anisotropy =     3.5312
   XX=    29.0699   YX=     0.5682   ZX=    -2.1358
   XY=    -0.7847   YY=    29.0787   ZY=     1.5958
   XZ=    -1.5730   YZ=     0.4246   ZZ=    30.0082
   Eigenvalues:    27.4305    28.9866    31.7397
     41  H    Isotropic =    29.8749   Anisotropy =     4.3116
   XX=    32.1036   YX=     0.0897   ZX=     3.1390
   XY=     0.2832   YY=    31.7145   ZY=     0.0333
   XZ=     0.9566   YZ=     0.1105   ZZ=    25.8066
   Eigenvalues:    25.1992    31.6762    32.7493
     42  H    Isotropic =    26.1033   Anisotropy =     6.4256
   XX=    23.1843   YX=     1.3722   ZX=    -0.6100
   XY=     0.7239   YY=    30.2338   ZY=    -0.3624
   XZ=     0.1511   YZ=     0.5564   ZZ=    24.8917
   Eigenvalues:    23.0011    24.9217    30.3870
     43  H    Isotropic =    26.7030   Anisotropy =     6.3929
   XX=    24.4394   YX=     0.2160   ZX=    -0.6835
   XY=     0.9051   YY=    30.2263   ZY=    -1.2045
   XZ=    -1.9040   YZ=    -2.3868   ZZ=    25.4435
   Eigenvalues:    23.4991    25.6450    30.9650
     44  H    Isotropic =    26.5958   Anisotropy =     7.2972
   XX=    23.8282   YX=    -0.2844   ZX=    -1.8601
   XY=    -1.7669   YY=    30.3738   ZY=    -3.6113
   XZ=    -0.6724   YZ=    -1.3662   ZZ=    25.5853
   Eigenvalues:    22.5582    25.7685    31.4605
 End of Minotr F.D. properties file   721 does not exist.
 End of Minotr F.D. properties file   722 does not exist.
 End of Minotr F.D. properties file   788 does not exist.

 **********************************************************************

            Population analysis using the SCF density.

 **********************************************************************

 Orbital symmetries:
       Occupied  (A) (A) (A) (A) (A) (A) (A) (A) (A) (A) (A) (A)
                 (A) (A) (A) (A) (A) (A) (A) (A) (A) (A) (A) (A)
                 (A) (A) (A) (A) (A) (A) (A) (A) (A) (A) (A) (A)
                 (A) (A) (A) (A) (A) (A) (A) (A) (A) (A) (A) (A)
                 (A) (A) (A) (A) (A) (A) (A) (A) (A) (A) (A) (A)
                 (A) (A) (A) (A) (A) (A) (A) (A) (A) (A) (A) (A)
                 (A) (A)
       Virtual   (A) (A) (A) (A) (A) (A) (A) (A) (A) (A) (A) (A)
                 (A) (A) (A) (A) (A) (A) (A) (A) (A) (A) (A) (A)
                 (A) (A) (A) (A) (A) (A) (A) (A) (A) (A) (A) (A)
                 (A) (A) (A) (A) (A) (A) (A) (A) (A) (A) (A) (A)
                 (A) (A) (A) (A) (A) (A) (A) (A) (A) (A) (A) (A)
                 (A) (A) (A) (A) (A) (A) (A) (A) (A) (A) (A) (A)
                 (A) (A) (A) (A) (A) (A) (A) (A) (A) (A) (A) (A)
                 (A) (A) (A) (A) (A) (A) (A) (A) (A) (A) (A) (A)
                 (A) (A) (A) (A) (A) (A) (A) (A) (A) (A) (A) (A)
                 (A) (A) (A) (A) (A) (A) (A) (A) (A) (A) (A) (A)
                 (A) (A) (A) (A) (A) (A) (A) (A) (A) (A) (A) (A)
                 (A) (A) (A) (A) (A) (A) (A) (A) (A) (A) (A) (A)
                 (A) (A) (A) (A) (A) (A) (A) (A) (A) (A) (A) (A)
                 (A) (A) (A) (A) (A) (A) (A) (A) (A) (A) (A) (A)
                 (A) (A) (A) (A) (A) (A) (A) (A) (A) (A) (A) (A)
                 (A) (A) (A) (A) (A) (A) (A) (A) (A) (A) (A) (A)
                 (A) (A) (A) (A) (A) (A) (A) (A) (A) (A) (A) (A)
                 (A) (A) (A) (A) (A) (A) (A) (A) (A) (A) (A) (A)
                 (A) (A) (A) (A) (A) (A) (A) (A) (A) (A) (A) (A)
                 (A) (A) (A) (A) (A) (A) (A) (A) (A) (A) (A) (A)
                 (A) (A) (A) (A) (A) (A) (A) (A) (A) (A) (A) (A)
                 (A) (A) (A) (A) (A) (A) (A) (A) (A) (A) (A) (A)
                 (A) (A) (A) (A) (A) (A) (A) (A) (A) (A) (A) (A)
                 (A) (A) (A) (A) (A) (A) (A) (A) (A) (A) (A) (A)
                 (A) (A) (A) (A) (A) (A) (A) (A) (A) (A) (A) (A)
                 (A) (A) (A) (A) (A) (A) (A) (A) (A) (A) (A) (A)
                 (A) (A) (A) (A) (A) (A) (A) (A) (A) (A) (A) (A)
                 (A) (A) (A) (A) (A) (A) (A) (A) (A) (A) (A) (A)
 The electronic state is 1-A.
 Alpha  occ. eigenvalues --  -66.26961 -19.25958 -19.21042 -19.19620 -10.36932
 Alpha  occ. eigenvalues --  -10.32361 -10.30229 -10.25221 -10.25014 -10.24797
 Alpha  occ. eigenvalues --  -10.24659 -10.23351 -10.23329 -10.22597 -10.21869
 Alpha  occ. eigenvalues --  -10.20905 -10.20646 -10.20475  -5.32795  -3.66642
 Alpha  occ. eigenvalues --   -3.66411  -3.66375  -1.13118  -1.04601  -1.03878
 Alpha  occ. eigenvalues --   -0.85684  -0.83071  -0.80313  -0.78334  -0.73940
 Alpha  occ. eigenvalues --   -0.73077  -0.71906  -0.70360  -0.69980  -0.66312
 Alpha  occ. eigenvalues --   -0.63932  -0.62486  -0.58133  -0.54548  -0.54207
 Alpha  occ. eigenvalues --   -0.51965  -0.51449  -0.49588  -0.48575  -0.46991
 Alpha  occ. eigenvalues --   -0.46015  -0.45737  -0.45137  -0.43748  -0.43423
 Alpha  occ. eigenvalues --   -0.42787  -0.42576  -0.42229  -0.42065  -0.41105
 Alpha  occ. eigenvalues --   -0.40811  -0.40372  -0.39853  -0.39602  -0.39113
 Alpha  occ. eigenvalues --   -0.38148  -0.37922  -0.37792  -0.36381  -0.35606
 Alpha  occ. eigenvalues --   -0.35137  -0.34738  -0.33676  -0.31729  -0.30756
 Alpha  occ. eigenvalues --   -0.30089  -0.29682  -0.28460  -0.27032
 Alpha virt. eigenvalues --   -0.00735   0.01311   0.03832   0.04961   0.06031
 Alpha virt. eigenvalues --    0.06401   0.07043   0.07765   0.08286   0.09184
 Alpha virt. eigenvalues --    0.09266   0.10230   0.10796   0.11319   0.11474
 Alpha virt. eigenvalues --    0.11823   0.12280   0.12868   0.13133   0.13504
 Alpha virt. eigenvalues --    0.14218   0.14894   0.15116   0.15542   0.16031
 Alpha virt. eigenvalues --    0.16358   0.16753   0.17242   0.17853   0.18689
 Alpha virt. eigenvalues --    0.19227   0.19727   0.20170   0.20796   0.21806
 Alpha virt. eigenvalues --    0.22441   0.22790   0.24096   0.24162   0.24679
 Alpha virt. eigenvalues --    0.24978   0.25958   0.26559   0.27405   0.28017
 Alpha virt. eigenvalues --    0.29180   0.29818   0.30877   0.31761   0.32209
 Alpha virt. eigenvalues --    0.32598   0.33663   0.34467   0.35235   0.35311
 Alpha virt. eigenvalues --    0.36548   0.38117   0.38958   0.39678   0.40619
 Alpha virt. eigenvalues --    0.41463   0.42195   0.42954   0.43923   0.44622
 Alpha virt. eigenvalues --    0.44863   0.45558   0.46682   0.47833   0.48680
 Alpha virt. eigenvalues --    0.49566   0.51326   0.51756   0.52540   0.52987
 Alpha virt. eigenvalues --    0.53867   0.54038   0.55203   0.55459   0.55990
 Alpha virt. eigenvalues --    0.56419   0.56980   0.57632   0.58136   0.59123
 Alpha virt. eigenvalues --    0.59309   0.59626   0.60266   0.60719   0.61148
 Alpha virt. eigenvalues --    0.61794   0.61920   0.62047   0.63088   0.63273
 Alpha virt. eigenvalues --    0.63303   0.63784   0.64271   0.65330   0.65765
 Alpha virt. eigenvalues --    0.66171   0.66241   0.67090   0.67987   0.68341
 Alpha virt. eigenvalues --    0.68833   0.69173   0.70285   0.70827   0.71266
 Alpha virt. eigenvalues --    0.72701   0.72912   0.73431   0.73597   0.74958
 Alpha virt. eigenvalues --    0.76675   0.78040   0.79321   0.80038   0.81500
 Alpha virt. eigenvalues --    0.82377   0.82534   0.84496   0.86362   0.88283
 Alpha virt. eigenvalues --    0.88954   0.89924   0.91119   0.93671   0.94346
 Alpha virt. eigenvalues --    0.95380   0.95938   0.97572   0.97712   1.01371
 Alpha virt. eigenvalues --    1.02072   1.04464   1.06311   1.07986   1.11232
 Alpha virt. eigenvalues --    1.12862   1.14239   1.17712   1.18243   1.20258
 Alpha virt. eigenvalues --    1.22684   1.22859   1.24795   1.27059   1.27707
 Alpha virt. eigenvalues --    1.29353   1.29696   1.30902   1.31837   1.33146
 Alpha virt. eigenvalues --    1.34921   1.37370   1.40226   1.41088   1.41731
 Alpha virt. eigenvalues --    1.42582   1.43611   1.45701   1.47219   1.49137
 Alpha virt. eigenvalues --    1.50644   1.52025   1.53405   1.53653   1.54160
 Alpha virt. eigenvalues --    1.54423   1.54938   1.55711   1.57192   1.58125
 Alpha virt. eigenvalues --    1.59205   1.59574   1.60329   1.60586   1.61026
 Alpha virt. eigenvalues --    1.62051   1.62502   1.62868   1.64921   1.65454
 Alpha virt. eigenvalues --    1.65841   1.66888   1.67292   1.67880   1.69019
 Alpha virt. eigenvalues --    1.69379   1.71699   1.73463   1.74289   1.74929
 Alpha virt. eigenvalues --    1.76346   1.77241   1.78923   1.81357   1.81759
 Alpha virt. eigenvalues --    1.82186   1.83195   1.85486   1.86198   1.86363
 Alpha virt. eigenvalues --    1.88638   1.92538   1.92633   1.93966   1.97223
 Alpha virt. eigenvalues --    2.03117   2.05424   2.06229   2.08048   2.10583
 Alpha virt. eigenvalues --    2.15737   2.17011   2.18286   2.22081   2.24003
 Alpha virt. eigenvalues --    2.25033   2.29184   2.32691   2.36729   2.40320
 Alpha virt. eigenvalues --    2.41001   2.41669   2.42348   2.42790   2.43112
 Alpha virt. eigenvalues --    2.44879   2.45438   2.46326   2.47114   2.47800
 Alpha virt. eigenvalues --    2.48465   2.48640   2.49586   2.51545   2.52469
 Alpha virt. eigenvalues --    2.53905   2.54756   2.57133   2.58526   2.62041
 Alpha virt. eigenvalues --    2.62207   2.63390   2.64048   2.72741   2.79115
 Alpha virt. eigenvalues --    2.84583   2.87782   2.88027   2.89794   2.91221
 Alpha virt. eigenvalues --    2.92352   2.93053   2.93608   2.95726   2.96762
 Alpha virt. eigenvalues --    2.99071   3.01934   3.03539   3.04580   3.07454
 Alpha virt. eigenvalues --    3.08682   3.12137   3.13158   3.14796   3.15480
 Alpha virt. eigenvalues --    3.16384   3.17242   3.18891   3.20117   3.22526
 Alpha virt. eigenvalues --    3.22658   3.22997   3.23977   3.24212   3.25704
 Alpha virt. eigenvalues --    3.27242   3.27641   3.29463   3.29596   3.31910
 Alpha virt. eigenvalues --    3.33239   3.34063   3.35117   3.38790   3.42733
 Alpha virt. eigenvalues --    3.43576   3.51591   3.56076   3.57755   3.61770
 Alpha virt. eigenvalues --    3.77889   3.89376   3.91171   3.98428   4.00321
 Alpha virt. eigenvalues --    4.10469   4.12242   4.14837   4.17364   4.26483
 Alpha virt. eigenvalues --    4.95505   5.00399   5.03004   5.10673   5.18441
 Alpha virt. eigenvalues --    5.24282   5.51462   5.52993   5.77981   5.85415
 Alpha virt. eigenvalues --   11.53359  11.53865  11.59443  23.41151  23.48783
 Alpha virt. eigenvalues --   23.54514  23.55344  23.58583  23.61023  23.71049
 Alpha virt. eigenvalues --   23.76764  23.78738  23.80968  23.83176  23.84477
 Alpha virt. eigenvalues --   23.91175  24.26893  49.99353  50.05264  50.11142
 Alpha virt. eigenvalues --  141.30414
          Condensed to atoms (all electrons):
               1          2          3          4          5          6
     1  C    5.182830   0.374587  -0.053770  -0.018567  -0.052578   0.404360
     2  C    0.374587   5.484237   0.281946  -0.060753  -0.021229  -0.039553
     3  C   -0.053770   0.281946   5.179430   0.196093  -0.018852   0.007348
     4  C   -0.018567  -0.060753   0.196093   5.906916   0.244269  -0.000503
     5  C   -0.052578  -0.021229  -0.018852   0.244269   4.392380   0.002379
     6  H    0.404360  -0.039553   0.007348  -0.000503   0.002379   0.467822
     7  H   -0.063452   0.410287  -0.050338   0.004569  -0.001130  -0.010284
     8  H   -0.000823  -0.000550  -0.027390   0.366503  -0.026181  -0.000026
     9  H   -0.000284   0.004817  -0.039825   0.359840  -0.024878   0.000161
    10  O    0.201376  -0.031979   0.000709  -0.108356   0.336846  -0.026240
    11  O    0.002893  -0.001718   0.006228  -0.107012   0.676203  -0.000152
    12  C    0.289594  -0.071390  -0.015756   0.000081  -0.010248  -0.054425
    13  C   -0.080184   0.008723  -0.000509   0.000150   0.000833  -0.007958
    14  C   -0.072935   0.291088  -0.067318   0.005707   0.000495  -0.004324
    15  O   -0.004571  -0.067878   0.206831  -0.040630   0.000923  -0.000436
    16  Si  -0.000471   0.006415  -0.046097  -0.013224   0.001097  -0.000043
    17  C    0.000015   0.000029   0.002468  -0.000377  -0.000005   0.000000
    18  C    0.000003  -0.000165  -0.000313  -0.000370  -0.000001   0.000000
    19  C   -0.000019  -0.000351   0.000259  -0.009130  -0.000092  -0.000001
    20  H    0.000000   0.000007  -0.000057   0.000003   0.000000   0.000000
    21  H    0.000003   0.000056   0.000411  -0.000033   0.000000   0.000000
    22  H    0.000000  -0.000015  -0.000166  -0.000032   0.000003   0.000000
    23  H   -0.000003  -0.000094   0.000030   0.000068  -0.000070   0.000000
    24  H    0.000000   0.000007  -0.000088   0.000307   0.000001   0.000000
    25  H   -0.000001  -0.000037   0.000551  -0.000160  -0.000137   0.000000
    26  H   -0.000011  -0.000009  -0.000029   0.000002  -0.000001   0.000002
    27  H   -0.000001   0.000049  -0.000111  -0.000025   0.000000   0.000001
    28  H   -0.000001   0.000003  -0.000070   0.000000   0.000000   0.000000
    29  H    0.006833  -0.031464  -0.006840   0.000082  -0.000067  -0.000209
    30  H   -0.008016  -0.031688  -0.009992   0.000394  -0.000046  -0.000724
    31  H   -0.004279  -0.039578   0.008494  -0.000233   0.000010   0.005215
    32  H   -0.033314  -0.004286  -0.000320   0.000335  -0.000304   0.006351
    33  H   -0.034571  -0.004680   0.000389  -0.000163   0.000342  -0.000112
    34  H    0.008007  -0.000270   0.000009   0.000027  -0.000044  -0.000136
    35  H   -0.011447   0.000244  -0.000082   0.000408   0.000594  -0.000200
    36  H   -0.004021  -0.000148   0.000016  -0.000001  -0.000031   0.006012
    37  C    0.006153  -0.099137   0.331074  -0.062976   0.000905  -0.000486
    38  C   -0.000287  -0.004419  -0.051694  -0.005927  -0.001618   0.000033
    39  C   -0.000097   0.000978  -0.004357   0.001836   0.000112   0.000006
    40  H   -0.000012  -0.008815  -0.043486   0.007325  -0.000267  -0.000006
    41  H   -0.000142   0.005577  -0.027943  -0.009130   0.000177   0.000008
    42  H    0.000385  -0.000002  -0.001284  -0.000683   0.000014   0.000035
    43  H   -0.000004   0.000037  -0.000183   0.000034   0.000071   0.000001
    44  H    0.000002   0.000042  -0.000282  -0.000114   0.000057   0.000000
               7          8          9         10         11         12
     1  C   -0.063452  -0.000823  -0.000284   0.201376   0.002893   0.289594
     2  C    0.410287  -0.000550   0.004817  -0.031979  -0.001718  -0.071390
     3  C   -0.050338  -0.027390  -0.039825   0.000709   0.006228  -0.015756
     4  C    0.004569   0.366503   0.359840  -0.108356  -0.107012   0.000081
     5  C   -0.001130  -0.026181  -0.024878   0.336846   0.676203  -0.010248
     6  H   -0.010284  -0.000026   0.000161  -0.026240  -0.000152  -0.054425
     7  H    0.472013   0.000065  -0.000641   0.003357  -0.000791   0.010642
     8  H    0.000065   0.404619  -0.017326   0.000475   0.001269   0.000426
     9  H   -0.000641  -0.017326   0.425232   0.005390   0.010724   0.000098
    10  O    0.003357   0.000475   0.005390   8.035947  -0.069298  -0.044020
    11  O   -0.000791   0.001269   0.010724  -0.069298   7.869344  -0.000237
    12  C    0.010642   0.000426   0.000098  -0.044020  -0.000237   5.370781
    13  C   -0.000328   0.000279  -0.000040  -0.003216   0.000014   0.304267
    14  C   -0.031613  -0.000243  -0.000188   0.004480  -0.000008   0.002469
    15  O    0.003832  -0.007090   0.001661  -0.000016  -0.000022   0.006814
    16  Si  -0.000226  -0.000959   0.000596  -0.000374  -0.000158  -0.000701
    17  C    0.000003  -0.000344   0.000015   0.000000   0.000000  -0.000013
    18  C    0.000004   0.000014  -0.000004   0.000000   0.000000   0.000005
    19  C    0.000009   0.000534  -0.002274  -0.000002  -0.000006   0.000027
    20  H    0.000000   0.000003  -0.000004   0.000000   0.000000   0.000000
    21  H    0.000000  -0.000006   0.000000   0.000000   0.000000  -0.000001
    22  H    0.000002   0.000002   0.000001   0.000000   0.000000   0.000000
    23  H    0.000001   0.003168  -0.000878   0.000003   0.000005  -0.000018
    24  H    0.000000   0.000090   0.000115   0.000000   0.000000  -0.000001
    25  H    0.000002  -0.000852   0.001165  -0.000004  -0.000043  -0.000001
    26  H    0.000000  -0.000017   0.000004   0.000001   0.000000   0.000167
    27  H    0.000000  -0.000013   0.000000   0.000000   0.000000   0.000036
    28  H    0.000000   0.000007  -0.000001   0.000000   0.000000   0.000001
    29  H   -0.004898   0.000000   0.000000  -0.000160   0.000000  -0.000076
    30  H    0.006494   0.000005  -0.000022  -0.000005  -0.000001   0.003105
    31  H   -0.006011   0.000013   0.000017   0.000060   0.000001  -0.000929
    32  H   -0.000425   0.002492   0.000764   0.000523  -0.000114   0.385870
    33  H   -0.000285   0.000143   0.000001   0.003455   0.000006   0.386549
    34  H    0.000024  -0.000009  -0.000001  -0.000097   0.000000  -0.038019
    35  H   -0.000024   0.000130  -0.000017   0.010480  -0.000138  -0.036444
    36  H   -0.000047  -0.000022   0.000003  -0.000329   0.000000  -0.041770
    37  C   -0.008584   0.002815  -0.005878   0.000241  -0.000314   0.000289
    38  C    0.005953   0.000451  -0.000247  -0.000309  -0.000237  -0.000035
    39  C    0.000868   0.000053   0.004362  -0.000045   0.000324  -0.000001
    40  H    0.000351  -0.000121   0.000739   0.000014  -0.000004  -0.000004
    41  H    0.000273   0.000000   0.000487   0.000005  -0.000016   0.000003
    42  H    0.001122   0.000007   0.000011  -0.000090   0.000111  -0.000022
    43  H   -0.000033  -0.000001   0.000096  -0.000003   0.000121   0.000000
    44  H   -0.000002   0.000011   0.000629  -0.000003   0.000114   0.000000
              13         14         15         16         17         18
     1  C   -0.080184  -0.072935  -0.004571  -0.000471   0.000015   0.000003
     2  C    0.008723   0.291088  -0.067878   0.006415   0.000029  -0.000165
     3  C   -0.000509  -0.067318   0.206831  -0.046097   0.002468  -0.000313
     4  C    0.000150   0.005707  -0.040630  -0.013224  -0.000377  -0.000370
     5  C    0.000833   0.000495   0.000923   0.001097  -0.000005  -0.000001
     6  H   -0.007958  -0.004324  -0.000436  -0.000043   0.000000   0.000000
     7  H   -0.000328  -0.031613   0.003832  -0.000226   0.000003   0.000004
     8  H    0.000279  -0.000243  -0.007090  -0.000959  -0.000344   0.000014
     9  H   -0.000040  -0.000188   0.001661   0.000596   0.000015  -0.000004
    10  O   -0.003216   0.004480  -0.000016  -0.000374   0.000000   0.000000
    11  O    0.000014  -0.000008  -0.000022  -0.000158   0.000000   0.000000
    12  C    0.304267   0.002469   0.006814  -0.000701  -0.000013   0.000005
    13  C    5.367614  -0.000370   0.000372   0.000415  -0.000008   0.000000
    14  C   -0.000370   5.373457  -0.001569  -0.000946  -0.000049   0.000046
    15  O    0.000372  -0.001569   8.281278   0.344012  -0.022000  -0.024286
    16  Si   0.000415  -0.000946   0.344012  11.522761   0.330914   0.320333
    17  C   -0.000008  -0.000049  -0.022000   0.330914   5.728035  -0.054575
    18  C    0.000000   0.000046  -0.024286   0.320333  -0.054575   5.770334
    19  C    0.000000   0.000019  -0.022397   0.319523  -0.049859  -0.057184
    20  H    0.000000   0.000000   0.001010  -0.012802  -0.000065   0.363346
    21  H    0.000000   0.000096  -0.001969  -0.025565  -0.000674   0.371154
    22  H    0.000000  -0.000026  -0.001499  -0.030617   0.002730   0.371016
    23  H   -0.000001   0.000002  -0.001837  -0.026823  -0.000374   0.002367
    24  H    0.000000   0.000000   0.000791  -0.010757  -0.000444  -0.000145
    25  H    0.000000   0.000002  -0.000801  -0.030605   0.003023  -0.001625
    26  H   -0.000012  -0.000004  -0.001396  -0.027332   0.368193   0.002518
    27  H   -0.000004  -0.000002  -0.001244  -0.025817   0.369738  -0.000711
    28  H    0.000000  -0.000002   0.000880  -0.012973   0.363998   0.000682
    29  H    0.000019   0.384497  -0.000613  -0.000899  -0.000005   0.000202
    30  H    0.000136   0.386286   0.005179  -0.000231   0.000139   0.000066
    31  H   -0.000159   0.386772   0.000523   0.000299  -0.000001  -0.000006
    32  H   -0.051808   0.000074   0.001091   0.000123   0.000288   0.000001
    33  H   -0.041371  -0.000886  -0.000185  -0.000434   0.000017  -0.000003
    34  H    0.393315   0.000006  -0.000004  -0.000010   0.000002   0.000000
    35  H    0.385244  -0.000079  -0.000001  -0.000007   0.000000   0.000000
    36  H    0.383428   0.000018  -0.000012  -0.000019   0.000000   0.000000
    37  C    0.000018  -0.000616  -0.032892  -0.004035  -0.000116  -0.002416
    38  C   -0.000001   0.000378   0.003645   0.002247   0.000004   0.000205
    39  C    0.000000  -0.000064  -0.000035  -0.000241   0.000000  -0.000003
    40  H    0.000000   0.002236  -0.000107  -0.003161  -0.000030  -0.001294
    41  H    0.000000   0.000001  -0.003182   0.007350  -0.000019   0.000310
    42  H    0.000000   0.000321  -0.000083  -0.000033   0.000000  -0.000008
    43  H    0.000000   0.000000   0.000004   0.000032   0.000000   0.000000
    44  H    0.000000  -0.000004  -0.000018  -0.000189   0.000000  -0.000011
              19         20         21         22         23         24
     1  C   -0.000019   0.000000   0.000003   0.000000  -0.000003   0.000000
     2  C   -0.000351   0.000007   0.000056  -0.000015  -0.000094   0.000007
     3  C    0.000259  -0.000057   0.000411  -0.000166   0.000030  -0.000088
     4  C   -0.009130   0.000003  -0.000033  -0.000032   0.000068   0.000307
     5  C   -0.000092   0.000000   0.000000   0.000003  -0.000070   0.000001
     6  H   -0.000001   0.000000   0.000000   0.000000   0.000000   0.000000
     7  H    0.000009   0.000000   0.000000   0.000002   0.000001   0.000000
     8  H    0.000534   0.000003  -0.000006   0.000002   0.003168   0.000090
     9  H   -0.002274  -0.000004   0.000000   0.000001  -0.000878   0.000115
    10  O   -0.000002   0.000000   0.000000   0.000000   0.000003   0.000000
    11  O   -0.000006   0.000000   0.000000   0.000000   0.000005   0.000000
    12  C    0.000027   0.000000  -0.000001   0.000000  -0.000018  -0.000001
    13  C    0.000000   0.000000   0.000000   0.000000  -0.000001   0.000000
    14  C    0.000019   0.000000   0.000096  -0.000026   0.000002   0.000000
    15  O   -0.022397   0.001010  -0.001969  -0.001499  -0.001837   0.000791
    16  Si   0.319523  -0.012802  -0.025565  -0.030617  -0.026823  -0.010757
    17  C   -0.049859  -0.000065  -0.000674   0.002730  -0.000374  -0.000444
    18  C   -0.057184   0.363346   0.371154   0.371016   0.002367  -0.000145
    19  C    5.798029   0.000615   0.002373  -0.001832   0.366603   0.367133
    20  H    0.000615   0.455353  -0.021136  -0.022631  -0.000027   0.000493
    21  H    0.002373  -0.021136   0.453049  -0.018424  -0.000096  -0.000047
    22  H   -0.001832  -0.022631  -0.018424   0.455132  -0.000051   0.000057
    23  H    0.366603  -0.000027  -0.000096  -0.000051   0.447394  -0.020126
    24  H    0.367133   0.000493  -0.000047   0.000057  -0.020126   0.434599
    25  H    0.365578   0.000127  -0.000026   0.000573  -0.018153  -0.019397
    26  H   -0.000509   0.000002  -0.000087  -0.000120   0.001431  -0.000088
    27  H    0.002595  -0.000104   0.001262  -0.000098  -0.000056  -0.000076
    28  H   -0.000335   0.000836  -0.000029  -0.000091  -0.000057   0.000555
    29  H    0.000003  -0.000005   0.000203  -0.000016   0.000000   0.000000
    30  H    0.000013  -0.000004   0.000100   0.000001   0.000000  -0.000001
    31  H    0.000001   0.000000  -0.000008   0.000000   0.000000   0.000000
    32  H   -0.000197   0.000000   0.000001  -0.000001  -0.000091   0.000002
    33  H    0.000000   0.000000  -0.000004   0.000000   0.000001   0.000000
    34  H    0.000000   0.000000   0.000000   0.000000   0.000000   0.000000
    35  H    0.000000   0.000000   0.000000   0.000000  -0.000001   0.000000
    36  H    0.000000   0.000000   0.000000   0.000000   0.000000   0.000000
    37  C   -0.003696   0.000164  -0.000085   0.000792   0.000363   0.000090
    38  C    0.000057  -0.000004  -0.000051   0.000169   0.000004   0.000000
    39  C   -0.000051   0.000000   0.000002   0.000013  -0.000002   0.000000
    40  H    0.000262   0.000171   0.000030  -0.000053  -0.000015  -0.000010
    41  H    0.002203  -0.000054  -0.000030   0.002147  -0.000242   0.000017
    42  H   -0.000006   0.000000   0.000000  -0.000008   0.000001   0.000000
    43  H   -0.000001   0.000000   0.000000  -0.000001   0.000000   0.000000
    44  H   -0.000015   0.000001   0.000000  -0.000010   0.000007   0.000002
              25         26         27         28         29         30
     1  C   -0.000001  -0.000011  -0.000001  -0.000001   0.006833  -0.008016
     2  C   -0.000037  -0.000009   0.000049   0.000003  -0.031464  -0.031688
     3  C    0.000551  -0.000029  -0.000111  -0.000070  -0.006840  -0.009992
     4  C   -0.000160   0.000002  -0.000025   0.000000   0.000082   0.000394
     5  C   -0.000137  -0.000001   0.000000   0.000000  -0.000067  -0.000046
     6  H    0.000000   0.000002   0.000001   0.000000  -0.000209  -0.000724
     7  H    0.000002   0.000000   0.000000   0.000000  -0.004898   0.006494
     8  H   -0.000852  -0.000017  -0.000013   0.000007   0.000000   0.000005
     9  H    0.001165   0.000004   0.000000  -0.000001   0.000000  -0.000022
    10  O   -0.000004   0.000001   0.000000   0.000000  -0.000160  -0.000005
    11  O   -0.000043   0.000000   0.000000   0.000000   0.000000  -0.000001
    12  C   -0.000001   0.000167   0.000036   0.000001  -0.000076   0.003105
    13  C    0.000000  -0.000012  -0.000004   0.000000   0.000019   0.000136
    14  C    0.000002  -0.000004  -0.000002  -0.000002   0.384497   0.386286
    15  O   -0.000801  -0.001396  -0.001244   0.000880  -0.000613   0.005179
    16  Si  -0.030605  -0.027332  -0.025817  -0.012973  -0.000899  -0.000231
    17  C    0.003023   0.368193   0.369738   0.363998  -0.000005   0.000139
    18  C   -0.001625   0.002518  -0.000711   0.000682   0.000202   0.000066
    19  C    0.365578  -0.000509   0.002595  -0.000335   0.000003   0.000013
    20  H    0.000127   0.000002  -0.000104   0.000836  -0.000005  -0.000004
    21  H   -0.000026  -0.000087   0.001262  -0.000029   0.000203   0.000100
    22  H    0.000573  -0.000120  -0.000098  -0.000091  -0.000016   0.000001
    23  H   -0.018153   0.001431  -0.000056  -0.000057   0.000000   0.000000
    24  H   -0.019397  -0.000088  -0.000076   0.000555   0.000000  -0.000001
    25  H    0.446450  -0.000112  -0.000104  -0.000078  -0.000001   0.000000
    26  H   -0.000112   0.458988  -0.018168  -0.020794  -0.000001  -0.000017
    27  H   -0.000104  -0.018168   0.456527  -0.020886  -0.000006   0.000143
    28  H   -0.000078  -0.020794  -0.020886   0.452596   0.000000  -0.000010
    29  H   -0.000001  -0.000001  -0.000006   0.000000   0.460156  -0.023740
    30  H    0.000000  -0.000017   0.000143  -0.000010  -0.023740   0.448274
    31  H    0.000000   0.000001   0.000000   0.000000  -0.025969  -0.028589
    32  H   -0.000009   0.000621  -0.000011   0.000005  -0.000085   0.000039
    33  H    0.000000   0.000017   0.000040   0.000001   0.000277   0.001397
    34  H    0.000000   0.000009   0.000001   0.000000  -0.000001   0.000017
    35  H    0.000000   0.000000   0.000000   0.000000   0.000004  -0.000011
    36  H    0.000000   0.000000   0.000000   0.000000  -0.000004   0.000023
    37  C   -0.000061  -0.000010  -0.000019   0.000007   0.003058   0.000400
    38  C    0.000051   0.000001   0.000000   0.000000  -0.000194  -0.000043
    39  C    0.000116   0.000000   0.000000   0.000000  -0.000030   0.000001
    40  H    0.000085  -0.000002  -0.000010   0.000000   0.002562   0.000008
    41  H    0.005280  -0.000001   0.000004   0.000012   0.000133  -0.000020
    42  H    0.000003   0.000000   0.000000   0.000000   0.000505  -0.000032
    43  H   -0.000008   0.000000   0.000000   0.000000  -0.000001   0.000000
    44  H    0.000289   0.000000   0.000000   0.000000   0.000002   0.000000
              31         32         33         34         35         36
     1  C   -0.004279  -0.033314  -0.034571   0.008007  -0.011447  -0.004021
     2  C   -0.039578  -0.004286  -0.004680  -0.000270   0.000244  -0.000148
     3  C    0.008494  -0.000320   0.000389   0.000009  -0.000082   0.000016
     4  C   -0.000233   0.000335  -0.000163   0.000027   0.000408  -0.000001
     5  C    0.000010  -0.000304   0.000342  -0.000044   0.000594  -0.000031
     6  H    0.005215   0.006351  -0.000112  -0.000136  -0.000200   0.006012
     7  H   -0.006011  -0.000425  -0.000285   0.000024  -0.000024  -0.000047
     8  H    0.000013   0.002492   0.000143  -0.000009   0.000130  -0.000022
     9  H    0.000017   0.000764   0.000001  -0.000001  -0.000017   0.000003
    10  O    0.000060   0.000523   0.003455  -0.000097   0.010480  -0.000329
    11  O    0.000001  -0.000114   0.000006   0.000000  -0.000138   0.000000
    12  C   -0.000929   0.385870   0.386549  -0.038019  -0.036444  -0.041770
    13  C   -0.000159  -0.051808  -0.041371   0.393315   0.385244   0.383428
    14  C    0.386772   0.000074  -0.000886   0.000006  -0.000079   0.000018
    15  O    0.000523   0.001091  -0.000185  -0.000004  -0.000001  -0.000012
    16  Si   0.000299   0.000123  -0.000434  -0.000010  -0.000007  -0.000019
    17  C   -0.000001   0.000288   0.000017   0.000002   0.000000   0.000000
    18  C   -0.000006   0.000001  -0.000003   0.000000   0.000000   0.000000
    19  C    0.000001  -0.000197   0.000000   0.000000   0.000000   0.000000
    20  H    0.000000   0.000000   0.000000   0.000000   0.000000   0.000000
    21  H   -0.000008   0.000001  -0.000004   0.000000   0.000000   0.000000
    22  H    0.000000  -0.000001   0.000000   0.000000   0.000000   0.000000
    23  H    0.000000  -0.000091   0.000001   0.000000  -0.000001   0.000000
    24  H    0.000000   0.000002   0.000000   0.000000   0.000000   0.000000
    25  H    0.000000  -0.000009   0.000000   0.000000   0.000000   0.000000
    26  H    0.000001   0.000621   0.000017   0.000009   0.000000   0.000000
    27  H    0.000000  -0.000011   0.000040   0.000001   0.000000   0.000000
    28  H    0.000000   0.000005   0.000001   0.000000   0.000000   0.000000
    29  H   -0.025969  -0.000085   0.000277  -0.000001   0.000004  -0.000004
    30  H   -0.028589   0.000039   0.001397   0.000017  -0.000011   0.000023
    31  H    0.473383   0.000057   0.000309   0.000001  -0.000004  -0.000001
    32  H    0.000057   0.472214  -0.023806  -0.004951  -0.005511   0.007984
    33  H    0.000309  -0.023806   0.475351  -0.005052   0.007275  -0.004473
    34  H    0.000001  -0.004951  -0.005052   0.474017  -0.026245  -0.027316
    35  H   -0.000004  -0.005511   0.007275  -0.026245   0.470223  -0.027599
    36  H   -0.000001   0.007984  -0.004473  -0.027316  -0.027599   0.487256
    37  C   -0.000377   0.000074  -0.000059  -0.000001  -0.000001   0.000000
    38  C    0.000010  -0.000009   0.000005   0.000000   0.000000   0.000000
    39  C    0.000004   0.000000   0.000000   0.000000   0.000000   0.000000
    40  H    0.000027  -0.000008  -0.000003   0.000000   0.000000   0.000000
    41  H    0.000009   0.000008   0.000000   0.000000   0.000000   0.000000
    42  H    0.000030   0.000002   0.000002   0.000000   0.000000   0.000000
    43  H    0.000000   0.000000   0.000000   0.000000   0.000000   0.000000
    44  H    0.000000   0.000000   0.000000   0.000000   0.000000   0.000000
              37         38         39         40         41         42
     1  C    0.006153  -0.000287  -0.000097  -0.000012  -0.000142   0.000385
     2  C   -0.099137  -0.004419   0.000978  -0.008815   0.005577  -0.000002
     3  C    0.331074  -0.051694  -0.004357  -0.043486  -0.027943  -0.001284
     4  C   -0.062976  -0.005927   0.001836   0.007325  -0.009130  -0.000683
     5  C    0.000905  -0.001618   0.000112  -0.000267   0.000177   0.000014
     6  H   -0.000486   0.000033   0.000006  -0.000006   0.000008   0.000035
     7  H   -0.008584   0.005953   0.000868   0.000351   0.000273   0.001122
     8  H    0.002815   0.000451   0.000053  -0.000121   0.000000   0.000007
     9  H   -0.005878  -0.000247   0.004362   0.000739   0.000487   0.000011
    10  O    0.000241  -0.000309  -0.000045   0.000014   0.000005  -0.000090
    11  O   -0.000314  -0.000237   0.000324  -0.000004  -0.000016   0.000111
    12  C    0.000289  -0.000035  -0.000001  -0.000004   0.000003  -0.000022
    13  C    0.000018  -0.000001   0.000000   0.000000   0.000000   0.000000
    14  C   -0.000616   0.000378  -0.000064   0.002236   0.000001   0.000321
    15  O   -0.032892   0.003645  -0.000035  -0.000107  -0.003182  -0.000083
    16  Si  -0.004035   0.002247  -0.000241  -0.003161   0.007350  -0.000033
    17  C   -0.000116   0.000004   0.000000  -0.000030  -0.000019   0.000000
    18  C   -0.002416   0.000205  -0.000003  -0.001294   0.000310  -0.000008
    19  C   -0.003696   0.000057  -0.000051   0.000262   0.002203  -0.000006
    20  H    0.000164  -0.000004   0.000000   0.000171  -0.000054   0.000000
    21  H   -0.000085  -0.000051   0.000002   0.000030  -0.000030   0.000000
    22  H    0.000792   0.000169   0.000013  -0.000053   0.002147  -0.000008
    23  H    0.000363   0.000004  -0.000002  -0.000015  -0.000242   0.000001
    24  H    0.000090   0.000000   0.000000  -0.000010   0.000017   0.000000
    25  H   -0.000061   0.000051   0.000116   0.000085   0.005280   0.000003
    26  H   -0.000010   0.000001   0.000000  -0.000002  -0.000001   0.000000
    27  H   -0.000019   0.000000   0.000000  -0.000010   0.000004   0.000000
    28  H    0.000007   0.000000   0.000000   0.000000   0.000012   0.000000
    29  H    0.003058  -0.000194  -0.000030   0.002562   0.000133   0.000505
    30  H    0.000400  -0.000043   0.000001   0.000008  -0.000020  -0.000032
    31  H   -0.000377   0.000010   0.000004   0.000027   0.000009   0.000030
    32  H    0.000074  -0.000009   0.000000  -0.000008   0.000008   0.000002
    33  H   -0.000059   0.000005   0.000000  -0.000003   0.000000   0.000002
    34  H   -0.000001   0.000000   0.000000   0.000000   0.000000   0.000000
    35  H   -0.000001   0.000000   0.000000   0.000000   0.000000   0.000000
    36  H    0.000000   0.000000   0.000000   0.000000   0.000000   0.000000
    37  C    5.451759   0.301812  -0.054490   0.401564   0.388109  -0.049318
    38  C    0.301812   5.080277   0.626072  -0.040505  -0.048171   0.398605
    39  C   -0.054490   0.626072   5.123364   0.002000  -0.000592  -0.035178
    40  H    0.401564  -0.040505   0.002000   0.445547  -0.029251  -0.004293
    41  H    0.388109  -0.048171  -0.000592  -0.029251   0.445347   0.005075
    42  H   -0.049318   0.398605  -0.035178  -0.004293   0.005075   0.462531
    43  H    0.005871  -0.035578   0.389206  -0.000358   0.000121  -0.007985
    44  H   -0.007554  -0.042924   0.390378   0.000036   0.004436   0.005786
              43         44
     1  C   -0.000004   0.000002
     2  C    0.000037   0.000042
     3  C   -0.000183  -0.000282
     4  C    0.000034  -0.000114
     5  C    0.000071   0.000057
     6  H    0.000001   0.000000
     7  H   -0.000033  -0.000002
     8  H   -0.000001   0.000011
     9  H    0.000096   0.000629
    10  O   -0.000003  -0.000003
    11  O    0.000121   0.000114
    12  C    0.000000   0.000000
    13  C    0.000000   0.000000
    14  C    0.000000  -0.000004
    15  O    0.000004  -0.000018
    16  Si   0.000032  -0.000189
    17  C    0.000000   0.000000
    18  C    0.000000  -0.000011
    19  C   -0.000001  -0.000015
    20  H    0.000000   0.000001
    21  H    0.000000   0.000000
    22  H   -0.000001  -0.000010
    23  H    0.000000   0.000007
    24  H    0.000000   0.000002
    25  H   -0.000008   0.000289
    26  H    0.000000   0.000000
    27  H    0.000000   0.000000
    28  H    0.000000   0.000000
    29  H   -0.000001   0.000002
    30  H    0.000000   0.000000
    31  H    0.000000   0.000000
    32  H    0.000000   0.000000
    33  H    0.000000   0.000000
    34  H    0.000000   0.000000
    35  H    0.000000   0.000000
    36  H    0.000000   0.000000
    37  C    0.005871  -0.007554
    38  C   -0.035578  -0.042924
    39  C    0.389206   0.390378
    40  H   -0.000358   0.000036
    41  H    0.000121   0.004436
    42  H   -0.007985   0.005786
    43  H    0.448799  -0.032099
    44  H   -0.032099   0.456482
 Mulliken charges:
               1
     1  C   -0.033182
     2  C   -0.348920
     3  C    0.244864
     4  C   -0.656554
     5  C    0.500067
     6  H    0.246086
     7  H    0.259244
     8  H    0.298400
     9  H    0.275580
    10  O   -0.318815
    11  O   -0.387088
    12  C   -0.447115
    13  C   -0.658858
    14  C   -0.657203
    15  O   -0.622076
    16  Si   1.419631
    17  C   -1.040655
    18  C   -1.059486
    19  C   -1.077881
    20  H    0.234762
    21  H    0.239529
    22  H    0.243053
    23  H    0.247570
    24  H    0.246920
    25  H    0.248917
    26  H    0.236763
    27  H    0.237070
    28  H    0.235743
    29  H    0.236748
    30  H    0.250971
    31  H    0.230910
    32  H    0.246333
    33  H    0.240510
    34  H    0.226722
    35  H    0.233208
    36  H    0.221053
    37  C   -0.562437
    38  C   -0.187726
    39  C   -0.444510
    40  H    0.268860
    41  H    0.251701
    42  H    0.224478
    43  H    0.231862
    44  H    0.224951
 Sum of Mulliken charges =   0.00000
 Mulliken charges with hydrogens summed into heavy atoms:
               1
     1  C    0.212903
     2  C   -0.089676
     3  C    0.244864
     4  C   -0.082574
     5  C    0.500067
    10  O   -0.318815
    11  O   -0.387088
    12  C    0.039728
    13  C    0.022124
    14  C    0.061426
    15  O   -0.622076
    16  Si   1.419631
    17  C   -0.331078
    18  C   -0.342141
    19  C   -0.334474
    37  C   -0.041876
    38  C    0.036752
    39  C    0.012303
 Electronic spatial extent (au):  <R**2>=           5164.3306
 Charge=              0.0000 electrons
 Dipole moment (field-independent basis, Debye):
    X=             -3.9875    Y=             -1.4976    Z=              2.8800  Tot=              5.1417
 Quadrupole moment (field-independent basis, Debye-Ang):
   XX=           -130.3617   YY=           -118.1439   ZZ=           -120.1299
   XY=             -6.7883   XZ=             13.9825   YZ=              4.2085
 Traceless Quadrupole moment (field-independent basis, Debye-Ang):
   XX=             -7.4832   YY=              4.7346   ZZ=              2.7486
   XY=             -6.7883   XZ=             13.9825   YZ=              4.2085
 Octapole moment (field-independent basis, Debye-Ang**2):
  XXX=            -46.2253  YYY=              6.1605  ZZZ=             12.7496  XYY=              8.9661
  XXY=            -21.4705  XXZ=             27.3101  XZZ=             -5.5554  YZZ=            -13.9113
  YYZ=              3.1290  XYZ=             16.2227
 Hexadecapole moment (field-independent basis, Debye-Ang**3):
 XXXX=          -3514.2909 YYYY=          -2413.1749 ZZZZ=          -1179.0113 XXXY=            -23.5852
 XXXZ=            131.8827 YYYX=             26.7499 YYYZ=            -38.5334 ZZZX=             18.2113
 ZZZY=             19.8377 XXYY=          -1012.9997 XXZZ=           -798.2935 YYZZ=           -611.7011
 XXYZ=             26.1737 YYXZ=             33.5108 ZZXY=            -21.8356
 N-N= 1.647264184400D+03 E-N=-5.789756279292D+03  KE= 1.060536809572D+03
 1\1\GINC-SWANNODE-0-8\SP\RmPW1PW91\6-311G(d)\C14H26O3Si1\AH809\08-Mar-
 2018\0\\#mPW1PW91/6-311g(d) nmr=(giao) scrf=(solvent=chloroform)\\P_ng
 _3ginp006\\0,1\C,0,-0.794947,0.394437,-0.633734\C,0,-1.137991,-0.4339,
 0.615177\C,0,-1.618629,0.479862,1.793716\C,0,-0.924394,1.856163,1.7207
 02\C,0,0.339357,1.886321,0.909668\H,0,-0.370611,-0.297809,-1.372959\H,
 0,-0.185746,-0.893687,0.908255\H,0,-1.57926,2.621706,1.288987\H,0,-0.6
 81718,2.215261,2.728044\O,0,0.28792,1.291688,-0.304927\O,0,1.337152,2.
 496317,1.279509\C,0,-1.943714,1.147083,-1.320116\C,0,-1.486109,1.83751
 4,-2.600305\C,0,-2.087839,-1.593918,0.290987\O,0,-3.038154,0.657978,1.
 560674\Si,0,-4.186916,1.316132,2.587245\C,0,-5.661525,1.887654,1.55182
 1\C,0,-4.822031,0.026777,3.800198\C,0,-3.572214,2.803191,3.55011\H,0,-
 5.659971,0.426771,4.378946\H,0,-5.16807,-0.862794,3.265693\H,0,-4.0401
 33,-0.276167,4.50154\H,0,-3.237764,3.594712,2.873371\H,0,-4.374747,3.2
 1063,4.172685\H,0,-2.74082,2.537347,4.208245\H,0,-5.348534,2.652949,0.
 83564\H,0,-6.085588,1.045847,0.996841\H,0,-6.44032,2.309161,2.193859\H
 ,0,-2.244218,-2.229614,1.167825\H,0,-3.067438,-1.25186,-0.055131\H,0,-
 1.662792,-2.224975,-0.497259\H,0,-2.362767,1.918013,-0.668621\H,0,-2.7
 53577,0.454036,-1.570002\H,0,-2.333534,2.33456,-3.0832\H,0,-0.725379,2
 .596608,-2.393297\H,0,-1.069531,1.114383,-3.308616\C,0,-1.338611,-0.23
 0404,3.16257\C,0,0.102012,-0.545235,3.472077\C,0,0.83685,0.112009,4.37
 8371\H,0,-1.910935,-1.16512,3.21598\H,0,-1.734873,0.382109,3.980888\H,
 0,0.558593,-1.382256,2.947385\H,0,1.869461,-0.169502,4.565493\H,0,0.44
 0105,0.946759,4.948153\\Version=EM64L-G09RevD.01\State=1-A\HF=-1064.37
 37302\RMSD=3.354e-09\Dipole=-1.734804,-0.99174,0.3146925\Quadrupole=-9
 .4503185,3.3835842,6.0667342,-9.2462704,1.9225813,3.0200399\PG=C01 [X(
 C14H26O3Si1)]\\@


 A COMPLEXITY IS MERELY A DISARRANGEMENT OF SIMPLICITIES.

                                    -- G. O. ABELL IN "EXPLORATION OF THE UNIVERSE"
 Job cpu time:       0 days  1 hours 19 minutes 27.5 seconds.
 File lengths (MBytes):  RWF=    237 Int=      0 D2E=      0 Chk=     11 Scr=      1
 Normal termination of Gaussian 09 at Thu Mar  8 13:25:20 2018.
