 Entering Gaussian System, Link 0=/usr/local/shared/gaussian/em64t/09-D01/g09/g09
 Initial command:
 /usr/local/shared/gaussian/em64t/09-D01/g09/l1.exe "/scratch/ah809/P_ng_3ginp009/Gau-30202.inp" -scrdir="/scratch/ah809/P_ng_3ginp009/"
 Entering Link 1 = /usr/local/shared/gaussian/em64t/09-D01/g09/l1.exe PID=     30223.
  
 Copyright (c) 1988,1990,1992,1993,1995,1998,2003,2009,2013,
            Gaussian, Inc.  All Rights Reserved.
  
 This is part of the Gaussian(R) 09 program.  It is based on
 the Gaussian(R) 03 system (copyright 2003, Gaussian, Inc.),
 the Gaussian(R) 98 system (copyright 1998, Gaussian, Inc.),
 the Gaussian(R) 94 system (copyright 1995, Gaussian, Inc.),
 the Gaussian 92(TM) system (copyright 1992, Gaussian, Inc.),
 the Gaussian 90(TM) system (copyright 1990, Gaussian, Inc.),
 the Gaussian 88(TM) system (copyright 1988, Gaussian, Inc.),
 the Gaussian 86(TM) system (copyright 1986, Carnegie Mellon
 University), and the Gaussian 82(TM) system (copyright 1983,
 Carnegie Mellon University). Gaussian is a federally registered
 trademark of Gaussian, Inc.
  
 This software contains proprietary and confidential information,
 including trade secrets, belonging to Gaussian, Inc.
  
 This software is provided under written license and may be
 used, copied, transmitted, or stored only in accord with that
 written license.
  
 The following legend is applicable only to US Government
 contracts under FAR:
  
                    RESTRICTED RIGHTS LEGEND
  
 Use, reproduction and disclosure by the US Government is
 subject to restrictions as set forth in subparagraphs (a)
 and (c) of the Commercial Computer Software - Restricted
 Rights clause in FAR 52.227-19.
  
 Gaussian, Inc.
 340 Quinnipiac St., Bldg. 40, Wallingford CT 06492
  
  
 ---------------------------------------------------------------
 Warning -- This program may not be used in any manner that
 competes with the business of Gaussian, Inc. or will provide
 assistance to any competitor of Gaussian, Inc.  The licensee
 of this program is prohibited from giving any competitor of
 Gaussian, Inc. access to this program.  By using this program,
 the user acknowledges that Gaussian, Inc. is engaged in the
 business of creating and licensing software in the field of
 computational chemistry and represents and warrants to the
 licensee that it is not a competitor of Gaussian, Inc. and that
 it will not use this program in any manner prohibited above.
 ---------------------------------------------------------------
  

 Cite this work as:
 Gaussian 09, Revision D.01,
 M. J. Frisch, G. W. Trucks, H. B. Schlegel, G. E. Scuseria, 
 M. A. Robb, J. R. Cheeseman, G. Scalmani, V. Barone, B. Mennucci, 
 G. A. Petersson, H. Nakatsuji, M. Caricato, X. Li, H. P. Hratchian, 
 A. F. Izmaylov, J. Bloino, G. Zheng, J. L. Sonnenberg, M. Hada, 
 M. Ehara, K. Toyota, R. Fukuda, J. Hasegawa, M. Ishida, T. Nakajima, 
 Y. Honda, O. Kitao, H. Nakai, T. Vreven, J. A. Montgomery, Jr., 
 J. E. Peralta, F. Ogliaro, M. Bearpark, J. J. Heyd, E. Brothers, 
 K. N. Kudin, V. N. Staroverov, T. Keith, R. Kobayashi, J. Normand, 
 K. Raghavachari, A. Rendell, J. C. Burant, S. S. Iyengar, J. Tomasi, 
 M. Cossi, N. Rega, J. M. Millam, M. Klene, J. E. Knox, J. B. Cross, 
 V. Bakken, C. Adamo, J. Jaramillo, R. Gomperts, R. E. Stratmann, 
 O. Yazyev, A. J. Austin, R. Cammi, C. Pomelli, J. W. Ochterski, 
 R. L. Martin, K. Morokuma, V. G. Zakrzewski, G. A. Voth, 
 P. Salvador, J. J. Dannenberg, S. Dapprich, A. D. Daniels, 
 O. Farkas, J. B. Foresman, J. V. Ortiz, J. Cioslowski, 
 and D. J. Fox, Gaussian, Inc., Wallingford CT, 2013.
 
 ******************************************
 Gaussian 09:  EM64L-G09RevD.01 24-Apr-2013
                 8-Mar-2018 
 ******************************************
 %mem=6000MB
 %chk=P_ng_3ginp009.chk
 --------------------------------------------------------
 #mPW1PW91/6-311g(d) nmr=(giao) scrf=(solvent=chloroform)
 --------------------------------------------------------
 1/38=1/1;
 2/12=2,17=6,18=5,40=1/2;
 3/5=4,6=6,7=1,11=2,16=1,25=1,30=1,70=2201,72=7,74=-7/1,2,8,3;
 4//1;
 5/5=2,38=5,53=7/2;
 8/6=1,10=90,11=11/1;
 10/13=100,45=16/2;
 6/7=2,8=2,9=2,10=2,28=1/1;
 99/9=1/99;
 -------------
 P_ng_3ginp009
 -------------
 Symbolic Z-matrix:
 Charge =  0 Multiplicity = 1
 C                    -0.65035   0.45474  -0.55408 
 C                    -0.81623  -0.42521   0.70598 
 C                    -1.37678   0.38909   1.9132 
 C                    -0.45475   1.60033   2.09186 
 C                    -0.24713   2.39487   0.83576 
 H                     0.00782  -0.1038   -1.23325 
 H                     0.20313  -0.74186   0.96897 
 H                    -0.84711   2.28266   2.8497 
 H                     0.5447    1.29838   2.42704 
 O                     0.05965   1.6776   -0.26821 
 O                    -0.18832   3.62026   0.84212 
 C                    -1.9229    0.8019   -1.34894 
 C                    -1.5961    1.46124  -2.6863 
 C                    -1.61201  -1.70049   0.39874 
 O                    -2.70389   0.79003   1.5256 
 Si                   -3.92897   1.4626    2.44514 
 C                    -5.18637   2.2539    1.27298 
 C                    -4.84484   0.1389    3.4214 
 C                    -3.36341   2.79587   3.63207 
 H                    -4.21426  -0.2759    4.21219 
 H                    -5.73991   0.5606    3.88841 
 H                    -5.15357  -0.67724   2.76164 
 H                    -2.85377   3.60287   3.09751 
 H                    -4.22185   3.22982   4.15415 
 H                    -2.68267   2.39442   4.38774 
 H                    -4.71206   3.04785   0.68886 
 H                    -5.58476   1.50511   0.5823 
 H                    -6.01778   2.68521   1.83782 
 H                    -1.51548  -2.43105   1.20755 
 H                    -2.67872  -1.49969   0.26104 
 H                    -1.23596  -2.18115  -0.51096 
 H                    -2.54989   1.50528  -0.79376 
 H                    -2.51603  -0.09548  -1.54832 
 H                    -2.51883   1.67362  -3.23577 
 H                    -1.0642    2.40736  -2.5461 
 H                    -0.9769    0.8048   -3.30584 
 C                    -1.39291  -0.47064   3.22324 
 C                    -0.08917  -1.10418   3.63671 
 C                     0.60468  -0.75113   4.72649 
 H                    -2.13939  -1.2695    3.12941 
 H                    -1.75206   0.14984   4.05382 
 H                     0.28681  -1.92097   3.02373 
 H                     1.5305   -1.2579    4.98392 
 H                     0.27202   0.04278   5.38858 
 
                          Input orientation:                          
 ---------------------------------------------------------------------
 Center     Atomic      Atomic             Coordinates (Angstroms)
 Number     Number       Type             X           Y           Z
 ---------------------------------------------------------------------
      1          6           0       -0.650352    0.454737   -0.554084
      2          6           0       -0.816226   -0.425209    0.705984
      3          6           0       -1.376782    0.389092    1.913198
      4          6           0       -0.454746    1.600330    2.091858
      5          6           0       -0.247126    2.394866    0.835760
      6          1           0        0.007817   -0.103801   -1.233253
      7          1           0        0.203133   -0.741860    0.968972
      8          1           0       -0.847113    2.282661    2.849700
      9          1           0        0.544696    1.298383    2.427038
     10          8           0        0.059654    1.677599   -0.268212
     11          8           0       -0.188317    3.620260    0.842120
     12          6           0       -1.922897    0.801899   -1.348942
     13          6           0       -1.596103    1.461241   -2.686304
     14          6           0       -1.612010   -1.700492    0.398736
     15          8           0       -2.703887    0.790027    1.525595
     16         14           0       -3.928966    1.462599    2.445143
     17          6           0       -5.186373    2.253903    1.272976
     18          6           0       -4.844837    0.138896    3.421396
     19          6           0       -3.363409    2.795872    3.632073
     20          1           0       -4.214260   -0.275904    4.212194
     21          1           0       -5.739913    0.560596    3.888413
     22          1           0       -5.153573   -0.677237    2.761636
     23          1           0       -2.853774    3.602870    3.097512
     24          1           0       -4.221848    3.229822    4.154148
     25          1           0       -2.682667    2.394417    4.387737
     26          1           0       -4.712063    3.047853    0.688863
     27          1           0       -5.584759    1.505111    0.582295
     28          1           0       -6.017783    2.685207    1.837823
     29          1           0       -1.515481   -2.431054    1.207550
     30          1           0       -2.678724   -1.499687    0.261035
     31          1           0       -1.235955   -2.181149   -0.510958
     32          1           0       -2.549886    1.505279   -0.793756
     33          1           0       -2.516028   -0.095475   -1.548322
     34          1           0       -2.518834    1.673619   -3.235768
     35          1           0       -1.064204    2.407362   -2.546095
     36          1           0       -0.976899    0.804801   -3.305838
     37          6           0       -1.392914   -0.470636    3.223238
     38          6           0       -0.089166   -1.104180    3.636714
     39          6           0        0.604675   -0.751134    4.726491
     40          1           0       -2.139391   -1.269499    3.129407
     41          1           0       -1.752064    0.149843    4.053819
     42          1           0        0.286805   -1.920973    3.023733
     43          1           0        1.530499   -1.257904    4.983923
     44          1           0        0.272023    0.042777    5.388582
 ---------------------------------------------------------------------
                    Distance matrix (angstroms):
                    1          2          3          4          5
     1  C    0.000000
     2  C    1.545830   0.000000
     3  C    2.572837   1.560344   0.000000
     4  C    2.889923   2.480750   1.532699   0.000000
     5  C    2.420405   2.879851   2.541678   1.500725   0.000000
     6  H    1.098372   2.131429   3.472782   3.764889   3.254097
     7  H    2.116596   1.099329   2.160265   2.679465   3.171676
     8  H    3.868561   3.453843   2.177886   1.092635   2.104407
     9  H    3.320688   2.790144   2.186989   1.096541   2.088402
    10  O    1.442644   2.477504   2.912413   2.416714   1.351791
    11  O    3.490472   4.096172   3.605566   2.390177   1.226821
    12  C    1.540030   2.636899   3.333198   3.825188   3.180987
    13  C    2.540444   3.959106   4.727898   4.914557   3.885400
    14  C    2.545126   1.534282   2.591387   3.886045   4.338877
    15  O    2.941851   2.389942   1.439511   2.456803   3.014474
    16  Si   4.556365   4.034556   2.819402   3.494851   4.124946
    17  C    5.210627   5.157258   4.289567   4.846238   4.960563
    18  C    5.787737   4.890949   3.790075   4.814183   5.737060
    19  C    5.510490   5.042371   3.562837   3.501700   4.206114
    20  H    5.996056   4.884919   3.711992   4.706381   5.854184
    21  H    6.756524   5.944944   4.792473   5.678173   6.546293
    22  H    5.705643   4.806433   4.015103   5.264493   6.100823
    23  H    5.300940   5.108466   3.729943   3.282810   3.656420
    24  H    6.528716   6.070202   4.602826   4.593402   5.244737
    25  H    5.684563   4.998920   3.442384   3.296250   4.306785
    26  H    4.976612   5.219195   4.437579   4.710463   4.514824
    27  H    5.171365   5.145905   4.552348   5.348353   5.417216
    28  H    6.285343   6.165383   5.178486   5.673524   5.864206
    29  H    3.489927   2.182645   2.910395   4.261363   5.003644
    30  H    2.932317   2.195764   2.827045   4.231796   4.627150
    31  H    2.700497   2.177256   3.535888   4.656664   4.871483
    32  H    2.183875   2.996929   3.154306   3.567270   2.957937
    33  H    2.184488   2.842525   3.676249   4.513928   4.127174
    34  H    3.488313   4.779264   5.428273   5.713968   4.717859
    35  H    2.819951   4.319834   4.904734   4.746930   3.479183
    36  H    2.793086   4.199221   5.250815   5.480934   4.495966
    37  C    3.959277   2.582867   1.567035   2.539504   3.901792
    38  C    4.506433   3.094963   2.618840   3.136017   4.484821
    39  C    5.560008   4.276642   3.625039   3.686875   5.075497
    40  H    4.331089   2.887312   2.193550   3.485750   4.719010
    41  H    4.747578   3.523418   2.186398   2.763374   4.202484
    42  H    4.395798   2.970850   3.055685   3.717239   4.868139
    43  H    6.193446   4.949875   4.538087   4.524902   5.806026
    44  H    6.027916   4.830116   3.862226   3.717870   5.150731
                    6          7          8          9         10
     6  H    0.000000
     7  H    2.301100   0.000000
     8  H    4.805893   3.713204   0.000000
     9  H    3.956272   2.530852   1.756297   0.000000
    10  O    2.026667   2.721212   3.302984   2.764678   0.000000
    11  O    4.267818   4.381486   2.500712   2.905234   2.251279
    12  C    2.135728   3.503701   4.580236   4.538010   2.421846
    13  C    2.670819   4.631625   5.646508   5.545792   2.938624
    14  C    2.799402   2.130467   4.738966   4.214100   3.827634
    15  O    3.970329   3.332757   2.725586   3.409445   3.412138
    16  Si   5.610924   4.910495   3.214652   4.476712   4.828831
    17  C    6.230535   6.173637   4.616932   5.923684   5.498017
    18  C    6.728515   5.680855   4.572129   5.601805   6.327310
    19  C    6.591257   5.685761   2.684630   4.355212   5.308495
    20  H    6.892637   5.499906   4.443008   5.320980   6.492808
    21  H    7.727178   6.748283   5.289983   6.494325   7.222202
    22  H    6.551940   5.649081   5.226313   6.040306   6.473250
    23  H    6.378373   5.722940   2.414757   4.160504   4.850034
    24  H    7.617559   6.745373   3.739991   5.425247   6.348065
    25  H    6.713816   5.463701   2.397354   3.932112   5.450873
    26  H    5.992055   6.212853   4.493615   5.806497   5.055974
    27  H    6.096041   6.220779   5.309520   6.404376   5.710737
    28  H    7.315595   7.155382   5.284105   6.733245   6.510445
    29  H    3.700549   2.421555   5.036118   4.431724   4.641116
    30  H    3.376225   3.062773   4.935802   4.786565   4.227761
    31  H    2.526668   2.516490   5.600966   4.889753   4.077679
    32  H    3.053546   3.966857   4.096160   4.471326   2.667506
    33  H    2.543449   3.761438   5.270997   5.207145   3.378848
    34  H    3.681474   5.560889   6.340229   6.449294   3.931285
    35  H    3.029641   4.886659   5.401600   5.343262   2.642794
    36  H    2.467961   4.696662   6.331790   5.951869   3.326167
    37  C    4.685822   2.775364   2.831620   2.741842   4.349148
    38  C    4.972599   2.708055   3.558731   2.763586   4.796758
    39  C    6.024436   3.778925   3.851486   3.080844   5.580578
    40  H    5.000216   3.230062   3.790258   3.780432   5.006496
    41  H    5.578050   3.759549   2.611082   3.039847   4.929129
    42  H    4.637012   2.370517   4.357361   3.284327   4.882440
    43  H    6.504137   4.260051   4.769020   3.747542   6.193988
    44  H    6.628725   4.489249   3.565875   3.228256   5.892119
                   11         12         13         14         15
    11  O    0.000000
    12  C    3.968964   0.000000
    13  C    4.369554   1.526454   0.000000
    14  C    5.525748   3.068060   4.417497   0.000000
    15  O    3.847785   2.978766   4.406564   2.943585   0.000000
    16  Si   4.606261   4.342340   5.636843   4.422806   1.672944
    17  C    5.199340   4.430919   5.403170   5.401630   2.893006
    18  C    6.360483   5.633243   7.043214   4.792806   2.932865
    19  C    4.306351   5.555314   6.695259   5.808542   2.982555
    20  H    6.538020   6.110502   7.580349   4.831523   3.261173
    21  H    7.032899   6.485193   7.823633   5.859176   3.853959
    22  H    6.841549   5.433412   6.848995   4.378700   3.111531
    23  H    3.491670   5.336940   6.294509   6.078735   3.225752
    24  H    5.233674   6.439253   7.537519   6.724758   3.894367
    25  H    4.505094   6.001904   7.217582   5.816074   3.281215
    26  H    4.562391   4.120243   4.859866   5.678141   3.135390
    27  H    5.801978   4.199216   5.157038   5.108064   3.114576
    28  H    5.987355   5.520001   6.443374   6.380922   3.830287
    29  H    6.205909   4.141693   5.506229   1.094175   3.448017
    30  H    5.723080   2.908711   4.315782   1.094149   2.615824
    31  H    6.048530   3.173749   4.257798   1.095441   3.889763
    32  H    3.567386   1.093659   2.119759   3.546634   2.432014
    33  H    4.993910   1.094000   2.136499   2.680366   3.204430
    34  H    5.084279   2.162209   1.094736   5.041485   4.846190
    35  H    3.703822   2.179000   1.094404   5.083954   4.677926
    36  H    5.074862   2.173560   1.094600   4.517049   5.130833
    37  C    4.884282   4.775464   6.220621   3.088424   2.487954
    38  C    5.489984   5.643799   6.988047   3.627553   3.857669
    39  C    5.901378   6.761022   8.042857   4.954234   4.854636
    40  H    5.740045   4.938944   6.447837   2.814329   2.670677
    41  H    4.980372   5.444648   6.868286   4.099145   2.776278
    42  H    5.974148   5.605096   6.898495   3.247263   4.305598
    43  H    6.626111   7.501594   8.717900   5.576306   5.838157
    44  H    5.803500   7.126582   8.408669   5.611339   4.933264
                   16         17         18         19         20
    16  Si   0.000000
    17  C    1.892408   0.000000
    18  C    1.882573   3.034075   0.000000
    19  C    1.872505   3.030226   3.049350   0.000000
    20  H    2.495246   3.997991   1.093182   3.239799   0.000000
    21  H    2.485189   3.164523   1.094119   3.272605   1.769798
    22  H    2.485705   3.287669   1.093926   4.003103   1.774118
    23  H    2.482415   3.254176   4.008534   1.093951   4.258911
    24  H    2.475794   3.191219   3.237107   1.094437   3.506215
    25  H    2.489019   3.998753   3.270500   1.093437   3.083376
    26  H    2.492146   1.093853   3.993294   3.247283   4.869192
    27  H    2.492721   1.093820   3.236437   3.987682   4.269245
    28  H    2.495349   1.093763   3.219815   3.205820   4.202203
    29  H    4.745217   5.952189   4.752933   6.050942   4.577769
    30  H    3.886975   4.626204   4.167119   5.503137   4.412162
    31  H    5.409967   6.201444   5.819798   6.816268   5.899866
    32  H    3.520533   3.432620   4.990121   4.681390   5.567970
    33  H    4.513508   4.539828   5.493303   5.992865   6.008335
    34  H    5.857111   5.270794   7.216890   7.009993   7.883353
    35  H    5.831972   5.621488   7.419574   6.603563   7.924471
    36  H    6.497783   6.386322   7.788456   7.602263   8.256466
    37  C    3.282436   5.061321   3.510921   3.836674   2.995989
    38  C    4.769933   6.545647   4.920163   5.092258   4.246601
    39  C    5.537063   7.381954   5.673853   5.433663   4.869546
    40  H    3.336938   5.014459   3.064029   4.275294   2.542585
    41  H    3.008333   4.894347   3.156790   3.126623   2.503748
    42  H    5.436548   7.102846   5.543911   5.995229   4.937436
    43  H    6.606989   8.439211   6.710995   6.496994   5.878958
    44  H    5.322409   7.184802   5.482820   4.886842   4.648890
                   21         22         23         24         25
    21  H    0.000000
    22  H    1.773598   0.000000
    23  H    4.267406   4.870442   0.000000
    24  H    3.082191   4.251154   1.768409   0.000000
    25  H    3.599858   4.264345   1.776040   1.766789   0.000000
    26  H    4.180914   4.285746   3.092389   3.504515   4.269320
    27  H    3.441889   3.114176   4.264410   4.194078   4.867689
    28  H    2.965822   3.592537   3.527021   2.981166   4.208280
    29  H    5.829479   4.327444   6.463066   6.931982   5.895853
    30  H    5.174313   3.613074   5.840576   6.317105   5.673952
    31  H    6.867115   5.321593   7.006659   7.743215   6.857550
    32  H    5.743814   4.917659   4.431050   5.500114   5.258904
    33  H    6.354679   5.086337   5.947739   6.818034   6.439264
    34  H    7.897349   6.959686   6.629075   7.741633   7.659257
    35  H    8.165519   7.376293   6.040041   7.452544   7.120226
    36  H    8.631523   7.513673   7.235658   8.488923   8.039131
    37  C    4.516890   3.794511   4.329361   4.750037   3.350828
    38  C    5.896251   5.157156   5.485446   6.010854   4.419328
    39  C    6.532749   6.084697   5.794117   6.282588   4.562440
    40  H    4.109635   3.093755   4.924565   5.062668   3.911882
    41  H    4.012358   3.731496   3.748558   3.949199   2.452679
    42  H    6.574738   5.586885   6.354646   6.938046   5.413027
    43  H    7.574033   7.067712   6.812307   7.342868   5.607642
    44  H    6.217879   6.070944   5.262497   5.645880   3.906673
                   26         27         28         29         30
    26  H    0.000000
    27  H    1.775671   0.000000
    28  H    1.776661   1.776650   0.000000
    29  H    6.364401   5.695907   6.844275   0.000000
    30  H    4.999762   4.192500   5.581121   1.765352   0.000000
    31  H    6.392602   5.804809   7.215544   1.758936   1.772554
    32  H    3.041826   3.332262   4.510404   4.535409   3.187319
    33  H    4.439378   4.064298   5.608962   3.748447   2.296095
    34  H    4.701223   4.899581   6.245581   6.131732   4.724729
    35  H    4.917526   5.571023   6.620716   6.140340   5.074612
    36  H    5.911038   6.069628   7.443365   5.579561   4.574872
    37  C    5.460730   5.333828   5.767853   2.814473   3.389233
    38  C    6.877527   6.807306   7.262504   3.113809   4.272873
    39  C    7.681305   7.782936   8.000612   4.438484   5.592972
    40  H    5.586987   5.104586   5.687690   2.330667   2.927700
    41  H    5.336945   5.345819   5.434618   3.849448   4.238497
    42  H    7.424926   7.223153   7.897538   2.609011   4.074843
    43  H    8.715312   8.811100   9.078691   4.991520   6.331010
    44  H    7.480572   7.716263   7.691033   5.176489   6.113742
                   31         32         33         34         35
    31  H    0.000000
    32  H    3.923792   0.000000
    33  H    2.657959   1.770008   0.000000
    34  H    4.891789   2.448004   2.444826   0.000000
    35  H    5.022521   2.468136   3.060643   1.769174   0.000000
    36  H    4.098092   3.045573   2.503653   1.771248   1.775678
    37  C    4.110318   4.623750   4.916291   6.898136   6.455705
    38  C    4.436008   5.700306   5.813067   7.800671   7.176960
    39  C    5.732690   6.746538   7.038605   8.890068   8.102577
    40  H    3.859995   4.822770   4.837493   7.022918   6.847383
    41  H    5.151415   5.096343   5.659311   7.486515   7.009166
    42  H    3.857529   5.861676   5.664980   7.744292   7.182109
    43  H    6.220881   7.593833   7.771476   9.620512   8.767430
    44  H    6.482624   6.951502   7.477498   9.210209   8.386648
                   36         37         38         39         40
    36  H    0.000000
    37  C    6.665481   0.000000
    38  C    7.254744   1.507348   0.000000
    39  C    8.333104   2.515713   1.339280   0.000000
    40  H    6.860502   1.097367   2.118517   3.217029   0.000000
    41  H    7.429294   1.097200   2.124095   2.611219   1.737553
    42  H    7.006444   2.228169   1.088233   2.090203   2.514361
    43  H    8.902917   3.502306   2.112325   1.086387   4.111868
    44  H    8.816656   2.779267   2.124855   1.085963   3.555398
                   41         42         43         44
    41  H    0.000000
    42  H    3.083236   0.000000
    43  H    3.690808   2.414287   0.000000
    44  H    2.426929   3.073930   1.854530   0.000000
 Stoichiometry    C14H26O3Si
 Framework group  C1[X(C14H26O3Si)]
 Deg. of freedom   126
 Full point group                 C1      NOp   1
 Largest Abelian subgroup         C1      NOp   1
 Largest concise Abelian subgroup C1      NOp   1
                         Standard orientation:                         
 ---------------------------------------------------------------------
 Center     Atomic      Atomic             Coordinates (Angstroms)
 Number     Number       Type             X           Y           Z
 ---------------------------------------------------------------------
      1          6           0       -2.295800    0.512569   -0.481925
      2          6           0       -1.001201    1.215809   -0.949961
      3          6           0        0.238811    0.763165   -0.117999
      4          6           0       -0.116574    0.985615    1.356241
      5          6           0       -1.416519    0.358816    1.767872
      6          1           0       -3.128564    1.094080   -0.899981
      7          1           0       -1.164621    2.282668   -0.741086
      8          1           0        0.661402    0.585962    2.011133
      9          1           0       -0.208112    2.052866    1.590757
     10          8           0       -2.465947    0.592376    0.948426
     11          8           0       -1.562001   -0.183021    2.858897
     12          6           0       -2.506535   -0.948968   -0.919179
     13          6           0       -3.916236   -1.440353   -0.600828
     14          6           0       -0.808478    1.084652   -2.466429
     15          8           0        0.412054   -0.635141   -0.412821
     16         14           0        1.689914   -1.653267   -0.053329
     17          6           0        1.087573   -3.440648   -0.207168
     18          6           0        3.093218   -1.437822   -1.289615
     19          6           0        2.380281   -1.448699    1.675202
     20          1           0        3.579725   -0.466259   -1.169519
     21          1           0        3.849774   -2.215183   -1.146683
     22          1           0        2.714814   -1.510732   -2.313416
     23          1           0        1.599962   -1.599745    2.426878
     24          1           0        3.169556   -2.184176    1.859352
     25          1           0        2.812516   -0.454361    1.816859
     26          1           0        0.279014   -3.630322    0.504710
     27          1           0        0.712464   -3.629008   -1.217244
     28          1           0        1.904127   -4.138877   -0.002148
     29          1           0       -0.046578    1.780919   -2.829665
     30          1           0       -0.500318    0.076344   -2.758861
     31          1           0       -1.736912    1.323904   -2.996297
     32          1           0       -1.813460   -1.615738   -0.398454
     33          1           0       -2.341716   -1.062675   -1.994699
     34          1           0       -4.040794   -2.472308   -0.944344
     35          1           0       -4.113319   -1.419302    0.475479
     36          1           0       -4.668729   -0.823663   -1.102421
     37          6           0        1.512730    1.594619   -0.494047
     38          6           0        1.396638    3.094754   -0.403398
     39          6           0        2.046148    3.844945    0.496058
     40          1           0        1.827432    1.343422   -1.514869
     41          1           0        2.348415    1.275648    0.141354
     42          1           0        0.769789    3.593504   -1.139985
     43          1           0        1.937014    4.925827    0.500528
     44          1           0        2.701148    3.408518    1.244272
 ---------------------------------------------------------------------
 Rotational constants (GHZ):      0.3974504      0.3409216      0.2687607
 Standard basis: 6-311G(d) (5D, 7F)
 There are   428 symmetry adapted cartesian basis functions of A   symmetry.
 There are   410 symmetry adapted basis functions of A   symmetry.
   410 basis functions,   720 primitive gaussians,   428 cartesian basis functions
    74 alpha electrons       74 beta electrons
       nuclear repulsion energy      1653.8149143545 Hartrees.
 NAtoms=   44 NActive=   44 NUniq=   44 SFac= 1.00D+00 NAtFMM=   60 NAOKFM=F Big=F
 Integral buffers will be    131072 words long.
 Raffenetti 2 integral format.
 Two-electron integral symmetry is turned on.
 ------------------------------------------------------------------------------
 Polarizable Continuum Model (PCM)
 =================================
 Model                : PCM (using non-symmetric T matrix).
 Atomic radii         : UFF (Universal Force Field).
 Polarization charges : Total charges.
 Charge compensation  : None.
 Solution method      : On-the-fly selection.
 Cavity type          : Scaled VdW (van der Waals Surface) (Alpha=1.100).
 Cavity algorithm     : GePol (No added spheres)
                        Default sphere list used, NSphG=   44.
                        Lebedev-Laikov grids with approx.  5.0 points / Ang**2.
                        Smoothing algorithm: Karplus/York (Gamma=1.0000).
                        Polarization charges: spherical gaussians, with
                                              point-specific exponents (IZeta= 3).
                        Self-potential: point-specific (ISelfS= 7).
                        Self-field    : sphere-specific E.n sum rule (ISelfD= 2).
 Solvent              : Chloroform, Eps=   4.711300 Eps(inf)=   2.090627
 ------------------------------------------------------------------------------
 One-electron integrals computed using PRISM.
 NBasis=   410 RedAO= T EigKep=  1.21D-03  NBF=   410
 NBsUse=   410 1.00D-06 EigRej= -1.00D+00 NBFU=   410
 ExpMin= 6.54D-02 ExpMax= 6.94D+04 ExpMxC= 2.33D+03 IAcc=2 IRadAn=         4 AccDes= 0.00D+00
 Harris functional with IExCor=  908 and IRadAn=       4 diagonalized for initial guess.
 HarFok:  IExCor=  908 AccDes= 0.00D+00 IRadAn=         4 IDoV= 1 UseB2=F ITyADJ=14
 ICtDFT=  3500011 ScaDFX=  1.000000  1.000000  1.000000  1.000000
 FoFCou: FMM=F IPFlag=           0 FMFlag=      100000 FMFlg1=           0
         NFxFlg=           0 DoJE=T BraDBF=F KetDBF=T FulRan=T
         wScrn=  0.000000 ICntrl=     500 IOpCl=  0 I1Cent=   200000004 NGrid=           0
         NMat0=    1 NMatS0=      1 NMatT0=    0 NMatD0=    1 NMtDS0=    0 NMtDT0=    0
 Petite list used in FoFCou.
 Requested convergence on RMS density matrix=1.00D-08 within 128 cycles.
 Requested convergence on MAX density matrix=1.00D-06.
 Requested convergence on             energy=1.00D-06.
 No special actions if energy rises.
 Inv3:  Mode=1 IEnd=    24952368.
 Iteration    1 A*A^-1 deviation from unit magnitude is 8.66D-15 for   1853.
 Iteration    1 A*A^-1 deviation from orthogonality  is 5.55D-15 for   2653   1149.
 Iteration    1 A^-1*A deviation from unit magnitude is 8.33D-15 for   1014.
 Iteration    1 A^-1*A deviation from orthogonality  is 1.63D-12 for   2400   2370.
 Error on total polarization charges =  0.01124
 SCF Done:  E(RmPW1PW91) =  -1064.37585744     A.U. after   12 cycles
            NFock= 12  Conv=0.97D-08     -V/T= 2.0036
 DoSCS=F DFT=T ScalE2(SS,OS)=  1.000000  1.000000
 Range of M.O.s used for correlation:     1   410
 NBasis=   410 NAE=    74 NBE=    74 NFC=     0 NFV=     0
 NROrb=    410 NOA=    74 NOB=    74 NVA=   336 NVB=   336
 NEqPCM:  Using equilibrium solvation (IEInf=0, Eps=   4.7113, EpsInf=   2.0906)
          Differentiating once with respect to magnetic field using GIAOs.
          Electric field/nuclear overlap derivatives assumed to be zero.
 FoFJK:  IHMeth= 1 ICntrl=    6127 DoSepK=F KAlg= 0 I1Cent=   0 FoldK=F
 IRaf=         1 NMat=   1 IRICut=       1 DoRegI=T DoRafI=F ISym2E= 0.
          There are     3 degrees of freedom in the 1st order CPHF.  IDoFFX=0 NUNeed=     3.
      3 vectors produced by pass  0 Test12= 8.29D-13 3.33D-08 XBig12= 2.86D+01 1.18D+00.
 AX will form     3 AO Fock derivatives at one time.
      3 vectors produced by pass  1 Test12= 8.29D-13 3.33D-08 XBig12= 7.63D-02 1.04D-01.
      3 vectors produced by pass  2 Test12= 8.29D-13 3.33D-08 XBig12= 8.31D-04 8.82D-03.
      3 vectors produced by pass  3 Test12= 8.29D-13 3.33D-08 XBig12= 3.09D-06 2.73D-04.
      3 vectors produced by pass  4 Test12= 8.29D-13 3.33D-08 XBig12= 9.21D-09 2.30D-05.
      3 vectors produced by pass  5 Test12= 8.29D-13 3.33D-08 XBig12= 3.23D-11 1.01D-06.
      3 vectors produced by pass  6 Test12= 8.29D-13 3.33D-08 XBig12= 1.08D-13 5.23D-08.
 InvSVY:  IOpt=1 It=  1 EMax= 8.88D-16
 Solved reduced A of dimension    21 with     3 vectors.
 Calculating GIAO nuclear magnetic shielding tensors.
 SCF GIAO Magnetic shielding tensor (ppm):
      1  C    Isotropic =    98.4472   Anisotropy =    47.4279
   XX=    82.5149   YX=     9.5899   ZX=   -11.2355
   XY=    10.2388   YY=    83.6486   ZY=    -1.4102
   XZ=     0.3872   YZ=    10.5794   ZZ=   129.1781
   Eigenvalues:    72.2675    93.0083   130.0658
      2  C    Isotropic =   145.7151   Anisotropy =     9.3194
   XX=   147.1836   YX=    -2.1473   ZX=     3.8509
   XY=    -2.5815   YY=   145.5963   ZY=    10.8982
   XZ=     6.7178   YZ=     0.2483   ZZ=   144.3653
   Eigenvalues:   136.4750   148.7422   151.9280
      3  C    Isotropic =   103.0833   Anisotropy =    53.8629
   XX=    88.6040   YX=    -4.9182   ZX=     1.0800
   XY=    -8.9683   YY=   137.4431   ZY=     5.0422
   XZ=     5.0347   YZ=     7.2751   ZZ=    83.2028
   Eigenvalues:    80.5293    89.7287   138.9919
      4  C    Isotropic =   143.8841   Anisotropy =    21.5202
   XX=   151.0604   YX=     3.0480   ZX=    -6.3280
   XY=     3.0705   YY=   134.4662   ZY=   -11.5529
   XZ=    -9.4961   YZ=     0.8916   ZZ=   146.1257
   Eigenvalues:   132.3965   141.0249   158.2309
      5  C    Isotropic =     4.2802   Anisotropy =   110.1760
   XX=   -74.8283   YX=   -17.4832   ZX=   -43.8903
   XY=    -5.7209   YY=    65.3505   ZY=    20.1669
   XZ=   -54.0730   YZ=    15.1059   ZZ=    22.3183
   Eigenvalues:   -95.3352    30.4449    77.7309
      6  H    Isotropic =    27.7419   Anisotropy =     4.4061
   XX=    29.9949   YX=    -0.7184   ZX=     0.3061
   XY=    -1.5981   YY=    26.9134   ZY=    -0.7395
   XZ=     1.0032   YZ=    -2.2392   ZZ=    26.3174
   Eigenvalues:    25.0846    27.4618    30.6793
      7  H    Isotropic =    29.7842   Anisotropy =     6.4749
   XX=    29.0725   YX=    -0.3850   ZX=     0.8849
   XY=    -1.5187   YY=    33.8980   ZY=     0.6623
   XZ=    -0.0292   YZ=     0.3337   ZZ=    26.3821
   Eigenvalues:    26.2605    28.9912    34.1008
      8  H    Isotropic =    29.6400   Anisotropy =     4.8118
   XX=    30.1262   YX=    -2.7815   ZX=     1.7272
   XY=    -2.2185   YY=    27.8705   ZY=    -0.8634
   XZ=     0.0222   YZ=    -1.7276   ZZ=    30.9233
   Eigenvalues:    26.1698    29.9024    32.8478
      9  H    Isotropic =    29.4328   Anisotropy =     5.6540
   XX=    27.6074   YX=     1.9891   ZX=    -1.5032
   XY=     1.0928   YY=    31.5826   ZY=     2.4058
   XZ=    -0.8473   YZ=     2.5300   ZZ=    29.1084
   Eigenvalues:    25.7538    29.3425    33.2021
     10  O    Isotropic =   110.4544   Anisotropy =   197.8071
   XX=   177.3020   YX=   -31.3994   ZX=    54.0270
   XY=   -56.6509   YY=   204.2761   ZY=   117.4768
   XZ=    80.6460   YZ=    59.4111   ZZ=   -50.2150
   Eigenvalues:   -99.6863   188.7237   242.3258
     11  O    Isotropic =  -157.9802   Anisotropy =   626.5518
   XX=  -270.9093   YX=   -65.0504   ZX=  -141.8137
   XY=   -63.5998   YY=   115.5527   ZY=   282.2711
   XZ=  -124.9990   YZ=   230.5083   ZZ=  -318.5840
   Eigenvalues:  -483.0132  -250.6484   259.7210
     12  C    Isotropic =   158.3558   Anisotropy =    15.3613
   XX=   156.6104   YX=     3.7007   ZX=     2.1954
   XY=    -2.9284   YY=   165.3825   ZY=    10.7096
   XZ=     2.4941   YZ=     3.0287   ZZ=   153.0745
   Eigenvalues:   149.4495   157.0213   168.5967
     13  C    Isotropic =   173.5984   Anisotropy =    24.9802
   XX=   188.8013   YX=     6.1778   ZX=     0.3791
   XY=     3.4025   YY=   173.6129   ZY=    -0.5800
   XZ=    -1.7168   YZ=    -5.1775   ZZ=   158.3809
   Eigenvalues:   157.8536   172.6897   190.2519
     14  C    Isotropic =   176.1530   Anisotropy =    15.4071
   XX=   172.2245   YX=     0.9764   ZX=    -0.8969
   XY=     0.6019   YY=   170.0306   ZY=    -0.9004
   XZ=    -1.8385   YZ=    -1.3575   ZZ=   186.2038
   Eigenvalues:   169.7485   172.2861   186.4244
     15  O    Isotropic =   246.7130   Anisotropy =    39.8418
   XX=   253.8068   YX=    24.2171   ZX=     1.0846
   XY=    29.3795   YY=   236.3827   ZY=     0.2842
   XZ=     2.1925   YZ=    -4.4069   ZZ=   249.9495
   Eigenvalues:   216.7077   250.1572   273.2742
     16  Si   Isotropic =   333.7418   Anisotropy =    53.4936
   XX=   347.5634   YX=   -15.6407   ZX=    12.0903
   XY=   -29.5165   YY=   339.1505   ZY=   -11.4119
   XZ=     8.7173   YZ=    -4.2359   ZZ=   314.5114
   Eigenvalues:   311.3898   320.4314   369.4042
     17  C    Isotropic =   186.3390   Anisotropy =    12.3125
   XX=   190.6156   YX=     1.1458   ZX=     2.8423
   XY=     3.6988   YY=   192.6161   ZY=     1.1102
   XZ=     3.4548   YZ=     0.3506   ZZ=   175.7854
   Eigenvalues:   175.1415   189.3283   194.5474
     18  C    Isotropic =   184.2423   Anisotropy =    11.9890
   XX=   187.4213   YX=    -2.3619   ZX=    -7.1618
   XY=    -3.9810   YY=   182.4046   ZY=    -3.7516
   XZ=    -6.2443   YZ=    -5.0689   ZZ=   182.9009
   Eigenvalues:   174.4006   186.0913   192.2350
     19  C    Isotropic =   185.1998   Anisotropy =     7.0812
   XX=   183.8417   YX=    -5.6926   ZX=     3.8598
   XY=    -5.5065   YY=   183.6275   ZY=     1.5904
   XZ=     1.7532   YZ=     5.0787   ZZ=   188.1301
   Eigenvalues:   176.5078   189.1709   189.9206
     20  H    Isotropic =    32.0327   Anisotropy =     6.3382
   XX=    32.6999   YX=     2.4920   ZX=    -1.4450
   XY=     1.7364   YY=    34.9635   ZY=     0.7444
   XZ=    -1.6760   YZ=     0.0629   ZZ=    28.4346
   Eigenvalues:    27.7595    32.0804    36.2581
     21  H    Isotropic =    32.3232   Anisotropy =    10.3184
   XX=    35.2919   YX=    -4.8591   ZX=    -1.1374
   XY=    -5.0166   YY=    32.8283   ZY=    -0.0443
   XZ=    -0.8945   YZ=    -0.1611   ZZ=    28.8492
   Eigenvalues:    28.1738    29.5936    39.2021
     22  H    Isotropic =    31.9697   Anisotropy =     7.7035
   XX=    30.0293   YX=    -0.7575   ZX=    -0.2118
   XY=    -0.9384   YY=    28.8612   ZY=     0.6651
   XZ=     0.8101   YZ=     0.9603   ZZ=    37.0186
   Eigenvalues:    28.3307    30.4730    37.1053
     23  H    Isotropic =    31.7471   Anisotropy =     7.4361
   XX=    31.7381   YX=    -0.2499   ZX=    -2.5079
   XY=    -0.8997   YY=    28.8316   ZY=    -1.4764
   XZ=    -3.5973   YZ=    -1.4418   ZZ=    34.6715
   Eigenvalues:    27.9000    30.6367    36.7044
     24  H    Isotropic =    32.1497   Anisotropy =    10.5571
   XX=    33.7937   YX=    -4.6880   ZX=     3.3069
   XY=    -4.8637   YY=    32.2631   ZY=    -2.0498
   XZ=     2.6571   YZ=    -1.4493   ZZ=    30.3923
   Eigenvalues:    27.9145    29.3468    39.1878
     25  H    Isotropic =    31.8980   Anisotropy =     6.5688
   XX=    30.6895   YX=     2.0519   ZX=     2.5724
   XY=     1.7017   YY=    34.8348   ZY=     0.5109
   XZ=     2.5508   YZ=     1.7713   ZZ=    30.1697
   Eigenvalues:    27.8271    31.5896    36.2772
     26  H    Isotropic =    32.0212   Anisotropy =     7.6920
   XX=    33.5702   YX=     1.7191   ZX=    -3.8846
   XY=     2.1433   YY=    32.0755   ZY=    -1.8717
   XZ=    -3.2787   YZ=    -1.3867   ZZ=    30.4180
   Eigenvalues:    28.0513    30.8631    37.1492
     27  H    Isotropic =    32.0041   Anisotropy =     8.0838
   XX=    29.8971   YX=     0.8256   ZX=     3.3202
   XY=     1.0123   YY=    31.8781   ZY=     3.2510
   XZ=     2.6403   YZ=     2.5451   ZZ=    34.2372
   Eigenvalues:    28.2782    30.3409    37.3933
     28  H    Isotropic =    32.3673   Anisotropy =    10.1001
   XX=    32.7368   YX=    -4.5982   ZX=     1.0850
   XY=    -4.0892   YY=    35.8740   ZY=    -0.8930
   XZ=     1.0516   YZ=    -0.9547   ZZ=    28.4912
   Eigenvalues:    28.2344    29.7668    39.1007
     29  H    Isotropic =    30.8615   Anisotropy =     8.7885
   XX=    30.2874   YX=     3.6220   ZX=    -1.0191
   XY=     3.4395   YY=    29.7268   ZY=    -3.6481
   XZ=    -1.5732   YZ=    -3.7977   ZZ=    32.5704
   Eigenvalues:    25.8039    30.0601    36.7205
     30  H    Isotropic =    30.8322   Anisotropy =     5.5413
   XX=    28.1814   YX=    -1.7329   ZX=     0.0303
   XY=    -1.9120   YY=    32.1356   ZY=     1.9519
   XZ=    -0.4405   YZ=     2.1112   ZZ=    32.1795
   Eigenvalues:    27.3959    30.5743    34.5264
     31  H    Isotropic =    31.3791   Anisotropy =    10.5483
   XX=    32.5129   YX=    -1.2053   ZX=     4.2560
   XY=    -1.2072   YY=    27.5969   ZY=    -2.6172
   XZ=     4.2835   YZ=    -3.0293   ZZ=    34.0276
   Eigenvalues:    26.4955    29.2306    38.4113
     32  H    Isotropic =    30.0450   Anisotropy =     9.7133
   XX=    36.0729   YX=    -0.7238   ZX=     2.1510
   XY=    -0.3681   YY=    30.4736   ZY=    -1.3184
   XZ=     2.1222   YZ=    -1.1417   ZZ=    23.5886
   Eigenvalues:    23.0617    30.5528    36.5205
     33  H    Isotropic =    30.4331   Anisotropy =     4.6040
   XX=    30.6546   YX=     3.6980   ZX=    -1.5772
   XY=     3.7765   YY=    28.1545   ZY=     2.3256
   XZ=    -1.7105   YZ=     1.6534   ZZ=    32.4903
   Eigenvalues:    24.6208    33.1761    33.5025
     34  H    Isotropic =    31.0218   Anisotropy =    10.4932
   XX=    31.1715   YX=     4.2020   ZX=     0.5723
   XY=     3.6223   YY=    35.2881   ZY=     2.4570
   XZ=     0.3238   YZ=     1.7707   ZZ=    26.6058
   Eigenvalues:    26.0632    28.9850    38.0173
     35  H    Isotropic =    30.5375   Anisotropy =     7.6238
   XX=    31.2754   YX=     2.7042   ZX=    -3.1001
   XY=     3.4293   YY=    27.1323   ZY=    -0.5292
   XZ=    -2.0402   YZ=    -0.5998   ZZ=    33.2047
   Eigenvalues:    25.4306    30.5617    35.6200
     36  H    Isotropic =    31.4242   Anisotropy =    10.1142
   XX=    36.7843   YX=    -1.7694   ZX=     3.3265
   XY=    -0.6603   YY=    28.8102   ZY=    -1.7005
   XZ=     3.0226   YZ=    -1.2621   ZZ=    28.6781
   Eigenvalues:    26.9566    29.1490    38.1669
     37  C    Isotropic =   140.6539   Anisotropy =    31.4522
   XX=   143.0353   YX=     6.7495   ZX=    -3.3452
   XY=     5.0057   YY=   159.5122   ZY=    -3.2500
   XZ=    -9.4407   YZ=     0.9530   ZZ=   119.4142
   Eigenvalues:   117.7923   142.5474   161.6220
     38  C    Isotropic =    45.5397   Anisotropy =   173.7033
   XX=    93.4405   YX=    50.7492   ZX=   -81.2978
   XY=    53.3116   YY=   -22.7938   ZY=    42.3756
   XZ=   -77.3645   YZ=    39.8413   ZZ=    65.9725
   Eigenvalues:   -78.1156    53.3928   161.3419
     39  C    Isotropic =    61.8335   Anisotropy =   143.0978
   XX=   104.5720   YX=    49.3102   ZX=   -58.5463
   XY=    50.8228   YY=    -8.3295   ZY=    41.0957
   XZ=   -59.3566   YZ=    40.4377   ZZ=    89.2578
   Eigenvalues:   -53.4598    81.7281   157.2320
     40  H    Isotropic =    29.3558   Anisotropy =     2.6643
   XX=    29.2345   YX=    -0.8254   ZX=    -2.6007
   XY=     0.2475   YY=    29.3878   ZY=    -0.2098
   XZ=    -0.9222   YZ=     0.2668   ZZ=    29.4452
   Eigenvalues:    27.5552    29.3802    31.1320
     41  H    Isotropic =    29.9197   Anisotropy =     3.7351
   XX=    31.8148   YX=    -0.0423   ZX=     2.2352
   XY=    -0.1185   YY=    32.2672   ZY=    -1.0132
   XZ=     0.9913   YZ=     0.3347   ZZ=    25.6771
   Eigenvalues:    25.2652    32.0842    32.4098
     42  H    Isotropic =    25.9465   Anisotropy =     7.2982
   XX=    24.2723   YX=     2.7775   ZX=     0.3438
   XY=     3.4711   YY=    29.1179   ZY=     1.3367
   XZ=     0.5931   YZ=     0.4743   ZZ=    24.4493
   Eigenvalues:    22.7412    24.2863    30.8120
     43  H    Isotropic =    26.7215   Anisotropy =     6.6771
   XX=    25.8318   YX=     3.3106   ZX=     0.6423
   XY=     1.9861   YY=    28.3202   ZY=     1.6535
   XZ=     0.5392   YZ=     3.3620   ZZ=    26.0127
   Eigenvalues:    23.6499    25.3418    31.1729
     44  H    Isotropic =    26.7119   Anisotropy =     7.3402
   XX=    26.9580   YX=     2.5125   ZX=     0.9071
   XY=     4.2718   YY=    26.7660   ZY=     3.7903
   XZ=     1.2193   YZ=     1.4986   ZZ=    26.4116
   Eigenvalues:    22.9432    25.5871    31.6053
 End of Minotr F.D. properties file   721 does not exist.
 End of Minotr F.D. properties file   722 does not exist.
 End of Minotr F.D. properties file   788 does not exist.

 **********************************************************************

            Population analysis using the SCF density.

 **********************************************************************

 Orbital symmetries:
       Occupied  (A) (A) (A) (A) (A) (A) (A) (A) (A) (A) (A) (A)
                 (A) (A) (A) (A) (A) (A) (A) (A) (A) (A) (A) (A)
                 (A) (A) (A) (A) (A) (A) (A) (A) (A) (A) (A) (A)
                 (A) (A) (A) (A) (A) (A) (A) (A) (A) (A) (A) (A)
                 (A) (A) (A) (A) (A) (A) (A) (A) (A) (A) (A) (A)
                 (A) (A) (A) (A) (A) (A) (A) (A) (A) (A) (A) (A)
                 (A) (A)
       Virtual   (A) (A) (A) (A) (A) (A) (A) (A) (A) (A) (A) (A)
                 (A) (A) (A) (A) (A) (A) (A) (A) (A) (A) (A) (A)
                 (A) (A) (A) (A) (A) (A) (A) (A) (A) (A) (A) (A)
                 (A) (A) (A) (A) (A) (A) (A) (A) (A) (A) (A) (A)
                 (A) (A) (A) (A) (A) (A) (A) (A) (A) (A) (A) (A)
                 (A) (A) (A) (A) (A) (A) (A) (A) (A) (A) (A) (A)
                 (A) (A) (A) (A) (A) (A) (A) (A) (A) (A) (A) (A)
                 (A) (A) (A) (A) (A) (A) (A) (A) (A) (A) (A) (A)
                 (A) (A) (A) (A) (A) (A) (A) (A) (A) (A) (A) (A)
                 (A) (A) (A) (A) (A) (A) (A) (A) (A) (A) (A) (A)
                 (A) (A) (A) (A) (A) (A) (A) (A) (A) (A) (A) (A)
                 (A) (A) (A) (A) (A) (A) (A) (A) (A) (A) (A) (A)
                 (A) (A) (A) (A) (A) (A) (A) (A) (A) (A) (A) (A)
                 (A) (A) (A) (A) (A) (A) (A) (A) (A) (A) (A) (A)
                 (A) (A) (A) (A) (A) (A) (A) (A) (A) (A) (A) (A)
                 (A) (A) (A) (A) (A) (A) (A) (A) (A) (A) (A) (A)
                 (A) (A) (A) (A) (A) (A) (A) (A) (A) (A) (A) (A)
                 (A) (A) (A) (A) (A) (A) (A) (A) (A) (A) (A) (A)
                 (A) (A) (A) (A) (A) (A) (A) (A) (A) (A) (A) (A)
                 (A) (A) (A) (A) (A) (A) (A) (A) (A) (A) (A) (A)
                 (A) (A) (A) (A) (A) (A) (A) (A) (A) (A) (A) (A)
                 (A) (A) (A) (A) (A) (A) (A) (A) (A) (A) (A) (A)
                 (A) (A) (A) (A) (A) (A) (A) (A) (A) (A) (A) (A)
                 (A) (A) (A) (A) (A) (A) (A) (A) (A) (A) (A) (A)
                 (A) (A) (A) (A) (A) (A) (A) (A) (A) (A) (A) (A)
                 (A) (A) (A) (A) (A) (A) (A) (A) (A) (A) (A) (A)
                 (A) (A) (A) (A) (A) (A) (A) (A) (A) (A) (A) (A)
                 (A) (A) (A) (A) (A) (A) (A) (A) (A) (A) (A) (A)
 The electronic state is 1-A.
 Alpha  occ. eigenvalues --  -66.26994 -19.25472 -19.21448 -19.20077 -10.36930
 Alpha  occ. eigenvalues --  -10.32161 -10.30222 -10.25219 -10.24924 -10.24767
 Alpha  occ. eigenvalues --  -10.24712 -10.23520 -10.22734 -10.22720 -10.21447
 Alpha  occ. eigenvalues --  -10.20766 -10.20488 -10.20447  -5.32822  -3.66674
 Alpha  occ. eigenvalues --   -3.66433  -3.66401  -1.13028  -1.04757  -1.04355
 Alpha  occ. eigenvalues --   -0.85742  -0.82986  -0.80632  -0.77708  -0.73867
 Alpha  occ. eigenvalues --   -0.73118  -0.71839  -0.70257  -0.69853  -0.66276
 Alpha  occ. eigenvalues --   -0.63563  -0.62282  -0.58291  -0.56087  -0.53498
 Alpha  occ. eigenvalues --   -0.51650  -0.50443  -0.49086  -0.48630  -0.47763
 Alpha  occ. eigenvalues --   -0.46251  -0.45368  -0.44935  -0.44254  -0.43276
 Alpha  occ. eigenvalues --   -0.42827  -0.42540  -0.42264  -0.41648  -0.41091
 Alpha  occ. eigenvalues --   -0.40985  -0.40322  -0.39787  -0.39529  -0.38811
 Alpha  occ. eigenvalues --   -0.38741  -0.37950  -0.37177  -0.36497  -0.35743
 Alpha  occ. eigenvalues --   -0.35256  -0.34198  -0.33395  -0.31652  -0.30531
 Alpha  occ. eigenvalues --   -0.29936  -0.29341  -0.28956  -0.27240
 Alpha virt. eigenvalues --   -0.00630   0.00590   0.04066   0.05035   0.06054
 Alpha virt. eigenvalues --    0.06960   0.07135   0.07955   0.08871   0.09374
 Alpha virt. eigenvalues --    0.09532   0.09777   0.10619   0.11425   0.11911
 Alpha virt. eigenvalues --    0.12332   0.12896   0.13314   0.13626   0.13771
 Alpha virt. eigenvalues --    0.14186   0.14699   0.14894   0.15199   0.15451
 Alpha virt. eigenvalues --    0.16211   0.16427   0.16989   0.17495   0.18151
 Alpha virt. eigenvalues --    0.18333   0.19218   0.20171   0.21012   0.21601
 Alpha virt. eigenvalues --    0.22276   0.22980   0.23294   0.24005   0.25433
 Alpha virt. eigenvalues --    0.25667   0.25855   0.26470   0.26659   0.28112
 Alpha virt. eigenvalues --    0.29284   0.30373   0.31205   0.31658   0.31855
 Alpha virt. eigenvalues --    0.33237   0.33780   0.35140   0.36046   0.36839
 Alpha virt. eigenvalues --    0.36948   0.37676   0.38891   0.39239   0.39977
 Alpha virt. eigenvalues --    0.41165   0.42505   0.42702   0.44303   0.45259
 Alpha virt. eigenvalues --    0.45607   0.46339   0.46859   0.47540   0.49406
 Alpha virt. eigenvalues --    0.50335   0.51058   0.51481   0.52228   0.52998
 Alpha virt. eigenvalues --    0.53692   0.54510   0.55127   0.55323   0.55892
 Alpha virt. eigenvalues --    0.56626   0.56816   0.57748   0.58582   0.59273
 Alpha virt. eigenvalues --    0.59444   0.60065   0.60440   0.60895   0.61267
 Alpha virt. eigenvalues --    0.61616   0.61952   0.62068   0.62884   0.63321
 Alpha virt. eigenvalues --    0.63841   0.64383   0.65066   0.65239   0.65754
 Alpha virt. eigenvalues --    0.66487   0.67138   0.67475   0.67687   0.68715
 Alpha virt. eigenvalues --    0.68783   0.69060   0.70263   0.71313   0.72007
 Alpha virt. eigenvalues --    0.72406   0.73139   0.74020   0.74557   0.74937
 Alpha virt. eigenvalues --    0.75953   0.77624   0.78807   0.81127   0.81631
 Alpha virt. eigenvalues --    0.83865   0.84671   0.85325   0.86578   0.89024
 Alpha virt. eigenvalues --    0.89492   0.90936   0.91478   0.93263   0.93918
 Alpha virt. eigenvalues --    0.94983   0.96272   0.97731   0.98274   1.00620
 Alpha virt. eigenvalues --    1.02972   1.04849   1.06703   1.08147   1.08732
 Alpha virt. eigenvalues --    1.09057   1.12969   1.15209   1.17703   1.20392
 Alpha virt. eigenvalues --    1.20755   1.22900   1.25939   1.26782   1.28059
 Alpha virt. eigenvalues --    1.28606   1.30215   1.31126   1.31714   1.34712
 Alpha virt. eigenvalues --    1.35300   1.37060   1.39597   1.40981   1.42398
 Alpha virt. eigenvalues --    1.43980   1.44300   1.45566   1.47625   1.48983
 Alpha virt. eigenvalues --    1.50037   1.51083   1.52570   1.53302   1.54371
 Alpha virt. eigenvalues --    1.54795   1.54952   1.56781   1.58246   1.58787
 Alpha virt. eigenvalues --    1.59453   1.60203   1.60662   1.61140   1.61880
 Alpha virt. eigenvalues --    1.62075   1.62420   1.63297   1.63466   1.64610
 Alpha virt. eigenvalues --    1.64853   1.66522   1.67942   1.68554   1.69044
 Alpha virt. eigenvalues --    1.69213   1.71319   1.71972   1.73113   1.73369
 Alpha virt. eigenvalues --    1.75393   1.76154   1.77911   1.80800   1.81407
 Alpha virt. eigenvalues --    1.81897   1.82670   1.84949   1.85835   1.87557
 Alpha virt. eigenvalues --    1.88663   1.90650   1.93222   1.95538   1.95746
 Alpha virt. eigenvalues --    1.97519   2.02176   2.06336   2.09625   2.14101
 Alpha virt. eigenvalues --    2.16621   2.17841   2.19960   2.21265   2.24082
 Alpha virt. eigenvalues --    2.26262   2.30997   2.34643   2.36510   2.40891
 Alpha virt. eigenvalues --    2.41700   2.42501   2.42677   2.43000   2.43811
 Alpha virt. eigenvalues --    2.44558   2.44771   2.46576   2.47429   2.47745
 Alpha virt. eigenvalues --    2.48586   2.49017   2.49795   2.51240   2.53714
 Alpha virt. eigenvalues --    2.54560   2.55784   2.56310   2.57375   2.58180
 Alpha virt. eigenvalues --    2.60964   2.63672   2.69094   2.71090   2.79962
 Alpha virt. eigenvalues --    2.85140   2.87168   2.88209   2.88898   2.89504
 Alpha virt. eigenvalues --    2.91731   2.92519   2.94060   2.95457   2.98809
 Alpha virt. eigenvalues --    3.00315   3.02261   3.04608   3.05893   3.06428
 Alpha virt. eigenvalues --    3.10056   3.12096   3.13433   3.14882   3.15284
 Alpha virt. eigenvalues --    3.16569   3.18734   3.19062   3.20435   3.22076
 Alpha virt. eigenvalues --    3.22934   3.23101   3.24160   3.24820   3.25305
 Alpha virt. eigenvalues --    3.26793   3.28223   3.29181   3.30093   3.33192
 Alpha virt. eigenvalues --    3.33882   3.34188   3.36607   3.38491   3.41387
 Alpha virt. eigenvalues --    3.44180   3.53060   3.55324   3.58802   3.61687
 Alpha virt. eigenvalues --    3.78189   3.89167   3.90971   3.97028   4.00566
 Alpha virt. eigenvalues --    4.12272   4.13713   4.16374   4.19616   4.21119
 Alpha virt. eigenvalues --    4.95722   5.01043   5.03700   5.10514   5.19186
 Alpha virt. eigenvalues --    5.25434   5.50992   5.54232   5.77661   5.84371
 Alpha virt. eigenvalues --   11.53934  11.54756  11.59020  23.41065  23.49351
 Alpha virt. eigenvalues --   23.54531  23.55304  23.58404  23.60493  23.71781
 Alpha virt. eigenvalues --   23.74766  23.77497  23.80140  23.83855  23.84619
 Alpha virt. eigenvalues --   23.89809  24.26609  49.98353  50.06261  50.11648
 Alpha virt. eigenvalues --  141.30071
          Condensed to atoms (all electrons):
               1          2          3          4          5          6
     1  C    5.127769   0.348085  -0.050103  -0.011371  -0.050027   0.403479
     2  C    0.348085   5.526346   0.255335  -0.105610  -0.022028  -0.044686
     3  C   -0.050103   0.255335   5.244324   0.239047  -0.019481   0.009162
     4  C   -0.011371  -0.105610   0.239047   5.782164   0.263563  -0.002359
     5  C   -0.050027  -0.022028  -0.019481   0.263563   4.420304   0.003311
     6  H    0.403479  -0.044686   0.009162  -0.002359   0.003311   0.475000
     7  H   -0.054119   0.407829  -0.048653   0.004228  -0.000511  -0.011012
     8  H   -0.000809   0.007060  -0.027364   0.365730  -0.033006   0.000093
     9  H    0.000484  -0.000348  -0.027736   0.359899  -0.026317  -0.000084
    10  O    0.225933  -0.035821   0.004069  -0.103421   0.324075  -0.024319
    11  O    0.001265   0.000326   0.002231  -0.095581   0.652525  -0.000299
    12  C    0.309905  -0.066385  -0.016886   0.003280  -0.008145  -0.056546
    13  C   -0.079939   0.008399  -0.000237   0.000213  -0.000201  -0.007223
    14  C   -0.059123   0.291760  -0.072212   0.007898  -0.000196  -0.002474
    15  O   -0.000038  -0.071069   0.214794  -0.057461   0.007202  -0.000367
    16  Si  -0.000122   0.004644  -0.049713  -0.016440   0.001025  -0.000077
    17  C   -0.000030   0.000040   0.002476  -0.000310  -0.000039   0.000000
    18  C    0.000025  -0.000254  -0.000419  -0.000371   0.000015   0.000000
    19  C   -0.000032  -0.000274  -0.000855  -0.001271   0.000156  -0.000001
    20  H    0.000001  -0.000006   0.000161  -0.000063   0.000002   0.000000
    21  H   -0.000001   0.000011  -0.000064   0.000007   0.000000   0.000000
    22  H    0.000005   0.000059   0.000545  -0.000038   0.000003   0.000000
    23  H   -0.000017  -0.000090  -0.000099  -0.002504   0.000956   0.000001
    24  H    0.000000   0.000009  -0.000043   0.000370  -0.000037   0.000000
    25  H   -0.000004  -0.000042   0.000478  -0.000113   0.000025   0.000000
    26  H   -0.000032  -0.000004   0.000001   0.000039   0.000035   0.000002
    27  H   -0.000013   0.000048  -0.000115  -0.000027   0.000000   0.000002
    28  H   -0.000001   0.000001  -0.000061   0.000000  -0.000002   0.000000
    29  H    0.005779  -0.029716  -0.007029  -0.000222  -0.000052  -0.000320
    30  H   -0.006314  -0.036953  -0.006429   0.000495  -0.000015  -0.000584
    31  H   -0.002663  -0.044629   0.007740  -0.000399   0.000052   0.004634
    32  H   -0.030358  -0.005133   0.003051  -0.002059   0.004135   0.006194
    33  H   -0.033660  -0.006578   0.001034  -0.000279   0.000315   0.000558
    34  H    0.008012  -0.000256  -0.000001   0.000007  -0.000061  -0.000104
    35  H   -0.010730   0.000320  -0.000085   0.000653   0.002046  -0.000650
    36  H   -0.004411  -0.000200   0.000042  -0.000029   0.000002   0.006533
    37  C    0.007418  -0.084504   0.327884  -0.081707   0.004048  -0.000219
    38  C    0.000093  -0.007355  -0.052297  -0.005648  -0.000088  -0.000022
    39  C   -0.000019  -0.000087  -0.003292  -0.000990   0.000011   0.000000
    40  H   -0.000144  -0.010017  -0.043192   0.006858  -0.000131  -0.000014
    41  H   -0.000145   0.006725  -0.031236  -0.008321   0.000148   0.000012
    42  H    0.000336   0.001408  -0.002766   0.000118   0.000016   0.000024
    43  H   -0.000003   0.000026  -0.000185   0.000021  -0.000001   0.000000
    44  H    0.000001   0.000061  -0.000346   0.000306  -0.000001   0.000000
               7          8          9         10         11         12
     1  C   -0.054119  -0.000809   0.000484   0.225933   0.001265   0.309905
     2  C    0.407829   0.007060  -0.000348  -0.035821   0.000326  -0.066385
     3  C   -0.048653  -0.027364  -0.027736   0.004069   0.002231  -0.016886
     4  C    0.004228   0.365730   0.359899  -0.103421  -0.095581   0.003280
     5  C   -0.000511  -0.033006  -0.026317   0.324075   0.652525  -0.008145
     6  H   -0.011012   0.000093  -0.000084  -0.024319  -0.000299  -0.056546
     7  H    0.477228   0.000145   0.001224   0.003229   0.000021   0.009573
     8  H    0.000145   0.425171  -0.016863   0.005283   0.011172   0.000039
     9  H    0.001224  -0.016863   0.415273   0.000899   0.000051   0.000113
    10  O    0.003229   0.005283   0.000899   8.041511  -0.067635  -0.058432
    11  O    0.000021   0.011172   0.000051  -0.067635   7.874568   0.000359
    12  C    0.009573   0.000039   0.000113  -0.058432   0.000359   5.385749
    13  C   -0.000341  -0.000002  -0.000011  -0.001374  -0.000092   0.301247
    14  C   -0.037164  -0.000109  -0.000121   0.003469   0.000006  -0.003110
    15  O    0.004130  -0.002869   0.003656  -0.000877  -0.000038  -0.001877
    16  Si  -0.000013  -0.004148   0.002544  -0.000890   0.001866  -0.000867
    17  C    0.000002  -0.000026  -0.000004   0.000005  -0.000017   0.000290
    18  C    0.000003  -0.000112   0.000020   0.000000   0.000000  -0.000027
    19  C    0.000011  -0.003336  -0.000122   0.000001  -0.000711   0.000024
    20  H    0.000002  -0.000024   0.000013   0.000000   0.000000  -0.000001
    21  H    0.000000   0.000008   0.000000   0.000000   0.000000   0.000001
    22  H    0.000002  -0.000007   0.000004   0.000000   0.000000  -0.000005
    23  H    0.000003   0.001708   0.000073   0.000053   0.003242   0.000003
    24  H    0.000000   0.000583  -0.000008   0.000000  -0.000009   0.000000
    25  H    0.000004   0.000253  -0.000172  -0.000005  -0.000163   0.000000
    26  H    0.000000  -0.000015  -0.000002   0.000005  -0.000019   0.000278
    27  H   -0.000001  -0.000006   0.000001   0.000001   0.000000   0.000224
    28  H    0.000000   0.000006   0.000000   0.000000   0.000000   0.000009
    29  H   -0.006797  -0.000013  -0.000022  -0.000121   0.000000   0.000392
    30  H    0.006386  -0.000007  -0.000022  -0.000056   0.000000   0.002173
    31  H   -0.003684   0.000017  -0.000016   0.000085   0.000000  -0.002644
    32  H   -0.000328   0.000112   0.000024  -0.001201  -0.000145   0.384417
    33  H   -0.000324  -0.000014   0.000000   0.003754  -0.000027   0.385700
    34  H    0.000021   0.000000   0.000000  -0.000077  -0.000003  -0.038153
    35  H   -0.000029  -0.000030  -0.000005   0.010076   0.001223  -0.037348
    36  H   -0.000059   0.000000   0.000000  -0.000222  -0.000014  -0.042435
    37  C   -0.008898  -0.007674  -0.007855  -0.000450  -0.000220  -0.000419
    38  C    0.006013   0.000196   0.005872  -0.000073   0.000004  -0.000016
    39  C    0.000887   0.000486   0.003434   0.000002   0.000001   0.000000
    40  H    0.000764   0.000148   0.000354   0.000008   0.000003   0.000021
    41  H   -0.000219   0.001211  -0.000632   0.000002  -0.000025  -0.000010
    42  H   -0.000778  -0.000018  -0.000262  -0.000027   0.000001  -0.000016
    43  H   -0.000009   0.000012   0.000063   0.000000   0.000000   0.000000
    44  H   -0.000006   0.000091  -0.000051   0.000000   0.000000   0.000000
              13         14         15         16         17         18
     1  C   -0.079939  -0.059123  -0.000038  -0.000122  -0.000030   0.000025
     2  C    0.008399   0.291760  -0.071069   0.004644   0.000040  -0.000254
     3  C   -0.000237  -0.072212   0.214794  -0.049713   0.002476  -0.000419
     4  C    0.000213   0.007898  -0.057461  -0.016440  -0.000310  -0.000371
     5  C   -0.000201  -0.000196   0.007202   0.001025  -0.000039   0.000015
     6  H   -0.007223  -0.002474  -0.000367  -0.000077   0.000000   0.000000
     7  H   -0.000341  -0.037164   0.004130  -0.000013   0.000002   0.000003
     8  H   -0.000002  -0.000109  -0.002869  -0.004148  -0.000026  -0.000112
     9  H   -0.000011  -0.000121   0.003656   0.002544  -0.000004   0.000020
    10  O   -0.001374   0.003469  -0.000877  -0.000890   0.000005   0.000000
    11  O   -0.000092   0.000006  -0.000038   0.001866  -0.000017   0.000000
    12  C    0.301247  -0.003110  -0.001877  -0.000867   0.000290  -0.000027
    13  C    5.368420  -0.000509   0.000526   0.000557  -0.000011   0.000000
    14  C   -0.000509   5.402365  -0.000779   0.000197  -0.000011   0.000062
    15  O    0.000526  -0.000779   8.284423   0.341929  -0.021857  -0.024157
    16  Si   0.000557   0.000197   0.341929  11.512397   0.335279   0.323231
    17  C   -0.000011  -0.000011  -0.021857   0.335279   5.727292  -0.054285
    18  C    0.000000   0.000062  -0.024157   0.323231  -0.054285   5.770775
    19  C    0.000001   0.000008  -0.021085   0.316304  -0.049931  -0.058374
    20  H    0.000000  -0.000006  -0.001254  -0.030646   0.002859   0.371115
    21  H    0.000000  -0.000001   0.001000  -0.013319  -0.000371   0.364986
    22  H    0.000000   0.000097  -0.002071  -0.025597  -0.000591   0.370187
    23  H    0.000000   0.000003  -0.001617  -0.025404  -0.000597   0.002424
    24  H    0.000000   0.000000   0.000767  -0.009879  -0.000762   0.000003
    25  H    0.000000   0.000002  -0.000937  -0.031305   0.003097  -0.001598
    26  H    0.000007   0.000002  -0.001422  -0.026670   0.368445   0.002521
    27  H   -0.000018  -0.000005  -0.001082  -0.025437   0.368517  -0.000633
    28  H    0.000000   0.000000   0.000889  -0.013352   0.364147   0.000547
    29  H    0.000012   0.383678  -0.000063  -0.000333  -0.000001   0.000048
    30  H    0.000232   0.385604   0.006330   0.000651  -0.000012   0.000209
    31  H   -0.000252   0.393066  -0.000010   0.000079   0.000000  -0.000004
    32  H   -0.050360   0.000224   0.003018  -0.000917  -0.000720   0.000015
    33  H   -0.041011   0.000779  -0.000506  -0.000475   0.000094  -0.000004
    34  H    0.393060   0.000006  -0.000011  -0.000008   0.000013   0.000000
    35  H    0.385888  -0.000074  -0.000011   0.000026   0.000000   0.000000
    36  H    0.382417   0.000029  -0.000025  -0.000038   0.000000   0.000000
    37  C    0.000016  -0.004441  -0.036253  -0.005390  -0.000065  -0.002319
    38  C    0.000000  -0.001341   0.003773   0.002002   0.000003   0.000228
    39  C    0.000000   0.000056  -0.000052  -0.000348   0.000000  -0.000001
    40  H    0.000000   0.001516   0.000082  -0.002821  -0.000049  -0.001986
    41  H    0.000000   0.000124  -0.002021   0.007096   0.000036  -0.000601
    42  H    0.000000   0.000598  -0.000054  -0.000029   0.000000  -0.000013
    43  H    0.000000   0.000007   0.000004   0.000027   0.000000   0.000000
    44  H    0.000000  -0.000010  -0.000013  -0.000161   0.000000  -0.000012
              19         20         21         22         23         24
     1  C   -0.000032   0.000001  -0.000001   0.000005  -0.000017   0.000000
     2  C   -0.000274  -0.000006   0.000011   0.000059  -0.000090   0.000009
     3  C   -0.000855   0.000161  -0.000064   0.000545  -0.000099  -0.000043
     4  C   -0.001271  -0.000063   0.000007  -0.000038  -0.002504   0.000370
     5  C    0.000156   0.000002   0.000000   0.000003   0.000956  -0.000037
     6  H   -0.000001   0.000000   0.000000   0.000000   0.000001   0.000000
     7  H    0.000011   0.000002   0.000000   0.000002   0.000003   0.000000
     8  H   -0.003336  -0.000024   0.000008  -0.000007   0.001708   0.000583
     9  H   -0.000122   0.000013   0.000000   0.000004   0.000073  -0.000008
    10  O    0.000001   0.000000   0.000000   0.000000   0.000053   0.000000
    11  O   -0.000711   0.000000   0.000000   0.000000   0.003242  -0.000009
    12  C    0.000024  -0.000001   0.000001  -0.000005   0.000003   0.000000
    13  C    0.000001   0.000000   0.000000   0.000000   0.000000   0.000000
    14  C    0.000008  -0.000006  -0.000001   0.000097   0.000003   0.000000
    15  O   -0.021085  -0.001254   0.001000  -0.002071  -0.001617   0.000767
    16  Si   0.316304  -0.030646  -0.013319  -0.025597  -0.025404  -0.009879
    17  C   -0.049931   0.002859  -0.000371  -0.000591  -0.000597  -0.000762
    18  C   -0.058374   0.371115   0.364986   0.370187   0.002424   0.000003
    19  C    5.808748  -0.001741   0.000778   0.002359   0.365669   0.366616
    20  H   -0.001741   0.457528  -0.022579  -0.018741  -0.000013   0.000086
    21  H    0.000778  -0.022579   0.452643  -0.020662  -0.000024   0.000484
    22  H    0.002359  -0.018741  -0.020662   0.452995  -0.000093  -0.000035
    23  H    0.365669  -0.000013  -0.000024  -0.000093   0.442465  -0.020054
    24  H    0.366616   0.000086   0.000484  -0.000035  -0.020054   0.434503
    25  H    0.366460   0.000793   0.000054  -0.000032  -0.019998  -0.019799
    26  H   -0.000431  -0.000118   0.000008  -0.000086   0.001256  -0.000092
    27  H    0.002609  -0.000089  -0.000069   0.001209  -0.000059  -0.000050
    28  H   -0.000260  -0.000104   0.000639  -0.000023  -0.000048   0.000448
    29  H    0.000002  -0.000006  -0.000002   0.000030   0.000000   0.000000
    30  H    0.000019  -0.000007  -0.000003   0.000359   0.000000   0.000000
    31  H    0.000000  -0.000001   0.000000  -0.000005   0.000000   0.000000
    32  H   -0.000157  -0.000002   0.000000   0.000002   0.000012   0.000003
    33  H    0.000001  -0.000001  -0.000001  -0.000008  -0.000002   0.000000
    34  H    0.000000   0.000000   0.000000   0.000000   0.000000   0.000000
    35  H    0.000000   0.000000   0.000000   0.000000  -0.000003   0.000000
    36  H    0.000000   0.000000   0.000000   0.000000   0.000000   0.000000
    37  C   -0.003040   0.000478   0.000173  -0.000262   0.000175   0.000036
    38  C    0.000051   0.000209  -0.000003  -0.000063   0.000002   0.000000
    39  C   -0.000026   0.000031   0.000000   0.000002  -0.000002   0.000000
    40  H    0.000223  -0.000393   0.000277   0.000095   0.000004  -0.000005
    41  H    0.002227   0.001666  -0.000028  -0.000011  -0.000306   0.000015
    42  H   -0.000004  -0.000007   0.000000  -0.000001   0.000001   0.000000
    43  H   -0.000001  -0.000001   0.000000   0.000000   0.000000   0.000000
    44  H   -0.000019  -0.000008   0.000001   0.000000   0.000002   0.000001
              25         26         27         28         29         30
     1  C   -0.000004  -0.000032  -0.000013  -0.000001   0.005779  -0.006314
     2  C   -0.000042  -0.000004   0.000048   0.000001  -0.029716  -0.036953
     3  C    0.000478   0.000001  -0.000115  -0.000061  -0.007029  -0.006429
     4  C   -0.000113   0.000039  -0.000027   0.000000  -0.000222   0.000495
     5  C    0.000025   0.000035   0.000000  -0.000002  -0.000052  -0.000015
     6  H    0.000000   0.000002   0.000002   0.000000  -0.000320  -0.000584
     7  H    0.000004   0.000000  -0.000001   0.000000  -0.006797   0.006386
     8  H    0.000253  -0.000015  -0.000006   0.000006  -0.000013  -0.000007
     9  H   -0.000172  -0.000002   0.000001   0.000000  -0.000022  -0.000022
    10  O   -0.000005   0.000005   0.000001   0.000000  -0.000121  -0.000056
    11  O   -0.000163  -0.000019   0.000000   0.000000   0.000000   0.000000
    12  C    0.000000   0.000278   0.000224   0.000009   0.000392   0.002173
    13  C    0.000000   0.000007  -0.000018   0.000000   0.000012   0.000232
    14  C    0.000002   0.000002  -0.000005   0.000000   0.383678   0.385604
    15  O   -0.000937  -0.001422  -0.001082   0.000889  -0.000063   0.006330
    16  Si  -0.031305  -0.026670  -0.025437  -0.013352  -0.000333   0.000651
    17  C    0.003097   0.368445   0.368517   0.364147  -0.000001  -0.000012
    18  C   -0.001598   0.002521  -0.000633   0.000547   0.000048   0.000209
    19  C    0.366460  -0.000431   0.002609  -0.000260   0.000002   0.000019
    20  H    0.000793  -0.000118  -0.000089  -0.000104  -0.000006  -0.000007
    21  H    0.000054   0.000008  -0.000069   0.000639  -0.000002  -0.000003
    22  H   -0.000032  -0.000086   0.001209  -0.000023   0.000030   0.000359
    23  H   -0.019998   0.001256  -0.000059  -0.000048   0.000000   0.000000
    24  H   -0.019799  -0.000092  -0.000050   0.000448   0.000000   0.000000
    25  H    0.451974  -0.000097  -0.000107  -0.000102  -0.000001   0.000002
    26  H   -0.000097   0.454206  -0.018248  -0.020574   0.000000  -0.000004
    27  H   -0.000107  -0.018248   0.457698  -0.020349  -0.000002   0.000021
    28  H   -0.000102  -0.020574  -0.020349   0.452333   0.000000  -0.000003
    29  H   -0.000001   0.000000  -0.000002   0.000000   0.459855  -0.025890
    30  H    0.000002  -0.000004   0.000021  -0.000003  -0.025890   0.446621
    31  H    0.000000   0.000000   0.000001   0.000000  -0.025960  -0.025765
    32  H   -0.000010   0.000778  -0.000108   0.000138  -0.000098  -0.000065
    33  H    0.000000  -0.000009   0.000086  -0.000004   0.000540  -0.000823
    34  H    0.000000   0.000022   0.000011  -0.000001  -0.000001   0.000013
    35  H    0.000000   0.000004  -0.000001   0.000000   0.000005  -0.000016
    36  H    0.000000   0.000000   0.000001   0.000000  -0.000007   0.000007
    37  C    0.000276  -0.000006  -0.000027   0.000003   0.002969  -0.000722
    38  C    0.000100   0.000001   0.000000   0.000000  -0.000073   0.000205
    39  C    0.000051   0.000000   0.000000   0.000000   0.000077  -0.000001
    40  H    0.000014  -0.000003  -0.000014   0.000001  -0.000408   0.000305
    41  H    0.005047   0.000002   0.000005   0.000006   0.000339  -0.000113
    42  H    0.000002   0.000000   0.000000   0.000000   0.002765  -0.000075
    43  H   -0.000004   0.000000   0.000000   0.000000  -0.000011   0.000000
    44  H    0.000128   0.000000   0.000000   0.000000   0.000005   0.000000
              31         32         33         34         35         36
     1  C   -0.002663  -0.030358  -0.033660   0.008012  -0.010730  -0.004411
     2  C   -0.044629  -0.005133  -0.006578  -0.000256   0.000320  -0.000200
     3  C    0.007740   0.003051   0.001034  -0.000001  -0.000085   0.000042
     4  C   -0.000399  -0.002059  -0.000279   0.000007   0.000653  -0.000029
     5  C    0.000052   0.004135   0.000315  -0.000061   0.002046   0.000002
     6  H    0.004634   0.006194   0.000558  -0.000104  -0.000650   0.006533
     7  H   -0.003684  -0.000328  -0.000324   0.000021  -0.000029  -0.000059
     8  H    0.000017   0.000112  -0.000014   0.000000  -0.000030   0.000000
     9  H   -0.000016   0.000024   0.000000   0.000000  -0.000005   0.000000
    10  O    0.000085  -0.001201   0.003754  -0.000077   0.010076  -0.000222
    11  O    0.000000  -0.000145  -0.000027  -0.000003   0.001223  -0.000014
    12  C   -0.002644   0.384417   0.385700  -0.038153  -0.037348  -0.042435
    13  C   -0.000252  -0.050360  -0.041011   0.393060   0.385888   0.382417
    14  C    0.393066   0.000224   0.000779   0.000006  -0.000074   0.000029
    15  O   -0.000010   0.003018  -0.000506  -0.000011  -0.000011  -0.000025
    16  Si   0.000079  -0.000917  -0.000475  -0.000008   0.000026  -0.000038
    17  C    0.000000  -0.000720   0.000094   0.000013   0.000000   0.000000
    18  C   -0.000004   0.000015  -0.000004   0.000000   0.000000   0.000000
    19  C    0.000000  -0.000157   0.000001   0.000000   0.000000   0.000000
    20  H   -0.000001  -0.000002  -0.000001   0.000000   0.000000   0.000000
    21  H    0.000000   0.000000  -0.000001   0.000000   0.000000   0.000000
    22  H   -0.000005   0.000002  -0.000008   0.000000   0.000000   0.000000
    23  H    0.000000   0.000012  -0.000002   0.000000  -0.000003   0.000000
    24  H    0.000000   0.000003   0.000000   0.000000   0.000000   0.000000
    25  H    0.000000  -0.000010   0.000000   0.000000   0.000000   0.000000
    26  H    0.000000   0.000778  -0.000009   0.000022   0.000004   0.000000
    27  H    0.000001  -0.000108   0.000086   0.000011  -0.000001   0.000001
    28  H    0.000000   0.000138  -0.000004  -0.000001   0.000000   0.000000
    29  H   -0.025960  -0.000098   0.000540  -0.000001   0.000005  -0.000007
    30  H   -0.025765  -0.000065  -0.000823   0.000013  -0.000016   0.000007
    31  H    0.462609   0.000153   0.000257   0.000006  -0.000020   0.000061
    32  H    0.000153   0.453116  -0.023434  -0.004758  -0.005921   0.007873
    33  H    0.000257  -0.023434   0.480922  -0.004823   0.007245  -0.004632
    34  H    0.000006  -0.004758  -0.004823   0.476498  -0.025880  -0.027733
    35  H   -0.000020  -0.005921   0.007245  -0.025880   0.467617  -0.028716
    36  H    0.000061   0.007873  -0.004632  -0.027733  -0.028716   0.496252
    37  C   -0.000211   0.000016   0.000011  -0.000001   0.000004  -0.000001
    38  C   -0.000004  -0.000010  -0.000002   0.000000   0.000000   0.000000
    39  C    0.000002   0.000000   0.000000   0.000000   0.000000   0.000000
    40  H    0.000147  -0.000003  -0.000018   0.000000   0.000000   0.000000
    41  H    0.000005  -0.000001   0.000003   0.000000   0.000000   0.000000
    42  H    0.000022   0.000000   0.000004   0.000000   0.000000   0.000000
    43  H    0.000000   0.000000   0.000000   0.000000   0.000000   0.000000
    44  H    0.000000   0.000000   0.000000   0.000000   0.000000   0.000000
              37         38         39         40         41         42
     1  C    0.007418   0.000093  -0.000019  -0.000144  -0.000145   0.000336
     2  C   -0.084504  -0.007355  -0.000087  -0.010017   0.006725   0.001408
     3  C    0.327884  -0.052297  -0.003292  -0.043192  -0.031236  -0.002766
     4  C   -0.081707  -0.005648  -0.000990   0.006858  -0.008321   0.000118
     5  C    0.004048  -0.000088   0.000011  -0.000131   0.000148   0.000016
     6  H   -0.000219  -0.000022   0.000000  -0.000014   0.000012   0.000024
     7  H   -0.008898   0.006013   0.000887   0.000764  -0.000219  -0.000778
     8  H   -0.007674   0.000196   0.000486   0.000148   0.001211  -0.000018
     9  H   -0.007855   0.005872   0.003434   0.000354  -0.000632  -0.000262
    10  O   -0.000450  -0.000073   0.000002   0.000008   0.000002  -0.000027
    11  O   -0.000220   0.000004   0.000001   0.000003  -0.000025   0.000001
    12  C   -0.000419  -0.000016   0.000000   0.000021  -0.000010  -0.000016
    13  C    0.000016   0.000000   0.000000   0.000000   0.000000   0.000000
    14  C   -0.004441  -0.001341   0.000056   0.001516   0.000124   0.000598
    15  O   -0.036253   0.003773  -0.000052   0.000082  -0.002021  -0.000054
    16  Si  -0.005390   0.002002  -0.000348  -0.002821   0.007096  -0.000029
    17  C   -0.000065   0.000003   0.000000  -0.000049   0.000036   0.000000
    18  C   -0.002319   0.000228  -0.000001  -0.001986  -0.000601  -0.000013
    19  C   -0.003040   0.000051  -0.000026   0.000223   0.002227  -0.000004
    20  H    0.000478   0.000209   0.000031  -0.000393   0.001666  -0.000007
    21  H    0.000173  -0.000003   0.000000   0.000277  -0.000028   0.000000
    22  H   -0.000262  -0.000063   0.000002   0.000095  -0.000011  -0.000001
    23  H    0.000175   0.000002  -0.000002   0.000004  -0.000306   0.000001
    24  H    0.000036   0.000000   0.000000  -0.000005   0.000015   0.000000
    25  H    0.000276   0.000100   0.000051   0.000014   0.005047   0.000002
    26  H   -0.000006   0.000001   0.000000  -0.000003   0.000002   0.000000
    27  H   -0.000027   0.000000   0.000000  -0.000014   0.000005   0.000000
    28  H    0.000003   0.000000   0.000000   0.000001   0.000006   0.000000
    29  H    0.002969  -0.000073   0.000077  -0.000408   0.000339   0.002765
    30  H   -0.000722   0.000205  -0.000001   0.000305  -0.000113  -0.000075
    31  H   -0.000211  -0.000004   0.000002   0.000147   0.000005   0.000022
    32  H    0.000016  -0.000010   0.000000  -0.000003  -0.000001   0.000000
    33  H    0.000011  -0.000002   0.000000  -0.000018   0.000003   0.000004
    34  H   -0.000001   0.000000   0.000000   0.000000   0.000000   0.000000
    35  H    0.000004   0.000000   0.000000   0.000000   0.000000   0.000000
    36  H   -0.000001   0.000000   0.000000   0.000000   0.000000   0.000000
    37  C    5.476614   0.307164  -0.053021   0.402049   0.389814  -0.048596
    38  C    0.307164   5.064902   0.629199  -0.039268  -0.047345   0.398116
    39  C   -0.053021   0.629199   5.129546   0.001401  -0.000403  -0.037623
    40  H    0.402049  -0.039268   0.001401   0.440423  -0.030067  -0.003983
    41  H    0.389814  -0.047345  -0.000403  -0.030067   0.447851   0.005063
    42  H   -0.048596   0.398116  -0.037623  -0.003983   0.005063   0.464302
    43  H    0.005928  -0.037159   0.389890  -0.000342   0.000153  -0.007847
    44  H   -0.008132  -0.041073   0.389143   0.000091   0.004825   0.005833
              43         44
     1  C   -0.000003   0.000001
     2  C    0.000026   0.000061
     3  C   -0.000185  -0.000346
     4  C    0.000021   0.000306
     5  C   -0.000001  -0.000001
     6  H    0.000000   0.000000
     7  H   -0.000009  -0.000006
     8  H    0.000012   0.000091
     9  H    0.000063  -0.000051
    10  O    0.000000   0.000000
    11  O    0.000000   0.000000
    12  C    0.000000   0.000000
    13  C    0.000000   0.000000
    14  C    0.000007  -0.000010
    15  O    0.000004  -0.000013
    16  Si   0.000027  -0.000161
    17  C    0.000000   0.000000
    18  C    0.000000  -0.000012
    19  C   -0.000001  -0.000019
    20  H   -0.000001  -0.000008
    21  H    0.000000   0.000001
    22  H    0.000000   0.000000
    23  H    0.000000   0.000002
    24  H    0.000000   0.000001
    25  H   -0.000004   0.000128
    26  H    0.000000   0.000000
    27  H    0.000000   0.000000
    28  H    0.000000   0.000000
    29  H   -0.000011   0.000005
    30  H    0.000000   0.000000
    31  H    0.000000   0.000000
    32  H    0.000000   0.000000
    33  H    0.000000   0.000000
    34  H    0.000000   0.000000
    35  H    0.000000   0.000000
    36  H    0.000000   0.000000
    37  C    0.005928  -0.008132
    38  C   -0.037159  -0.041073
    39  C    0.389890   0.389143
    40  H   -0.000342   0.000091
    41  H    0.000153   0.004825
    42  H   -0.007847   0.005833
    43  H    0.450863  -0.032242
    44  H   -0.032242   0.455487
 Mulliken charges:
               1
     1  C   -0.044365
     2  C   -0.286450
     3  C    0.148527
     4  C   -0.538304
     5  C    0.476369
     6  H    0.242357
     7  H    0.251239
     8  H    0.276924
     9  H    0.286653
    10  O   -0.327458
    11  O   -0.383864
    12  C   -0.450474
    13  C   -0.659415
    14  C   -0.689866
    15  O   -0.622648
    16  Si   1.434546
    17  C   -1.042910
    18  C   -1.061247
    19  C   -1.090596
    20  H    0.240866
    21  H    0.236057
    22  H    0.240375
    23  H    0.252875
    24  H    0.246850
    25  H    0.245727
    26  H    0.240220
    27  H    0.236024
    28  H    0.235716
    29  H    0.240651
    30  H    0.254246
    31  H    0.237329
    32  H    0.262508
    33  H    0.235330
    34  H    0.224204
    35  H    0.234408
    36  H    0.215304
    37  C   -0.570645
    38  C   -0.186292
    39  C   -0.448353
    40  H    0.278077
    41  H    0.249107
    42  H    0.223490
    43  H    0.230808
    44  H    0.226099
 Sum of Mulliken charges =   0.00000
 Mulliken charges with hydrogens summed into heavy atoms:
               1
     1  C    0.197993
     2  C   -0.035211
     3  C    0.148527
     4  C    0.025273
     5  C    0.476369
    10  O   -0.327458
    11  O   -0.383864
    12  C    0.047365
    13  C    0.014500
    14  C    0.042360
    15  O   -0.622648
    16  Si   1.434546
    17  C   -0.330950
    18  C   -0.343949
    19  C   -0.345145
    37  C   -0.043460
    38  C    0.037198
    39  C    0.008555
 Electronic spatial extent (au):  <R**2>=           5055.6587
 Charge=              0.0000 electrons
 Dipole moment (field-independent basis, Debye):
    X=              2.9730    Y=              2.0972    Z=             -4.2300  Tot=              5.5794
 Quadrupole moment (field-independent basis, Debye-Ang):
   XX=           -121.9516   YY=           -112.0803   ZZ=           -129.6033
   XY=             -2.5489   XZ=             12.9247   YZ=              0.9837
 Traceless Quadrupole moment (field-independent basis, Debye-Ang):
   XX=             -0.7398   YY=              9.1314   ZZ=             -8.3916
   XY=             -2.5489   XZ=             12.9247   YZ=              0.9837
 Octapole moment (field-independent basis, Debye-Ang**2):
  XXX=              2.4392  YYY=             21.4668  ZZZ=            -36.4286  XYY=              1.8089
  XXY=             -4.0310  XXZ=            -11.7750  XZZ=             13.4432  YZZ=              8.2566
  YYZ=              6.3473  XYZ=              3.4992
 Hexadecapole moment (field-independent basis, Debye-Ang**3):
 XXXX=          -3127.9160 YYYY=          -2436.4882 ZZZZ=          -1442.9772 XXXY=            -55.4163
 XXXZ=             72.0563 YYYX=            -12.4780 YYYZ=              4.9061 ZZZX=             48.3927
 ZZZY=             21.1077 XXYY=           -906.5410 XXZZ=           -772.4616 YYZZ=           -626.9680
 XXYZ=              5.7518 YYXZ=             21.0258 ZZXY=             -5.0218
 N-N= 1.653814914354D+03 E-N=-5.802975860127D+03  KE= 1.060545384395D+03
 1\1\GINC-SWANNODE-0-12\SP\RmPW1PW91\6-311G(d)\C14H26O3Si1\ROOT\08-Mar-
 2018\0\\#mPW1PW91/6-311g(d) nmr=(giao) scrf=(solvent=chloroform)\\P_ng
 _3ginp009\\0,1\C,0,-0.650352,0.454737,-0.554084\C,0,-0.816226,-0.42520
 9,0.705984\C,0,-1.376782,0.389092,1.913198\C,0,-0.454746,1.60033,2.091
 858\C,0,-0.247126,2.394866,0.83576\H,0,0.007817,-0.103801,-1.233253\H,
 0,0.203133,-0.74186,0.968972\H,0,-0.847113,2.282661,2.8497\H,0,0.54469
 6,1.298383,2.427038\O,0,0.059654,1.677599,-0.268212\O,0,-0.188317,3.62
 026,0.84212\C,0,-1.922897,0.801899,-1.348942\C,0,-1.596103,1.461241,-2
 .686304\C,0,-1.61201,-1.700492,0.398736\O,0,-2.703887,0.790027,1.52559
 5\Si,0,-3.928966,1.462599,2.445143\C,0,-5.186373,2.253903,1.272976\C,0
 ,-4.844837,0.138896,3.421396\C,0,-3.363409,2.795872,3.632073\H,0,-4.21
 426,-0.275904,4.212194\H,0,-5.739913,0.560596,3.888413\H,0,-5.153573,-
 0.677237,2.761636\H,0,-2.853774,3.60287,3.097512\H,0,-4.221848,3.22982
 2,4.154148\H,0,-2.682667,2.394417,4.387737\H,0,-4.712063,3.047853,0.68
 8863\H,0,-5.584759,1.505111,0.582295\H,0,-6.017783,2.685207,1.837823\H
 ,0,-1.515481,-2.431054,1.20755\H,0,-2.678724,-1.499687,0.261035\H,0,-1
 .235955,-2.181149,-0.510958\H,0,-2.549886,1.505279,-0.793756\H,0,-2.51
 6028,-0.095475,-1.548322\H,0,-2.518834,1.673619,-3.235768\H,0,-1.06420
 4,2.407362,-2.546095\H,0,-0.976899,0.804801,-3.305838\C,0,-1.392914,-0
 .470636,3.223238\C,0,-0.089166,-1.10418,3.636714\C,0,0.604675,-0.75113
 4,4.726491\H,0,-2.139391,-1.269499,3.129407\H,0,-1.752064,0.149843,4.0
 53819\H,0,0.286805,-1.920973,3.023733\H,0,1.530499,-1.257904,4.983923\
 H,0,0.272023,0.042777,5.388582\\Version=EM64L-G09RevD.01\State=1-A\HF=
 -1064.3758574\RMSD=9.675e-09\Dipole=-0.4930732,-1.9661267,0.8424385\Qu
 adrupole=1.8910085,-5.6657462,3.7747377,-8.6572648,2.7286187,5.6360737
 \PG=C01 [X(C14H26O3Si1)]\\@


 O WAD SOME POWER THE GIFTIE GIE US       
 TO SEE OURSELS AS OTHERS SEE US.....     
 IT WOULD FRAE MONIE A BLUNDER FREE US,   
                     AND FOOLISH NOTION...
 WHAT AIRS IN DRESS AND GAIT WAD LEA'E US,
                     AND EV'N DEVOTION....
                                          
              (ROBERT BURNS 'TO A LOUSE') 
 Job cpu time:       0 days  1 hours 11 minutes 11.2 seconds.
 File lengths (MBytes):  RWF=    237 Int=      0 D2E=      0 Chk=     11 Scr=      1
 Normal termination of Gaussian 09 at Thu Mar  8 13:57:22 2018.
