 Entering Gaussian System, Link 0=/usr/local/shared/gaussian/em64t/09-D01/g09/g09
 Initial command:
 /usr/local/shared/gaussian/em64t/09-D01/g09/l1.exe "/scratch/ah809/P_ng_4ginp007/Gau-30341.inp" -scrdir="/scratch/ah809/P_ng_4ginp007/"
 Entering Link 1 = /usr/local/shared/gaussian/em64t/09-D01/g09/l1.exe PID=     30371.
  
 Copyright (c) 1988,1990,1992,1993,1995,1998,2003,2009,2013,
            Gaussian, Inc.  All Rights Reserved.
  
 This is part of the Gaussian(R) 09 program.  It is based on
 the Gaussian(R) 03 system (copyright 2003, Gaussian, Inc.),
 the Gaussian(R) 98 system (copyright 1998, Gaussian, Inc.),
 the Gaussian(R) 94 system (copyright 1995, Gaussian, Inc.),
 the Gaussian 92(TM) system (copyright 1992, Gaussian, Inc.),
 the Gaussian 90(TM) system (copyright 1990, Gaussian, Inc.),
 the Gaussian 88(TM) system (copyright 1988, Gaussian, Inc.),
 the Gaussian 86(TM) system (copyright 1986, Carnegie Mellon
 University), and the Gaussian 82(TM) system (copyright 1983,
 Carnegie Mellon University). Gaussian is a federally registered
 trademark of Gaussian, Inc.
  
 This software contains proprietary and confidential information,
 including trade secrets, belonging to Gaussian, Inc.
  
 This software is provided under written license and may be
 used, copied, transmitted, or stored only in accord with that
 written license.
  
 The following legend is applicable only to US Government
 contracts under FAR:
  
                    RESTRICTED RIGHTS LEGEND
  
 Use, reproduction and disclosure by the US Government is
 subject to restrictions as set forth in subparagraphs (a)
 and (c) of the Commercial Computer Software - Restricted
 Rights clause in FAR 52.227-19.
  
 Gaussian, Inc.
 340 Quinnipiac St., Bldg. 40, Wallingford CT 06492
  
  
 ---------------------------------------------------------------
 Warning -- This program may not be used in any manner that
 competes with the business of Gaussian, Inc. or will provide
 assistance to any competitor of Gaussian, Inc.  The licensee
 of this program is prohibited from giving any competitor of
 Gaussian, Inc. access to this program.  By using this program,
 the user acknowledges that Gaussian, Inc. is engaged in the
 business of creating and licensing software in the field of
 computational chemistry and represents and warrants to the
 licensee that it is not a competitor of Gaussian, Inc. and that
 it will not use this program in any manner prohibited above.
 ---------------------------------------------------------------
  

 Cite this work as:
 Gaussian 09, Revision D.01,
 M. J. Frisch, G. W. Trucks, H. B. Schlegel, G. E. Scuseria, 
 M. A. Robb, J. R. Cheeseman, G. Scalmani, V. Barone, B. Mennucci, 
 G. A. Petersson, H. Nakatsuji, M. Caricato, X. Li, H. P. Hratchian, 
 A. F. Izmaylov, J. Bloino, G. Zheng, J. L. Sonnenberg, M. Hada, 
 M. Ehara, K. Toyota, R. Fukuda, J. Hasegawa, M. Ishida, T. Nakajima, 
 Y. Honda, O. Kitao, H. Nakai, T. Vreven, J. A. Montgomery, Jr., 
 J. E. Peralta, F. Ogliaro, M. Bearpark, J. J. Heyd, E. Brothers, 
 K. N. Kudin, V. N. Staroverov, T. Keith, R. Kobayashi, J. Normand, 
 K. Raghavachari, A. Rendell, J. C. Burant, S. S. Iyengar, J. Tomasi, 
 M. Cossi, N. Rega, J. M. Millam, M. Klene, J. E. Knox, J. B. Cross, 
 V. Bakken, C. Adamo, J. Jaramillo, R. Gomperts, R. E. Stratmann, 
 O. Yazyev, A. J. Austin, R. Cammi, C. Pomelli, J. W. Ochterski, 
 R. L. Martin, K. Morokuma, V. G. Zakrzewski, G. A. Voth, 
 P. Salvador, J. J. Dannenberg, S. Dapprich, A. D. Daniels, 
 O. Farkas, J. B. Foresman, J. V. Ortiz, J. Cioslowski, 
 and D. J. Fox, Gaussian, Inc., Wallingford CT, 2013.
 
 ******************************************
 Gaussian 09:  EM64L-G09RevD.01 24-Apr-2013
                 8-Mar-2018 
 ******************************************
 %mem=6000MB
 %chk=P_ng_4ginp007.chk
 --------------------------------------------------------
 #mPW1PW91/6-311g(d) nmr=(giao) scrf=(solvent=chloroform)
 --------------------------------------------------------
 1/38=1/1;
 2/12=2,17=6,18=5,40=1/2;
 3/5=4,6=6,7=1,11=2,16=1,25=1,30=1,70=2201,72=7,74=-7/1,2,8,3;
 4//1;
 5/5=2,38=5,53=7/2;
 8/6=1,10=90,11=11/1;
 10/13=100,45=16/2;
 6/7=2,8=2,9=2,10=2,28=1/1;
 99/9=1/99;
 -------------
 P_ng_4ginp007
 -------------
 Symbolic Z-matrix:
 Charge =  0 Multiplicity = 1
 C                     0.25105   1.881    -0.42941 
 C                    -0.07151   1.20208   0.90852 
 C                    -1.22809   1.98162   1.61604 
 C                    -0.74537   3.42479   1.81043 
 C                    -0.17865   4.06692   0.57347 
 H                    -0.61419   1.80425  -1.09748 
 H                    -0.39809   0.17202   0.71671 
 H                    -1.57489   4.0552    2.15173 
 H                     0.02784   3.48553   2.58425 
 O                     0.528     3.28678  -0.27126 
 O                    -0.25548   5.27921   0.39624 
 C                     1.43815   1.2466   -1.17261 
 C                     1.5816    1.78478  -2.592 
 C                     1.17916   1.06361   1.80383 
 O                    -1.44976   1.27113   2.85322 
 Si                   -2.18768   1.79948   4.25758 
 C                    -1.00705   2.84527   5.28684 
 C                    -3.76164   2.78076   3.99198 
 C                    -2.64338   0.28878   5.30212 
 H                    -4.20023   3.06096   4.95482 
 H                    -3.56997   3.701     3.43396 
 H                    -4.50362   2.19118   3.447 
 H                    -1.74917  -0.29773   5.53189 
 H                    -3.10765   0.5997    6.24242 
 H                    -3.34756  -0.34854   4.75949 
 H                    -0.82413   3.81308   4.81239 
 H                    -1.42807   3.02955   6.27975 
 H                    -0.04886   2.33194   5.40911 
 H                     1.89642   0.3654    1.35945 
 H                     1.69388   2.01851   1.94643 
 H                     0.93001   0.66008   2.78988 
 H                     1.31225   0.15889  -1.2185 
 H                     2.37528   1.45957  -0.64554 
 H                     2.42398   1.29942  -3.09508 
 H                     0.67851   1.58846  -3.17861 
 H                     1.76552   2.86364  -2.59279 
 C                    -2.55346   1.98283   0.77472 
 C                    -3.09552   0.62304   0.41026 
 C                    -4.28699   0.15626   0.80539 
 H                    -2.4184    2.54388  -0.15723 
 H                    -3.32681   2.53481   1.31947 
 H                    -2.48656  -0.00597  -0.2346 
 H                    -4.62512  -0.82996   0.50128 
 H                    -4.95102   0.73626   1.43802 
 
                          Input orientation:                          
 ---------------------------------------------------------------------
 Center     Atomic      Atomic             Coordinates (Angstroms)
 Number     Number       Type             X           Y           Z
 ---------------------------------------------------------------------
      1          6           0        0.251050    1.880995   -0.429405
      2          6           0       -0.071511    1.202081    0.908518
      3          6           0       -1.228086    1.981624    1.616035
      4          6           0       -0.745365    3.424789    1.810432
      5          6           0       -0.178650    4.066917    0.573469
      6          1           0       -0.614188    1.804251   -1.097482
      7          1           0       -0.398089    0.172023    0.716711
      8          1           0       -1.574886    4.055195    2.151732
      9          1           0        0.027842    3.485528    2.584250
     10          8           0        0.528003    3.286779   -0.271261
     11          8           0       -0.255477    5.279208    0.396243
     12          6           0        1.438146    1.246601   -1.172605
     13          6           0        1.581595    1.784776   -2.592003
     14          6           0        1.179157    1.063606    1.803830
     15          8           0       -1.449760    1.271127    2.853218
     16         14           0       -2.187679    1.799484    4.257585
     17          6           0       -1.007047    2.845274    5.286838
     18          6           0       -3.761640    2.780757    3.991982
     19          6           0       -2.643377    0.288782    5.302117
     20          1           0       -4.200231    3.060963    4.954821
     21          1           0       -3.569974    3.701002    3.433960
     22          1           0       -4.503621    2.191181    3.446995
     23          1           0       -1.749168   -0.297729    5.531893
     24          1           0       -3.107655    0.599695    6.242418
     25          1           0       -3.347560   -0.348537    4.759487
     26          1           0       -0.824129    3.813081    4.812390
     27          1           0       -1.428066    3.029545    6.279751
     28          1           0       -0.048860    2.331944    5.409105
     29          1           0        1.896423    0.365397    1.359447
     30          1           0        1.693881    2.018512    1.946434
     31          1           0        0.930008    0.660075    2.789883
     32          1           0        1.312247    0.158892   -1.218495
     33          1           0        2.375277    1.459574   -0.645541
     34          1           0        2.423981    1.299416   -3.095076
     35          1           0        0.678506    1.588457   -3.178612
     36          1           0        1.765517    2.863638   -2.592791
     37          6           0       -2.553460    1.982827    0.774719
     38          6           0       -3.095523    0.623042    0.410259
     39          6           0       -4.286993    0.156259    0.805389
     40          1           0       -2.418401    2.543877   -0.157227
     41          1           0       -3.326808    2.534806    1.319468
     42          1           0       -2.486558   -0.005970   -0.234600
     43          1           0       -4.625116   -0.829962    0.501278
     44          1           0       -4.951023    0.736256    1.438019
 ---------------------------------------------------------------------
                    Distance matrix (angstroms):
                    1          2          3          4          5
     1  C    0.000000
     2  C    1.534603   0.000000
     3  C    2.526221   1.563948   0.000000
     4  C    2.897070   2.491578   1.534124   0.000000
     5  C    2.443083   2.886351   2.556698   1.504517   0.000000
     6  H    1.095835   2.163595   2.787742   3.331563   2.846301
     7  H    2.157672   1.097480   2.184567   3.449248   3.903700
     8  H    3.837116   3.456295   2.169548   1.096359   2.107256
     9  H    3.421471   2.834092   2.185526   1.095597   2.103305
    10  O    1.441507   2.469263   2.889492   2.444168   1.349645
    11  O    3.533570   4.113300   3.648002   2.383021   1.227583
    12  C    1.537530   2.571404   3.927539   4.290773   3.690120
    13  C    2.540952   3.914836   5.063659   5.242692   4.280986
    14  C    2.552811   1.544322   2.583185   3.046147   3.518139
    15  O    3.747040   2.384575   1.443803   2.494361   3.824842
    16  Si   5.284119   4.006408   2.816342   3.272681   4.769713
    17  C    5.931954   4.769172   3.777505   3.534079   4.939079
    18  C    6.038205   5.061326   3.564075   3.777811   5.116469
    19  C    6.615376   5.172265   4.296040   5.062495   6.535235
    20  H    7.084922   6.072424   4.598490   4.685686   6.031692
    21  H    5.730466   4.986152   3.427178   3.269641   4.451672
    22  H    6.142442   5.202479   3.758385   4.280726   5.520952
    23  H    6.654681   5.141941   4.560803   5.358548   6.789892
    24  H    7.578644   6.166971   5.181306   5.762297   7.262071
    25  H    6.696671   5.288372   4.450069   5.450352   6.860100
    26  H    5.689058   4.756466   3.705955   3.027990   4.295291
    27  H    7.010804   5.833525   4.784180   4.538404   5.932861
    28  H    5.863574   4.640300   3.987565   3.824902   5.139100
    29  H    2.864312   2.185438   3.527121   4.067224   4.315662
    30  H    2.783035   2.204640   2.940819   2.818871   3.096348
    31  H    3.509337   2.199169   2.789584   3.377846   4.212860
    32  H    2.171276   2.743577   4.220214   4.906552   4.550447
    33  H    2.176385   2.910013   4.286197   4.430833   3.847956
    34  H    3.487931   4.718657   5.999797   6.214980   5.281190
    35  H    2.797577   4.173301   5.174777   5.503643   4.577728
    36  H    2.817701   4.288894   5.239640   5.099783   3.905492
    37  C    3.053778   2.605290   1.569850   2.534001   3.166016
    38  C    3.672469   3.119006   2.605180   3.915803   4.516089
    39  C    5.009318   4.344499   3.653220   4.923061   5.676752
    40  H    2.763958   2.905877   2.208492   2.728871   2.805361
    41  H    4.035727   3.541468   2.190570   2.774340   3.579773
    42  H    3.330628   2.932330   2.993181   4.357065   4.750560
    43  H    5.656187   5.003035   4.548353   5.905020   6.614809
    44  H    5.644401   4.930213   3.929744   5.005443   5.883561
                    6          7          8          9         10
     6  H    0.000000
     7  H    2.449931   0.000000
     8  H    4.067810   4.303854   0.000000
     9  H    4.098054   3.827327   1.755087   0.000000
    10  O    2.045759   3.396386   3.299015   2.905788   0.000000
    11  O    3.799370   5.119216   2.514118   2.843402   2.242582
    12  C    2.128072   2.845346   5.293182   4.595183   2.408964
    13  C    2.656207   4.179439   6.133612   5.665713   2.958363
    14  C    3.490308   2.112925   4.081102   2.792900   3.110065
    15  O    4.073135   2.622728   2.873808   2.675672   4.211504
    16  Si   5.581455   4.288246   3.146167   3.248281   5.486112
    17  C    6.480556   5.329462   3.408114   2.963934   5.783059
    18  C    6.063222   5.370882   3.129314   4.103485   6.068965
    19  C    6.882523   5.106946   5.025183   4.974072   7.078713
    20  H    7.146286   6.384656   3.967145   4.865847   7.051179
    21  H    5.733088   5.467905   2.397903   3.703068   5.540186
    22  H    5.994137   5.327930   3.705367   4.791015   6.351614
    23  H    7.046638   5.023152   5.513965   5.114626   7.191022
    24  H    7.844901   6.169124   5.569881   5.616188   7.928836
    25  H    6.812482   5.031342   5.416236   5.552031   7.317372
    26  H    6.245483   5.496672   2.775132   2.407852   5.286659
    27  H    7.522454   6.338273   4.256061   3.998039   6.841647
    28  H    6.552384   5.177430   3.988587   3.052285   5.788872
    29  H    3.796046   2.390667   5.127603   3.837571   3.614727
    30  H    3.826031   3.049275   3.856820   2.309682   2.808192
    31  H    4.336506   2.509996   4.267150   2.973108   4.053614
    32  H    2.536336   2.582720   5.905518   5.213163   3.360947
    33  H    3.043017   3.347399   5.492338   4.477331   2.625107
    34  H    3.670928   4.874917   7.149423   6.540284   3.939324
    35  H    2.459416   4.282392   6.290877   6.101870   3.370406
    36  H    3.003539   4.783177   5.923563   5.496182   2.664581
    37  C    2.701444   2.815670   2.673664   3.492225   3.505678
    38  C    3.134575   2.751996   4.138205   4.761877   4.548616
    39  C    4.452672   3.889947   4.936584   5.732903   5.843245
    40  H    2.164789   3.235911   2.885635   3.792955   3.040757
    41  H    3.705896   3.810965   2.464442   3.709073   4.237387
    42  H    2.743581   2.301820   4.797790   5.143800   4.464428
    43  H    5.057930   4.349499   5.991048   6.679240   6.640708
    44  H    5.135905   4.644120   4.787802   5.801848   6.280647
                   11         12         13         14         15
    11  O    0.000000
    12  C    4.646672   0.000000
    13  C    4.951313   1.524762   0.000000
    14  C    4.670201   2.993280   4.472739   0.000000
    15  O    4.850541   4.954579   6.253270   2.838219   0.000000
    16  Si   5.545435   6.552805   7.818216   4.230605   1.672104
    17  C    5.514237   7.089367   8.360733   4.481649   2.931969
    18  C    5.609347   7.487614   8.537622   5.669929   2.986730
    19  C    7.394188   7.713512   9.077748   5.239287   2.896002
    20  H    6.423576   8.522239   9.592326   6.546449   3.896837
    21  H    4.764908   7.233657   8.156152   5.671634   3.276715
    22  H    6.073691   7.585350   8.582803   6.022075   3.244247
    23  H    7.727111   7.582494   9.023774   4.932218   3.118694
    24  H    8.013147   8.721546  10.071766   6.188137   3.832247
    25  H    7.763401   7.786987   9.104504   5.587595   3.139875
    26  H    4.687776   6.893829   8.045282   4.541388   3.269755
    27  H    6.407153   8.181178   9.450689   5.540433   3.851446
    28  H    5.818749   6.834330   8.183856   4.014314   3.101679
    29  H    5.450135   2.719894   4.210429   1.095191   3.774737
    30  H    4.103075   3.223298   4.545839   1.094131   3.356087
    31  H    5.335848   4.037763   5.536625   1.094172   2.457782
    32  H    5.593101   1.095932   2.145360   3.157637   5.044264
    33  H    4.753502   1.096070   2.127064   2.754435   5.187267
    34  H    5.933595   2.161147   1.094656   5.060086   7.098512
    35  H    5.222409   2.172092   1.094633   5.034963   6.404154
    36  H    4.342087   2.176903   1.094427   4.786879   6.521741
    37  C    4.036099   4.501890   5.335984   3.979506   2.458623
    38  C    5.453984   4.842359   5.677908   4.517635   3.016057
    39  C    6.531855   6.154553   6.973856   5.630183   3.672387
    40  H    3.530808   4.193671   4.743874   4.356532   3.408950
    41  H    4.221038   5.529438   6.320963   4.764741   2.733603
    42  H    5.771377   4.225173   5.031301   4.328586   3.498649
    43  H    7.511773   6.623983   7.411377   6.242742   4.475386
    44  H    6.616031   6.920787   7.746972   6.149803   3.814147
                   16         17         18         19         20
    16  Si   0.000000
    17  C    1.883330   0.000000
    18  C    1.873712   3.044437   0.000000
    19  C    1.892334   3.035368   3.029341   0.000000
    20  H    2.475446   3.217636   1.094503   3.198343   0.000000
    21  H    2.490957   3.276282   1.093149   3.998980   1.766322
    22  H    2.484768   4.004858   1.093228   3.243626   1.766948
    23  H    2.492881   3.238713   3.987285   1.093802   4.197801
    24  H    2.495077   3.219986   3.201436   1.093795   2.984873
    25  H    2.492233   3.994562   3.248539   1.093845   3.519928
    26  H    2.494324   1.093257   3.219896   3.996271   3.461796
    27  H    2.485803   1.094116   3.277400   3.153495   3.072674
    28  H    2.486777   1.093883   3.999301   3.304160   4.239307
    29  H    5.209194   5.477621   6.691628   6.013344   7.573769
    30  H    4.522820   4.374568   5.876053   5.750164   6.699078
    31  H    3.629377   3.842143   5.287144   4.383863   6.063874
    32  H    6.702871   7.410474   7.730949   7.627727   8.770363
    33  H    6.706471   6.968027   7.804735   7.869706   8.784407
    34  H    8.693624   9.187933   9.522745   9.859632  10.572799
    35  H    7.972238   8.722644   8.517857   9.200371   9.598077
    36  H    7.980466   8.353203   8.597416   9.402011   9.622657
    37  C    3.506817   4.847105   3.528055   4.834791   4.620334
    38  C    4.124332   5.751615   4.234169   4.924067   5.274171
    39  C    4.361762   6.170270   4.161533   4.789530   5.065829
    40  H    4.483070   5.632105   4.367647   5.911049   5.438321
    41  H    3.235868   4.606268   2.718805   4.623115   3.775646
    42  H    4.850641   6.387865   5.220697   5.546774   6.266805
    43  H    5.192776   7.035579   5.095871   5.312902   5.929070
    44  H    4.088579   5.900535   3.480997   4.522910   4.282038
                   21         22         23         24         25
    21  H    0.000000
    22  H    1.775226   0.000000
    23  H    4.868933   4.257756   0.000000
    24  H    4.209428   3.506557   1.776430   0.000000
    25  H    4.266762   3.083712   1.775964   1.776452   0.000000
    26  H    3.074459   4.246590   4.274592   4.193486   4.867193
    27  H    3.624521   4.264551   3.425369   2.954079   4.172181
    28  H    4.263069   4.869762   3.133896   3.612662   4.299814
    29  H    6.731371   6.975092   5.580267   6.995649   6.290416
    30  H    5.722908   6.378913   5.484075   6.597217   6.239577
    31  H    5.469178   5.683345   3.951454   5.312849   4.816038
    32  H    7.617609   7.727957   7.426204   8.683033   7.596549
    33  H    7.550651   8.037620   7.632814   8.845672   8.076785
    34  H    9.182779   9.570037   9.715484  10.875541   9.885373
    35  H    8.138706   8.433053   9.237110  10.201396   9.109038
    36  H    8.092612   8.731169   9.399880  10.340898   9.514075
    37  C    3.325205   3.314755   5.336527   5.667091   4.684467
    38  C    4.340704   3.696426   5.375093   5.832218   4.463549
    39  C    4.470873   3.341544   5.383911   5.581107   4.095393
    40  H    3.944830   4.178870   6.394426   6.723866   5.779574
    41  H    2.426977   2.455471   5.315706   5.294159   4.488633
    42  H    5.326703   4.738160   5.820765   6.534857   5.079329
    43  H    5.499417   4.221293   5.819058   6.107970   4.471718
    44  H    3.831553   2.520508   5.299132   5.147709   3.844479
                   26         27         28         29         30
    26  H    0.000000
    27  H    1.769694   0.000000
    28  H    1.775071   1.773945   0.000000
    29  H    5.586658   6.508403   4.904199   0.000000
    30  H    4.215988   5.435658   3.889149   1.765890   0.000000
    31  H    4.136300   4.832606   3.257860   1.751268   1.772078
    32  H    7.368092   8.483729   7.106325   2.651356   3.690611
    33  H    6.750126   8.055427   6.579985   2.333774   2.737708
    34  H    8.910485  10.281974   8.916398   4.581865   5.144606
    35  H    8.429886   9.796684   8.650475   4.855222   5.242331
    36  H    7.902178   9.431251   8.222226   4.677449   4.617784
    37  C    4.758487   5.715550   5.279435   4.770686   4.406143
    38  C    5.891887   6.559162   6.098439   5.087913   5.219728
    39  C    6.435824   6.811599   6.624921   6.211711   6.367168
    40  H    5.371189   6.530798   6.053403   5.065943   4.648899
    41  H    4.483067   5.334266   5.245115   5.655977   5.085958
    42  H    6.543770   7.264401   6.577205   4.678613   5.131423
    43  H    7.388575   7.649031   7.417987   6.685492   7.080396
    44  H    6.155037   6.411924   6.507453   6.857932   6.786561
                   31         32         33         34         35
    31  H    0.000000
    32  H    4.057633   0.000000
    33  H    3.811842   1.774847   0.000000
    34  H    6.105199   2.461362   2.455248   0.000000
    35  H    6.045501   2.507457   3.051572   1.771216   0.000000
    36  H    5.875963   3.067539   2.476890   1.769931   1.775068
    37  C    4.236167   4.716284   5.155907   6.341710   5.121519
    38  C    4.676418   4.721939   5.634195   6.573415   5.296727
    39  C    5.604386   5.953789   6.941878   7.845866   6.525307
    40  H    4.842108   4.553260   4.938979   5.798992   4.430850
    41  H    4.878239   5.797159   6.126268   7.354316   6.096789
    42  H    4.611294   3.927614   5.094520   5.830930   4.607281
    43  H    6.190099   6.260010   7.454037   8.194985   6.893384
    44  H    6.034887   6.827808   7.651084   8.675067   7.330152
                   36         37         38         39         40
    36  H    0.000000
    37  C    5.547027   0.000000
    38  C    6.137450   1.508535   0.000000
    39  C    7.450531   2.518418   1.339259   0.000000
    40  H    4.851741   1.096148   2.114271   3.181035   0.000000
    41  H    6.430060   1.095217   2.129553   2.616050   1.733757
    42  H    5.645871   2.231258   1.087353   2.085536   2.551931
    43  H    8.003508   3.504042   2.111672   1.086021   4.084851
    44  H    8.116963   2.782484   2.124144   1.085151   3.496638
                   41         42         43         44
    41  H    0.000000
    42  H    3.094623   0.000000
    43  H    3.698203   2.407054   0.000000
    44  H    2.426296   3.069551   1.853844   0.000000
 Stoichiometry    C14H26O3Si
 Framework group  C1[X(C14H26O3Si)]
 Deg. of freedom   126
 Full point group                 C1      NOp   1
 Largest Abelian subgroup         C1      NOp   1
 Largest concise Abelian subgroup C1      NOp   1
                         Standard orientation:                         
 ---------------------------------------------------------------------
 Center     Atomic      Atomic             Coordinates (Angstroms)
 Number     Number       Type             X           Y           Z
 ---------------------------------------------------------------------
      1          6           0       -2.452634    0.293602    0.256573
      2          6           0       -1.096976    0.326862    0.974969
      3          6           0        0.046342    0.125283   -0.072945
      4          6           0       -0.203373   -1.224601   -0.757773
      5          6           0       -1.605648   -1.417550   -1.267641
      6          1           0       -2.523902    1.143518   -0.431480
      7          1           0       -0.972621    1.304497    1.457905
      8          1           0        0.471605   -1.341689   -1.613751
      9          1           0        0.007775   -2.059888   -0.080982
     10          8           0       -2.615638   -0.897351   -0.539043
     11          8           0       -1.833010   -2.121589   -2.247231
     12          6           0       -3.656986    0.394989    1.206970
     13          6           0       -4.967640    0.596966    0.454445
     14          6           0       -1.027125   -0.698827    2.127363
     15          8           0        1.266216    0.169134    0.698127
     16         14           0        2.783078   -0.417978    0.310362
     17          6           0        2.882802   -2.275188    0.606596
     18          6           0        3.327971   -0.074148   -1.449089
     19          6           0        4.052544    0.394218    1.454793
     20          1           0        4.339253   -0.458774   -1.614343
     21          1           0        2.666781   -0.556063   -2.174045
     22          1           0        3.342957    1.000027   -1.651746
     23          1           0        3.811345    0.182527    2.500457
     24          1           0        5.056132    0.013509    1.244415
     25          1           0        4.053552    1.478514    1.310581
     26          1           0        2.290939   -2.823015   -0.131505
     27          1           0        3.919078   -2.617985    0.531021
     28          1           0        2.509885   -2.523879    1.604426
     29          1           0       -1.719112   -0.424388    2.930655
     30          1           0       -1.288029   -1.709233    1.798530
     31          1           0       -0.031516   -0.734047    2.579840
     32          1           0       -3.515969    1.231237    1.901139
     33          1           0       -3.755949   -0.524155    1.795824
     34          1           0       -5.798543    0.681811    1.162027
     35          1           0       -4.938452    1.512735   -0.144501
     36          1           0       -5.178351   -0.244729   -0.212579
     37          6           0        0.076187    1.262441   -1.154801
     38          6           0        0.208988    2.667017   -0.620754
     39          6           0        1.238301    3.480813   -0.888828
     40          1           0       -0.827800    1.229846   -1.773901
     41          1           0        0.897015    1.073751   -1.854899
     42          1           0       -0.596823    3.047578    0.002288
     43          1           0        1.271403    4.486559   -0.480389
     44          1           0        2.069163    3.170619   -1.514130
 ---------------------------------------------------------------------
 Rotational constants (GHZ):      0.5601470      0.2463038      0.2254004
 Standard basis: 6-311G(d) (5D, 7F)
 There are   428 symmetry adapted cartesian basis functions of A   symmetry.
 There are   410 symmetry adapted basis functions of A   symmetry.
   410 basis functions,   720 primitive gaussians,   428 cartesian basis functions
    74 alpha electrons       74 beta electrons
       nuclear repulsion energy      1626.2116202555 Hartrees.
 NAtoms=   44 NActive=   44 NUniq=   44 SFac= 1.00D+00 NAtFMM=   60 NAOKFM=F Big=F
 Integral buffers will be    131072 words long.
 Raffenetti 2 integral format.
 Two-electron integral symmetry is turned on.
 ------------------------------------------------------------------------------
 Polarizable Continuum Model (PCM)
 =================================
 Model                : PCM (using non-symmetric T matrix).
 Atomic radii         : UFF (Universal Force Field).
 Polarization charges : Total charges.
 Charge compensation  : None.
 Solution method      : On-the-fly selection.
 Cavity type          : Scaled VdW (van der Waals Surface) (Alpha=1.100).
 Cavity algorithm     : GePol (No added spheres)
                        Default sphere list used, NSphG=   44.
                        Lebedev-Laikov grids with approx.  5.0 points / Ang**2.
                        Smoothing algorithm: Karplus/York (Gamma=1.0000).
                        Polarization charges: spherical gaussians, with
                                              point-specific exponents (IZeta= 3).
                        Self-potential: point-specific (ISelfS= 7).
                        Self-field    : sphere-specific E.n sum rule (ISelfD= 2).
 Solvent              : Chloroform, Eps=   4.711300 Eps(inf)=   2.090627
 ------------------------------------------------------------------------------
 One-electron integrals computed using PRISM.
 NBasis=   410 RedAO= T EigKep=  1.08D-03  NBF=   410
 NBsUse=   410 1.00D-06 EigRej= -1.00D+00 NBFU=   410
 ExpMin= 6.54D-02 ExpMax= 6.94D+04 ExpMxC= 2.33D+03 IAcc=2 IRadAn=         4 AccDes= 0.00D+00
 Harris functional with IExCor=  908 and IRadAn=       4 diagonalized for initial guess.
 HarFok:  IExCor=  908 AccDes= 0.00D+00 IRadAn=         4 IDoV= 1 UseB2=F ITyADJ=14
 ICtDFT=  3500011 ScaDFX=  1.000000  1.000000  1.000000  1.000000
 FoFCou: FMM=F IPFlag=           0 FMFlag=      100000 FMFlg1=           0
         NFxFlg=           0 DoJE=T BraDBF=F KetDBF=T FulRan=T
         wScrn=  0.000000 ICntrl=     500 IOpCl=  0 I1Cent=   200000004 NGrid=           0
         NMat0=    1 NMatS0=      1 NMatT0=    0 NMatD0=    1 NMtDS0=    0 NMtDT0=    0
 Petite list used in FoFCou.
 Requested convergence on RMS density matrix=1.00D-08 within 128 cycles.
 Requested convergence on MAX density matrix=1.00D-06.
 Requested convergence on             energy=1.00D-06.
 No special actions if energy rises.
 Inv3:  Mode=1 IEnd=    24917772.
 Iteration    1 A*A^-1 deviation from unit magnitude is 8.44D-15 for   1832.
 Iteration    1 A*A^-1 deviation from orthogonality  is 7.77D-15 for   2550   1456.
 Iteration    1 A^-1*A deviation from unit magnitude is 7.77D-15 for   2069.
 Iteration    1 A^-1*A deviation from orthogonality  is 1.82D-11 for   2152   2064.
 Error on total polarization charges =  0.01141
 SCF Done:  E(RmPW1PW91) =  -1064.37568399     A.U. after   12 cycles
            NFock= 12  Conv=0.94D-08     -V/T= 2.0036
 DoSCS=F DFT=T ScalE2(SS,OS)=  1.000000  1.000000
 Range of M.O.s used for correlation:     1   410
 NBasis=   410 NAE=    74 NBE=    74 NFC=     0 NFV=     0
 NROrb=    410 NOA=    74 NOB=    74 NVA=   336 NVB=   336
 NEqPCM:  Using equilibrium solvation (IEInf=0, Eps=   4.7113, EpsInf=   2.0906)
          Differentiating once with respect to magnetic field using GIAOs.
          Electric field/nuclear overlap derivatives assumed to be zero.
 FoFJK:  IHMeth= 1 ICntrl=    6127 DoSepK=F KAlg= 0 I1Cent=   0 FoldK=F
 IRaf=         1 NMat=   1 IRICut=       1 DoRegI=T DoRafI=F ISym2E= 0.
          There are     3 degrees of freedom in the 1st order CPHF.  IDoFFX=0 NUNeed=     3.
      3 vectors produced by pass  0 Test12= 8.29D-13 3.33D-08 XBig12= 3.49D+01 1.19D+00.
 AX will form     3 AO Fock derivatives at one time.
      3 vectors produced by pass  1 Test12= 8.29D-13 3.33D-08 XBig12= 9.12D-02 1.02D-01.
      3 vectors produced by pass  2 Test12= 8.29D-13 3.33D-08 XBig12= 6.09D-04 8.82D-03.
      3 vectors produced by pass  3 Test12= 8.29D-13 3.33D-08 XBig12= 3.81D-06 8.03D-04.
      3 vectors produced by pass  4 Test12= 8.29D-13 3.33D-08 XBig12= 2.16D-08 5.51D-05.
      3 vectors produced by pass  5 Test12= 8.29D-13 3.33D-08 XBig12= 5.59D-11 1.59D-06.
      2 vectors produced by pass  6 Test12= 8.29D-13 3.33D-08 XBig12= 1.83D-13 7.51D-08.
 InvSVY:  IOpt=1 It=  1 EMax= 8.88D-16
 Solved reduced A of dimension    20 with     3 vectors.
 Calculating GIAO nuclear magnetic shielding tensors.
 SCF GIAO Magnetic shielding tensor (ppm):
      1  C    Isotropic =   105.7937   Anisotropy =    40.6499
   XX=   102.6401   YX=     1.8945   ZX=     0.5288
   XY=    -1.2373   YY=   119.0487   ZY=    20.7441
   XZ=    -3.3681   YZ=    24.6297   ZZ=    95.6925
   Eigenvalues:    81.7627   102.7248   132.8937
      2  C    Isotropic =   144.4586   Anisotropy =    29.1371
   XX=   162.8347   YX=    -5.2481   ZX=     0.2681
   XY=    -4.4020   YY=   136.2226   ZY=     2.8920
   XZ=    -6.0044   YZ=    -7.5111   ZZ=   134.3184
   Eigenvalues:   131.9142   137.5781   163.8833
      3  C    Isotropic =   104.4790   Anisotropy =    52.4781
   XX=   132.0506   YX=    -3.4581   ZX=    18.8390
   XY=    -7.2651   YY=    84.0127   ZY=    -5.5687
   XZ=    13.9578   YZ=    -5.3626   ZZ=    97.3738
   Eigenvalues:    82.0551    91.9175   139.4644
      4  C    Isotropic =   144.3704   Anisotropy =    35.0219
   XX=   156.8675   YX=    10.8946   ZX=     7.3001
   XY=     7.4925   YY=   140.1996   ZY=     4.4800
   XZ=    14.8447   YZ=    16.8573   ZZ=   136.0441
   Eigenvalues:   126.9046   138.4883   167.7183
      5  C    Isotropic =     9.1261   Anisotropy =    94.4700
   XX=   -70.8017   YX=    27.4853   ZX=    22.4996
   XY=    31.4727   YY=    53.3291   ZY=   -23.6151
   XZ=    37.8628   YZ=   -21.4008   ZZ=    44.8510
   Eigenvalues:   -86.5587    41.8309    72.1062
      6  H    Isotropic =    27.9170   Anisotropy =     3.7146
   XX=    30.1315   YX=    -0.5716   ZX=    -1.0015
   XY=    -0.7151   YY=    28.8080   ZY=    -2.0364
   XZ=    -0.3498   YZ=    -1.0236   ZZ=    24.8114
   Eigenvalues:    24.1721    29.1855    30.3933
      7  H    Isotropic =    29.9333   Anisotropy =     5.4158
   XX=    28.1985   YX=     0.3137   ZX=    -1.7573
   XY=     1.3525   YY=    33.3829   ZY=     1.0103
   XZ=    -1.9514   YZ=     0.3315   ZZ=    28.2186
   Eigenvalues:    26.1967    30.0595    33.5439
      8  H    Isotropic =    29.5560   Anisotropy =     3.7476
   XX=    31.4343   YX=     0.4798   ZX=    -1.8328
   XY=     1.4713   YY=    27.8317   ZY=     3.1905
   XZ=    -0.3561   YZ=     3.0368   ZZ=    29.4019
   Eigenvalues:    25.0779    31.5356    32.0544
      9  H    Isotropic =    29.1993   Anisotropy =     4.3917
   XX=    29.9052   YX=    -1.4049   ZX=     0.5826
   XY=    -1.7735   YY=    30.9234   ZY=    -0.6420
   XZ=     0.4801   YZ=     0.2186   ZZ=    26.7692
   Eigenvalues:    26.6809    28.7898    32.1270
     10  O    Isotropic =   119.1028   Anisotropy =   202.2622
   XX=   182.0260   YX=   -48.6828   ZX=   -72.6722
   XY=   -58.1211   YY=   104.2504   ZY=  -128.9425
   XZ=   -99.2530   YZ=  -186.5606   ZZ=    71.0321
   Eigenvalues:  -105.5933   208.9576   253.9443
     11  O    Isotropic =  -133.9421   Anisotropy =   598.8376
   XX=  -259.4024   YX=    73.0400   ZX=    47.8585
   XY=    73.4255   YY=    39.9729   ZY=  -291.2652
   XZ=    45.0233   YZ=  -339.4581   ZZ=  -182.3969
   Eigenvalues:  -441.2793  -225.8300   265.2829
     12  C    Isotropic =   156.8422   Anisotropy =    21.9406
   XX=   164.3323   YX=    -4.0547   ZX=   -12.0708
   XY=    -0.6251   YY=   149.5460   ZY=     8.0347
   XZ=    -4.6292   YZ=     7.1661   ZZ=   156.6484
   Eigenvalues:   144.3145   154.7429   171.4693
     13  C    Isotropic =   174.1805   Anisotropy =    23.0426
   XX=   185.9192   YX=    -4.5863   ZX=     3.5786
   XY=    -2.4607   YY=   164.8731   ZY=    -8.1850
   XZ=     8.0262   YZ=    -7.4037   ZZ=   171.7491
   Eigenvalues:   159.7902   173.2090   189.5422
     14  C    Isotropic =   177.9396   Anisotropy =    15.0573
   XX=   176.5440   YX=    -2.1058   ZX=    -2.6317
   XY=    -1.9985   YY=   179.8556   ZY=   -10.2005
   XZ=    -3.4314   YZ=    -8.2816   ZZ=   177.4191
   Eigenvalues:   167.8048   178.0361   187.9778
     15  O    Isotropic =   244.6910   Anisotropy =    23.3186
   XX=   235.6104   YX=    13.5097   ZX=     1.7786
   XY=     7.7137   YY=   245.2586   ZY=     5.7843
   XZ=    -8.6176   YZ=    13.6839   ZZ=   253.2041
   Eigenvalues:   226.1744   247.6619   260.2367
     16  Si   Isotropic =   335.0820   Anisotropy =    53.9280
   XX=   364.0591   YX=   -18.5546   ZX=   -15.6565
   XY=   -11.3660   YY=   322.4937   ZY=    10.5542
   XZ=    -0.9420   YZ=     6.7094   ZZ=   318.6934
   Eigenvalues:   311.5250   322.6871   371.0340
     17  C    Isotropic =   184.7511   Anisotropy =    11.3378
   XX=   187.2711   YX=    -2.4458   ZX=    -1.5395
   XY=     0.0715   YY=   191.7238   ZY=    -2.5432
   XZ=    -1.6410   YZ=    -2.7078   ZZ=   175.2585
   Eigenvalues:   174.6061   187.3376   192.3097
     18  C    Isotropic =   184.3732   Anisotropy =     6.2290
   XX=   186.5311   YX=    -2.5845   ZX=    -2.8676
   XY=    -5.4685   YY=   179.6759   ZY=    -3.2356
   XZ=     0.1909   YZ=    -3.6052   ZZ=   186.9126
   Eigenvalues:   176.5216   188.0722   188.5259
     19  C    Isotropic =   186.5427   Anisotropy =    13.1063
   XX=   189.7301   YX=     0.6873   ZX=     4.4233
   XY=    -0.9846   YY=   184.5090   ZY=     8.8229
   XZ=     2.8358   YZ=     9.3653   ZZ=   185.3891
   Eigenvalues:   175.3583   188.9896   195.2802
     20  H    Isotropic =    32.1453   Anisotropy =    10.4125
   XX=    37.2213   YX=    -2.4698   ZX=    -3.4496
   XY=    -2.8785   YY=    28.9544   ZY=     0.6664
   XZ=    -2.6840   YZ=     0.3089   ZZ=    30.2604
   Eigenvalues:    28.0384    29.3106    39.0870
     21  H    Isotropic =    31.9162   Anisotropy =     6.2108
   XX=    32.7834   YX=     1.4641   ZX=     0.9031
   XY=     1.2232   YY=    28.9466   ZY=     2.1383
   XZ=     2.1208   YZ=     2.5488   ZZ=    34.0186
   Eigenvalues:    27.9169    31.7750    36.0567
     22  H    Isotropic =    31.7846   Anisotropy =     7.7413
   XX=    30.2703   YX=     0.2558   ZX=    -1.5688
   XY=     0.2128   YY=    35.7264   ZY=    -2.3523
   XZ=    -0.9496   YZ=    -3.5261   ZZ=    29.3571
   Eigenvalues:    27.7327    30.6757    36.9455
     23  H    Isotropic =    32.0312   Anisotropy =     8.7121
   XX=    30.0446   YX=     0.8631   ZX=     0.8432
   XY=     0.6310   YY=    28.2645   ZY=     0.1118
   XZ=     0.3581   YZ=    -0.7967   ZZ=    37.7844
   Eigenvalues:    27.9640    30.2902    37.8393
     24  H    Isotropic =    32.4228   Anisotropy =     9.7664
   XX=    38.5866   YX=    -1.5791   ZX=     0.5033
   XY=    -2.0310   YY=    29.3826   ZY=     0.6672
   XZ=     0.2222   YZ=     0.6339   ZZ=    29.2992
   Eigenvalues:    28.4498    29.8849    38.9337
     25  H    Isotropic =    32.0512   Anisotropy =     8.3468
   XX=    30.1330   YX=     1.6958   ZX=     1.6212
   XY=     1.3904   YY=    37.2327   ZY=    -0.0075
   XZ=     1.6916   YZ=     0.8054   ZZ=    28.7880
   Eigenvalues:    27.6413    30.8966    37.6157
     26  H    Isotropic =    32.0835   Anisotropy =     6.2844
   XX=    32.2310   YX=     0.3275   ZX=     2.8644
   XY=     1.3191   YY=    33.5376   ZY=     2.9938
   XZ=     2.8303   YZ=     2.0819   ZZ=    30.4819
   Eigenvalues:    27.8883    32.0891    36.2731
     27  H    Isotropic =    32.3335   Anisotropy =    10.3713
   XX=    36.7421   YX=    -4.3937   ZX=     0.0591
   XY=    -4.0415   YY=    32.1474   ZY=    -0.1695
   XZ=    -0.0660   YZ=    -0.0778   ZZ=    28.1112
   Eigenvalues:    28.1033    29.6496    39.2477
     28  H    Isotropic =    31.9818   Anisotropy =     7.5936
   XX=    30.4182   YX=    -0.4353   ZX=    -1.8736
   XY=     0.0198   YY=    31.0188   ZY=    -3.9826
   XZ=    -1.7302   YZ=    -3.1485   ZZ=    34.5084
   Eigenvalues:    28.1622    30.7390    37.0443
     29  H    Isotropic =    31.0291   Anisotropy =     9.7836
   XX=    31.5333   YX=    -2.1426   ZX=    -3.2623
   XY=    -1.3658   YY=    26.1235   ZY=    -0.7350
   XZ=    -3.8637   YZ=    -0.6290   ZZ=    35.4304
   Eigenvalues:    25.2827    30.2530    37.5514
     30  H    Isotropic =    31.3443   Anisotropy =     7.0553
   XX=    29.0052   YX=     1.1236   ZX=    -0.6744
   XY=     1.2662   YY=    35.3427   ZY=    -1.6908
   XZ=    -0.6479   YZ=    -1.6434   ZZ=    29.6851
   Eigenvalues:    28.5959    29.3892    36.0478
     31  H    Isotropic =    30.6655   Anisotropy =     7.8704
   XX=    34.6598   YX=    -0.4395   ZX=     1.8435
   XY=    -0.8614   YY=    25.0304   ZY=    -2.5638
   XZ=     1.6243   YZ=    -2.7678   ZZ=    32.3063
   Eigenvalues:    24.1576    31.9264    35.9124
     32  H    Isotropic =    30.5643   Anisotropy =     7.0010
   XX=    31.9486   YX=    -1.4761   ZX=     0.2543
   XY=    -1.7487   YY=    29.1950   ZY=     5.0980
   XZ=     0.0024   YZ=     4.9339   ZZ=    30.5493
   Eigenvalues:    24.5791    31.8822    35.2316
     33  H    Isotropic =    30.1317   Anisotropy =     4.4705
   XX=    33.0040   YX=    -0.3956   ZX=    -0.3304
   XY=    -0.3897   YY=    28.0191   ZY=    -4.2848
   XZ=    -0.1353   YZ=    -4.2987   ZZ=    29.3719
   Eigenvalues:    24.3275    32.9555    33.1120
     34  H    Isotropic =    30.9287   Anisotropy =    11.3790
   XX=    37.1242   YX=    -1.4966   ZX=    -3.8155
   XY=    -1.3006   YY=    26.1880   ZY=     0.0683
   XZ=    -2.8423   YZ=     0.0770   ZZ=    29.4739
   Eigenvalues:    25.9655    28.3058    38.5147
     35  H    Isotropic =    31.1909   Anisotropy =     8.7928
   XX=    31.4206   YX=    -2.7258   ZX=     2.1223
   XY=    -2.2863   YY=    32.7159   ZY=    -3.7230
   XZ=     1.2658   YZ=    -4.3399   ZZ=    29.4361
   Eigenvalues:    26.7238    29.7961    37.0527
     36  H    Isotropic =    30.5749   Anisotropy =     8.0742
   XX=    32.9948   YX=     1.3655   ZX=     2.9670
   XY=     1.2561   YY=    29.6979   ZY=     3.5368
   XZ=     2.4605   YZ=     4.1060   ZZ=    29.0320
   Eigenvalues:    25.3423    30.4247    35.9577
     37  C    Isotropic =   142.5156   Anisotropy =    34.5394
   XX=   123.0047   YX=     1.0897   ZX=     0.2661
   XY=     1.3601   YY=   164.6842   ZY=    -3.8723
   XZ=    -2.7968   YZ=    -5.2403   ZZ=   139.8581
   Eigenvalues:   122.8910   139.1140   165.5419
     38  C    Isotropic =    46.1639   Anisotropy =   177.1054
   XX=    46.0147   YX=    24.0966   ZX=    78.0115
   XY=    25.7204   YY=     8.0730   ZY=   -81.3264
   XZ=    78.9514   YZ=   -81.1239   ZZ=    84.4040
   Eigenvalues:   -79.0413    53.2989   164.2342
     39  C    Isotropic =    62.9974   Anisotropy =   143.1179
   XX=    74.6420   YX=    26.8632   ZX=    61.5072
   XY=    29.8111   YY=    25.0548   ZY=   -75.2762
   XZ=    60.2862   YZ=   -76.8275   ZZ=    89.2953
   Eigenvalues:   -52.5401    83.1230   158.4093
     40  H    Isotropic =    29.6629   Anisotropy =     4.8925
   XX=    30.5668   YX=     0.7990   ZX=     2.2225
   XY=     0.7141   YY=    28.3369   ZY=    -2.3078
   XZ=     2.4975   YZ=    -2.0869   ZZ=    30.0851
   Eigenvalues:    25.9420    30.1221    32.9246
     41  H    Isotropic =    29.6161   Anisotropy =     4.2105
   XX=    30.5076   YX=    -0.2485   ZX=    -1.6335
   XY=    -1.2453   YY=    29.1574   ZY=    -0.9472
   XZ=    -3.3487   YZ=    -1.0100   ZZ=    29.1834
   Eigenvalues:    26.6609    29.7644    32.4231
     42  H    Isotropic =    25.8701   Anisotropy =     7.2972
   XX=    25.4405   YX=     1.0457   ZX=    -0.5618
   XY=     2.6838   YY=    29.7150   ZY=    -1.8096
   XZ=    -0.0966   YZ=    -1.4221   ZZ=    22.4549
   Eigenvalues:    22.1100    24.7655    30.7349
     43  H    Isotropic =    26.6653   Anisotropy =     6.5390
   XX=    26.5055   YX=     3.5070   ZX=     0.7393
   XY=     1.8585   YY=    29.2058   ZY=    -0.7953
   XZ=    -0.0922   YZ=    -2.0547   ZZ=    24.2847
   Eigenvalues:    23.4119    25.5594    31.0247
     44  H    Isotropic =    26.6718   Anisotropy =     6.5326
   XX=    27.1314   YX=     1.1277   ZX=    -0.6982
   XY=     3.4875   YY=    28.3243   ZY=    -3.4533
   XZ=     0.4452   YZ=    -2.2729   ZZ=    24.5596
   Eigenvalues:    22.7578    26.2306    31.0269
 End of Minotr F.D. properties file   721 does not exist.
 End of Minotr F.D. properties file   722 does not exist.
 End of Minotr F.D. properties file   788 does not exist.

 **********************************************************************

            Population analysis using the SCF density.

 **********************************************************************

 Orbital symmetries:
       Occupied  (A) (A) (A) (A) (A) (A) (A) (A) (A) (A) (A) (A)
                 (A) (A) (A) (A) (A) (A) (A) (A) (A) (A) (A) (A)
                 (A) (A) (A) (A) (A) (A) (A) (A) (A) (A) (A) (A)
                 (A) (A) (A) (A) (A) (A) (A) (A) (A) (A) (A) (A)
                 (A) (A) (A) (A) (A) (A) (A) (A) (A) (A) (A) (A)
                 (A) (A) (A) (A) (A) (A) (A) (A) (A) (A) (A) (A)
                 (A) (A)
       Virtual   (A) (A) (A) (A) (A) (A) (A) (A) (A) (A) (A) (A)
                 (A) (A) (A) (A) (A) (A) (A) (A) (A) (A) (A) (A)
                 (A) (A) (A) (A) (A) (A) (A) (A) (A) (A) (A) (A)
                 (A) (A) (A) (A) (A) (A) (A) (A) (A) (A) (A) (A)
                 (A) (A) (A) (A) (A) (A) (A) (A) (A) (A) (A) (A)
                 (A) (A) (A) (A) (A) (A) (A) (A) (A) (A) (A) (A)
                 (A) (A) (A) (A) (A) (A) (A) (A) (A) (A) (A) (A)
                 (A) (A) (A) (A) (A) (A) (A) (A) (A) (A) (A) (A)
                 (A) (A) (A) (A) (A) (A) (A) (A) (A) (A) (A) (A)
                 (A) (A) (A) (A) (A) (A) (A) (A) (A) (A) (A) (A)
                 (A) (A) (A) (A) (A) (A) (A) (A) (A) (A) (A) (A)
                 (A) (A) (A) (A) (A) (A) (A) (A) (A) (A) (A) (A)
                 (A) (A) (A) (A) (A) (A) (A) (A) (A) (A) (A) (A)
                 (A) (A) (A) (A) (A) (A) (A) (A) (A) (A) (A) (A)
                 (A) (A) (A) (A) (A) (A) (A) (A) (A) (A) (A) (A)
                 (A) (A) (A) (A) (A) (A) (A) (A) (A) (A) (A) (A)
                 (A) (A) (A) (A) (A) (A) (A) (A) (A) (A) (A) (A)
                 (A) (A) (A) (A) (A) (A) (A) (A) (A) (A) (A) (A)
                 (A) (A) (A) (A) (A) (A) (A) (A) (A) (A) (A) (A)
                 (A) (A) (A) (A) (A) (A) (A) (A) (A) (A) (A) (A)
                 (A) (A) (A) (A) (A) (A) (A) (A) (A) (A) (A) (A)
                 (A) (A) (A) (A) (A) (A) (A) (A) (A) (A) (A) (A)
                 (A) (A) (A) (A) (A) (A) (A) (A) (A) (A) (A) (A)
                 (A) (A) (A) (A) (A) (A) (A) (A) (A) (A) (A) (A)
                 (A) (A) (A) (A) (A) (A) (A) (A) (A) (A) (A) (A)
                 (A) (A) (A) (A) (A) (A) (A) (A) (A) (A) (A) (A)
                 (A) (A) (A) (A) (A) (A) (A) (A) (A) (A) (A) (A)
                 (A) (A) (A) (A) (A) (A) (A) (A) (A) (A) (A) (A)
 The electronic state is 1-A.
 Alpha  occ. eigenvalues --  -66.26931 -19.26490 -19.21226 -19.20331 -10.37702
 Alpha  occ. eigenvalues --  -10.32277 -10.30696 -10.25548 -10.25290 -10.24711
 Alpha  occ. eigenvalues --  -10.24505 -10.23882 -10.23073 -10.22343 -10.22032
 Alpha  occ. eigenvalues --  -10.20847 -10.20477 -10.20451  -5.32759  -3.66605
 Alpha  occ. eigenvalues --   -3.66374  -3.66341  -1.13747  -1.05160  -1.04073
 Alpha  occ. eigenvalues --   -0.86002  -0.83329  -0.81141  -0.77722  -0.74037
 Alpha  occ. eigenvalues --   -0.73327  -0.71464  -0.70283  -0.69874  -0.66600
 Alpha  occ. eigenvalues --   -0.64239  -0.62415  -0.58597  -0.55164  -0.53660
 Alpha  occ. eigenvalues --   -0.53429  -0.51270  -0.49767  -0.48404  -0.47716
 Alpha  occ. eigenvalues --   -0.47022  -0.45544  -0.45099  -0.44318  -0.43559
 Alpha  occ. eigenvalues --   -0.42764  -0.42749  -0.42351  -0.42043  -0.40938
 Alpha  occ. eigenvalues --   -0.40721  -0.40194  -0.39882  -0.39600  -0.39044
 Alpha  occ. eigenvalues --   -0.38636  -0.37288  -0.37053  -0.36702  -0.36427
 Alpha  occ. eigenvalues --   -0.35730  -0.34409  -0.33460  -0.31750  -0.31271
 Alpha  occ. eigenvalues --   -0.30386  -0.29624  -0.28442  -0.27480
 Alpha virt. eigenvalues --   -0.00928   0.00967   0.03946   0.05149   0.06124
 Alpha virt. eigenvalues --    0.06561   0.07609   0.07976   0.08480   0.08636
 Alpha virt. eigenvalues --    0.09048   0.09741   0.10662   0.11076   0.11246
 Alpha virt. eigenvalues --    0.12160   0.12545   0.12887   0.13755   0.13983
 Alpha virt. eigenvalues --    0.14128   0.14803   0.14957   0.15222   0.15937
 Alpha virt. eigenvalues --    0.16296   0.16730   0.17541   0.17727   0.18386
 Alpha virt. eigenvalues --    0.18916   0.19435   0.20200   0.20519   0.21518
 Alpha virt. eigenvalues --    0.21676   0.22437   0.23074   0.23754   0.24957
 Alpha virt. eigenvalues --    0.25457   0.25708   0.26432   0.26840   0.28076
 Alpha virt. eigenvalues --    0.28919   0.30241   0.31177   0.31709   0.32199
 Alpha virt. eigenvalues --    0.33001   0.34080   0.34340   0.35479   0.35606
 Alpha virt. eigenvalues --    0.36485   0.37370   0.39131   0.39994   0.40601
 Alpha virt. eigenvalues --    0.41357   0.42348   0.42827   0.43672   0.44518
 Alpha virt. eigenvalues --    0.45379   0.45708   0.47421   0.47777   0.48354
 Alpha virt. eigenvalues --    0.48947   0.50352   0.50774   0.51674   0.52356
 Alpha virt. eigenvalues --    0.52529   0.53332   0.54793   0.55521   0.55773
 Alpha virt. eigenvalues --    0.57143   0.57591   0.57972   0.58541   0.58679
 Alpha virt. eigenvalues --    0.58858   0.59703   0.60420   0.60809   0.61257
 Alpha virt. eigenvalues --    0.61668   0.61986   0.62655   0.62983   0.63195
 Alpha virt. eigenvalues --    0.63622   0.63915   0.64300   0.65090   0.65352
 Alpha virt. eigenvalues --    0.65466   0.67316   0.67398   0.67920   0.68067
 Alpha virt. eigenvalues --    0.68582   0.69208   0.69782   0.70751   0.71272
 Alpha virt. eigenvalues --    0.72004   0.72837   0.74092   0.74283   0.74477
 Alpha virt. eigenvalues --    0.76228   0.76736   0.77828   0.79851   0.80424
 Alpha virt. eigenvalues --    0.82519   0.84426   0.86043   0.86975   0.88336
 Alpha virt. eigenvalues --    0.89599   0.91125   0.91922   0.93121   0.93811
 Alpha virt. eigenvalues --    0.94816   0.96670   0.99573   1.00241   1.00637
 Alpha virt. eigenvalues --    1.02140   1.04044   1.04311   1.05996   1.09117
 Alpha virt. eigenvalues --    1.11935   1.14898   1.16469   1.17914   1.19123
 Alpha virt. eigenvalues --    1.21101   1.22273   1.23711   1.25956   1.27575
 Alpha virt. eigenvalues --    1.28859   1.30424   1.31244   1.31531   1.32840
 Alpha virt. eigenvalues --    1.35042   1.36329   1.37195   1.38892   1.41469
 Alpha virt. eigenvalues --    1.43549   1.43658   1.45958   1.47375   1.48918
 Alpha virt. eigenvalues --    1.49819   1.50861   1.52490   1.52625   1.53682
 Alpha virt. eigenvalues --    1.54912   1.55137   1.55625   1.56846   1.58156
 Alpha virt. eigenvalues --    1.58770   1.59052   1.59567   1.59790   1.60264
 Alpha virt. eigenvalues --    1.61219   1.61682   1.62447   1.63300   1.64181
 Alpha virt. eigenvalues --    1.64497   1.65837   1.67051   1.67764   1.68383
 Alpha virt. eigenvalues --    1.69477   1.70685   1.71966   1.73423   1.73743
 Alpha virt. eigenvalues --    1.74638   1.76170   1.77984   1.79449   1.81202
 Alpha virt. eigenvalues --    1.81579   1.82489   1.84809   1.85012   1.87183
 Alpha virt. eigenvalues --    1.89741   1.90888   1.93623   1.95297   1.98209
 Alpha virt. eigenvalues --    1.99410   2.01677   2.06855   2.09400   2.11244
 Alpha virt. eigenvalues --    2.13534   2.16449   2.20465   2.23503   2.25331
 Alpha virt. eigenvalues --    2.28088   2.29516   2.33966   2.36592   2.40505
 Alpha virt. eigenvalues --    2.41493   2.41977   2.42489   2.43564   2.43686
 Alpha virt. eigenvalues --    2.44709   2.45338   2.45941   2.46777   2.47633
 Alpha virt. eigenvalues --    2.48632   2.49439   2.50438   2.51085   2.51580
 Alpha virt. eigenvalues --    2.52278   2.53967   2.56149   2.58344   2.58569
 Alpha virt. eigenvalues --    2.62560   2.64422   2.65899   2.72116   2.79676
 Alpha virt. eigenvalues --    2.80340   2.86991   2.88452   2.89365   2.91374
 Alpha virt. eigenvalues --    2.92411   2.93024   2.95047   2.96639   2.97506
 Alpha virt. eigenvalues --    3.00286   3.00763   3.02527   3.05842   3.07481
 Alpha virt. eigenvalues --    3.10286   3.11419   3.11866   3.13613   3.14683
 Alpha virt. eigenvalues --    3.15974   3.17286   3.17832   3.18430   3.18883
 Alpha virt. eigenvalues --    3.22708   3.23348   3.23508   3.24152   3.25372
 Alpha virt. eigenvalues --    3.26775   3.28489   3.29481   3.29795   3.31297
 Alpha virt. eigenvalues --    3.33726   3.34198   3.37217   3.39828   3.42232
 Alpha virt. eigenvalues --    3.43570   3.51232   3.56600   3.60236   3.60934
 Alpha virt. eigenvalues --    3.76430   3.89948   3.90042   3.98487   4.01045
 Alpha virt. eigenvalues --    4.08569   4.11846   4.18798   4.21175   4.24969
 Alpha virt. eigenvalues --    4.94536   4.99644   5.01961   5.10515   5.13858
 Alpha virt. eigenvalues --    5.24326   5.50557   5.53588   5.77241   5.84917
 Alpha virt. eigenvalues --   11.52362  11.54564  11.59090  23.41223  23.48864
 Alpha virt. eigenvalues --   23.54701  23.55426  23.57774  23.62446  23.69710
 Alpha virt. eigenvalues --   23.74291  23.77321  23.77978  23.81076  23.85635
 Alpha virt. eigenvalues --   23.88591  24.27060  49.98290  50.06106  50.11687
 Alpha virt. eigenvalues --  141.29122
          Condensed to atoms (all electrons):
               1          2          3          4          5          6
     1  C    5.301164   0.240786  -0.057917  -0.001077  -0.055711   0.394026
     2  C    0.240786   5.572044   0.303316  -0.087982  -0.016154  -0.046408
     3  C   -0.057917   0.303316   5.186250   0.228234  -0.012410  -0.015764
     4  C   -0.001077  -0.087982   0.228234   5.895447   0.235202   0.002979
     5  C   -0.055711  -0.016154  -0.012410   0.235202   4.401437  -0.003336
     6  H    0.394026  -0.046408  -0.015764   0.002979  -0.003336   0.476734
     7  H   -0.033046   0.392886  -0.038565   0.007918   0.000276  -0.001290
     8  H   -0.001168   0.007899  -0.030792   0.351509  -0.025644   0.000192
     9  H    0.002096  -0.007864  -0.028771   0.371787  -0.021806  -0.000248
    10  O    0.203449  -0.034509   0.001219  -0.107077   0.347610  -0.035303
    11  O    0.000935  -0.000197   0.003335  -0.103944   0.663484   0.000298
    12  C    0.318576  -0.052844   0.008673  -0.002413   0.003067  -0.049025
    13  C   -0.076823   0.007213  -0.000123   0.000098  -0.000192  -0.007706
    14  C   -0.079419   0.297336  -0.077337  -0.008359   0.000623   0.007317
    15  O    0.004066  -0.061002   0.223651  -0.022852   0.001715  -0.000029
    16  Si   0.000511   0.001641  -0.050853  -0.009420   0.000954  -0.000146
    17  C    0.000002  -0.000057  -0.001350   0.001488   0.000140   0.000001
    18  C    0.000010  -0.000264  -0.000715  -0.002081   0.000088   0.000001
    19  C   -0.000001  -0.000046   0.002496  -0.000131   0.000001   0.000000
    20  H    0.000000   0.000007  -0.000063   0.000060   0.000000   0.000000
    21  H    0.000008  -0.000081   0.000291   0.001336  -0.000055  -0.000004
    22  H    0.000003  -0.000091  -0.000442   0.000301   0.000004   0.000000
    23  H   -0.000001   0.000043  -0.000151  -0.000040   0.000000   0.000000
    24  H    0.000000   0.000002  -0.000079  -0.000003   0.000000   0.000000
    25  H    0.000000  -0.000011  -0.000114  -0.000017   0.000000   0.000000
    26  H    0.000000   0.000020  -0.000198   0.001550   0.000071   0.000001
    27  H    0.000000  -0.000001  -0.000024   0.000134  -0.000001   0.000000
    28  H   -0.000001   0.000081   0.000467  -0.000048  -0.000031   0.000000
    29  H   -0.007676  -0.032604   0.006827  -0.000517  -0.000007  -0.000286
    30  H   -0.007473  -0.041442  -0.010813   0.006589  -0.001469   0.000709
    31  H    0.006828  -0.033952  -0.006172   0.000049  -0.000120  -0.000125
    32  H   -0.048919   0.001431  -0.000113   0.000133  -0.000025   0.000949
    33  H   -0.038330  -0.010444  -0.000593   0.000151  -0.000193   0.007239
    34  H    0.008641  -0.000263   0.000013  -0.000002   0.000009  -0.000224
    35  H   -0.004594  -0.000421  -0.000024  -0.000008  -0.000070   0.006072
    36  H   -0.011847   0.000765  -0.000051   0.000286   0.000532   0.000281
    37  C   -0.000517  -0.091961   0.308338  -0.107967   0.001963   0.005381
    38  C   -0.001543  -0.005777  -0.066819   0.008330  -0.000153  -0.000860
    39  C    0.000034   0.000248  -0.001576  -0.000177   0.000008   0.000057
    40  H    0.001544  -0.003921  -0.037295  -0.002807   0.003936  -0.000357
    41  H   -0.000434   0.007137  -0.030114  -0.006151  -0.000158   0.000433
    42  H   -0.000848   0.004028  -0.004379  -0.000296  -0.000025   0.001732
    43  H    0.000003   0.000002  -0.000243   0.000016   0.000000  -0.000006
    44  H   -0.000009   0.000033   0.000179  -0.000090   0.000000   0.000003
               7          8          9         10         11         12
     1  C   -0.033046  -0.001168   0.002096   0.203449   0.000935   0.318576
     2  C    0.392886   0.007899  -0.007864  -0.034509  -0.000197  -0.052844
     3  C   -0.038565  -0.030792  -0.028771   0.001219   0.003335   0.008673
     4  C    0.007918   0.351509   0.371787  -0.107077  -0.103944  -0.002413
     5  C    0.000276  -0.025644  -0.021806   0.347610   0.663484   0.003067
     6  H   -0.001290   0.000192  -0.000248  -0.035303   0.000298  -0.049025
     7  H    0.451398  -0.000036  -0.000113   0.003167   0.000022  -0.003394
     8  H   -0.000036   0.426435  -0.016242   0.005656   0.015153   0.000065
     9  H   -0.000113  -0.016242   0.393333  -0.000566   0.001366   0.000015
    10  O    0.003167   0.005656  -0.000566   8.029040  -0.069686  -0.048160
    11  O    0.000022   0.015153   0.001366  -0.069686   7.869477  -0.000151
    12  C   -0.003394   0.000065   0.000015  -0.048160  -0.000151   5.321359
    13  C   -0.000301  -0.000004   0.000010  -0.002257  -0.000013   0.316927
    14  C   -0.037665   0.000125   0.000426  -0.000650  -0.000002  -0.014566
    15  O    0.002985  -0.001634  -0.001422  -0.000021  -0.000017  -0.000074
    16  Si  -0.000157  -0.001669  -0.006052  -0.000450  -0.001073   0.000010
    17  C    0.000032  -0.000273  -0.001486  -0.000001   0.000008   0.000000
    18  C    0.000003   0.002832   0.000240   0.000000   0.000009   0.000000
    19  C   -0.000034  -0.000019  -0.000051   0.000000   0.000000   0.000000
    20  H    0.000000   0.000039   0.000000   0.000000   0.000000   0.000000
    21  H   -0.000002   0.003636  -0.000147  -0.000004  -0.000111   0.000000
    22  H    0.000000  -0.000215   0.000009   0.000000   0.000000   0.000000
    23  H   -0.000010  -0.000008  -0.000016   0.000000   0.000000   0.000000
    24  H    0.000000  -0.000003   0.000000   0.000000   0.000000   0.000000
    25  H   -0.000006  -0.000009  -0.000008   0.000000   0.000000   0.000000
    26  H    0.000006   0.000168   0.000673   0.000000  -0.000005   0.000000
    27  H    0.000000   0.000007   0.000305   0.000000   0.000000   0.000000
    28  H    0.000008   0.000059  -0.000053   0.000000   0.000002   0.000000
    29  H   -0.006014   0.000011   0.000175   0.000031   0.000001   0.002970
    30  H    0.006776   0.000492  -0.000256   0.008704  -0.000232  -0.003303
    31  H   -0.002166  -0.000133   0.000417  -0.000153   0.000003   0.000078
    32  H    0.001765  -0.000004  -0.000014   0.003331   0.000007   0.394159
    33  H    0.000399   0.000006  -0.000070   0.002356  -0.000040   0.388158
    34  H   -0.000017   0.000000   0.000000  -0.000212   0.000000  -0.038614
    35  H    0.000047   0.000000   0.000000  -0.000292  -0.000002  -0.042980
    36  H   -0.000049  -0.000008  -0.000008   0.011105   0.000151  -0.037913
    37  C   -0.009621  -0.006859   0.005657  -0.003669   0.000073  -0.000381
    38  C    0.005456   0.000166  -0.000177   0.000275  -0.000004   0.000030
    39  C    0.000713   0.000004   0.000004   0.000001   0.000000   0.000003
    40  H    0.000656   0.000026   0.000076   0.000054   0.000223   0.000611
    41  H   -0.000142   0.002548  -0.000072  -0.000132   0.000055   0.000003
    42  H    0.000920  -0.000006   0.000010   0.000005   0.000001   0.000072
    43  H    0.000041   0.000002  -0.000001   0.000000   0.000000   0.000000
    44  H   -0.000032  -0.000023   0.000003   0.000000   0.000000   0.000000
              13         14         15         16         17         18
     1  C   -0.076823  -0.079419   0.004066   0.000511   0.000002   0.000010
     2  C    0.007213   0.297336  -0.061002   0.001641  -0.000057  -0.000264
     3  C   -0.000123  -0.077337   0.223651  -0.050853  -0.001350  -0.000715
     4  C    0.000098  -0.008359  -0.022852  -0.009420   0.001488  -0.002081
     5  C   -0.000192   0.000623   0.001715   0.000954   0.000140   0.000088
     6  H   -0.007706   0.007317  -0.000029  -0.000146   0.000001   0.000001
     7  H   -0.000301  -0.037665   0.002985  -0.000157   0.000032   0.000003
     8  H   -0.000004   0.000125  -0.001634  -0.001669  -0.000273   0.002832
     9  H    0.000010   0.000426  -0.001422  -0.006052  -0.001486   0.000240
    10  O   -0.002257  -0.000650  -0.000021  -0.000450  -0.000001   0.000000
    11  O   -0.000013  -0.000002  -0.000017  -0.001073   0.000008   0.000009
    12  C    0.316927  -0.014566  -0.000074   0.000010   0.000000   0.000000
    13  C    5.343168  -0.000026   0.000001   0.000002   0.000000   0.000000
    14  C   -0.000026   5.429509  -0.006299  -0.001193   0.000088  -0.000003
    15  O    0.000001  -0.006299   8.252254   0.355260  -0.024789  -0.021054
    16  Si   0.000002  -0.001193   0.355260  11.534658   0.316225   0.314402
    17  C    0.000000   0.000088  -0.024789   0.316225   5.779358  -0.058893
    18  C    0.000000  -0.000003  -0.021054   0.314402  -0.058893   5.813802
    19  C    0.000000  -0.000022  -0.021969   0.336891  -0.054657  -0.050127
    20  H    0.000000   0.000000   0.000751  -0.009713   0.000141   0.366192
    21  H    0.000000   0.000002  -0.000956  -0.028395  -0.001329   0.364236
    22  H    0.000000   0.000002  -0.001671  -0.025978   0.002417   0.365252
    23  H    0.000000  -0.000003  -0.001217  -0.026700  -0.000546   0.002617
    24  H    0.000000  -0.000002   0.000913  -0.014489   0.000728  -0.000172
    25  H    0.000000  -0.000002  -0.001490  -0.027311   0.002526  -0.000679
    26  H    0.000000  -0.000001  -0.001376  -0.030555   0.370835  -0.001346
    27  H    0.000000   0.000001   0.000898  -0.011559   0.364120   0.000812
    28  H    0.000000   0.000273  -0.002347  -0.027111   0.370667   0.002343
    29  H    0.000299   0.390153   0.000193   0.000258  -0.000006   0.000000
    30  H   -0.000216   0.386708   0.000140  -0.000928   0.000141   0.000004
    31  H    0.000012   0.385899   0.006961   0.001184   0.000331   0.000042
    32  H   -0.039237  -0.000878  -0.000012  -0.000006   0.000000   0.000000
    33  H   -0.043745   0.003282  -0.000001  -0.000008   0.000000   0.000000
    34  H    0.393373   0.000006   0.000000   0.000000   0.000000   0.000000
    35  H    0.386113   0.000008   0.000000   0.000000   0.000000   0.000000
    36  H    0.385363  -0.000078   0.000000   0.000001   0.000000   0.000000
    37  C   -0.000051   0.008319  -0.056901  -0.015801  -0.000406  -0.001625
    38  C    0.000008  -0.000269   0.002349   0.001176   0.000028   0.000224
    39  C    0.000000  -0.000012   0.000454   0.001669  -0.000003  -0.001303
    40  H   -0.000011  -0.000315   0.003751   0.002490   0.000025  -0.000051
    41  H   -0.000002  -0.000122  -0.003155  -0.005457  -0.000143  -0.003468
    42  H   -0.000016   0.000275   0.000022  -0.000228   0.000000  -0.000017
    43  H    0.000000  -0.000002   0.000046   0.000201   0.000000   0.000032
    44  H    0.000000   0.000002  -0.000016  -0.001127   0.000007   0.000802
              19         20         21         22         23         24
     1  C   -0.000001   0.000000   0.000008   0.000003  -0.000001   0.000000
     2  C   -0.000046   0.000007  -0.000081  -0.000091   0.000043   0.000002
     3  C    0.002496  -0.000063   0.000291  -0.000442  -0.000151  -0.000079
     4  C   -0.000131   0.000060   0.001336   0.000301  -0.000040  -0.000003
     5  C    0.000001   0.000000  -0.000055   0.000004   0.000000   0.000000
     6  H    0.000000   0.000000  -0.000004   0.000000   0.000000   0.000000
     7  H   -0.000034   0.000000  -0.000002   0.000000  -0.000010   0.000000
     8  H   -0.000019   0.000039   0.003636  -0.000215  -0.000008  -0.000003
     9  H   -0.000051   0.000000  -0.000147   0.000009  -0.000016   0.000000
    10  O    0.000000   0.000000  -0.000004   0.000000   0.000000   0.000000
    11  O    0.000000   0.000000  -0.000111   0.000000   0.000000   0.000000
    12  C    0.000000   0.000000   0.000000   0.000000   0.000000   0.000000
    13  C    0.000000   0.000000   0.000000   0.000000   0.000000   0.000000
    14  C   -0.000022   0.000000   0.000002   0.000002  -0.000003  -0.000002
    15  O   -0.021969   0.000751  -0.000956  -0.001671  -0.001217   0.000913
    16  Si   0.336891  -0.009713  -0.028395  -0.025978  -0.026700  -0.014489
    17  C   -0.054657   0.000141  -0.001329   0.002417  -0.000546   0.000728
    18  C   -0.050127   0.366192   0.364236   0.365252   0.002617  -0.000172
    19  C    5.723359  -0.000905   0.003066  -0.000756   0.369190   0.363547
    20  H   -0.000905   0.435215  -0.019936  -0.020657  -0.000074   0.000582
    21  H    0.003066  -0.019936   0.449711  -0.018629  -0.000099  -0.000062
    22  H   -0.000756  -0.020657  -0.018629   0.442688  -0.000041  -0.000093
    23  H    0.369190  -0.000074  -0.000099  -0.000041   0.457893  -0.020765
    24  H    0.363547   0.000582  -0.000062  -0.000093  -0.020765   0.455664
    25  H    0.368282  -0.000030  -0.000078   0.001250  -0.018071  -0.020542
    26  H    0.002724   0.000082   0.001203  -0.000042  -0.000089  -0.000078
    27  H   -0.000979   0.000388  -0.000004  -0.000049  -0.000076   0.000818
    28  H   -0.000553  -0.000025  -0.000058  -0.000097   0.001094  -0.000028
    29  H    0.000000   0.000000   0.000000   0.000000   0.000001   0.000000
    30  H    0.000001   0.000000  -0.000003   0.000000  -0.000003   0.000000
    31  H   -0.000010   0.000000   0.000004   0.000001   0.000092  -0.000006
    32  H    0.000000   0.000000   0.000000   0.000000   0.000000   0.000000
    33  H    0.000000   0.000000   0.000000   0.000000   0.000000   0.000000
    34  H    0.000000   0.000000   0.000000   0.000000   0.000000   0.000000
    35  H    0.000000   0.000000   0.000000   0.000000   0.000000   0.000000
    36  H    0.000000   0.000000   0.000000   0.000000   0.000000   0.000000
    37  C   -0.000164   0.000336  -0.000927   0.000077  -0.000019   0.000002
    38  C   -0.000169  -0.000028   0.000240   0.000065  -0.000016  -0.000002
    39  C   -0.000161   0.000018  -0.000004   0.001603  -0.000009  -0.000010
    40  H   -0.000004  -0.000007  -0.000111   0.000000   0.000001   0.000000
    41  H   -0.000026   0.000629   0.000947  -0.000719  -0.000006   0.000003
    42  H    0.000000   0.000001   0.000000   0.000010   0.000000   0.000000
    43  H    0.000000  -0.000001  -0.000003  -0.000027   0.000000   0.000000
    44  H    0.000049   0.000021  -0.000092   0.004777  -0.000005   0.000000
              25         26         27         28         29         30
     1  C    0.000000   0.000000   0.000000  -0.000001  -0.007676  -0.007473
     2  C   -0.000011   0.000020  -0.000001   0.000081  -0.032604  -0.041442
     3  C   -0.000114  -0.000198  -0.000024   0.000467   0.006827  -0.010813
     4  C   -0.000017   0.001550   0.000134  -0.000048  -0.000517   0.006589
     5  C    0.000000   0.000071  -0.000001  -0.000031  -0.000007  -0.001469
     6  H    0.000000   0.000001   0.000000   0.000000  -0.000286   0.000709
     7  H   -0.000006   0.000006   0.000000   0.000008  -0.006014   0.006776
     8  H   -0.000009   0.000168   0.000007   0.000059   0.000011   0.000492
     9  H   -0.000008   0.000673   0.000305  -0.000053   0.000175  -0.000256
    10  O    0.000000   0.000000   0.000000   0.000000   0.000031   0.008704
    11  O    0.000000  -0.000005   0.000000   0.000002   0.000001  -0.000232
    12  C    0.000000   0.000000   0.000000   0.000000   0.002970  -0.003303
    13  C    0.000000   0.000000   0.000000   0.000000   0.000299  -0.000216
    14  C   -0.000002  -0.000001   0.000001   0.000273   0.390153   0.386708
    15  O   -0.001490  -0.001376   0.000898  -0.002347   0.000193   0.000140
    16  Si  -0.027311  -0.030555  -0.011559  -0.027111   0.000258  -0.000928
    17  C    0.002526   0.370835   0.364120   0.370667  -0.000006   0.000141
    18  C   -0.000679  -0.001346   0.000812   0.002343   0.000000   0.000004
    19  C    0.368282   0.002724  -0.000979  -0.000553   0.000000   0.000001
    20  H   -0.000030   0.000082   0.000388  -0.000025   0.000000   0.000000
    21  H   -0.000078   0.001203  -0.000004  -0.000058   0.000000  -0.000003
    22  H    0.001250  -0.000042  -0.000049  -0.000097   0.000000   0.000000
    23  H   -0.018071  -0.000089  -0.000076   0.001094   0.000001  -0.000003
    24  H   -0.020542  -0.000078   0.000818  -0.000028   0.000000   0.000000
    25  H    0.456276  -0.000116   0.000020  -0.000095   0.000001  -0.000001
    26  H   -0.000116   0.457756  -0.022697  -0.018890  -0.000003  -0.000001
    27  H    0.000020  -0.022697   0.449013  -0.020429   0.000000  -0.000005
    28  H   -0.000095  -0.018890  -0.020429   0.451987  -0.000010   0.000075
    29  H    0.000001  -0.000003   0.000000  -0.000010   0.457521  -0.026488
    30  H   -0.000001  -0.000001  -0.000005   0.000075  -0.026488   0.474403
    31  H   -0.000018  -0.000007   0.000010   0.000696  -0.026774  -0.023644
    32  H    0.000000   0.000000   0.000000   0.000000   0.000388   0.000358
    33  H    0.000000   0.000000   0.000000   0.000000  -0.002272   0.001843
    34  H    0.000000   0.000000   0.000000   0.000000   0.000010  -0.000007
    35  H    0.000000   0.000000   0.000000   0.000000  -0.000028   0.000004
    36  H    0.000000   0.000000   0.000000   0.000000  -0.000016   0.000019
    37  C    0.000036  -0.000051   0.000006  -0.000058  -0.000136  -0.000023
    38  C    0.000256   0.000002   0.000001   0.000003  -0.000014  -0.000044
    39  C    0.000648   0.000000   0.000000   0.000001   0.000000   0.000000
    40  H    0.000001   0.000012   0.000000   0.000005  -0.000014  -0.000021
    41  H   -0.000019  -0.000053   0.000001  -0.000006   0.000012   0.000015
    42  H   -0.000003   0.000000   0.000000   0.000000   0.000018  -0.000001
    43  H    0.000009   0.000000   0.000000   0.000000   0.000000   0.000000
    44  H    0.000054   0.000000   0.000000  -0.000001   0.000000   0.000000
              31         32         33         34         35         36
     1  C    0.006828  -0.048919  -0.038330   0.008641  -0.004594  -0.011847
     2  C   -0.033952   0.001431  -0.010444  -0.000263  -0.000421   0.000765
     3  C   -0.006172  -0.000113  -0.000593   0.000013  -0.000024  -0.000051
     4  C    0.000049   0.000133   0.000151  -0.000002  -0.000008   0.000286
     5  C   -0.000120  -0.000025  -0.000193   0.000009  -0.000070   0.000532
     6  H   -0.000125   0.000949   0.007239  -0.000224   0.006072   0.000281
     7  H   -0.002166   0.001765   0.000399  -0.000017   0.000047  -0.000049
     8  H   -0.000133  -0.000004   0.000006   0.000000   0.000000  -0.000008
     9  H    0.000417  -0.000014  -0.000070   0.000000   0.000000  -0.000008
    10  O   -0.000153   0.003331   0.002356  -0.000212  -0.000292   0.011105
    11  O    0.000003   0.000007  -0.000040   0.000000  -0.000002   0.000151
    12  C    0.000078   0.394159   0.388158  -0.038614  -0.042980  -0.037913
    13  C    0.000012  -0.039237  -0.043745   0.393373   0.386113   0.385363
    14  C    0.385899  -0.000878   0.003282   0.000006   0.000008  -0.000078
    15  O    0.006961  -0.000012  -0.000001   0.000000   0.000000   0.000000
    16  Si   0.001184  -0.000006  -0.000008   0.000000   0.000000   0.000001
    17  C    0.000331   0.000000   0.000000   0.000000   0.000000   0.000000
    18  C    0.000042   0.000000   0.000000   0.000000   0.000000   0.000000
    19  C   -0.000010   0.000000   0.000000   0.000000   0.000000   0.000000
    20  H    0.000000   0.000000   0.000000   0.000000   0.000000   0.000000
    21  H    0.000004   0.000000   0.000000   0.000000   0.000000   0.000000
    22  H    0.000001   0.000000   0.000000   0.000000   0.000000   0.000000
    23  H    0.000092   0.000000   0.000000   0.000000   0.000000   0.000000
    24  H   -0.000006   0.000000   0.000000   0.000000   0.000000   0.000000
    25  H   -0.000018   0.000000   0.000000   0.000000   0.000000   0.000000
    26  H   -0.000007   0.000000   0.000000   0.000000   0.000000   0.000000
    27  H    0.000010   0.000000   0.000000   0.000000   0.000000   0.000000
    28  H    0.000696   0.000000   0.000000   0.000000   0.000000   0.000000
    29  H   -0.026774   0.000388  -0.002272   0.000010  -0.000028  -0.000016
    30  H   -0.023644   0.000358   0.001843  -0.000007   0.000004   0.000019
    31  H    0.427998  -0.000172   0.000287  -0.000002   0.000003   0.000000
    32  H   -0.000172   0.473605  -0.023555  -0.005151  -0.004867   0.007053
    33  H    0.000287  -0.023555   0.472449  -0.004721   0.007416  -0.004503
    34  H   -0.000002  -0.005151  -0.004721   0.470821  -0.026849  -0.026020
    35  H    0.000003  -0.004867   0.007416  -0.026849   0.486237  -0.027604
    36  H    0.000000   0.007053  -0.004503  -0.026020  -0.027604   0.465098
    37  C    0.000290   0.000007  -0.000006   0.000000  -0.000026   0.000004
    38  C    0.000040  -0.000017  -0.000007   0.000000   0.000002  -0.000002
    39  C   -0.000009   0.000000   0.000000   0.000000   0.000000   0.000000
    40  H   -0.000022  -0.000015  -0.000017   0.000001  -0.000018   0.000000
    41  H   -0.000027   0.000001   0.000002   0.000000   0.000000   0.000000
    42  H   -0.000001   0.000087  -0.000001   0.000000   0.000000   0.000000
    43  H    0.000000   0.000000   0.000000   0.000000   0.000000   0.000000
    44  H    0.000000   0.000000   0.000000   0.000000   0.000000   0.000000
              37         38         39         40         41         42
     1  C   -0.000517  -0.001543   0.000034   0.001544  -0.000434  -0.000848
     2  C   -0.091961  -0.005777   0.000248  -0.003921   0.007137   0.004028
     3  C    0.308338  -0.066819  -0.001576  -0.037295  -0.030114  -0.004379
     4  C   -0.107967   0.008330  -0.000177  -0.002807  -0.006151  -0.000296
     5  C    0.001963  -0.000153   0.000008   0.003936  -0.000158  -0.000025
     6  H    0.005381  -0.000860   0.000057  -0.000357   0.000433   0.001732
     7  H   -0.009621   0.005456   0.000713   0.000656  -0.000142   0.000920
     8  H   -0.006859   0.000166   0.000004   0.000026   0.002548  -0.000006
     9  H    0.005657  -0.000177   0.000004   0.000076  -0.000072   0.000010
    10  O   -0.003669   0.000275   0.000001   0.000054  -0.000132   0.000005
    11  O    0.000073  -0.000004   0.000000   0.000223   0.000055   0.000001
    12  C   -0.000381   0.000030   0.000003   0.000611   0.000003   0.000072
    13  C   -0.000051   0.000008   0.000000  -0.000011  -0.000002  -0.000016
    14  C    0.008319  -0.000269  -0.000012  -0.000315  -0.000122   0.000275
    15  O   -0.056901   0.002349   0.000454   0.003751  -0.003155   0.000022
    16  Si  -0.015801   0.001176   0.001669   0.002490  -0.005457  -0.000228
    17  C   -0.000406   0.000028  -0.000003   0.000025  -0.000143   0.000000
    18  C   -0.001625   0.000224  -0.001303  -0.000051  -0.003468  -0.000017
    19  C   -0.000164  -0.000169  -0.000161  -0.000004  -0.000026   0.000000
    20  H    0.000336  -0.000028   0.000018  -0.000007   0.000629   0.000001
    21  H   -0.000927   0.000240  -0.000004  -0.000111   0.000947   0.000000
    22  H    0.000077   0.000065   0.001603   0.000000  -0.000719   0.000010
    23  H   -0.000019  -0.000016  -0.000009   0.000001  -0.000006   0.000000
    24  H    0.000002  -0.000002  -0.000010   0.000000   0.000003   0.000000
    25  H    0.000036   0.000256   0.000648   0.000001  -0.000019  -0.000003
    26  H   -0.000051   0.000002   0.000000   0.000012  -0.000053   0.000000
    27  H    0.000006   0.000001   0.000000   0.000000   0.000001   0.000000
    28  H   -0.000058   0.000003   0.000001   0.000005  -0.000006   0.000000
    29  H   -0.000136  -0.000014   0.000000  -0.000014   0.000012   0.000018
    30  H   -0.000023  -0.000044   0.000000  -0.000021   0.000015  -0.000001
    31  H    0.000290   0.000040  -0.000009  -0.000022  -0.000027  -0.000001
    32  H    0.000007  -0.000017   0.000000  -0.000015   0.000001   0.000087
    33  H   -0.000006  -0.000007   0.000000  -0.000017   0.000002  -0.000001
    34  H    0.000000   0.000000   0.000000   0.000001   0.000000   0.000000
    35  H   -0.000026   0.000002   0.000000  -0.000018   0.000000   0.000000
    36  H    0.000004  -0.000002   0.000000   0.000000   0.000000   0.000000
    37  C    5.500328   0.320425  -0.049260   0.381627   0.396382  -0.047957
    38  C    0.320425   5.012707   0.639515  -0.038791  -0.045721   0.393793
    39  C   -0.049260   0.639515   5.135419  -0.000780  -0.000216  -0.037848
    40  H    0.381627  -0.038791  -0.000780   0.461193  -0.027321  -0.002207
    41  H    0.396382  -0.045721  -0.000216  -0.027321   0.439232   0.004875
    42  H   -0.047957   0.393793  -0.037848  -0.002207   0.004875   0.473470
    43  H    0.006467  -0.037825   0.392536  -0.000326   0.000119  -0.008553
    44  H   -0.009422  -0.040720   0.384643   0.000031   0.004308   0.006099
              43         44
     1  C    0.000003  -0.000009
     2  C    0.000002   0.000033
     3  C   -0.000243   0.000179
     4  C    0.000016  -0.000090
     5  C    0.000000   0.000000
     6  H   -0.000006   0.000003
     7  H    0.000041  -0.000032
     8  H    0.000002  -0.000023
     9  H   -0.000001   0.000003
    10  O    0.000000   0.000000
    11  O    0.000000   0.000000
    12  C    0.000000   0.000000
    13  C    0.000000   0.000000
    14  C   -0.000002   0.000002
    15  O    0.000046  -0.000016
    16  Si   0.000201  -0.001127
    17  C    0.000000   0.000007
    18  C    0.000032   0.000802
    19  C    0.000000   0.000049
    20  H   -0.000001   0.000021
    21  H   -0.000003  -0.000092
    22  H   -0.000027   0.004777
    23  H    0.000000  -0.000005
    24  H    0.000000   0.000000
    25  H    0.000009   0.000054
    26  H    0.000000   0.000000
    27  H    0.000000   0.000000
    28  H    0.000000  -0.000001
    29  H    0.000000   0.000000
    30  H    0.000000   0.000000
    31  H    0.000000   0.000000
    32  H    0.000000   0.000000
    33  H    0.000000   0.000000
    34  H    0.000000   0.000000
    35  H    0.000000   0.000000
    36  H    0.000000   0.000000
    37  C    0.006467  -0.009422
    38  C   -0.037825  -0.040720
    39  C    0.392536   0.384643
    40  H   -0.000326   0.000031
    41  H    0.000119   0.004308
    42  H   -0.008553   0.006099
    43  H    0.454447  -0.033308
    44  H   -0.033308   0.455284
 Mulliken charges:
               1
     1  C   -0.055331
     2  C   -0.308625
     3  C    0.200570
     4  C   -0.650136
     5  C    0.476439
     6  H    0.256710
     7  H    0.257185
     8  H    0.267718
     9  H    0.308839
    10  O   -0.312864
    11  O   -0.379125
    12  C   -0.460957
    13  C   -0.661865
    14  C   -0.683133
    15  O   -0.626104
    16  Si   1.428844
    17  C   -1.065368
    18  C   -1.092149
    19  C   -1.038820
    20  H    0.246978
    21  H    0.246410
    22  H    0.251046
    23  H    0.237036
    24  H    0.234077
    25  H    0.239260
    26  H    0.240405
    27  H    0.239290
    28  H    0.242079
    29  H    0.243996
    30  H    0.229395
    31  H    0.262290
    32  H    0.239708
    33  H    0.244916
    34  H    0.229208
    35  H    0.221878
    36  H    0.237441
    37  C   -0.531911
    38  C   -0.146131
    39  C   -0.466209
    40  H    0.258149
    41  H    0.266962
    42  H    0.216972
    43  H    0.226375
    44  H    0.228549
 Sum of Mulliken charges =   0.00000
 Mulliken charges with hydrogens summed into heavy atoms:
               1
     1  C    0.201379
     2  C   -0.051440
     3  C    0.200570
     4  C   -0.073579
     5  C    0.476439
    10  O   -0.312864
    11  O   -0.379125
    12  C    0.023667
    13  C    0.026663
    14  C    0.052547
    15  O   -0.626104
    16  Si   1.428844
    17  C   -0.343593
    18  C   -0.347715
    19  C   -0.328447
    37  C   -0.006799
    38  C    0.070841
    39  C   -0.011285
 Electronic spatial extent (au):  <R**2>=           5621.0165
 Charge=              0.0000 electrons
 Dipole moment (field-independent basis, Debye):
    X=              1.6015    Y=              2.8009    Z=              2.7079  Tot=              4.2122
 Quadrupole moment (field-independent basis, Debye-Ang):
   XX=           -118.1855   YY=           -122.9146   ZZ=           -126.5104
   XY=            -10.3018   XZ=            -12.7049   YZ=             -7.4048
 Traceless Quadrupole moment (field-independent basis, Debye-Ang):
   XX=              4.3514   YY=             -0.3777   ZZ=             -3.9736
   XY=            -10.3018   XZ=            -12.7049   YZ=             -7.4048
 Octapole moment (field-independent basis, Debye-Ang**2):
  XXX=              8.5572  YYY=             17.6585  ZZZ=             21.5092  XYY=              9.3727
  XXY=             14.6318  XXZ=             17.5735  XZZ=              4.6786  YZZ=             12.5530
  YYZ=             20.7213  XYZ=             11.2349
 Hexadecapole moment (field-independent basis, Debye-Ang**3):
 XXXX=          -4791.4160 YYYY=          -1643.2151 ZZZZ=          -1173.5165 XXXY=            -66.5120
 XXXZ=            -96.0066 YYYX=             28.0254 YYYZ=              8.1655 ZZZX=            -27.7431
 ZZZY=            -23.3926 XXYY=          -1105.9490 XXZZ=          -1032.0627 YYZZ=           -526.7445
 XXYZ=            -36.6578 YYXZ=            -47.8413 ZZXY=            -42.4859
 N-N= 1.626211620255D+03 E-N=-5.747405056076D+03  KE= 1.060514294810D+03
 1\1\GINC-SWANNODE-0-12\SP\RmPW1PW91\6-311G(d)\C14H26O3Si1\ROOT\08-Mar-
 2018\0\\#mPW1PW91/6-311g(d) nmr=(giao) scrf=(solvent=chloroform)\\P_ng
 _4ginp007\\0,1\C,0,0.25105,1.880995,-0.429405\C,0,-0.071511,1.202081,0
 .908518\C,0,-1.228086,1.981624,1.616035\C,0,-0.745365,3.424789,1.81043
 2\C,0,-0.17865,4.066917,0.573469\H,0,-0.614188,1.804251,-1.097482\H,0,
 -0.398089,0.172023,0.716711\H,0,-1.574886,4.055195,2.151732\H,0,0.0278
 42,3.485528,2.58425\O,0,0.528003,3.286779,-0.271261\O,0,-0.255477,5.27
 9208,0.396243\C,0,1.438146,1.246601,-1.172605\C,0,1.581595,1.784776,-2
 .592003\C,0,1.179157,1.063606,1.80383\O,0,-1.44976,1.271127,2.853218\S
 i,0,-2.187679,1.799484,4.257585\C,0,-1.007047,2.845274,5.286838\C,0,-3
 .76164,2.780757,3.991982\C,0,-2.643377,0.288782,5.302117\H,0,-4.200231
 ,3.060963,4.954821\H,0,-3.569974,3.701002,3.43396\H,0,-4.503621,2.1911
 81,3.446995\H,0,-1.749168,-0.297729,5.531893\H,0,-3.107655,0.599695,6.
 242418\H,0,-3.34756,-0.348537,4.759487\H,0,-0.824129,3.813081,4.81239\
 H,0,-1.428066,3.029545,6.279751\H,0,-0.04886,2.331944,5.409105\H,0,1.8
 96423,0.365397,1.359447\H,0,1.693881,2.018512,1.946434\H,0,0.930008,0.
 660075,2.789883\H,0,1.312247,0.158892,-1.218495\H,0,2.375277,1.459574,
 -0.645541\H,0,2.423981,1.299416,-3.095076\H,0,0.678506,1.588457,-3.178
 612\H,0,1.765517,2.863638,-2.592791\C,0,-2.55346,1.982827,0.774719\C,0
 ,-3.095523,0.623042,0.410259\C,0,-4.286993,0.156259,0.805389\H,0,-2.41
 8401,2.543877,-0.157227\H,0,-3.326808,2.534806,1.319468\H,0,-2.486558,
 -0.00597,-0.2346\H,0,-4.625116,-0.829962,0.501278\H,0,-4.951023,0.7362
 56,1.438019\\Version=EM64L-G09RevD.01\State=1-A\HF=-1064.375684\RMSD=9
 .395e-09\Dipole=-0.3174619,-1.5870755,0.3560107\Quadrupole=5.1998118,-
 9.5203792,4.3205675,-5.0446746,-1.0631941,9.6477208\PG=C01 [X(C14H26O3
 Si1)]\\@


 YE HAVE SOWN MUCH, AND BRING IN LITTLE.
 YE EAT, BUT YE HAVE NOT ENOUGH.
 YE DRINK, BUT YE ARE NOT FILLED WITH DRINK.
 YE CLOTHE YOU, BUT THERE IS NONE WARM.
 AND HE THAT EARNETH WAGES EARNETH WAGES TO PUT
 IT INTO A BAG WITH HOLES.
                                     HAGGAI I,6
 Job cpu time:       0 days  1 hours  7 minutes 19.6 seconds.
 File lengths (MBytes):  RWF=    237 Int=      0 D2E=      0 Chk=     11 Scr=      1
 Normal termination of Gaussian 09 at Thu Mar  8 13:53:30 2018.
