 Entering Gaussian System, Link 0=/usr/local/shared/gaussian/em64t/09-D01/g09/g09
 Initial command:
 /usr/local/shared/gaussian/em64t/09-D01/g09/l1.exe "/scratch/ah809/P_ng_4ginp001/Gau-30432.inp" -scrdir="/scratch/ah809/P_ng_4ginp001/"
 Entering Link 1 = /usr/local/shared/gaussian/em64t/09-D01/g09/l1.exe PID=     30456.
  
 Copyright (c) 1988,1990,1992,1993,1995,1998,2003,2009,2013,
            Gaussian, Inc.  All Rights Reserved.
  
 This is part of the Gaussian(R) 09 program.  It is based on
 the Gaussian(R) 03 system (copyright 2003, Gaussian, Inc.),
 the Gaussian(R) 98 system (copyright 1998, Gaussian, Inc.),
 the Gaussian(R) 94 system (copyright 1995, Gaussian, Inc.),
 the Gaussian 92(TM) system (copyright 1992, Gaussian, Inc.),
 the Gaussian 90(TM) system (copyright 1990, Gaussian, Inc.),
 the Gaussian 88(TM) system (copyright 1988, Gaussian, Inc.),
 the Gaussian 86(TM) system (copyright 1986, Carnegie Mellon
 University), and the Gaussian 82(TM) system (copyright 1983,
 Carnegie Mellon University). Gaussian is a federally registered
 trademark of Gaussian, Inc.
  
 This software contains proprietary and confidential information,
 including trade secrets, belonging to Gaussian, Inc.
  
 This software is provided under written license and may be
 used, copied, transmitted, or stored only in accord with that
 written license.
  
 The following legend is applicable only to US Government
 contracts under FAR:
  
                    RESTRICTED RIGHTS LEGEND
  
 Use, reproduction and disclosure by the US Government is
 subject to restrictions as set forth in subparagraphs (a)
 and (c) of the Commercial Computer Software - Restricted
 Rights clause in FAR 52.227-19.
  
 Gaussian, Inc.
 340 Quinnipiac St., Bldg. 40, Wallingford CT 06492
  
  
 ---------------------------------------------------------------
 Warning -- This program may not be used in any manner that
 competes with the business of Gaussian, Inc. or will provide
 assistance to any competitor of Gaussian, Inc.  The licensee
 of this program is prohibited from giving any competitor of
 Gaussian, Inc. access to this program.  By using this program,
 the user acknowledges that Gaussian, Inc. is engaged in the
 business of creating and licensing software in the field of
 computational chemistry and represents and warrants to the
 licensee that it is not a competitor of Gaussian, Inc. and that
 it will not use this program in any manner prohibited above.
 ---------------------------------------------------------------
  

 Cite this work as:
 Gaussian 09, Revision D.01,
 M. J. Frisch, G. W. Trucks, H. B. Schlegel, G. E. Scuseria, 
 M. A. Robb, J. R. Cheeseman, G. Scalmani, V. Barone, B. Mennucci, 
 G. A. Petersson, H. Nakatsuji, M. Caricato, X. Li, H. P. Hratchian, 
 A. F. Izmaylov, J. Bloino, G. Zheng, J. L. Sonnenberg, M. Hada, 
 M. Ehara, K. Toyota, R. Fukuda, J. Hasegawa, M. Ishida, T. Nakajima, 
 Y. Honda, O. Kitao, H. Nakai, T. Vreven, J. A. Montgomery, Jr., 
 J. E. Peralta, F. Ogliaro, M. Bearpark, J. J. Heyd, E. Brothers, 
 K. N. Kudin, V. N. Staroverov, T. Keith, R. Kobayashi, J. Normand, 
 K. Raghavachari, A. Rendell, J. C. Burant, S. S. Iyengar, J. Tomasi, 
 M. Cossi, N. Rega, J. M. Millam, M. Klene, J. E. Knox, J. B. Cross, 
 V. Bakken, C. Adamo, J. Jaramillo, R. Gomperts, R. E. Stratmann, 
 O. Yazyev, A. J. Austin, R. Cammi, C. Pomelli, J. W. Ochterski, 
 R. L. Martin, K. Morokuma, V. G. Zakrzewski, G. A. Voth, 
 P. Salvador, J. J. Dannenberg, S. Dapprich, A. D. Daniels, 
 O. Farkas, J. B. Foresman, J. V. Ortiz, J. Cioslowski, 
 and D. J. Fox, Gaussian, Inc., Wallingford CT, 2013.
 
 ******************************************
 Gaussian 09:  EM64L-G09RevD.01 24-Apr-2013
                 8-Mar-2018 
 ******************************************
 %mem=6000MB
 %chk=P_ng_4ginp001.chk
 --------------------------------------------------------
 #mPW1PW91/6-311g(d) nmr=(giao) scrf=(solvent=chloroform)
 --------------------------------------------------------
 1/38=1/1;
 2/12=2,17=6,18=5,40=1/2;
 3/5=4,6=6,7=1,11=2,16=1,25=1,30=1,70=2201,72=7,74=-7/1,2,8,3;
 4//1;
 5/5=2,38=5,53=7/2;
 8/6=1,10=90,11=11/1;
 10/13=100,45=16/2;
 6/7=2,8=2,9=2,10=2,28=1/1;
 99/9=1/99;
 -------------
 P_ng_4ginp001
 -------------
 Symbolic Z-matrix:
 Charge =  0 Multiplicity = 1
 C                     0.10973   1.83066  -0.38734 
 C                    -0.1707    1.17163   0.97015 
 C                    -1.27194   1.9899    1.72074 
 C                    -0.75221   3.42461   1.87053 
 C                    -0.22299   4.03511   0.60116 
 H                    -0.78744   1.78122  -1.01398 
 H                    -0.53654   0.15034   0.80073 
 H                    -1.55482   4.07676   2.23551 
 H                     0.05452   3.4803    2.60975 
 O                     0.44134   3.22699  -0.25181 
 O                    -0.2866    5.24505   0.40412 
 C                     1.23845   1.15172  -1.18018 
 C                     1.3312    1.67449  -2.60951 
 C                     1.11345   1.00619   1.81075 
 O                    -1.45606   1.30273   2.97934 
 Si                   -2.11936   1.8732    4.40573 
 C                    -0.91313   2.98376   5.32857 
 C                    -3.73204   2.80147   4.18379 
 C                    -2.47996   0.39364   5.53002 
 H                    -4.14376   3.08705   5.15676 
 H                    -3.58714   3.71571   3.60177 
 H                    -4.47342   2.17815   3.67542 
 H                    -2.89975   0.73031   6.48229 
 H                    -3.19663  -0.28004   5.05149 
 H                    -1.56012  -0.16287   5.73151 
 H                    -1.27718   3.18372   6.34084 
 H                     0.06738   2.50475   5.4047 
 H                    -0.79172   3.94339   4.81907 
 H                     1.7942    0.2895    1.33931 
 H                     1.65587   1.94924   1.92713 
 H                     0.89722   0.61221   2.8084 
 H                     1.07476   0.06851  -1.21046 
 H                     2.20619   1.33727  -0.70019 
 H                     2.13239   1.15813  -3.14777 
 H                     0.39517   1.50353  -3.15069 
 H                     1.54962   2.74673  -2.62859 
 C                    -2.62969   2.0018    0.93659 
 C                    -3.18375   0.63604   0.62178 
 C                    -3.50237   0.21594  -0.60908 
 H                    -2.53806   2.58878   0.01505 
 H                    -3.3918    2.52009   1.5263 
 H                    -3.33637  -0.03652   1.46467 
 H                    -3.90417  -0.78097  -0.7664 
 H                    -3.38137   0.84841  -1.48308 
 
                          Input orientation:                          
 ---------------------------------------------------------------------
 Center     Atomic      Atomic             Coordinates (Angstroms)
 Number     Number       Type             X           Y           Z
 ---------------------------------------------------------------------
      1          6           0        0.109734    1.830658   -0.387337
      2          6           0       -0.170697    1.171629    0.970145
      3          6           0       -1.271943    1.989903    1.720743
      4          6           0       -0.752212    3.424606    1.870525
      5          6           0       -0.222985    4.035108    0.601162
      6          1           0       -0.787442    1.781219   -1.013977
      7          1           0       -0.536539    0.150337    0.800731
      8          1           0       -1.554819    4.076762    2.235510
      9          1           0        0.054524    3.480298    2.609753
     10          8           0        0.441340    3.226993   -0.251806
     11          8           0       -0.286601    5.245054    0.404117
     12          6           0        1.238452    1.151724   -1.180177
     13          6           0        1.331199    1.674487   -2.609508
     14          6           0        1.113446    1.006185    1.810751
     15          8           0       -1.456059    1.302732    2.979339
     16         14           0       -2.119360    1.873197    4.405735
     17          6           0       -0.913125    2.983759    5.328574
     18          6           0       -3.732035    2.801473    4.183794
     19          6           0       -2.479961    0.393637    5.530016
     20          1           0       -4.143761    3.087054    5.156755
     21          1           0       -3.587141    3.715705    3.601769
     22          1           0       -4.473423    2.178151    3.675422
     23          1           0       -2.899748    0.730305    6.482286
     24          1           0       -3.196630   -0.280037    5.051486
     25          1           0       -1.560120   -0.162869    5.731507
     26          1           0       -1.277183    3.183718    6.340839
     27          1           0        0.067377    2.504754    5.404698
     28          1           0       -0.791722    3.943389    4.819074
     29          1           0        1.794197    0.289502    1.339311
     30          1           0        1.655871    1.949243    1.927126
     31          1           0        0.897221    0.612211    2.808397
     32          1           0        1.074755    0.068513   -1.210463
     33          1           0        2.206188    1.337275   -0.700188
     34          1           0        2.132395    1.158134   -3.147770
     35          1           0        0.395173    1.503528   -3.150694
     36          1           0        1.549619    2.746726   -2.628588
     37          6           0       -2.629691    2.001802    0.936594
     38          6           0       -3.183752    0.636040    0.621776
     39          6           0       -3.502365    0.215944   -0.609081
     40          1           0       -2.538057    2.588784    0.015054
     41          1           0       -3.391803    2.520089    1.526297
     42          1           0       -3.336371   -0.036519    1.464667
     43          1           0       -3.904166   -0.780966   -0.766398
     44          1           0       -3.381372    0.848406   -1.483076
 ---------------------------------------------------------------------
                    Distance matrix (angstroms):
                    1          2          3          4          5
     1  C    0.000000
     2  C    1.534835   0.000000
     3  C    2.525548   1.563877   0.000000
     4  C    2.895093   2.494945   1.533274   0.000000
     5  C    2.438736   2.887628   2.556685   1.504685   0.000000
     6  H    1.095466   2.165344   2.785136   3.319987   2.829718
     7  H    2.157001   1.097989   2.184318   3.451349   3.902511
     8  H    3.833412   3.457852   2.167945   1.096677   2.108699
     9  H    3.421536   2.840597   2.184292   1.095620   2.102204
    10  O    1.441556   2.468253   2.890792   2.442930   1.349790
    11  O    3.527263   4.114196   3.646973   2.383522   1.227535
    12  C    1.537384   2.570988   3.926826   4.293660   3.690917
    13  C    2.540553   3.914393   5.062303   5.241585   4.277432
    14  C    2.553191   1.543701   2.581837   3.054998   3.524703
    15  O    3.750323   2.388766   1.445741   2.495440   3.826497
    16  Si   5.286228   4.011579   2.817963   3.271583   4.769159
    17  C    5.920095   4.778171   3.759381   3.489748   4.891835
    18  C    6.049538   5.066267   3.574538   3.823461   5.164353
    19  C    6.617146   5.170145   4.303247   5.056062   6.530532
    20  H    7.099839   6.081266   4.610559   4.734538   6.084794
    21  H    5.756149   5.006981   3.446272   3.334481   4.519204
    22  H    6.134500   5.181222   3.755753   4.319573   5.564673
    23  H    7.580203   6.166537   5.187353   5.756692   7.257713
    24  H    6.705809   5.284028   4.466643   5.460593   6.875204
    25  H    6.648520   5.136336   4.561107   5.331967   6.762498
    26  H    7.001619   5.840990   4.771845   4.507475   5.897465
    27  H    5.831284   4.636719   3.953527   3.742757   5.049777
    28  H    5.690604   4.783574   3.694100   2.994101   4.257071
    29  H    2.862497   2.185232   3.526765   4.073729   4.317806
    30  H    2.785918   2.203825   2.935361   2.824670   3.104692
    31  H    3.509625   2.198310   2.790394   3.392609   4.224094
    32  H    2.171165   2.742821   4.217902   4.908529   4.549724
    33  H    2.176332   2.909817   4.287683   4.440456   3.856513
    34  H    3.487612   4.718224   5.998648   6.216200   5.280084
    35  H    2.797254   4.172731   5.171725   5.497242   4.568089
    36  H    2.817030   4.288508   5.239339   5.099016   3.902991
    37  C    3.047381   2.595566   1.567964   2.534073   3.168451
    38  C    3.645884   3.080051   2.587603   3.904851   4.507797
    39  C    3.962793   3.808845   3.681004   4.899724   5.177358
    40  H    2.783428   2.919747   2.207052   2.707511   2.791941
    41  H    4.049453   3.535983   2.193790   2.811420   3.632157
    42  H    4.334963   3.424276   2.904105   4.338431   5.197784
    43  H    4.803713   4.557082   4.559845   5.880052   6.214168
    44  H    3.788573   4.053542   4.002145   4.979551   4.947174
                    6          7          8          9         10
     6  H    0.000000
     7  H    2.452732   0.000000
     8  H    4.051858   4.302592   0.000000
     9  H    4.089889   3.835434   1.756648   0.000000
    10  O    2.044767   3.395570   3.300530   2.898674   0.000000
    11  O    3.776240   5.116240   2.515409   2.845270   2.243369
    12  C    2.127941   2.842071   5.293876   4.602989   2.409150
    13  C    2.654383   4.176267   6.129782   5.668469   2.959879
    14  C    3.491868   2.115435   4.090049   2.807304   3.104490
    15  O    4.077079   2.630563   2.873722   2.675864   4.212268
    16  Si   5.581733   4.297630   3.143928   3.245627   5.484764
    17  C    6.456768   5.354574   3.342674   2.928290   5.747554
    18  C    6.060394   5.355822   3.187859   4.156493   6.105135
    19  C    6.900279   5.118810   5.027431   4.947628   7.070458
    20  H    7.144789   6.372700   4.026887   4.926201   7.091916
    21  H    5.734602   5.464781   2.475350   3.781698   5.596208
    22  H    5.977832   5.279672   3.767800   4.830480   6.377937
    23  H    7.858767   6.180711   5.571599   5.593451   7.921131
    24  H    6.844180   5.032914   5.441228   5.538247   7.325230
    25  H    7.062440   5.045629   5.495134   5.062123   7.162195
    26  H    7.503344   6.359461   4.210503   3.972708   6.813088
    27  H    6.515643   5.206199   3.891848   2.960333   5.714675
    28  H    6.220891   5.531676   2.697204   2.410744   5.267589
    29  H    3.798427   2.396198   5.134435   3.849891   3.604265
    30  H    3.827283   3.051473   3.863932   2.318280   2.802762
    31  H    4.337651   2.509924   4.282968   2.995917   4.050896
    32  H    2.537666   2.578345   5.903850   5.222566   3.360987
    33  H    3.042593   3.344268   5.501662   4.491983   2.624265
    34  H    3.669708   4.871296   7.147982   6.546683   3.940362
    35  H    2.457895   4.279366   6.279745   6.099706   3.372835
    36  H    3.000171   4.780536   5.921654   5.496695   2.666089
    37  C    2.692075   2.797797   2.673573   3.491478   3.513491
    38  C    3.119203   2.697345   4.134746   4.746397   4.540647
    39  C    3.159879   3.284509   5.175959   5.802444   4.974623
    40  H    2.185342   3.251059   2.848027   3.774750   3.058649
    41  H    3.712360   3.780834   2.510124   3.738054   4.284198
    42  H    3.993105   2.883537   4.548319   5.017708   5.279005
    43  H    4.042283   3.829377   6.174820   6.725176   5.933967
    44  H    2.796188   3.714317   5.252281   5.956802   4.667636
                   11         12         13         14         15
    11  O    0.000000
    12  C    4.646625   0.000000
    13  C    4.944508   1.524753   0.000000
    14  C    4.680466   2.997075   4.475794   0.000000
    15  O    4.851938   4.958303   6.256374   2.838291   0.000000
    16  Si   5.544490   6.557274   7.820453   4.235173   1.673321
    17  C    5.454930   7.095736   8.352504   4.515846   2.939308
    18  C    5.668162   7.496639   8.547244   5.686218   2.979430
    19  C    7.390664   7.708955   9.078401   5.207756   2.894958
    20  H    6.490163   8.536418   9.606528   6.569930   3.892131
    21  H    4.843289   7.261360   8.181479   5.713560   3.278928
    22  H    6.134885   7.566764   8.570161   6.005298   3.217977
    23  H    8.009721   8.718694  10.072393   6.164826   3.831781
    24  H    7.784147   7.781614   9.111105   5.543779   3.135050
    25  H    7.697309   7.571759   9.017102   4.887430   3.119815
    26  H    6.361999   8.186764   9.444053   5.565829   3.856136
    27  H    5.713174   6.823686   8.155617   4.031926   3.106136
    28  H    4.630478   6.921417   8.052238   4.615933   3.286189
    29  H    5.455438   2.720312   4.210193   1.095131   3.778954
    30  H    4.117660   3.235059   4.556528   1.094133   3.348020
    31  H    5.352124   4.039336   5.538092   1.094197   2.458448
    32  H    5.590772   1.095929   2.145284   3.163615   5.048045
    33  H    4.764895   1.096053   2.127163   2.758355   5.191547
    34  H    5.930460   2.161156   1.094651   5.064413   7.102068
    35  H    5.205815   2.172055   1.094648   5.037778   6.406612
    36  H    4.337124   2.176867   1.094426   4.788263   6.524421
    37  C    4.036370   4.490644   5.326408   3.970702   2.457421
    38  C    5.448291   4.803005   5.648394   4.473989   2.997917
    39  C    6.054722   4.865920   5.430690   5.271222   4.271444
    40  H    3.503740   4.213756   4.763970   4.366076   3.407585
    41  H    4.281005   5.535042   6.334562   4.761312   2.709316
    42  H    6.190386   5.416283   6.427492   4.583435   2.761050
    43  H    7.125293   5.509358   6.069213   5.917097   4.936149
    44  H    5.698212   4.639668   4.915240   5.574727   4.881228
                   16         17         18         19         20
    16  Si   0.000000
    17  C    1.881484   0.000000
    18  C    1.873946   3.047951   0.000000
    19  C    1.892918   3.033857   3.029468   0.000000
    20  H    2.477030   3.236850   1.094408   3.187797   0.000000
    21  H    2.489092   3.266185   1.093420   3.997514   1.767204
    22  H    2.483539   4.007198   1.093905   3.255442   1.768934
    23  H    2.495450   3.218039   3.203983   1.093794   2.976385
    24  H    2.492774   3.992936   3.245805   1.093820   3.499349
    25  H    2.493188   3.237626   3.987475   1.093803   4.191365
    26  H    2.484221   1.094167   3.290175   3.144624   3.103010
    27  H    2.485681   1.093903   4.001772   3.310808   4.258431
    28  H    2.493826   1.093261   3.217607   3.994537   3.476133
    29  H    5.217947   5.522937   6.703754   5.986759   7.593321
    30  H    4.516819   4.386321   5.903251   5.701389   6.735046
    31  H    3.638865   3.905494   5.302320   4.342850   6.086964
    32  H    6.708274   7.430298   7.724785   7.627304   8.768464
    33  H    6.713272   6.984769   7.826854   7.852763   8.814043
    34  H    8.697366   9.190022   9.531208   9.857092  10.586595
    35  H    7.972399   8.706361   8.515470   9.211568   9.598082
    36  H    7.981614   8.332930   8.620175   9.398796   9.651008
    37  C    3.508834   4.816672   3.521213   4.869100   4.613018
    38  C    4.120902   5.729003   4.204484   4.964363   5.243579
    39  C    5.459631   7.044197   5.450629   6.226186   6.472984
    40  H    4.468272   5.570449   4.341568   5.936064   5.409588
    41  H    3.213836   4.562471   2.693924   4.624178   3.750615
    42  H    3.711874   5.470281   3.950241   4.176785   4.903071
    43  H    6.081207   7.763257   6.112929   6.561469   7.078328
    44  H    6.109089   7.553182   6.004236   7.085395   7.048414
                   21         22         23         24         25
    21  H    0.000000
    22  H    1.776230   0.000000
    23  H    4.205057   3.528625   0.000000
    24  H    4.268505   3.092966   1.776547   0.000000
    25  H    4.867025   4.265583   1.776522   1.776041   0.000000
    26  H    3.622350   4.281537   2.944819   4.164650   3.413354
    27  H    4.251171   4.869900   3.621284   4.305062   3.141936
    28  H    3.057456   4.240157   4.187357   4.865689   4.276017
    29  H    6.768780   6.950358   6.976935   6.246037   5.545040
    30  H    5.780484   6.377867   6.556596   6.186928   5.410816
    31  H    5.510954   5.661070   5.284731   4.752596   3.896645
    32  H    7.628425   7.687960   8.684068   7.588032   7.428799
    33  H    7.597791   8.029336   8.833285   8.055302   7.602776
    34  H    9.209264   9.551608  10.873982   9.884060   9.706764
    35  H    8.145447   8.411552  10.210224   9.130055   9.246272
    36  H    8.132808   8.737325  10.337836   9.522169   9.382292
    37  C    3.310186   3.306301   5.695993   4.739256   5.368517
    38  C    4.304349   3.655969   5.868145   4.523460   5.420681
    39  C    5.476018   4.811463   7.135489   5.690474   6.642204
    40  H    3.903211   4.160836   6.738683   5.833481   6.419174
    41  H    2.403173   2.430136   5.292190   4.506191   5.313861
    42  H    4.325422   3.329428   5.094621   3.597791   4.623522
    43  H    6.277056   5.367513   7.472363   5.882118   6.935371
    44  H    5.841181   5.437913   7.980783   6.633854   7.509317
                   26         27         28         29         30
    26  H    0.000000
    27  H    1.773469   0.000000
    28  H    1.768768   1.775015   0.000000
    29  H    6.544092   4.941318   5.669799   0.000000
    30  H    5.441286   3.863342   4.281436   1.766183   0.000000
    31  H    4.880454   3.318304   4.241709   1.751263   1.771960
    32  H    8.500487   7.121126   7.406330   2.658530   3.703958
    33  H    8.069652   6.573215   6.800114   2.329618   2.753204
    34  H   10.284061   8.900696   8.931893   4.582881   5.158246
    35  H    9.783098   8.620014   8.418957   4.857085   5.250931
    36  H    9.414478   8.172471   7.898199   4.673542   4.626208
    37  C    5.694916   5.243195   4.713973   4.760771   4.398859
    38  C    6.544719   6.077687   5.854714   5.041321   5.181736
    39  C    7.877849   7.358481   7.120836   5.644042   6.003671
    40  H    6.477600   5.986953   5.288029   5.080234   4.653393
    41  H    5.300173   5.196937   4.430416   5.648458   5.095639
    42  H    6.195743   5.793739   5.793699   5.142444   5.392550
    43  H    8.551759   8.040618   7.950115   6.168570   6.754489
    44  H    8.431782   7.879009   7.483469   5.921550   6.181839
                   31         32         33         34         35
    31  H    0.000000
    32  H    4.059355   0.000000
    33  H    3.814352   1.774902   0.000000
    34  H    6.107341   2.461511   2.455238   0.000000
    35  H    6.046260   2.507109   3.051622   1.771227   0.000000
    36  H    5.877294   3.067474   2.477168   1.769972   1.775072
    37  C    4.227732   4.697912   5.148434   6.330187   5.109208
    38  C    4.629927   4.670553   5.593816   6.537850   5.271885
    39  C    5.585028   4.618812   5.818356   6.251655   4.827885
    40  H    4.848788   4.572315   4.958398   5.819221   4.450121
    41  H    4.866159   5.783617   6.139527   7.363327   6.103182
    42  H    4.488849   5.159979   6.106871   7.253218   6.131698
    43  H    6.146008   5.070351   6.467438   6.772821   5.421079
    44  H    6.064560   4.532066   5.663279   5.767908   4.180003
                   36         37         38         39         40
    36  H    0.000000
    37  C    5.543651   0.000000
    38  C    6.117570   1.507116   0.000000
    39  C    6.000484   2.517928   1.339031   0.000000
    40  H    4.870614   1.096440   2.144351   2.636248   0.000000
    41  H    6.460038   1.094160   2.100258   3.143429   1.737083
    42  H    6.955148   2.221038   1.089079   2.095644   3.103369
    43  H    6.756932   3.502608   2.110433   1.086288   3.719158
    44  H    5.406523   2.783909   2.124748   1.085594   2.446322
                   41         42         43         44
    41  H    0.000000
    42  H    2.557951   0.000000
    43  H    4.051658   2.419554   0.000000
    44  H    3.442522   3.078036   1.855207   0.000000
 Stoichiometry    C14H26O3Si
 Framework group  C1[X(C14H26O3Si)]
 Deg. of freedom   126
 Full point group                 C1      NOp   1
 Largest Abelian subgroup         C1      NOp   1
 Largest concise Abelian subgroup C1      NOp   1
                         Standard orientation:                         
 ---------------------------------------------------------------------
 Center     Atomic      Atomic             Coordinates (Angstroms)
 Number     Number       Type             X           Y           Z
 ---------------------------------------------------------------------
      1          6           0       -2.360051    0.081900    0.298529
      2          6           0       -0.999175    0.256614    0.986432
      3          6           0        0.136508    0.124809   -0.080603
      4          6           0       -0.008636   -1.254718   -0.733875
      5          6           0       -1.400104   -1.582440   -1.203439
      6          1           0       -2.518589    0.895308   -0.417907
      7          1           0       -0.953854    1.257390    1.435845
      8          1           0        0.654404   -1.327751   -1.604360
      9          1           0        0.290739   -2.053766   -0.046649
     10          8           0       -2.432746   -1.147390   -0.450900
     11          8           0       -1.587778   -2.319344   -2.167074
     12          6           0       -3.550357    0.113550    1.271011
     13          6           0       -4.887271    0.176686    0.540570
     14          6           0       -0.814847   -0.723693    2.164581
     15          8           0        1.366901    0.292067    0.659887
     16         14           0        2.919756   -0.172940    0.244659
     17          6           0        3.170386   -2.022240    0.483939
     18          6           0        3.410197    0.271887   -1.508416
     19          6           0        4.134845    0.704069    1.401186
     20          1           0        4.454659    0.001254   -1.691680
     21          1           0        2.794923   -0.259224   -2.239802
     22          1           0        3.306819    1.347164   -1.680811
     23          1           0        5.162716    0.409921    1.170227
     24          1           0        4.048784    1.788732    1.289197
     25          1           0        3.922983    0.443724    2.442214
     26          1           0        4.231551   -2.276573    0.403647
     27          1           0        2.816787   -2.332247    1.471607
     28          1           0        2.628962   -2.594884   -0.273793
     29          1           0       -1.516605   -0.492590    2.972936
     30          1           0       -0.983810   -1.763193    1.867903
     31          1           0        0.186838   -0.651941    2.599028
     32          1           0       -3.468755    0.982722    1.933538
     33          1           0       -3.558937   -0.789406    1.892241
     34          1           0       -5.709123    0.214826    1.262627
     35          1           0       -4.948050    1.070289   -0.088741
     36          1           0       -5.037078   -0.702542   -0.093688
     37          6           0        0.040566    1.239433   -1.179202
     38          6           0        0.051156    2.648664   -0.645015
     39          6           0       -0.893689    3.561396   -0.904226
     40          1           0       -0.843821    1.085707   -1.808813
     41          1           0        0.890923    1.157797   -1.862879
     42          1           0        0.895228    2.927301   -0.015732
     43          1           0       -0.822309    4.563722   -0.491587
     44          1           0       -1.750150    3.341255   -1.533931
 ---------------------------------------------------------------------
 Rotational constants (GHZ):      0.5550146      0.2483867      0.2253534
 Standard basis: 6-311G(d) (5D, 7F)
 There are   428 symmetry adapted cartesian basis functions of A   symmetry.
 There are   410 symmetry adapted basis functions of A   symmetry.
   410 basis functions,   720 primitive gaussians,   428 cartesian basis functions
    74 alpha electrons       74 beta electrons
       nuclear repulsion energy      1625.9078180488 Hartrees.
 NAtoms=   44 NActive=   44 NUniq=   44 SFac= 1.00D+00 NAtFMM=   60 NAOKFM=F Big=F
 Integral buffers will be    131072 words long.
 Raffenetti 2 integral format.
 Two-electron integral symmetry is turned on.
 ------------------------------------------------------------------------------
 Polarizable Continuum Model (PCM)
 =================================
 Model                : PCM (using non-symmetric T matrix).
 Atomic radii         : UFF (Universal Force Field).
 Polarization charges : Total charges.
 Charge compensation  : None.
 Solution method      : On-the-fly selection.
 Cavity type          : Scaled VdW (van der Waals Surface) (Alpha=1.100).
 Cavity algorithm     : GePol (No added spheres)
                        Default sphere list used, NSphG=   44.
                        Lebedev-Laikov grids with approx.  5.0 points / Ang**2.
                        Smoothing algorithm: Karplus/York (Gamma=1.0000).
                        Polarization charges: spherical gaussians, with
                                              point-specific exponents (IZeta= 3).
                        Self-potential: point-specific (ISelfS= 7).
                        Self-field    : sphere-specific E.n sum rule (ISelfD= 2).
 Solvent              : Chloroform, Eps=   4.711300 Eps(inf)=   2.090627
 ------------------------------------------------------------------------------
 One-electron integrals computed using PRISM.
 NBasis=   410 RedAO= T EigKep=  1.05D-03  NBF=   410
 NBsUse=   410 1.00D-06 EigRej= -1.00D+00 NBFU=   410
 ExpMin= 6.54D-02 ExpMax= 6.94D+04 ExpMxC= 2.33D+03 IAcc=2 IRadAn=         4 AccDes= 0.00D+00
 Harris functional with IExCor=  908 and IRadAn=       4 diagonalized for initial guess.
 HarFok:  IExCor=  908 AccDes= 0.00D+00 IRadAn=         4 IDoV= 1 UseB2=F ITyADJ=14
 ICtDFT=  3500011 ScaDFX=  1.000000  1.000000  1.000000  1.000000
 FoFCou: FMM=F IPFlag=           0 FMFlag=      100000 FMFlg1=           0
         NFxFlg=           0 DoJE=T BraDBF=F KetDBF=T FulRan=T
         wScrn=  0.000000 ICntrl=     500 IOpCl=  0 I1Cent=   200000004 NGrid=           0
         NMat0=    1 NMatS0=      1 NMatT0=    0 NMatD0=    1 NMtDS0=    0 NMtDT0=    0
 Petite list used in FoFCou.
 Requested convergence on RMS density matrix=1.00D-08 within 128 cycles.
 Requested convergence on MAX density matrix=1.00D-06.
 Requested convergence on             energy=1.00D-06.
 No special actions if energy rises.
 Inv3:  Mode=1 IEnd=    25038963.
 Iteration    1 A*A^-1 deviation from unit magnitude is 8.88D-15 for   2785.
 Iteration    1 A*A^-1 deviation from orthogonality  is 6.92D-15 for   2445   2402.
 Iteration    1 A^-1*A deviation from unit magnitude is 8.22D-15 for   2785.
 Iteration    1 A^-1*A deviation from orthogonality  is 8.22D-13 for   2803   2800.
 Error on total polarization charges =  0.01140
 SCF Done:  E(RmPW1PW91) =  -1064.37761240     A.U. after   12 cycles
            NFock= 12  Conv=0.97D-08     -V/T= 2.0036
 DoSCS=F DFT=T ScalE2(SS,OS)=  1.000000  1.000000
 Range of M.O.s used for correlation:     1   410
 NBasis=   410 NAE=    74 NBE=    74 NFC=     0 NFV=     0
 NROrb=    410 NOA=    74 NOB=    74 NVA=   336 NVB=   336
 NEqPCM:  Using equilibrium solvation (IEInf=0, Eps=   4.7113, EpsInf=   2.0906)
          Differentiating once with respect to magnetic field using GIAOs.
          Electric field/nuclear overlap derivatives assumed to be zero.
 FoFJK:  IHMeth= 1 ICntrl=    6127 DoSepK=F KAlg= 0 I1Cent=   0 FoldK=F
 IRaf=         1 NMat=   1 IRICut=       1 DoRegI=T DoRafI=F ISym2E= 0.
          There are     3 degrees of freedom in the 1st order CPHF.  IDoFFX=0 NUNeed=     3.
      3 vectors produced by pass  0 Test12= 8.29D-13 3.33D-08 XBig12= 3.54D+01 1.05D+00.
 AX will form     3 AO Fock derivatives at one time.
      3 vectors produced by pass  1 Test12= 8.29D-13 3.33D-08 XBig12= 8.82D-02 1.05D-01.
      3 vectors produced by pass  2 Test12= 8.29D-13 3.33D-08 XBig12= 6.45D-04 1.06D-02.
      3 vectors produced by pass  3 Test12= 8.29D-13 3.33D-08 XBig12= 4.27D-06 8.53D-04.
      3 vectors produced by pass  4 Test12= 8.29D-13 3.33D-08 XBig12= 2.51D-08 6.04D-05.
      3 vectors produced by pass  5 Test12= 8.29D-13 3.33D-08 XBig12= 5.63D-11 1.22D-06.
      2 vectors produced by pass  6 Test12= 8.29D-13 3.33D-08 XBig12= 1.52D-13 8.38D-08.
 InvSVY:  IOpt=1 It=  1 EMax= 8.88D-16
 Solved reduced A of dimension    20 with     3 vectors.
 Calculating GIAO nuclear magnetic shielding tensors.
 SCF GIAO Magnetic shielding tensor (ppm):
      1  C    Isotropic =   106.4356   Anisotropy =    42.5844
   XX=   102.4897   YX=     1.0713   ZX=    -1.2920
   XY=    -2.7404   YY=   122.3497   ZY=    21.1257
   XZ=    -5.6737   YZ=    23.3239   ZZ=    94.4673
   Eigenvalues:    81.8329   102.6486   134.8252
      2  C    Isotropic =   144.1339   Anisotropy =    27.9432
   XX=   162.0487   YX=    -2.1611   ZX=    -1.9479
   XY=    -2.4864   YY=   135.7126   ZY=     1.7306
   XZ=    -6.2084   YZ=    -8.8699   ZZ=   134.6405
   Eigenvalues:   130.8837   138.7553   162.7627
      3  C    Isotropic =   105.0717   Anisotropy =    56.5793
   XX=   134.8748   YX=     1.7216   ZX=    21.1580
   XY=    -2.4200   YY=    83.2794   ZY=    -2.4996
   XZ=    16.8139   YZ=    -2.6618   ZZ=    97.0610
   Eigenvalues:    82.4934    89.9305   142.7913
      4  C    Isotropic =   144.4168   Anisotropy =    35.0162
   XX=   156.1551   YX=    11.6009   ZX=     7.2308
   XY=     8.7034   YY=   142.1355   ZY=     4.2016
   XZ=    13.5022   YZ=    17.3710   ZZ=   134.9597
   Eigenvalues:   126.8814   138.6081   167.7609
      5  C    Isotropic =     8.9023   Anisotropy =    94.8738
   XX=   -73.6197   YX=    15.1226   ZX=    27.3635
   XY=    18.9881   YY=    57.0518   ZY=   -22.3144
   XZ=    42.6808   YZ=   -18.6311   ZZ=    43.2748
   Eigenvalues:   -86.6839    41.2393    72.1515
      6  H    Isotropic =    28.0947   Anisotropy =     3.4283
   XX=    30.2319   YX=    -0.0720   ZX=    -0.5952
   XY=    -0.1544   YY=    29.2152   ZY=    -2.4867
   XZ=    -0.6054   YZ=    -2.0952   ZZ=    24.8370
   Eigenvalues:    23.8021    30.1018    30.3802
      7  H    Isotropic =    30.0357   Anisotropy =     5.4416
   XX=    27.9550   YX=     0.2968   ZX=    -1.9042
   XY=     0.7713   YY=    33.5827   ZY=     0.1890
   XZ=    -1.3033   YZ=    -0.6449   ZZ=    28.5694
   Eigenvalues:    26.6190    29.8247    33.6635
      8  H    Isotropic =    29.5442   Anisotropy =     3.6105
   XX=    31.1059   YX=     0.5692   ZX=    -1.8465
   XY=     1.5907   YY=    28.1276   ZY=     2.9848
   XZ=    -0.3617   YZ=     3.1304   ZZ=    29.3991
   Eigenvalues:    25.2387    31.4427    31.9512
      9  H    Isotropic =    29.2517   Anisotropy =     4.6487
   XX=    30.4278   YX=    -1.5279   ZX=     0.7520
   XY=    -1.9730   YY=    30.6221   ZY=    -0.6229
   XZ=     0.6367   YZ=     0.1783   ZZ=    26.7052
   Eigenvalues:    26.5773    28.8270    32.3508
     10  O    Isotropic =   120.6382   Anisotropy =   202.3060
   XX=   188.1379   YX=   -46.8968   ZX=   -62.2470
   XY=   -56.9179   YY=    88.3334   ZY=  -131.7030
   XZ=   -85.3680   YZ=  -195.0604   ZZ=    85.4434
   Eigenvalues:  -103.6797   210.0856   255.5089
     11  O    Isotropic =  -135.5764   Anisotropy =   601.3505
   XX=  -268.8429   YX=    36.2784   ZX=    76.8879
   XY=    37.6637   YY=    40.9171   ZY=  -290.6890
   XZ=    78.6290   YZ=  -339.8089   ZZ=  -178.8033
   Eigenvalues:  -443.9318  -228.1212   265.3240
     12  C    Isotropic =   156.9746   Anisotropy =    21.9354
   XX=   164.5614   YX=    -2.8120   ZX=   -12.8641
   XY=     0.8740   YY=   149.8286   ZY=     7.1661
   XZ=    -5.4646   YZ=     6.7668   ZZ=   156.5337
   Eigenvalues:   144.4208   154.9047   171.5982
     13  C    Isotropic =   174.1847   Anisotropy =    23.0377
   XX=   186.6835   YX=    -2.5704   ZX=     4.1196
   XY=    -0.2944   YY=   163.8579   ZY=    -7.5994
   XZ=     8.2534   YZ=    -6.5526   ZZ=   172.0126
   Eigenvalues:   159.6299   173.3810   189.5432
     14  C    Isotropic =   178.0355   Anisotropy =    15.3026
   XX=   176.9679   YX=    -2.4432   ZX=    -1.8025
   XY=    -2.6222   YY=   179.0786   ZY=   -10.5312
   XZ=    -2.4973   YZ=    -8.7538   ZZ=   178.0601
   Eigenvalues:   167.7316   178.1378   188.2373
     15  O    Isotropic =   245.1652   Anisotropy =    19.2685
   XX=   240.1005   YX=    14.9624   ZX=    -0.5545
   XY=    11.5490   YY=   246.0357   ZY=     5.4036
   XZ=   -10.8970   YZ=    10.7565   ZZ=   249.3594
   Eigenvalues:   225.6264   251.8583   258.0108
     16  Si   Isotropic =   334.2379   Anisotropy =    54.3356
   XX=   364.9477   YX=   -15.2292   ZX=   -17.2424
   XY=    -8.0353   YY=   319.6292   ZY=     9.1728
   XZ=    -3.2511   YZ=     6.7577   ZZ=   318.1367
   Eigenvalues:   310.8811   321.3709   370.4616
     17  C    Isotropic =   184.8581   Anisotropy =    10.9294
   XX=   187.5649   YX=    -2.6163   ZX=    -1.2221
   XY=     0.0057   YY=   191.6108   ZY=    -2.0017
   XZ=    -1.4002   YZ=    -1.9976   ZZ=   175.3987
   Eigenvalues:   174.9855   187.4446   192.1444
     18  C    Isotropic =   185.2778   Anisotropy =     6.7836
   XX=   187.7146   YX=    -1.8088   ZX=    -2.1009
   XY=    -4.3256   YY=   179.6038   ZY=    -3.6207
   XZ=     0.7390   YZ=    -3.2986   ZZ=   188.5151
   Eigenvalues:   177.4662   188.5670   189.8003
     19  C    Isotropic =   186.2868   Anisotropy =    13.4215
   XX=   189.6737   YX=     1.2540   ZX=     3.8178
   XY=    -0.5094   YY=   183.7880   ZY=     9.2823
   XZ=     1.9333   YZ=     9.8628   ZZ=   185.3987
   Eigenvalues:   174.7954   188.8306   195.2345
     20  H    Isotropic =    32.1553   Anisotropy =    10.4638
   XX=    37.6875   YX=    -1.4164   ZX=    -3.4938
   XY=    -1.7865   YY=    28.3169   ZY=     0.2853
   XZ=    -2.9054   YZ=     0.1695   ZZ=    30.4616
   Eigenvalues:    27.9886    29.3462    39.1312
     21  H    Isotropic =    31.9562   Anisotropy =     6.5237
   XX=    32.5833   YX=     1.7231   ZX=     0.9273
   XY=     1.5635   YY=    28.9848   ZY=     2.0148
   XZ=     1.9938   YZ=     2.8412   ZZ=    34.3004
   Eigenvalues:    27.8064    31.7568    36.3053
     22  H    Isotropic =    31.8911   Anisotropy =     7.3046
   XX=    30.4425   YX=    -0.0007   ZX=    -0.9575
   XY=     0.1327   YY=    35.5482   ZY=    -2.5825
   XZ=    -0.8541   YZ=    -3.2023   ZZ=    29.6826
   Eigenvalues:    28.1991    30.7134    36.7608
     23  H    Isotropic =    32.3444   Anisotropy =     9.7519
   XX=    38.7480   YX=    -0.7615   ZX=     0.3106
   XY=    -1.1936   YY=    29.0508   ZY=     0.7553
   XZ=    -0.0952   YZ=     0.8089   ZZ=    29.2343
   Eigenvalues:    28.2924    29.8950    38.8456
     24  H    Isotropic =    32.0122   Anisotropy =     8.6404
   XX=    29.9162   YX=     1.3322   ZX=     1.4651
   XY=     0.9956   YY=    37.4298   ZY=     0.5425
   XZ=     1.2618   YZ=     1.5075   ZZ=    28.6905
   Eigenvalues:    27.8026    30.4615    37.7724
     25  H    Isotropic =    31.9561   Anisotropy =     8.6006
   XX=    29.9021   YX=     1.0713   ZX=     0.9220
   XY=     0.8150   YY=    28.3527   ZY=     0.0132
   XZ=     0.4914   YZ=    -0.8524   ZZ=    37.6136
   Eigenvalues:    27.8588    30.3197    37.6898
     26  H    Isotropic =    32.2834   Anisotropy =    10.4121
   XX=    37.4125   YX=    -3.9355   ZX=     0.0151
   XY=    -3.5916   YY=    31.4052   ZY=    -0.0225
   XZ=    -0.1454   YZ=     0.1614   ZZ=    28.0325
   Eigenvalues:    28.0310    29.5944    39.2248
     27  H    Isotropic =    31.9505   Anisotropy =     7.4196
   XX=    30.4935   YX=    -0.4122   ZX=    -1.5056
   XY=    -0.0245   YY=    31.1304   ZY=    -4.1739
   XZ=    -1.3932   YZ=    -3.2688   ZZ=    34.2277
   Eigenvalues:    28.1978    30.7568    36.8969
     28  H    Isotropic =    32.0370   Anisotropy =     6.3939
   XX=    32.1519   YX=     0.1266   ZX=     2.6201
   XY=     1.0841   YY=    33.3460   ZY=     3.3899
   XZ=     2.7350   YZ=     2.5636   ZZ=    30.6130
   Eigenvalues:    27.7500    32.0613    36.2996
     29  H    Isotropic =    31.0750   Anisotropy =     9.7524
   XX=    31.7044   YX=    -1.6139   ZX=    -3.1323
   XY=    -0.9978   YY=    25.8573   ZY=    -0.8294
   XZ=    -3.5710   YZ=    -0.7839   ZZ=    35.6632
   Eigenvalues:    25.3297    30.3187    37.5766
     30  H    Isotropic =    31.3945   Anisotropy =     7.1235
   XX=    28.8335   YX=     0.5503   ZX=    -0.4586
   XY=     0.5574   YY=    35.4717   ZY=    -1.9421
   XZ=    -0.3166   YZ=    -1.9655   ZZ=    29.8783
   Eigenvalues:    28.7033    29.3368    36.1435
     31  H    Isotropic =    30.6994   Anisotropy =     7.9868
   XX=    34.7294   YX=     0.6245   ZX=     2.0932
   XY=    -0.0473   YY=    24.9166   ZY=    -2.1651
   XZ=     2.0292   YZ=    -2.3324   ZZ=    32.4522
   Eigenvalues:    24.2289    31.8453    36.0239
     32  H    Isotropic =    30.6629   Anisotropy =     6.7217
   XX=    32.2713   YX=    -0.9439   ZX=    -0.2821
   XY=    -1.3023   YY=    29.3286   ZY=     5.0328
   XZ=    -0.5248   YZ=     4.7037   ZZ=    30.3888
   Eigenvalues:    24.9173    31.9274    35.1440
     33  H    Isotropic =    30.2029   Anisotropy =     4.5438
   XX=    33.0945   YX=     0.0835   ZX=    -0.0402
   XY=     0.0129   YY=    27.7476   ZY=    -4.2991
   XZ=     0.1699   YZ=    -4.4138   ZZ=    29.7665
   Eigenvalues:    24.2845    33.0921    33.2321
     34  H    Isotropic =    30.9675   Anisotropy =    11.4444
   XX=    37.2265   YX=    -0.6099   ZX=    -3.9282
   XY=    -0.3806   YY=    26.0320   ZY=    -0.1563
   XZ=    -3.0386   YZ=    -0.1355   ZZ=    29.6440
   Eigenvalues:    25.9757    28.3298    38.5971
     35  H    Isotropic =    31.2312   Anisotropy =     8.6640
   XX=    32.0725   YX=    -2.6478   ZX=     2.5235
   XY=    -2.2273   YY=    32.0235   ZY=    -3.5868
   XZ=     1.4744   YZ=    -4.4275   ZZ=    29.5978
   Eigenvalues:    26.6185    30.0680    37.0073
     36  H    Isotropic =    30.6121   Anisotropy =     8.0857
   XX=    32.8816   YX=     1.8786   ZX=     2.5776
   XY=     1.7203   YY=    30.2731   ZY=     3.6837
   XZ=     1.9143   YZ=     4.0736   ZZ=    28.6815
   Eigenvalues:    25.4613    30.3723    36.0025
     37  C    Isotropic =   141.3136   Anisotropy =    35.3606
   XX=   123.3119   YX=    -2.3811   ZX=     1.0948
   XY=    -5.6870   YY=   163.5056   ZY=    -5.1462
   XZ=     2.0209   YZ=    -5.0277   ZZ=   137.1233
   Eigenvalues:   122.8306   136.2229   164.8873
     38  C    Isotropic =    44.7292   Anisotropy =   180.3164
   XX=    38.4976   YX=   -25.9628   ZX=   -86.6245
   XY=   -27.9727   YY=    11.6611   ZY=   -74.4572
   XZ=   -86.9397   YZ=   -74.8042   ZZ=    84.0287
   Eigenvalues:   -81.1678    50.4153   164.9401
     39  C    Isotropic =    64.7653   Anisotropy =   141.1608
   XX=    71.0345   YX=   -32.6947   ZX=   -68.3214
   XY=   -34.3213   YY=    34.1217   ZY=   -68.6012
   XZ=   -66.5185   YZ=   -72.5856   ZZ=    89.1398
   Eigenvalues:   -51.5397    86.9632   158.8725
     40  H    Isotropic =    29.8017   Anisotropy =     5.1786
   XX=    29.5847   YX=    -0.9241   ZX=     2.0725
   XY=     0.3417   YY=    29.3253   ZY=    -1.7395
   XZ=     2.1433   YZ=    -2.8438   ZZ=    30.4952
   Eigenvalues:    26.9720    29.1791    33.2541
     41  H    Isotropic =    29.4670   Anisotropy =     6.3662
   XX=    31.6613   YX=    -2.2670   ZX=    -2.1917
   XY=    -1.7605   YY=    27.9091   ZY=    -1.4984
   XZ=    -3.5223   YZ=    -0.4073   ZZ=    28.8308
   Eigenvalues:    25.4905    29.1995    33.7112
     42  H    Isotropic =    25.6908   Anisotropy =     7.2336
   XX=    25.2504   YX=    -1.0754   ZX=    -0.5393
   XY=    -2.4290   YY=    29.8089   ZY=    -1.4449
   XZ=    -0.7016   YZ=    -0.9873   ZZ=    22.0133
   Eigenvalues:    21.5970    24.9623    30.5132
     43  H    Isotropic =    26.7109   Anisotropy =     6.9828
   XX=    26.0440   YX=    -3.6629   ZX=    -0.9673
   XY=    -1.7764   YY=    29.7662   ZY=    -0.7270
   XZ=    -0.2169   YZ=    -2.2995   ZZ=    24.3224
   Eigenvalues:    23.1478    25.6187    31.3660
     44  H    Isotropic =    26.7651   Anisotropy =     7.2517
   XX=    26.9874   YX=    -1.9354   ZX=     0.2657
   XY=    -4.0668   YY=    28.3335   ZY=    -3.8024
   XZ=    -0.7082   YZ=    -2.3803   ZZ=    24.9743
   Eigenvalues:    22.3627    26.3329    31.5996
 End of Minotr F.D. properties file   721 does not exist.
 End of Minotr F.D. properties file   722 does not exist.
 End of Minotr F.D. properties file   788 does not exist.

 **********************************************************************

            Population analysis using the SCF density.

 **********************************************************************

 Orbital symmetries:
       Occupied  (A) (A) (A) (A) (A) (A) (A) (A) (A) (A) (A) (A)
                 (A) (A) (A) (A) (A) (A) (A) (A) (A) (A) (A) (A)
                 (A) (A) (A) (A) (A) (A) (A) (A) (A) (A) (A) (A)
                 (A) (A) (A) (A) (A) (A) (A) (A) (A) (A) (A) (A)
                 (A) (A) (A) (A) (A) (A) (A) (A) (A) (A) (A) (A)
                 (A) (A) (A) (A) (A) (A) (A) (A) (A) (A) (A) (A)
                 (A) (A)
       Virtual   (A) (A) (A) (A) (A) (A) (A) (A) (A) (A) (A) (A)
                 (A) (A) (A) (A) (A) (A) (A) (A) (A) (A) (A) (A)
                 (A) (A) (A) (A) (A) (A) (A) (A) (A) (A) (A) (A)
                 (A) (A) (A) (A) (A) (A) (A) (A) (A) (A) (A) (A)
                 (A) (A) (A) (A) (A) (A) (A) (A) (A) (A) (A) (A)
                 (A) (A) (A) (A) (A) (A) (A) (A) (A) (A) (A) (A)
                 (A) (A) (A) (A) (A) (A) (A) (A) (A) (A) (A) (A)
                 (A) (A) (A) (A) (A) (A) (A) (A) (A) (A) (A) (A)
                 (A) (A) (A) (A) (A) (A) (A) (A) (A) (A) (A) (A)
                 (A) (A) (A) (A) (A) (A) (A) (A) (A) (A) (A) (A)
                 (A) (A) (A) (A) (A) (A) (A) (A) (A) (A) (A) (A)
                 (A) (A) (A) (A) (A) (A) (A) (A) (A) (A) (A) (A)
                 (A) (A) (A) (A) (A) (A) (A) (A) (A) (A) (A) (A)
                 (A) (A) (A) (A) (A) (A) (A) (A) (A) (A) (A) (A)
                 (A) (A) (A) (A) (A) (A) (A) (A) (A) (A) (A) (A)
                 (A) (A) (A) (A) (A) (A) (A) (A) (A) (A) (A) (A)
                 (A) (A) (A) (A) (A) (A) (A) (A) (A) (A) (A) (A)
                 (A) (A) (A) (A) (A) (A) (A) (A) (A) (A) (A) (A)
                 (A) (A) (A) (A) (A) (A) (A) (A) (A) (A) (A) (A)
                 (A) (A) (A) (A) (A) (A) (A) (A) (A) (A) (A) (A)
                 (A) (A) (A) (A) (A) (A) (A) (A) (A) (A) (A) (A)
                 (A) (A) (A) (A) (A) (A) (A) (A) (A) (A) (A) (A)
                 (A) (A) (A) (A) (A) (A) (A) (A) (A) (A) (A) (A)
                 (A) (A) (A) (A) (A) (A) (A) (A) (A) (A) (A) (A)
                 (A) (A) (A) (A) (A) (A) (A) (A) (A) (A) (A) (A)
                 (A) (A) (A) (A) (A) (A) (A) (A) (A) (A) (A) (A)
                 (A) (A) (A) (A) (A) (A) (A) (A) (A) (A) (A) (A)
                 (A) (A) (A) (A) (A) (A) (A) (A) (A) (A) (A) (A)
 The electronic state is 1-A.
 Alpha  occ. eigenvalues --  -66.27023 -19.26374 -19.21358 -19.20331 -10.37665
 Alpha  occ. eigenvalues --  -10.32220 -10.30482 -10.25535 -10.25067 -10.24633
 Alpha  occ. eigenvalues --  -10.24442 -10.23755 -10.23043 -10.22248 -10.21956
 Alpha  occ. eigenvalues --  -10.20871 -10.20610 -10.20541  -5.32853  -3.66700
 Alpha  occ. eigenvalues --   -3.66468  -3.66435  -1.13677  -1.05130  -1.04140
 Alpha  occ. eigenvalues --   -0.85945  -0.83236  -0.81102  -0.77642  -0.74066
 Alpha  occ. eigenvalues --   -0.73277  -0.71446  -0.70306  -0.69987  -0.66576
 Alpha  occ. eigenvalues --   -0.64054  -0.62190  -0.58728  -0.54982  -0.53471
 Alpha  occ. eigenvalues --   -0.53208  -0.51317  -0.50263  -0.47961  -0.47487
 Alpha  occ. eigenvalues --   -0.46746  -0.45330  -0.45175  -0.44688  -0.43906
 Alpha  occ. eigenvalues --   -0.42861  -0.42727  -0.42512  -0.41637  -0.40986
 Alpha  occ. eigenvalues --   -0.40657  -0.40359  -0.39685  -0.39337  -0.38857
 Alpha  occ. eigenvalues --   -0.38341  -0.37922  -0.37088  -0.36699  -0.36398
 Alpha  occ. eigenvalues --   -0.35663  -0.34539  -0.33309  -0.31797  -0.31159
 Alpha  occ. eigenvalues --   -0.30336  -0.29678  -0.28601  -0.27347
 Alpha virt. eigenvalues --   -0.00761   0.00797   0.03821   0.05489   0.05918
 Alpha virt. eigenvalues --    0.06564   0.07385   0.08095   0.08380   0.09132
 Alpha virt. eigenvalues --    0.09382   0.09888   0.10343   0.10854   0.11191
 Alpha virt. eigenvalues --    0.11956   0.12701   0.12933   0.13863   0.13999
 Alpha virt. eigenvalues --    0.14404   0.14876   0.15026   0.15207   0.15633
 Alpha virt. eigenvalues --    0.16221   0.16358   0.17383   0.17434   0.17845
 Alpha virt. eigenvalues --    0.18407   0.19338   0.19448   0.20363   0.21653
 Alpha virt. eigenvalues --    0.21972   0.22199   0.22653   0.23783   0.24976
 Alpha virt. eigenvalues --    0.25281   0.25411   0.26629   0.27911   0.28074
 Alpha virt. eigenvalues --    0.29045   0.30103   0.31113   0.31660   0.31947
 Alpha virt. eigenvalues --    0.32747   0.33554   0.34908   0.35269   0.35430
 Alpha virt. eigenvalues --    0.36907   0.38094   0.38823   0.39725   0.40602
 Alpha virt. eigenvalues --    0.40963   0.42055   0.43147   0.43971   0.44698
 Alpha virt. eigenvalues --    0.45434   0.46214   0.46896   0.47459   0.48631
 Alpha virt. eigenvalues --    0.49118   0.50159   0.51116   0.51406   0.52464
 Alpha virt. eigenvalues --    0.53153   0.53429   0.54734   0.55899   0.56554
 Alpha virt. eigenvalues --    0.56976   0.57512   0.58319   0.58550   0.59108
 Alpha virt. eigenvalues --    0.59462   0.59643   0.59942   0.60845   0.60914
 Alpha virt. eigenvalues --    0.61471   0.61667   0.62223   0.62692   0.63119
 Alpha virt. eigenvalues --    0.63636   0.64040   0.64556   0.65116   0.66016
 Alpha virt. eigenvalues --    0.66496   0.67195   0.67251   0.67486   0.67882
 Alpha virt. eigenvalues --    0.68967   0.69258   0.69800   0.70184   0.71540
 Alpha virt. eigenvalues --    0.71681   0.72360   0.73102   0.73787   0.74551
 Alpha virt. eigenvalues --    0.75196   0.76444   0.78459   0.79802   0.80924
 Alpha virt. eigenvalues --    0.82956   0.83832   0.84926   0.87155   0.88436
 Alpha virt. eigenvalues --    0.89666   0.91226   0.92186   0.93371   0.94388
 Alpha virt. eigenvalues --    0.95228   0.96549   0.98729   1.00676   1.00720
 Alpha virt. eigenvalues --    1.02378   1.04324   1.05560   1.06661   1.08003
 Alpha virt. eigenvalues --    1.11238   1.13081   1.15217   1.17075   1.18818
 Alpha virt. eigenvalues --    1.21354   1.21779   1.25006   1.26166   1.28492
 Alpha virt. eigenvalues --    1.28591   1.30259   1.31139   1.32077   1.32682
 Alpha virt. eigenvalues --    1.33951   1.35915   1.37778   1.39632   1.41339
 Alpha virt. eigenvalues --    1.42283   1.45299   1.45731   1.47663   1.49079
 Alpha virt. eigenvalues --    1.49880   1.50787   1.51879   1.52761   1.53961
 Alpha virt. eigenvalues --    1.54886   1.55328   1.56043   1.56892   1.57903
 Alpha virt. eigenvalues --    1.58756   1.59358   1.59496   1.59878   1.61024
 Alpha virt. eigenvalues --    1.61419   1.62030   1.62584   1.63547   1.64379
 Alpha virt. eigenvalues --    1.64942   1.65926   1.67373   1.67723   1.68927
 Alpha virt. eigenvalues --    1.70278   1.70981   1.71841   1.73015   1.73676
 Alpha virt. eigenvalues --    1.75254   1.76511   1.77513   1.80521   1.81096
 Alpha virt. eigenvalues --    1.81595   1.82210   1.83069   1.84250   1.86869
 Alpha virt. eigenvalues --    1.89558   1.91055   1.92562   1.96425   1.98703
 Alpha virt. eigenvalues --    1.98922   2.02814   2.07500   2.10142   2.12470
 Alpha virt. eigenvalues --    2.12936   2.17095   2.20694   2.21163   2.27199
 Alpha virt. eigenvalues --    2.28010   2.29745   2.34069   2.36681   2.41133
 Alpha virt. eigenvalues --    2.41626   2.41950   2.42218   2.42642   2.43401
 Alpha virt. eigenvalues --    2.44158   2.44495   2.46086   2.46706   2.47674
 Alpha virt. eigenvalues --    2.48355   2.48817   2.49961   2.50624   2.51842
 Alpha virt. eigenvalues --    2.52547   2.54047   2.56367   2.58864   2.59078
 Alpha virt. eigenvalues --    2.62514   2.65023   2.66561   2.71508   2.79811
 Alpha virt. eigenvalues --    2.81301   2.86680   2.88371   2.90445   2.91323
 Alpha virt. eigenvalues --    2.92729   2.92964   2.95733   2.96327   2.97644
 Alpha virt. eigenvalues --    3.00476   3.00919   3.02999   3.05494   3.07124
 Alpha virt. eigenvalues --    3.09780   3.11354   3.11962   3.13615   3.14898
 Alpha virt. eigenvalues --    3.16160   3.16881   3.18136   3.18599   3.19246
 Alpha virt. eigenvalues --    3.22558   3.22973   3.23638   3.23823   3.25346
 Alpha virt. eigenvalues --    3.26829   3.28222   3.29165   3.29570   3.31209
 Alpha virt. eigenvalues --    3.33751   3.34318   3.37559   3.39900   3.40778
 Alpha virt. eigenvalues --    3.44210   3.51378   3.56700   3.58907   3.63544
 Alpha virt. eigenvalues --    3.76579   3.90105   3.90443   3.98860   4.01037
 Alpha virt. eigenvalues --    4.08254   4.11133   4.19998   4.21133   4.24958
 Alpha virt. eigenvalues --    4.94577   4.99763   5.02164   5.09417   5.13366
 Alpha virt. eigenvalues --    5.24404   5.50288   5.53310   5.77116   5.84834
 Alpha virt. eigenvalues --   11.52459  11.54550  11.59110  23.41522  23.48868
 Alpha virt. eigenvalues --   23.54676  23.55307  23.57519  23.62473  23.69727
 Alpha virt. eigenvalues --   23.74694  23.77716  23.78255  23.81185  23.85875
 Alpha virt. eigenvalues --   23.88774  24.27062  49.98144  50.05750  50.11568
 Alpha virt. eigenvalues --  141.28998
          Condensed to atoms (all electrons):
               1          2          3          4          5          6
     1  C    5.299579   0.248507  -0.054018  -0.002556  -0.056571   0.390680
     2  C    0.248507   5.557972   0.292160  -0.081620  -0.016087  -0.044083
     3  C   -0.054018   0.292160   5.199598   0.226653  -0.013678  -0.017949
     4  C   -0.002556  -0.081620   0.226653   5.884483   0.238202   0.003305
     5  C   -0.056571  -0.016087  -0.013678   0.238202   4.401722  -0.003186
     6  H    0.390680  -0.044083  -0.017949   0.003305  -0.003186   0.472957
     7  H   -0.031210   0.390411  -0.038094   0.008107   0.000225  -0.000240
     8  H   -0.001258   0.008054  -0.031957   0.353076  -0.025729   0.000190
     9  H    0.002319  -0.008568  -0.028680   0.371779  -0.021548  -0.000275
    10  O    0.199540  -0.034644  -0.000878  -0.106026   0.347165  -0.034969
    11  O    0.000862  -0.000171   0.003475  -0.103863   0.663236   0.000301
    12  C    0.320009  -0.052594   0.008305  -0.002337   0.003173  -0.047771
    13  C   -0.076999   0.007244  -0.000124   0.000100  -0.000181  -0.008231
    14  C   -0.080689   0.296080  -0.077017  -0.007858   0.000553   0.007308
    15  O    0.003951  -0.059770   0.221199  -0.023980   0.001616  -0.000030
    16  Si   0.000411   0.001872  -0.048986  -0.009328   0.000948  -0.000143
    17  C    0.000002  -0.000066  -0.000952   0.000670   0.000142   0.000001
    18  C    0.000009  -0.000246  -0.000087  -0.002124   0.000070   0.000002
    19  C   -0.000001  -0.000031   0.002333  -0.000138   0.000001   0.000000
    20  H    0.000000   0.000007  -0.000076   0.000052   0.000000   0.000000
    21  H    0.000008  -0.000087   0.000362   0.001270  -0.000051  -0.000002
    22  H    0.000003  -0.000093   0.000095   0.000174   0.000004  -0.000001
    23  H    0.000000   0.000002  -0.000080  -0.000002   0.000000   0.000000
    24  H    0.000000  -0.000010  -0.000083  -0.000020   0.000000   0.000000
    25  H   -0.000001   0.000045  -0.000154  -0.000042   0.000000   0.000000
    26  H    0.000000   0.000000  -0.000034   0.000153  -0.000001   0.000000
    27  H   -0.000002   0.000087   0.000580  -0.000201  -0.000039   0.000000
    28  H   -0.000001   0.000018  -0.000141   0.001449   0.000082   0.000001
    29  H   -0.007660  -0.033526   0.006919  -0.000536   0.000002  -0.000303
    30  H   -0.007587  -0.040473  -0.010762   0.006713  -0.001499   0.000614
    31  H    0.006937  -0.033904  -0.006339   0.000007  -0.000120  -0.000128
    32  H   -0.048931   0.001361  -0.000152   0.000142  -0.000026   0.000656
    33  H   -0.038527  -0.010353  -0.000565   0.000137  -0.000201   0.007263
    34  H    0.008656  -0.000263   0.000014  -0.000003   0.000009  -0.000195
    35  H   -0.004590  -0.000423  -0.000024  -0.000009  -0.000070   0.005987
    36  H   -0.011764   0.000756  -0.000046   0.000285   0.000522   0.000274
    37  C    0.001605  -0.093111   0.325604  -0.106735   0.002322   0.004467
    38  C   -0.001893  -0.015966  -0.059194   0.008768  -0.000212   0.000395
    39  C   -0.000884  -0.000218  -0.002942  -0.000054  -0.000040   0.003609
    40  H    0.000180  -0.002619  -0.025067  -0.005666   0.004470  -0.001397
    41  H   -0.000508   0.007492  -0.039816  -0.004645  -0.000035   0.000710
    42  H    0.000172  -0.000939  -0.001802  -0.000030  -0.000005  -0.000016
    43  H    0.000047   0.000003  -0.000325   0.000017   0.000000   0.000027
    44  H    0.000064  -0.000139   0.000211  -0.000057  -0.000022   0.001091
               7          8          9         10         11         12
     1  C   -0.031210  -0.001258   0.002319   0.199540   0.000862   0.320009
     2  C    0.390411   0.008054  -0.008568  -0.034644  -0.000171  -0.052594
     3  C   -0.038094  -0.031957  -0.028680  -0.000878   0.003475   0.008305
     4  C    0.008107   0.353076   0.371779  -0.106026  -0.103863  -0.002337
     5  C    0.000225  -0.025729  -0.021548   0.347165   0.663236   0.003173
     6  H   -0.000240   0.000190  -0.000275  -0.034969   0.000301  -0.047771
     7  H    0.448803  -0.000017  -0.000166   0.003313   0.000023  -0.003485
     8  H   -0.000017   0.426739  -0.016527   0.005653   0.014933   0.000069
     9  H   -0.000166  -0.016527   0.394735  -0.000547   0.001290   0.000003
    10  O    0.003313   0.005653  -0.000547   8.033809  -0.069749  -0.047543
    11  O    0.000023   0.014933   0.001290  -0.069749   7.869637  -0.000151
    12  C   -0.003485   0.000069   0.000003  -0.047543  -0.000151   5.318778
    13  C   -0.000323  -0.000004   0.000011  -0.002077  -0.000013   0.317061
    14  C   -0.038555   0.000116   0.000366  -0.000503  -0.000004  -0.014042
    15  O    0.002308  -0.001586  -0.001382  -0.000024  -0.000016  -0.000074
    16  Si  -0.000437  -0.001244  -0.006206  -0.000466  -0.001096   0.000008
    17  C    0.000030  -0.000433  -0.001877  -0.000001   0.000009   0.000000
    18  C    0.000003   0.002536   0.000222   0.000000   0.000008   0.000000
    19  C   -0.000027  -0.000017  -0.000070   0.000000   0.000000   0.000000
    20  H    0.000000   0.000032   0.000000   0.000000   0.000000   0.000000
    21  H    0.000000   0.003189  -0.000131  -0.000003  -0.000078   0.000000
    22  H   -0.000010  -0.000234   0.000012   0.000000   0.000000   0.000000
    23  H    0.000000  -0.000003   0.000001   0.000000   0.000000   0.000000
    24  H   -0.000018  -0.000009  -0.000007   0.000000   0.000000   0.000000
    25  H   -0.000007  -0.000008  -0.000019   0.000000   0.000000   0.000000
    26  H   -0.000001   0.000008   0.000353   0.000000   0.000000   0.000000
    27  H    0.000005   0.000058   0.000129   0.000001   0.000002   0.000000
    28  H    0.000004   0.000276   0.000063   0.000000  -0.000012   0.000000
    29  H   -0.005726   0.000011   0.000175   0.000013   0.000001   0.002991
    30  H    0.006691   0.000474  -0.000111   0.008893  -0.000224  -0.003125
    31  H   -0.002344  -0.000130   0.000400  -0.000158   0.000002   0.000066
    32  H    0.002140  -0.000004  -0.000014   0.003318   0.000007   0.394527
    33  H    0.000356   0.000006  -0.000064   0.002281  -0.000037   0.388212
    34  H   -0.000018   0.000000   0.000000  -0.000209   0.000000  -0.038678
    35  H    0.000042   0.000000   0.000000  -0.000321  -0.000002  -0.042870
    36  H   -0.000051  -0.000008  -0.000008   0.011067   0.000155  -0.038011
    37  C   -0.010440  -0.006401   0.005554  -0.003214   0.000008  -0.000390
    38  C    0.009540   0.000141  -0.000185   0.000299  -0.000002  -0.000053
    39  C    0.003016   0.000001   0.000000  -0.000017   0.000000   0.000074
    40  H   -0.000189  -0.000138   0.000181   0.000151   0.000358   0.000526
    41  H    0.000270   0.002623  -0.000183  -0.000101   0.000037   0.000008
    42  H   -0.000074  -0.000015   0.000020   0.000003   0.000000   0.000010
    43  H    0.000153   0.000001  -0.000001   0.000000   0.000000  -0.000004
    44  H   -0.000053   0.000001   0.000002  -0.000018   0.000000   0.000057
              13         14         15         16         17         18
     1  C   -0.076999  -0.080689   0.003951   0.000411   0.000002   0.000009
     2  C    0.007244   0.296080  -0.059770   0.001872  -0.000066  -0.000246
     3  C   -0.000124  -0.077017   0.221199  -0.048986  -0.000952  -0.000087
     4  C    0.000100  -0.007858  -0.023980  -0.009328   0.000670  -0.002124
     5  C   -0.000181   0.000553   0.001616   0.000948   0.000142   0.000070
     6  H   -0.008231   0.007308  -0.000030  -0.000143   0.000001   0.000002
     7  H   -0.000323  -0.038555   0.002308  -0.000437   0.000030   0.000003
     8  H   -0.000004   0.000116  -0.001586  -0.001244  -0.000433   0.002536
     9  H    0.000011   0.000366  -0.001382  -0.006206  -0.001877   0.000222
    10  O   -0.002077  -0.000503  -0.000024  -0.000466  -0.000001   0.000000
    11  O   -0.000013  -0.000004  -0.000016  -0.001096   0.000009   0.000008
    12  C    0.317061  -0.014042  -0.000074   0.000008   0.000000   0.000000
    13  C    5.343665  -0.000034   0.000001   0.000001   0.000000   0.000000
    14  C   -0.000034   5.432080  -0.006251  -0.000874   0.000094  -0.000002
    15  O    0.000001  -0.006251   8.262307   0.349928  -0.024390  -0.021848
    16  Si   0.000001  -0.000874   0.349928  11.531189   0.318116   0.316004
    17  C    0.000000   0.000094  -0.024390   0.318116   5.779033  -0.058487
    18  C    0.000000  -0.000002  -0.021848   0.316004  -0.058487   5.801369
    19  C    0.000000  -0.000029  -0.021548   0.336380  -0.053748  -0.051128
    20  H    0.000000   0.000000   0.000755  -0.009954   0.000243   0.366030
    21  H    0.000000   0.000001  -0.001035  -0.028619  -0.001419   0.365060
    22  H    0.000000   0.000003  -0.001853  -0.027180   0.002462   0.369845
    23  H    0.000000  -0.000002   0.000902  -0.014360   0.000633  -0.000124
    24  H    0.000000  -0.000001  -0.001311  -0.028357   0.002583  -0.000550
    25  H    0.000000   0.000001  -0.001194  -0.026906  -0.000541   0.002607
    26  H    0.000000   0.000002   0.000892  -0.011753   0.364757   0.000852
    27  H    0.000000   0.000268  -0.002213  -0.025832   0.369896   0.002299
    28  H    0.000000   0.000004  -0.001166  -0.029698   0.370506  -0.001554
    29  H    0.000297   0.390930   0.000203   0.000242  -0.000006   0.000000
    30  H   -0.000212   0.385197   0.000151  -0.000911   0.000148   0.000004
    31  H    0.000012   0.386010   0.006869   0.001275   0.000274   0.000041
    32  H   -0.038960  -0.000789  -0.000012  -0.000004   0.000000   0.000000
    33  H   -0.043936   0.003094   0.000000  -0.000008   0.000000   0.000000
    34  H    0.393444   0.000007   0.000000   0.000000   0.000000   0.000000
    35  H    0.386137   0.000003   0.000000   0.000000   0.000000   0.000000
    36  H    0.385328  -0.000072   0.000000   0.000001   0.000000   0.000000
    37  C   -0.000046   0.008082  -0.059391  -0.013569  -0.000421  -0.003293
    38  C    0.000008  -0.000167   0.002515  -0.000489   0.000022   0.000785
    39  C   -0.000020  -0.000015   0.000532   0.000397   0.000000   0.000010
    40  H   -0.000018  -0.000261   0.003619   0.001971   0.000018  -0.000059
    41  H   -0.000003  -0.000140  -0.003171  -0.004450  -0.000121  -0.002502
    42  H    0.000000  -0.000068   0.004616   0.002193   0.000022  -0.000045
    43  H    0.000000  -0.000002   0.000015   0.000010   0.000000   0.000000
    44  H    0.000016   0.000004  -0.000010  -0.000004   0.000000  -0.000001
              19         20         21         22         23         24
     1  C   -0.000001   0.000000   0.000008   0.000003   0.000000   0.000000
     2  C   -0.000031   0.000007  -0.000087  -0.000093   0.000002  -0.000010
     3  C    0.002333  -0.000076   0.000362   0.000095  -0.000080  -0.000083
     4  C   -0.000138   0.000052   0.001270   0.000174  -0.000002  -0.000020
     5  C    0.000001   0.000000  -0.000051   0.000004   0.000000   0.000000
     6  H    0.000000   0.000000  -0.000002  -0.000001   0.000000   0.000000
     7  H   -0.000027   0.000000   0.000000  -0.000010   0.000000  -0.000018
     8  H   -0.000017   0.000032   0.003189  -0.000234  -0.000003  -0.000009
     9  H   -0.000070   0.000000  -0.000131   0.000012   0.000001  -0.000007
    10  O    0.000000   0.000000  -0.000003   0.000000   0.000000   0.000000
    11  O    0.000000   0.000000  -0.000078   0.000000   0.000000   0.000000
    12  C    0.000000   0.000000   0.000000   0.000000   0.000000   0.000000
    13  C    0.000000   0.000000   0.000000   0.000000   0.000000   0.000000
    14  C   -0.000029   0.000000   0.000001   0.000003  -0.000002  -0.000001
    15  O   -0.021548   0.000755  -0.001035  -0.001853   0.000902  -0.001311
    16  Si   0.336380  -0.009954  -0.028619  -0.027180  -0.014360  -0.028357
    17  C   -0.053748   0.000243  -0.001419   0.002462   0.000633   0.002583
    18  C   -0.051128   0.366030   0.365060   0.369845  -0.000124  -0.000550
    19  C    5.723986  -0.000974   0.003040  -0.000473   0.364064   0.368749
    20  H   -0.000974   0.434876  -0.019853  -0.020674   0.000639  -0.000078
    21  H    0.003040  -0.019853   0.450552  -0.019688  -0.000054  -0.000080
    22  H   -0.000473  -0.020674  -0.019688   0.449814  -0.000103   0.001271
    23  H    0.364064   0.000639  -0.000054  -0.000103   0.453093  -0.020415
    24  H    0.368749  -0.000078  -0.000080   0.001271  -0.020415   0.458829
    25  H    0.369454  -0.000061  -0.000098  -0.000073  -0.020553  -0.018121
    26  H   -0.000971   0.000313  -0.000008  -0.000048   0.000832   0.000006
    27  H   -0.000394  -0.000030  -0.000046  -0.000104  -0.000031  -0.000104
    28  H    0.002784   0.000065   0.001222  -0.000027  -0.000078  -0.000116
    29  H    0.000000   0.000000   0.000000   0.000000   0.000000   0.000001
    30  H    0.000001   0.000000  -0.000003   0.000000   0.000000  -0.000001
    31  H    0.000025   0.000000   0.000004   0.000001  -0.000007  -0.000016
    32  H    0.000000   0.000000   0.000000   0.000000   0.000000   0.000000
    33  H    0.000000   0.000000   0.000000   0.000000   0.000000   0.000000
    34  H    0.000000   0.000000   0.000000   0.000000   0.000000   0.000000
    35  H    0.000000   0.000000   0.000000   0.000000   0.000000   0.000000
    36  H    0.000000   0.000000   0.000000   0.000000   0.000000   0.000000
    37  C   -0.000255   0.000390  -0.000879  -0.000502   0.000006  -0.000001
    38  C   -0.000038  -0.000051   0.000168   0.000852  -0.000004   0.000019
    39  C    0.000000  -0.000001  -0.000010   0.000089   0.000000  -0.000003
    40  H    0.000000  -0.000011  -0.000121  -0.000036   0.000000   0.000000
    41  H   -0.000038   0.000703   0.000710  -0.000621   0.000004  -0.000021
    42  H    0.000143   0.000001   0.000002   0.000208  -0.000008   0.000411
    43  H    0.000000   0.000000   0.000000  -0.000002   0.000000  -0.000001
    44  H    0.000000   0.000000   0.000001   0.000001   0.000000   0.000000
              25         26         27         28         29         30
     1  C   -0.000001   0.000000  -0.000002  -0.000001  -0.007660  -0.007587
     2  C    0.000045   0.000000   0.000087   0.000018  -0.033526  -0.040473
     3  C   -0.000154  -0.000034   0.000580  -0.000141   0.006919  -0.010762
     4  C   -0.000042   0.000153  -0.000201   0.001449  -0.000536   0.006713
     5  C    0.000000  -0.000001  -0.000039   0.000082   0.000002  -0.001499
     6  H    0.000000   0.000000   0.000000   0.000001  -0.000303   0.000614
     7  H   -0.000007  -0.000001   0.000005   0.000004  -0.005726   0.006691
     8  H   -0.000008   0.000008   0.000058   0.000276   0.000011   0.000474
     9  H   -0.000019   0.000353   0.000129   0.000063   0.000175  -0.000111
    10  O    0.000000   0.000000   0.000001   0.000000   0.000013   0.008893
    11  O    0.000000   0.000000   0.000002  -0.000012   0.000001  -0.000224
    12  C    0.000000   0.000000   0.000000   0.000000   0.002991  -0.003125
    13  C    0.000000   0.000000   0.000000   0.000000   0.000297  -0.000212
    14  C    0.000001   0.000002   0.000268   0.000004   0.390930   0.385197
    15  O   -0.001194   0.000892  -0.002213  -0.001166   0.000203   0.000151
    16  Si  -0.026906  -0.011753  -0.025832  -0.029698   0.000242  -0.000911
    17  C   -0.000541   0.364757   0.369896   0.370506  -0.000006   0.000148
    18  C    0.002607   0.000852   0.002299  -0.001554   0.000000   0.000004
    19  C    0.369454  -0.000971  -0.000394   0.002784   0.000000   0.000001
    20  H   -0.000061   0.000313  -0.000030   0.000065   0.000000   0.000000
    21  H   -0.000098  -0.000008  -0.000046   0.001222   0.000000  -0.000003
    22  H   -0.000073  -0.000048  -0.000104  -0.000027   0.000000   0.000000
    23  H   -0.020553   0.000832  -0.000031  -0.000078   0.000000   0.000000
    24  H   -0.018121   0.000006  -0.000104  -0.000116   0.000001  -0.000001
    25  H    0.457186  -0.000085   0.001072  -0.000085   0.000000  -0.000005
    26  H   -0.000085   0.447285  -0.020024  -0.022405   0.000000  -0.000005
    27  H    0.001072  -0.020024   0.450509  -0.019037  -0.000010   0.000098
    28  H   -0.000085  -0.022405  -0.019037   0.456186  -0.000002  -0.000001
    29  H    0.000000   0.000000  -0.000010  -0.000002   0.457634  -0.026483
    30  H   -0.000005  -0.000005   0.000098  -0.000001  -0.026483   0.476162
    31  H    0.000125   0.000006   0.000571  -0.000008  -0.026952  -0.023887
    32  H    0.000000   0.000000   0.000000   0.000000   0.000377   0.000325
    33  H    0.000000   0.000000   0.000000   0.000000  -0.002252   0.001837
    34  H    0.000000   0.000000   0.000000   0.000000   0.000011  -0.000007
    35  H    0.000000   0.000000   0.000000   0.000000  -0.000027   0.000005
    36  H    0.000000   0.000000   0.000000   0.000000  -0.000016   0.000019
    37  C   -0.000016   0.000011  -0.000054  -0.000044  -0.000111  -0.000074
    38  C   -0.000005   0.000000   0.000003   0.000002  -0.000043  -0.000045
    39  C    0.000000   0.000000   0.000000   0.000000   0.000000  -0.000003
    40  H    0.000001   0.000000   0.000004   0.000009  -0.000007  -0.000016
    41  H   -0.000007   0.000004  -0.000004  -0.000047   0.000011   0.000014
    42  H   -0.000011   0.000000   0.000001   0.000001   0.000003  -0.000005
    43  H    0.000000   0.000000   0.000000   0.000000   0.000000   0.000000
    44  H    0.000000   0.000000   0.000000   0.000000   0.000001   0.000000
              31         32         33         34         35         36
     1  C    0.006937  -0.048931  -0.038527   0.008656  -0.004590  -0.011764
     2  C   -0.033904   0.001361  -0.010353  -0.000263  -0.000423   0.000756
     3  C   -0.006339  -0.000152  -0.000565   0.000014  -0.000024  -0.000046
     4  C    0.000007   0.000142   0.000137  -0.000003  -0.000009   0.000285
     5  C   -0.000120  -0.000026  -0.000201   0.000009  -0.000070   0.000522
     6  H   -0.000128   0.000656   0.007263  -0.000195   0.005987   0.000274
     7  H   -0.002344   0.002140   0.000356  -0.000018   0.000042  -0.000051
     8  H   -0.000130  -0.000004   0.000006   0.000000   0.000000  -0.000008
     9  H    0.000400  -0.000014  -0.000064   0.000000   0.000000  -0.000008
    10  O   -0.000158   0.003318   0.002281  -0.000209  -0.000321   0.011067
    11  O    0.000002   0.000007  -0.000037   0.000000  -0.000002   0.000155
    12  C    0.000066   0.394527   0.388212  -0.038678  -0.042870  -0.038011
    13  C    0.000012  -0.038960  -0.043936   0.393444   0.386137   0.385328
    14  C    0.386010  -0.000789   0.003094   0.000007   0.000003  -0.000072
    15  O    0.006869  -0.000012   0.000000   0.000000   0.000000   0.000000
    16  Si   0.001275  -0.000004  -0.000008   0.000000   0.000000   0.000001
    17  C    0.000274   0.000000   0.000000   0.000000   0.000000   0.000000
    18  C    0.000041   0.000000   0.000000   0.000000   0.000000   0.000000
    19  C    0.000025   0.000000   0.000000   0.000000   0.000000   0.000000
    20  H    0.000000   0.000000   0.000000   0.000000   0.000000   0.000000
    21  H    0.000004   0.000000   0.000000   0.000000   0.000000   0.000000
    22  H    0.000001   0.000000   0.000000   0.000000   0.000000   0.000000
    23  H   -0.000007   0.000000   0.000000   0.000000   0.000000   0.000000
    24  H   -0.000016   0.000000   0.000000   0.000000   0.000000   0.000000
    25  H    0.000125   0.000000   0.000000   0.000000   0.000000   0.000000
    26  H    0.000006   0.000000   0.000000   0.000000   0.000000   0.000000
    27  H    0.000571   0.000000   0.000000   0.000000   0.000000   0.000000
    28  H   -0.000008   0.000000   0.000000   0.000000   0.000000   0.000000
    29  H   -0.026952   0.000377  -0.002252   0.000011  -0.000027  -0.000016
    30  H   -0.023887   0.000325   0.001837  -0.000007   0.000005   0.000019
    31  H    0.430265  -0.000169   0.000288  -0.000002   0.000003   0.000000
    32  H   -0.000169   0.471791  -0.023789  -0.005115  -0.004853   0.007045
    33  H    0.000288  -0.023789   0.474501  -0.004745   0.007441  -0.004528
    34  H   -0.000002  -0.005115  -0.004745   0.471483  -0.026899  -0.026148
    35  H    0.000003  -0.004853   0.007441  -0.026899   0.486451  -0.027683
    36  H    0.000000   0.007045  -0.004528  -0.026148  -0.027683   0.466174
    37  C    0.000255   0.000016  -0.000008   0.000000  -0.000025   0.000002
    38  C    0.000012   0.000094  -0.000011   0.000000   0.000008  -0.000002
    39  C   -0.000001   0.000153  -0.000002   0.000000   0.000020   0.000000
    40  H   -0.000020  -0.000007  -0.000019   0.000001  -0.000015   0.000003
    41  H   -0.000034   0.000002   0.000002   0.000000   0.000001   0.000000
    42  H    0.000008  -0.000002  -0.000001   0.000000   0.000000   0.000000
    43  H    0.000000   0.000004   0.000000   0.000000  -0.000003   0.000000
    44  H   -0.000001   0.000009   0.000001  -0.000001   0.000080  -0.000003
              37         38         39         40         41         42
     1  C    0.001605  -0.001893  -0.000884   0.000180  -0.000508   0.000172
     2  C   -0.093111  -0.015966  -0.000218  -0.002619   0.007492  -0.000939
     3  C    0.325604  -0.059194  -0.002942  -0.025067  -0.039816  -0.001802
     4  C   -0.106735   0.008768  -0.000054  -0.005666  -0.004645  -0.000030
     5  C    0.002322  -0.000212  -0.000040   0.004470  -0.000035  -0.000005
     6  H    0.004467   0.000395   0.003609  -0.001397   0.000710  -0.000016
     7  H   -0.010440   0.009540   0.003016  -0.000189   0.000270  -0.000074
     8  H   -0.006401   0.000141   0.000001  -0.000138   0.002623  -0.000015
     9  H    0.005554  -0.000185   0.000000   0.000181  -0.000183   0.000020
    10  O   -0.003214   0.000299  -0.000017   0.000151  -0.000101   0.000003
    11  O    0.000008  -0.000002   0.000000   0.000358   0.000037   0.000000
    12  C   -0.000390  -0.000053   0.000074   0.000526   0.000008   0.000010
    13  C   -0.000046   0.000008  -0.000020  -0.000018  -0.000003   0.000000
    14  C    0.008082  -0.000167  -0.000015  -0.000261  -0.000140  -0.000068
    15  O   -0.059391   0.002515   0.000532   0.003619  -0.003171   0.004616
    16  Si  -0.013569  -0.000489   0.000397   0.001971  -0.004450   0.002193
    17  C   -0.000421   0.000022   0.000000   0.000018  -0.000121   0.000022
    18  C   -0.003293   0.000785   0.000010  -0.000059  -0.002502  -0.000045
    19  C   -0.000255  -0.000038   0.000000   0.000000  -0.000038   0.000143
    20  H    0.000390  -0.000051  -0.000001  -0.000011   0.000703   0.000001
    21  H   -0.000879   0.000168  -0.000010  -0.000121   0.000710   0.000002
    22  H   -0.000502   0.000852   0.000089  -0.000036  -0.000621   0.000208
    23  H    0.000006  -0.000004   0.000000   0.000000   0.000004  -0.000008
    24  H   -0.000001   0.000019  -0.000003   0.000000  -0.000021   0.000411
    25  H   -0.000016  -0.000005   0.000000   0.000001  -0.000007  -0.000011
    26  H    0.000011   0.000000   0.000000   0.000000   0.000004   0.000000
    27  H   -0.000054   0.000003   0.000000   0.000004  -0.000004   0.000001
    28  H   -0.000044   0.000002   0.000000   0.000009  -0.000047   0.000001
    29  H   -0.000111  -0.000043   0.000000  -0.000007   0.000011   0.000003
    30  H   -0.000074  -0.000045  -0.000003  -0.000016   0.000014  -0.000005
    31  H    0.000255   0.000012  -0.000001  -0.000020  -0.000034   0.000008
    32  H    0.000016   0.000094   0.000153  -0.000007   0.000002  -0.000002
    33  H   -0.000008  -0.000011  -0.000002  -0.000019   0.000002  -0.000001
    34  H    0.000000   0.000000   0.000000   0.000001   0.000000   0.000000
    35  H   -0.000025   0.000008   0.000020  -0.000015   0.000001   0.000000
    36  H    0.000002  -0.000002   0.000000   0.000003   0.000000   0.000000
    37  C    5.458667   0.324804  -0.058449   0.383109   0.395957  -0.044684
    38  C    0.324804   5.056632   0.619256  -0.044902  -0.042041   0.397475
    39  C   -0.058449   0.619256   5.149213   0.001776  -0.000889  -0.039888
    40  H    0.383109  -0.044902   0.001776   0.452912  -0.027074   0.004650
    41  H    0.395957  -0.042041  -0.000889  -0.027074   0.444370  -0.001716
    42  H   -0.044684   0.397475  -0.039888   0.004650  -0.001716   0.456173
    43  H    0.006400  -0.039585   0.392639   0.000143  -0.000379  -0.007757
    44  H   -0.008943  -0.039840   0.387424   0.004310   0.000160   0.005678
              43         44
     1  C    0.000047   0.000064
     2  C    0.000003  -0.000139
     3  C   -0.000325   0.000211
     4  C    0.000017  -0.000057
     5  C    0.000000  -0.000022
     6  H    0.000027   0.001091
     7  H    0.000153  -0.000053
     8  H    0.000001   0.000001
     9  H   -0.000001   0.000002
    10  O    0.000000  -0.000018
    11  O    0.000000   0.000000
    12  C   -0.000004   0.000057
    13  C    0.000000   0.000016
    14  C   -0.000002   0.000004
    15  O    0.000015  -0.000010
    16  Si   0.000010  -0.000004
    17  C    0.000000   0.000000
    18  C    0.000000  -0.000001
    19  C    0.000000   0.000000
    20  H    0.000000   0.000000
    21  H    0.000000   0.000001
    22  H   -0.000002   0.000001
    23  H    0.000000   0.000000
    24  H   -0.000001   0.000000
    25  H    0.000000   0.000000
    26  H    0.000000   0.000000
    27  H    0.000000   0.000000
    28  H    0.000000   0.000000
    29  H    0.000000   0.000001
    30  H    0.000000   0.000000
    31  H    0.000000  -0.000001
    32  H    0.000004   0.000009
    33  H    0.000000   0.000001
    34  H    0.000000  -0.000001
    35  H   -0.000003   0.000080
    36  H    0.000000  -0.000003
    37  C    0.006400  -0.008943
    38  C   -0.039585  -0.039840
    39  C    0.392639   0.387424
    40  H    0.000143   0.004310
    41  H   -0.000379   0.000160
    42  H   -0.007757   0.005678
    43  H    0.453866  -0.032790
    44  H   -0.032790   0.458856
 Mulliken charges:
               1
     1  C   -0.057891
     2  C   -0.282065
     3  C    0.172511
     4  C   -0.647713
     5  C    0.474838
     6  H    0.259085
     7  H    0.256046
     8  H    0.267538
     9  H    0.308955
    10  O   -0.314037
    11  O   -0.378926
    12  C   -0.462750
    13  C   -0.662146
    14  C   -0.682831
    15  O   -0.630125
    16  Si   1.429927
    17  C   -1.067199
    18  C   -1.085704
    19  C   -1.041079
    20  H    0.247656
    21  H    0.246676
    22  H    0.246889
    23  H    0.235649
    24  H    0.237460
    25  H    0.237501
    26  H    0.239861
    27  H    0.242541
    28  H    0.241751
    29  H    0.243840
    30  H    0.228094
    31  H    0.260765
    32  H    0.240861
    33  H    0.243625
    34  H    0.228659
    35  H    0.221638
    36  H    0.236707
    37  C   -0.506200
    38  C   -0.177070
    39  C   -0.454772
    40  H    0.249253
    41  H    0.275469
    42  H    0.225275
    43  H    0.227525
    44  H    0.223915
 Sum of Mulliken charges =   0.00000
 Mulliken charges with hydrogens summed into heavy atoms:
               1
     1  C    0.201194
     2  C   -0.026019
     3  C    0.172511
     4  C   -0.071219
     5  C    0.474838
    10  O   -0.314037
    11  O   -0.378926
    12  C    0.021736
    13  C    0.024858
    14  C    0.049868
    15  O   -0.630125
    16  Si   1.429927
    17  C   -0.343047
    18  C   -0.344483
    19  C   -0.330470
    37  C    0.018521
    38  C    0.048205
    39  C   -0.003333
 Electronic spatial extent (au):  <R**2>=           5613.8596
 Charge=              0.0000 electrons
 Dipole moment (field-independent basis, Debye):
    X=              1.7906    Y=              2.9720    Z=              2.5546  Tot=              4.3087
 Quadrupole moment (field-independent basis, Debye-Ang):
   XX=           -116.4700   YY=           -125.2690   ZZ=           -125.7145
   XY=            -10.1891   XZ=             -9.2119   YZ=             -8.2481
 Traceless Quadrupole moment (field-independent basis, Debye-Ang):
   XX=              6.0145   YY=             -2.7845   ZZ=             -3.2300
   XY=            -10.1891   XZ=             -9.2119   YZ=             -8.2481
 Octapole moment (field-independent basis, Debye-Ang**2):
  XXX=             10.1713  YYY=             20.0142  ZZZ=             19.5239  XYY=              7.2449
  XXY=             12.3501  XXZ=             12.9888  XZZ=             -0.1740  YZZ=             11.8296
  YYZ=             23.3350  XYZ=             17.5667
 Hexadecapole moment (field-independent basis, Debye-Ang**3):
 XXXX=          -4747.1759 YYYY=          -1668.0346 ZZZZ=          -1161.6952 XXXY=            -52.3649
 XXXZ=            -74.9583 YYYX=            -10.4028 YYYZ=             -8.4666 ZZZX=            -17.3483
 ZZZY=            -20.6744 XXYY=          -1121.3253 XXZZ=          -1016.2324 YYZZ=           -533.9391
 XXYZ=            -32.6604 YYXZ=            -26.4881 ZZXY=            -44.6001
 N-N= 1.625907818049D+03 E-N=-5.746795436614D+03  KE= 1.060518947252D+03
 1\1\GINC-SWANNODE-0-12\SP\RmPW1PW91\6-311G(d)\C14H26O3Si1\ROOT\08-Mar-
 2018\0\\#mPW1PW91/6-311g(d) nmr=(giao) scrf=(solvent=chloroform)\\P_ng
 _4ginp001\\0,1\C,0,0.109734,1.830658,-0.387337\C,0,-0.170697,1.171629,
 0.970145\C,0,-1.271943,1.989903,1.720743\C,0,-0.752212,3.424606,1.8705
 25\C,0,-0.222985,4.035108,0.601162\H,0,-0.787442,1.781219,-1.013977\H,
 0,-0.536539,0.150337,0.800731\H,0,-1.554819,4.076762,2.23551\H,0,0.054
 524,3.480298,2.609753\O,0,0.44134,3.226993,-0.251806\O,0,-0.286601,5.2
 45054,0.404117\C,0,1.238452,1.151724,-1.180177\C,0,1.331199,1.674487,-
 2.609508\C,0,1.113446,1.006185,1.810751\O,0,-1.456059,1.302732,2.97933
 9\Si,0,-2.11936,1.873197,4.405735\C,0,-0.913125,2.983759,5.328574\C,0,
 -3.732035,2.801473,4.183794\C,0,-2.479961,0.393637,5.530016\H,0,-4.143
 761,3.087054,5.156755\H,0,-3.587141,3.715705,3.601769\H,0,-4.473423,2.
 178151,3.675422\H,0,-2.899748,0.730305,6.482286\H,0,-3.19663,-0.280037
 ,5.051486\H,0,-1.56012,-0.162869,5.731507\H,0,-1.277183,3.183718,6.340
 839\H,0,0.067377,2.504754,5.404698\H,0,-0.791722,3.943389,4.819074\H,0
 ,1.794197,0.289502,1.339311\H,0,1.655871,1.949243,1.927126\H,0,0.89722
 1,0.612211,2.808397\H,0,1.074755,0.068513,-1.210463\H,0,2.206188,1.337
 275,-0.700188\H,0,2.132395,1.158134,-3.14777\H,0,0.395173,1.503528,-3.
 150694\H,0,1.549619,2.746726,-2.628588\C,0,-2.629691,2.001802,0.936594
 \C,0,-3.183752,0.63604,0.621776\C,0,-3.502365,0.215944,-0.609081\H,0,-
 2.538057,2.588784,0.015054\H,0,-3.391803,2.520089,1.526297\H,0,-3.3363
 71,-0.036519,1.464667\H,0,-3.904166,-0.780966,-0.766398\H,0,-3.381372,
 0.848406,-1.483076\\Version=EM64L-G09RevD.01\State=1-A\HF=-1064.377612
 4\RMSD=9.655e-09\Dipole=-0.4132774,-1.5582179,0.5241888\Quadrupole=3.6
 288771,-9.0270143,5.3981372,-4.362762,-0.1035366,8.7165831\PG=C01 [X(C
 14H26O3Si1)]\\@


 THE UNDERLYING PHYSICAL LAWS NECESSARY FOR THE 
 MATHEMATICAL THEORY OF A LARGE PART OF PHYSICS AND THE
 WHOLE OF CHEMISTRY ARE THUS COMPLETELY KNOWN, AND THE
 DIFFICULTY IS ONLY THAT THE EXACT APPLICATION OF THESE
 LAWS LEADS TO EQUATIONS MUCH TOO COMPLICATED 
 TO BE SOLUBLE.

                                        -- P. A. M. DIRAC, 1929
 Job cpu time:       0 days  1 hours  7 minutes 39.7 seconds.
 File lengths (MBytes):  RWF=    237 Int=      0 D2E=      0 Chk=     11 Scr=      1
 Normal termination of Gaussian 09 at Thu Mar  8 13:53:52 2018.
