 Entering Gaussian System, Link 0=/usr/local/shared/gaussian/em64t/09-D01/g09/g09
 Initial command:
 /usr/local/shared/gaussian/em64t/09-D01/g09/l1.exe "/scratch/ah809/P_ng_2ginp013/Gau-30140.inp" -scrdir="/scratch/ah809/P_ng_2ginp013/"
 Entering Link 1 = /usr/local/shared/gaussian/em64t/09-D01/g09/l1.exe PID=     30173.
  
 Copyright (c) 1988,1990,1992,1993,1995,1998,2003,2009,2013,
            Gaussian, Inc.  All Rights Reserved.
  
 This is part of the Gaussian(R) 09 program.  It is based on
 the Gaussian(R) 03 system (copyright 2003, Gaussian, Inc.),
 the Gaussian(R) 98 system (copyright 1998, Gaussian, Inc.),
 the Gaussian(R) 94 system (copyright 1995, Gaussian, Inc.),
 the Gaussian 92(TM) system (copyright 1992, Gaussian, Inc.),
 the Gaussian 90(TM) system (copyright 1990, Gaussian, Inc.),
 the Gaussian 88(TM) system (copyright 1988, Gaussian, Inc.),
 the Gaussian 86(TM) system (copyright 1986, Carnegie Mellon
 University), and the Gaussian 82(TM) system (copyright 1983,
 Carnegie Mellon University). Gaussian is a federally registered
 trademark of Gaussian, Inc.
  
 This software contains proprietary and confidential information,
 including trade secrets, belonging to Gaussian, Inc.
  
 This software is provided under written license and may be
 used, copied, transmitted, or stored only in accord with that
 written license.
  
 The following legend is applicable only to US Government
 contracts under FAR:
  
                    RESTRICTED RIGHTS LEGEND
  
 Use, reproduction and disclosure by the US Government is
 subject to restrictions as set forth in subparagraphs (a)
 and (c) of the Commercial Computer Software - Restricted
 Rights clause in FAR 52.227-19.
  
 Gaussian, Inc.
 340 Quinnipiac St., Bldg. 40, Wallingford CT 06492
  
  
 ---------------------------------------------------------------
 Warning -- This program may not be used in any manner that
 competes with the business of Gaussian, Inc. or will provide
 assistance to any competitor of Gaussian, Inc.  The licensee
 of this program is prohibited from giving any competitor of
 Gaussian, Inc. access to this program.  By using this program,
 the user acknowledges that Gaussian, Inc. is engaged in the
 business of creating and licensing software in the field of
 computational chemistry and represents and warrants to the
 licensee that it is not a competitor of Gaussian, Inc. and that
 it will not use this program in any manner prohibited above.
 ---------------------------------------------------------------
  

 Cite this work as:
 Gaussian 09, Revision D.01,
 M. J. Frisch, G. W. Trucks, H. B. Schlegel, G. E. Scuseria, 
 M. A. Robb, J. R. Cheeseman, G. Scalmani, V. Barone, B. Mennucci, 
 G. A. Petersson, H. Nakatsuji, M. Caricato, X. Li, H. P. Hratchian, 
 A. F. Izmaylov, J. Bloino, G. Zheng, J. L. Sonnenberg, M. Hada, 
 M. Ehara, K. Toyota, R. Fukuda, J. Hasegawa, M. Ishida, T. Nakajima, 
 Y. Honda, O. Kitao, H. Nakai, T. Vreven, J. A. Montgomery, Jr., 
 J. E. Peralta, F. Ogliaro, M. Bearpark, J. J. Heyd, E. Brothers, 
 K. N. Kudin, V. N. Staroverov, T. Keith, R. Kobayashi, J. Normand, 
 K. Raghavachari, A. Rendell, J. C. Burant, S. S. Iyengar, J. Tomasi, 
 M. Cossi, N. Rega, J. M. Millam, M. Klene, J. E. Knox, J. B. Cross, 
 V. Bakken, C. Adamo, J. Jaramillo, R. Gomperts, R. E. Stratmann, 
 O. Yazyev, A. J. Austin, R. Cammi, C. Pomelli, J. W. Ochterski, 
 R. L. Martin, K. Morokuma, V. G. Zakrzewski, G. A. Voth, 
 P. Salvador, J. J. Dannenberg, S. Dapprich, A. D. Daniels, 
 O. Farkas, J. B. Foresman, J. V. Ortiz, J. Cioslowski, 
 and D. J. Fox, Gaussian, Inc., Wallingford CT, 2013.
 
 ******************************************
 Gaussian 09:  EM64L-G09RevD.01 24-Apr-2013
                 8-Mar-2018 
 ******************************************
 %mem=6000MB
 %chk=P_ng_2ginp013.chk
 --------------------------------------------------------
 #mPW1PW91/6-311g(d) nmr=(giao) scrf=(solvent=chloroform)
 --------------------------------------------------------
 1/38=1/1;
 2/12=2,17=6,18=5,40=1/2;
 3/5=4,6=6,7=1,11=2,16=1,25=1,30=1,70=2201,72=7,74=-7/1,2,8,3;
 4//1;
 5/5=2,38=5,53=7/2;
 8/6=1,10=90,11=11/1;
 10/13=100,45=16/2;
 6/7=2,8=2,9=2,10=2,28=1/1;
 99/9=1/99;
 -------------
 P_ng_2ginp013
 -------------
 Symbolic Z-matrix:
 Charge =  0 Multiplicity = 1
 C                     0.01301   0.13106   1.12409 
 C                    -0.94029   1.1278    0.42504 
 C                    -2.19687   1.44952   1.27669 
 C                    -1.7021    1.76567   2.69549 
 C                    -1.03769   0.57547   3.31203 
 H                     0.02003  -0.81335   0.56638 
 H                    -0.39475   2.06858   0.29148 
 H                    -0.97381   2.58345   2.70581 
 H                    -2.53397   2.07145   3.33914 
 O                    -0.3803   -0.24612   2.4669 
 O                    -1.06906   0.35874   4.51817 
 C                     1.46484   0.63381   1.22132 
 C                     2.14741   0.83637  -0.12135 
 C                    -1.26591   0.66901  -1.00549 
 O                    -2.93759   2.51609   0.63987 
 Si                   -2.74464   4.17027   0.7765 
 C                    -3.30765   4.80539   2.45293 
 C                    -0.9815    4.73697   0.4733 
 C                    -3.82879   5.0107   -0.5274 
 H                    -0.92263   5.82934   0.50004 
 H                    -0.30078   4.34562   1.23403 
 H                    -0.63195   4.40345  -0.50824 
 H                    -3.73237   6.09826  -0.4617 
 H                    -3.5295    4.69403  -1.53069 
 H                    -4.87887   4.74396  -0.37711 
 H                    -3.36205   5.89825   2.44804 
 H                    -4.29958   4.41455   2.69794 
 H                    -2.61404   4.5083    3.24388 
 H                    -1.92949   1.37851  -1.50967 
 H                    -0.35403   0.59284  -1.6063 
 H                    -1.74466  -0.31526  -1.01688 
 H                     2.04938  -0.08734   1.80724 
 H                     1.49612   1.56846   1.79524 
 H                     2.10951  -0.07739  -0.72253 
 H                     1.68603   1.64757  -0.69144 
 H                     3.19986   1.09766   0.02934 
 C                    -3.20115   0.24362   1.2768 
 C                    -4.37109   0.41722   2.21269 
 C                    -4.6195   -0.37469   3.26326 
 H                    -2.68862  -0.70002   1.49515 
 H                    -3.63426   0.13141   0.27404 
 H                    -5.05054   1.23959   1.99489 
 H                    -5.48236  -0.19958   3.89896 
 H                    -3.97151  -1.20703   3.52253 
 
                          Input orientation:                          
 ---------------------------------------------------------------------
 Center     Atomic      Atomic             Coordinates (Angstroms)
 Number     Number       Type             X           Y           Z
 ---------------------------------------------------------------------
      1          6           0        0.013009    0.131060    1.124087
      2          6           0       -0.940294    1.127796    0.425041
      3          6           0       -2.196869    1.449515    1.276687
      4          6           0       -1.702095    1.765665    2.695492
      5          6           0       -1.037688    0.575471    3.312030
      6          1           0        0.020029   -0.813354    0.566380
      7          1           0       -0.394750    2.068575    0.291482
      8          1           0       -0.973810    2.583446    2.705808
      9          1           0       -2.533966    2.071455    3.339135
     10          8           0       -0.380304   -0.246123    2.466897
     11          8           0       -1.069055    0.358744    4.518174
     12          6           0        1.464835    0.633806    1.221325
     13          6           0        2.147408    0.836367   -0.121351
     14          6           0       -1.265905    0.669005   -1.005492
     15          8           0       -2.937589    2.516094    0.639867
     16         14           0       -2.744643    4.170269    0.776501
     17          6           0       -3.307646    4.805392    2.452933
     18          6           0       -0.981502    4.736969    0.473300
     19          6           0       -3.828791    5.010697   -0.527402
     20          1           0       -0.922627    5.829341    0.500040
     21          1           0       -0.300782    4.345620    1.234029
     22          1           0       -0.631951    4.403448   -0.508244
     23          1           0       -3.732365    6.098256   -0.461695
     24          1           0       -3.529495    4.694028   -1.530692
     25          1           0       -4.878874    4.743959   -0.377110
     26          1           0       -3.362050    5.898252    2.448040
     27          1           0       -4.299583    4.414546    2.697935
     28          1           0       -2.614037    4.508296    3.243881
     29          1           0       -1.929492    1.378510   -1.509665
     30          1           0       -0.354033    0.592838   -1.606304
     31          1           0       -1.744663   -0.315262   -1.016877
     32          1           0        2.049380   -0.087340    1.807240
     33          1           0        1.496123    1.568464    1.795241
     34          1           0        2.109508   -0.077393   -0.722532
     35          1           0        1.686025    1.647574   -0.691441
     36          1           0        3.199860    1.097656    0.029335
     37          6           0       -3.201146    0.243620    1.276797
     38          6           0       -4.371094    0.417223    2.212694
     39          6           0       -4.619502   -0.374686    3.263258
     40          1           0       -2.688616   -0.700020    1.495145
     41          1           0       -3.634258    0.131405    0.274038
     42          1           0       -5.050539    1.239589    1.994894
     43          1           0       -5.482362   -0.199581    3.898958
     44          1           0       -3.971507   -1.207031    3.522528
 ---------------------------------------------------------------------
                    Distance matrix (angstroms):
                    1          2          3          4          5
     1  C    0.000000
     2  C    1.546265   0.000000
     3  C    2.577823   1.551704   0.000000
     4  C    2.843032   2.478339   1.535500   0.000000
     5  C    2.467501   2.940961   2.500055   1.496034   0.000000
     6  H    1.096815   2.170313   3.246498   3.761671   3.253643
     7  H    2.147897   1.095683   2.145110   2.753211   3.430224
     8  H    3.080560   2.705908   2.196374   1.095112   2.098464
     9  H    3.893411   3.452858   2.180398   1.095351   2.116022
    10  O    1.449172   2.523969   2.755303   2.417991   1.349600
    11  O    3.569668   4.166744   3.601248   2.387956   1.225862
    12  C    1.539483   2.581228   3.751869   3.672018   3.261452
    13  C    2.569870   3.149187   4.604694   4.859719   4.690523
    14  C    2.541675   1.537185   2.585388   3.884612   4.324561
    15  O    3.824773   2.441866   1.446304   2.513003   3.810000
    16  Si   4.903129   3.554693   2.820061   3.248315   4.718599
    17  C    5.885742   4.820935   3.725492   3.446240   4.876781
    18  C    4.756782   3.609731   3.595817   3.779688   5.037818
    19  C    6.426329   4.932290   4.312763   5.043819   6.496362
    20  H    5.808206   4.702176   4.627067   4.684127   5.960174
    21  H    4.227655   3.379028   3.461848   3.279591   4.367510
    22  H    4.618850   3.419940   3.789547   4.285678   5.423331
    23  H    7.221493   5.769526   5.195239   5.732466   7.211341
    24  H    6.357504   4.821500   4.492676   5.456678   6.828145
    25  H    6.889336   5.406708   4.558679   5.329451   6.763191
    26  H    6.812076   5.719675   4.745627   4.460376   5.872064
    27  H    6.278829   5.220498   3.902917   3.709922   5.074994
    28  H    5.527666   4.709040   3.660604   2.941835   4.237527
    29  H    3.502298   2.187340   2.800052   4.229059   4.968795
    30  H    2.793384   2.180882   3.527262   4.658137   4.965652
    31  H    2.805769   2.192841   2.929055   4.256025   4.475785
    32  H    2.158982   3.510724   4.546871   4.277404   3.497671
    33  H    2.171683   2.829799   3.731117   3.328354   3.115587
    34  H    2.801564   3.474291   4.987305   5.441330   5.158368
    35  H    2.897402   2.900733   4.357708   4.792141   4.959415
    36  H    3.505540   4.159131   5.550169   5.619946   5.385683
    37  C    3.219749   2.572685   1.569317   2.564463   2.988787
    38  C    4.526291   3.933320   2.582439   3.029017   3.513570
    39  C    5.127572   4.883595   3.625372   3.662612   3.706018
    40  H    2.850817   2.746391   2.215861   2.914388   2.766498
    41  H    3.745015   2.876289   2.192899   3.502499   4.021040
    42  H    5.256107   4.401256   2.950139   3.461166   4.275380
    43  H    6.165090   5.870299   4.515561   4.427295   4.549760
    44  H    4.839357   4.922814   3.905173   3.830293   3.439319
                    6          7          8          9         10
     6  H    0.000000
     7  H    2.924573   0.000000
     8  H    4.135592   2.535621   0.000000
     9  H    4.746913   3.723499   1.759922   0.000000
    10  O    2.023359   3.176549   2.900998   3.281802   0.000000
    11  O    4.263402   4.609028   2.871070   2.543516   2.246771
    12  C    2.147252   2.526109   3.457134   4.747880   2.393797
    13  C    2.778542   2.855054   4.559289   5.951106   3.776260
    14  C    2.514318   2.097582   4.186186   4.738209   3.698545
    15  O    4.454001   2.605317   2.851154   2.765260   4.184207
    16  Si   5.702987   3.189727   3.062039   3.319111   5.286970
    17  C    6.797265   4.543897   3.232303   2.976297   5.838436
    18  C    5.640728   2.738186   3.101905   4.210477   5.400655
    19  C    7.066070   4.595573   4.949355   5.026512   6.963623
    20  H    6.709575   3.803355   3.924776   4.977809   6.408893
    21  H    5.211879   2.466203   2.392563   3.819739   4.755038
    22  H    5.366090   2.479407   3.709367   4.884483   5.525695
    23  H    7.931441   5.286329   5.476914   5.665474   7.750104
    24  H    6.879541   4.476600   5.379035   5.619981   7.092476
    25  H    7.468142   5.264225   5.424180   5.143087   7.295644
    26  H    7.747565   5.303022   4.093663   4.015489   6.829679
    27  H    7.108693   5.151924   3.796545   3.003101   6.093928
    28  H    6.513622   4.426526   2.585520   2.440016   5.310157
    29  H    3.593725   2.464904   4.487250   4.935223   4.566450
    30  H    2.614929   2.404381   4.789672   5.603194   4.158787
    31  H    2.422589   3.035910   4.780701   5.029340   3.742050
    32  H    2.486985   3.594338   4.132820   5.292840   2.522642
    33  H    3.059740   2.467145   2.821328   4.344908   2.695334
    34  H    2.562978   3.450320   5.323573   6.532728   4.049703
    35  H    3.227046   2.339445   4.414961   5.850944   4.222665
    36  H    3.748560   3.732643   5.175964   6.691773   4.534868
    37  C    3.463792   3.489579   3.532405   2.835374   3.100538
    38  C    4.848364   4.714799   4.059214   2.716688   4.053523
    39  C    5.384313   5.713975   4.727829   3.215404   4.315266
    40  H    2.865695   3.791536   3.897103   3.332460   2.545315
    41  H    3.785743   3.774565   4.359357   3.790680   3.942001
    42  H    5.653838   5.026450   4.350985   2.971889   4.923538
    43  H    6.462128   6.636431   5.431012   3.763515   5.299430
    44  H    4.982585   5.827731   4.901116   3.584498   3.864510
                   11         12         13         14         15
    11  O    0.000000
    12  C    4.167190   0.000000
    13  C    5.665594   1.519775   0.000000
    14  C    5.535874   3.523761   3.529932   0.000000
    15  O    4.815272   4.823115   5.409078   2.985544   0.000000
    16  Si   5.597806   5.515809   5.987754   4.197739   1.670985
    17  C    5.389730   6.457210   7.220645   5.765337   2.943643
    18  C    5.961336   4.835292   5.035711   4.337746   2.964170
    19  C    7.396935   7.087856   7.301018   5.064311   2.894789
    20  H    6.789276   5.763142   5.894152   5.386421   3.880365
    21  H    5.222167   4.110368   4.488379   4.411849   3.263885
    22  H    6.466496   4.647378   4.538567   3.820369   3.193154
    23  H    8.051976   7.726814   7.897787   5.987980   3.831056
    24  H    7.838191   7.000167   7.006784   4.647632   3.131306
    25  H    7.596620   7.725995   8.043838   5.482122   3.125094
    26  H    6.342667   7.246933   7.910662   6.608005   3.858581
    27  H    5.495372   7.050027   7.894012   6.078458   3.113646
    28  H    4.607556   5.978261   6.890516   5.883433   3.294608
    29  H    6.173744   4.419768   4.340789   1.094502   2.632650
    30  H    6.170518   3.362357   2.919178   1.094663   3.926698
    31  H    5.616718   4.026308   4.156493   1.094587   3.490623
    32  H    4.156055   1.097744   2.140632   4.413007   5.745475
    33  H    3.931657   1.097244   2.152548   4.035087   4.678749
    34  H    6.144793   2.167945   1.094446   3.468514   5.835709
    35  H    6.032548   2.176080   1.093588   3.125718   4.889224
    36  H    6.238534   2.155530   1.094821   4.604092   6.328744
    37  C    3.881442   4.682596   5.559964   3.022409   2.374717
    38  C    4.027669   5.923495   6.936448   4.479097   2.988977
    39  C    3.836458   6.496592   7.662460   5.527941   4.250602
    40  H    3.589243   4.370952   5.325474   3.186145   3.337196
    41  H    4.964337   5.210615   5.837891   2.745051   2.511159
    42  H    4.795315   6.589042   7.513423   4.863264   2.816047
    43  H    4.491373   7.491849   8.686165   6.525839   4.946962
    44  H    3.444879   6.183691   7.409079   5.598460   4.820828
                   16         17         18         19         20
    16  Si   0.000000
    17  C    1.879036   0.000000
    18  C    1.876632   3.055254   0.000000
    19  C    1.892580   3.032514   3.030410   0.000000
    20  H    2.479656   3.248165   1.094284   3.189295   0.000000
    21  H    2.492496   3.276942   1.093271   3.998977   1.768293
    22  H    2.483628   4.011168   1.094007   3.254060   1.770395
    23  H    2.495167   3.216666   3.208514   1.093801   2.981925
    24  H    2.492680   3.991352   3.241928   1.093823   3.494076
    25  H    2.492966   3.237541   3.989079   1.093806   4.195156
    26  H    2.482168   1.094224   3.303814   3.139882   3.122537
    27  H    2.483831   1.093950   4.007820   3.313584   4.270389
    28  H    2.493849   1.093141   3.223908   3.993821   3.483488
    29  H    3.699317   5.417104   4.013737   4.214850   4.986240
    30  H    4.918413   6.553384   4.678920   5.723238   5.672825
    31  H    4.933169   6.379937   5.322413   5.740123   6.382235
    32  H    6.494021   7.283782   5.851461   8.123634   6.748979
    33  H    5.078515   5.829791   4.233861   6.752655   5.067837
    34  H    6.622123   7.954290   5.844864   7.822412   6.751150
    35  H    5.305626   6.692955   4.244606   6.461478   5.070687
    36  H    6.733225   7.872024   5.561069   8.063732   6.293275
    37  C    3.984628   4.712155   5.075688   5.135572   6.082374
    38  C    4.335129   4.521578   5.759777   5.376079   6.641997
    39  C    5.509598   5.404702   6.866435   6.632999   7.732542
    40  H    4.923343   5.622288   5.789582   6.164656   6.836776
    41  H    4.166090   5.167244   5.318650   4.948499   6.314309
    42  H    3.923076   3.995301   5.577094   4.698500   6.351383
    43  H    6.028303   5.645364   7.507490   7.033773   8.288047
    44  H    6.161267   6.142799   7.319089   7.421755   8.242672
                   21         22         23         24         25
    21  H    0.000000
    22  H    1.774410   0.000000
    23  H    4.209866   3.533710   0.000000
    24  H    4.264934   3.086357   1.776448   0.000000
    25  H    4.869637   4.262570   1.776445   1.775970   0.000000
    26  H    3.640858   4.292726   2.940016   4.160349   3.408023
    27  H    4.258894   4.871471   3.624897   4.307253   3.146425
    28  H    3.068732   4.244773   4.184486   4.865091   4.277452
    29  H    4.357097   3.440452   5.159903   3.681455   4.616035
    30  H    4.706772   3.975390   6.559945   5.187392   6.262341
    31  H    5.373564   4.874737   6.737388   5.342529   5.985674
    32  H    5.050046   5.719981   8.765742   8.070137   8.724307
    33  H    3.355059   4.227514   7.276666   6.788801   7.446037
    34  H    5.403765   5.257324   8.504949   7.430877   8.497190
    35  H    3.864491   3.605748   7.015718   6.098104   7.265281
    36  H    4.924942   5.089207   8.561709   7.787926   8.872805
    37  C    5.023977   5.204931   6.130360   5.272185   5.079688
    38  C    5.740865   6.105300   6.311455   5.745632   5.068093
    39  C    6.711960   7.277043   7.520722   7.061298   6.286500
    40  H    5.588239   5.855666   7.150887   6.241676   6.159503
    41  H    5.458320   5.279788   6.012840   4.907704   4.821692
    42  H    5.725953   5.983279   5.601701   5.164928   4.235148
    43  H    7.389822   8.008607   7.857515   7.565857   6.564110
    44  H    7.038706   7.673150   8.324568   7.781575   7.172501
                   26         27         28         29         30
    26  H    0.000000
    27  H    1.772794   0.000000
    28  H    1.767728   1.774235   0.000000
    29  H    6.176060   5.704274   5.732396   0.000000
    30  H    7.323475   6.978488   6.630439   1.763148   0.000000
    31  H    7.295844   6.534411   6.494350   1.773659   1.762363
    32  H    8.094536   7.833878   6.703079   5.383493   4.229813
    33  H    6.540264   6.519605   5.256861   4.763751   3.993173
    34  H    8.700506   8.541285   7.685887   4.364946   2.701721
    35  H    7.308055   7.414277   6.493152   3.716699   2.472100
    36  H    8.482601   8.623505   7.467742   5.362616   3.944656
    37  C    5.776899   4.541236   4.733031   3.266412   4.066974
    38  C    5.578103   4.027302   4.570282   4.554278   5.545482
    39  C    6.449459   4.833082   5.278805   5.752447   6.545454
    40  H    6.700650   5.495517   5.494561   3.731680   4.091546
    41  H    6.169028   4.966209   5.386835   2.764615   3.809000
    42  H    4.975890   3.337447   4.263913   4.694909   5.953493
    43  H    6.616982   4.912392   5.551623   6.660815   7.565421
    44  H    7.211866   5.691196   5.880929   6.014800   6.529209
                   31         32         33         34         35
    31  H    0.000000
    32  H    4.735224   0.000000
    33  H    4.686056   1.745831   0.000000
    34  H    3.872706   2.530506   3.069897   0.000000
    35  H    3.965886   3.063554   2.495177   1.776462   0.000000
    36  H    5.247781   2.426678   2.498560   1.770568   1.764546
    37  C    2.773920   5.287620   4.907987   5.683609   5.452475
    38  C    4.226678   6.453020   5.993651   7.131507   6.829089
    39  C    5.156335   6.832023   6.582688   7.826524   7.712902
    40  H    2.710967   4.787628   4.769499   5.322382   5.424928
    41  H    2.331639   5.890866   5.540759   5.833318   5.615722
    42  H    4.734674   7.225289   6.557957   7.770786   7.263893
    43  H    6.176505   7.817610   7.500057   8.888734   8.710311
    44  H    5.134227   6.359796   6.370390   7.501690   7.610123
                   36         37         38         39         40
    36  H    0.000000
    37  C    6.577113   0.000000
    38  C    7.908817   1.508250   0.000000
    39  C    8.588857   2.517948   1.338847   0.000000
    40  H    6.328854   1.095819   2.143325   2.638254   0.000000
    41  H    6.906424   1.098045   2.093563   3.187832   1.754026
    42  H    8.482491   2.219881   1.088746   2.097719   3.096855
    43  H    9.593633   3.503727   2.111599   1.085957   3.719378
    44  H    8.303161   2.782293   2.124508   1.086240   2.452173
                   41         42         43         44
    41  H    0.000000
    42  H    2.489030   0.000000
    43  H    4.082289   2.425519   0.000000
    44  H    3.529566   3.079598   1.854545   0.000000
 Stoichiometry    C14H26O3Si
 Framework group  C1[X(C14H26O3Si)]
 Deg. of freedom   126
 Full point group                 C1      NOp   1
 Largest Abelian subgroup         C1      NOp   1
 Largest concise Abelian subgroup C1      NOp   1
                         Standard orientation:                         
 ---------------------------------------------------------------------
 Center     Atomic      Atomic             Coordinates (Angstroms)
 Number     Number       Type             X           Y           Z
 ---------------------------------------------------------------------
      1          6           0        2.339690   -0.648397    0.294137
      2          6           0        0.871675   -0.848883    0.736484
      3          6           0       -0.017094    0.386581    0.433989
      4          6           0        0.271887    0.796242   -1.017364
      5          6           0        1.696965    1.219931   -1.183974
      6          1           0        2.981821   -0.606503    1.182347
      7          1           0        0.463775   -1.685732    0.158710
      8          1           0        0.094589   -0.024184   -1.720740
      9          1           0       -0.375173    1.624954   -1.324518
     10          8           0        2.600909    0.597345   -0.398678
     11          8           0        2.036730    2.072202   -1.996951
     12          6           0        2.866106   -1.771623   -0.617597
     13          6           0        2.918156   -3.139628    0.042380
     14          6           0        0.795195   -1.320590    2.197504
     15          8           0       -1.397473    0.052697    0.707617
     16         14           0       -2.529289   -0.675338   -0.282913
     17          6           0       -3.098780    0.472004   -1.657709
     18          6           0       -1.923448   -2.280422   -1.043444
     19          6           0       -4.054412   -1.095403    0.756031
     20          1           0       -2.723380   -2.754182   -1.620607
     21          1           0       -1.080013   -2.108568   -1.717480
     22          1           0       -1.607203   -2.981385   -0.265312
     23          1           0       -4.821204   -1.568447    0.135822
     24          1           0       -3.785680   -1.782921    1.563218
     25          1           0       -4.474529   -0.187278    1.197871
     26          1           0       -3.974183    0.054711   -2.164527
     27          1           0       -3.372330    1.450500   -1.252197
     28          1           0       -2.315084    0.614898   -2.406281
     29          1           0       -0.241552   -1.477424    2.511342
     30          1           0        1.321858   -2.271449    2.327045
     31          1           0        1.254740   -0.599822    2.881194
     32          1           0        3.875971   -1.506598   -0.956677
     33          1           0        2.257757   -1.825266   -1.529177
     34          1           0        3.501987   -3.106930    0.967521
     35          1           0        1.917672   -3.514838    0.275152
     36          1           0        3.391939   -3.861993   -0.630190
     37          6           0        0.289861    1.558997    1.430972
     38          6           0       -0.417922    2.849166    1.100327
     39          6           0        0.205430    3.988888    0.776325
     40          1           0        1.367779    1.738146    1.513544
     41          1           0       -0.051560    1.279639    2.436504
     42          1           0       -1.505646    2.832550    1.144463
     43          1           0       -0.361495    4.887452    0.551640
     44          1           0        1.288000    4.056259    0.717843
 ---------------------------------------------------------------------
 Rotational constants (GHZ):      0.4284299      0.3210347      0.2437349
 Standard basis: 6-311G(d) (5D, 7F)
 There are   428 symmetry adapted cartesian basis functions of A   symmetry.
 There are   410 symmetry adapted basis functions of A   symmetry.
   410 basis functions,   720 primitive gaussians,   428 cartesian basis functions
    74 alpha electrons       74 beta electrons
       nuclear repulsion energy      1642.9705776073 Hartrees.
 NAtoms=   44 NActive=   44 NUniq=   44 SFac= 1.00D+00 NAtFMM=   60 NAOKFM=F Big=F
 Integral buffers will be    131072 words long.
 Raffenetti 2 integral format.
 Two-electron integral symmetry is turned on.
 ------------------------------------------------------------------------------
 Polarizable Continuum Model (PCM)
 =================================
 Model                : PCM (using non-symmetric T matrix).
 Atomic radii         : UFF (Universal Force Field).
 Polarization charges : Total charges.
 Charge compensation  : None.
 Solution method      : On-the-fly selection.
 Cavity type          : Scaled VdW (van der Waals Surface) (Alpha=1.100).
 Cavity algorithm     : GePol (No added spheres)
                        Default sphere list used, NSphG=   44.
                        Lebedev-Laikov grids with approx.  5.0 points / Ang**2.
                        Smoothing algorithm: Karplus/York (Gamma=1.0000).
                        Polarization charges: spherical gaussians, with
                                              point-specific exponents (IZeta= 3).
                        Self-potential: point-specific (ISelfS= 7).
                        Self-field    : sphere-specific E.n sum rule (ISelfD= 2).
 Solvent              : Chloroform, Eps=   4.711300 Eps(inf)=   2.090627
 ------------------------------------------------------------------------------
 One-electron integrals computed using PRISM.
 NBasis=   410 RedAO= T EigKep=  8.79D-04  NBF=   410
 NBsUse=   410 1.00D-06 EigRej= -1.00D+00 NBFU=   410
 ExpMin= 6.54D-02 ExpMax= 6.94D+04 ExpMxC= 2.33D+03 IAcc=2 IRadAn=         4 AccDes= 0.00D+00
 Harris functional with IExCor=  908 and IRadAn=       4 diagonalized for initial guess.
 HarFok:  IExCor=  908 AccDes= 0.00D+00 IRadAn=         4 IDoV= 1 UseB2=F ITyADJ=14
 ICtDFT=  3500011 ScaDFX=  1.000000  1.000000  1.000000  1.000000
 FoFCou: FMM=F IPFlag=           0 FMFlag=      100000 FMFlg1=           0
         NFxFlg=           0 DoJE=T BraDBF=F KetDBF=T FulRan=T
         wScrn=  0.000000 ICntrl=     500 IOpCl=  0 I1Cent=   200000004 NGrid=           0
         NMat0=    1 NMatS0=      1 NMatT0=    0 NMatD0=    1 NMtDS0=    0 NMtDT0=    0
 Petite list used in FoFCou.
 Requested convergence on RMS density matrix=1.00D-08 within 128 cycles.
 Requested convergence on MAX density matrix=1.00D-06.
 Requested convergence on             energy=1.00D-06.
 No special actions if energy rises.
 Inv3:  Mode=1 IEnd=    24727923.
 Iteration    1 A*A^-1 deviation from unit magnitude is 9.55D-15 for   1890.
 Iteration    1 A*A^-1 deviation from orthogonality  is 1.09D-14 for   2057    320.
 Iteration    1 A^-1*A deviation from unit magnitude is 8.44D-15 for   1890.
 Iteration    1 A^-1*A deviation from orthogonality  is 4.76D-12 for   2448   2436.
 Error on total polarization charges =  0.01110
 SCF Done:  E(RmPW1PW91) =  -1064.37448022     A.U. after   13 cycles
            NFock= 13  Conv=0.35D-08     -V/T= 2.0036
 DoSCS=F DFT=T ScalE2(SS,OS)=  1.000000  1.000000
 Range of M.O.s used for correlation:     1   410
 NBasis=   410 NAE=    74 NBE=    74 NFC=     0 NFV=     0
 NROrb=    410 NOA=    74 NOB=    74 NVA=   336 NVB=   336
 NEqPCM:  Using equilibrium solvation (IEInf=0, Eps=   4.7113, EpsInf=   2.0906)
          Differentiating once with respect to magnetic field using GIAOs.
          Electric field/nuclear overlap derivatives assumed to be zero.
 FoFJK:  IHMeth= 1 ICntrl=    6127 DoSepK=F KAlg= 0 I1Cent=   0 FoldK=F
 IRaf=         1 NMat=   1 IRICut=       1 DoRegI=T DoRafI=F ISym2E= 0.
          There are     3 degrees of freedom in the 1st order CPHF.  IDoFFX=0 NUNeed=     3.
      3 vectors produced by pass  0 Test12= 8.29D-13 3.33D-08 XBig12= 3.56D+01 1.13D+00.
 AX will form     3 AO Fock derivatives at one time.
      3 vectors produced by pass  1 Test12= 8.29D-13 3.33D-08 XBig12= 7.22D-02 9.83D-02.
      3 vectors produced by pass  2 Test12= 8.29D-13 3.33D-08 XBig12= 6.38D-04 8.89D-03.
      3 vectors produced by pass  3 Test12= 8.29D-13 3.33D-08 XBig12= 2.43D-06 3.94D-04.
      3 vectors produced by pass  4 Test12= 8.29D-13 3.33D-08 XBig12= 8.18D-09 2.24D-05.
      3 vectors produced by pass  5 Test12= 8.29D-13 3.33D-08 XBig12= 3.29D-11 1.25D-06.
      2 vectors produced by pass  6 Test12= 8.29D-13 3.33D-08 XBig12= 1.23D-13 8.43D-08.
 InvSVY:  IOpt=1 It=  1 EMax= 8.88D-16
 Solved reduced A of dimension    20 with     3 vectors.
 Calculating GIAO nuclear magnetic shielding tensors.
 SCF GIAO Magnetic shielding tensor (ppm):
      1  C    Isotropic =   101.7455   Anisotropy =    52.8584
   XX=    85.2966   YX=    -1.1974   ZX=    -6.3705
   XY=    -0.7512   YY=   120.0515   ZY=   -26.3757
   XZ=    -7.9699   YZ=   -23.3168   ZZ=    99.8886
   Eigenvalues:    77.5745    90.6777   136.9845
      2  C    Isotropic =   142.5172   Anisotropy =    23.3535
   XX=   152.8882   YX=   -10.0990   ZX=    -0.0586
   XY=    -7.9721   YY=   142.0373   ZY=    11.6427
   XZ=     3.4909   YZ=     0.1660   ZZ=   132.6262
   Eigenvalues:   128.3718   141.0937   158.0862
      3  C    Isotropic =   104.7623   Anisotropy =    58.5857
   XX=   139.4630   YX=    16.1490   ZX=    -0.2556
   XY=    13.3531   YY=    93.8572   ZY=    -1.1204
   XZ=     0.8059   YZ=    -2.6536   ZZ=    80.9666
   Eigenvalues:    80.5667    89.9008   143.8194
      4  C    Isotropic =   144.8744   Anisotropy =    26.8074
   XX=   155.5665   YX=     6.9391   ZX=    -9.0643
   XY=     5.7245   YY=   136.4582   ZY=    -9.5488
   XZ=    -7.5575   YZ=    -5.3179   ZZ=   142.5986
   Eigenvalues:   131.4622   140.4151   162.7460
      5  C    Isotropic =     9.5568   Anisotropy =    92.6716
   XX=   -58.9157   YX=    21.8209   ZX=   -40.8615
   XY=    28.0350   YY=    47.5327   ZY=    26.9672
   XZ=   -53.8672   YZ=    23.8820   ZZ=    40.0533
   Eigenvalues:   -85.9779    43.3104    71.3378
      6  H    Isotropic =    28.0153   Anisotropy =     3.2155
   XX=    29.3976   YX=     0.5382   ZX=     1.1864
   XY=     0.1764   YY=    26.8703   ZY=    -1.2872
   XZ=     1.4977   YZ=    -0.4138   ZZ=    27.7781
   Eigenvalues:    26.0245    27.8624    30.1590
      7  H    Isotropic =    30.1200   Anisotropy =     5.0603
   XX=    32.0672   YX=    -0.1272   ZX=     2.1556
   XY=     0.1086   YY=    30.1052   ZY=     2.8429
   XZ=     2.1394   YZ=     2.4852   ZZ=    28.1876
   Eigenvalues:    25.7995    31.0669    33.4935
      8  H    Isotropic =    29.8197   Anisotropy =     3.8128
   XX=    30.3012   YX=     1.6131   ZX=     0.9042
   XY=     1.6033   YY=    28.6085   ZY=     0.7455
   XZ=     1.1401   YZ=     1.2700   ZZ=    30.5495
   Eigenvalues:    27.5915    29.5061    32.3616
      9  H    Isotropic =    29.1670   Anisotropy =     3.4267
   XX=    29.5421   YX=    -0.9269   ZX=     1.3579
   XY=     0.1776   YY=    29.6812   ZY=    -2.1197
   XZ=     0.2256   YZ=    -1.9643   ZZ=    28.2777
   Eigenvalues:    26.7517    29.2978    31.4515
     10  O    Isotropic =    95.4927   Anisotropy =   202.9715
   XX=   140.8934   YX=   -88.6645   ZX=    39.3832
   XY=   -93.9928   YY=    48.5491   ZY=   129.5603
   XZ=    62.4434   YZ=   167.6878   ZZ=    97.0356
   Eigenvalues:  -118.5317   174.2028   230.8070
     11  O    Isotropic =  -125.2855   Anisotropy =   578.8917
   XX=  -232.9856   YX=     5.0370   ZX=   -77.8961
   XY=     0.8520   YY=   -72.7641   ZY=   319.3984
   XZ=   -81.0004   YZ=   332.7177   ZZ=   -70.1067
   Eigenvalues:  -416.3849  -220.1139   260.6423
     12  C    Isotropic =   151.9883   Anisotropy =    29.9714
   XX=   144.4015   YX=    -5.4436   ZX=   -11.7666
   XY=   -11.3009   YY=   160.0099   ZY=     6.6589
   XZ=   -10.4736   YZ=    11.0825   ZZ=   151.5535
   Eigenvalues:   136.1618   147.8338   171.9692
     13  C    Isotropic =   176.9973   Anisotropy =    14.1573
   XX=   171.1093   YX=    -3.1493   ZX=     0.3597
   XY=    -3.2580   YY=   183.4639   ZY=    -4.2681
   XZ=     0.9925   YZ=    -5.0387   ZZ=   176.4186
   Eigenvalues:   170.2845   174.2718   186.4355
     14  C    Isotropic =   171.3966   Anisotropy =    24.4201
   XX=   168.0462   YX=     0.0942   ZX=    -3.4601
   XY=     6.2557   YY=   161.0501   ZY=    -5.6959
   XZ=    -6.2666   YZ=    -4.7297   ZZ=   185.0935
   Eigenvalues:   159.3752   167.1379   187.6767
     15  O    Isotropic =   247.7540   Anisotropy =    18.2397
   XX=   238.1129   YX=     7.8160   ZX=   -14.8148
   XY=    16.5870   YY=   251.6836   ZY=     1.6958
   XZ=     4.3293   YZ=     9.5650   ZZ=   253.4656
   Eigenvalues:   228.7251   254.6231   259.9139
     16  Si   Isotropic =   335.4028   Anisotropy =    52.3564
   XX=   342.8642   YX=    21.3343   ZX=    25.5618
   XY=    17.4827   YY=   324.3487   ZY=    14.5855
   XZ=    10.7322   YZ=     9.6440   ZZ=   338.9955
   Eigenvalues:   312.0831   323.8182   370.3070
     17  C    Isotropic =   184.7893   Anisotropy =    11.2128
   XX=   183.4463   YX=     1.3430   ZX=     6.7436
   XY=     3.6193   YY=   186.1406   ZY=    -5.1020
   XZ=     5.4265   YZ=    -6.7653   ZZ=   184.7809
   Eigenvalues:   174.8631   187.2402   192.2645
     18  C    Isotropic =   185.3062   Anisotropy =     6.9761
   XX=   188.3625   YX=    -0.4423   ZX=     2.4323
   XY=    -4.3194   YY=   186.3142   ZY=     3.9738
   XZ=     2.8585   YZ=     5.1578   ZZ=   181.2420
   Eigenvalues:   177.4375   188.5242   189.9569
     19  C    Isotropic =   186.2609   Anisotropy =    13.5208
   XX=   189.6497   YX=     4.4897   ZX=    -5.3836
   XY=     5.4689   YY=   177.2723   ZY=     1.2105
   XZ=    -2.9079   YZ=     1.7132   ZZ=   191.8608
   Eigenvalues:   175.0459   188.4621   195.2748
     20  H    Isotropic =    32.2013   Anisotropy =    10.5633
   XX=    33.2455   YX=     3.5567   ZX=     3.6003
   XY=     2.9791   YY=    32.2111   ZY=     3.4773
   XZ=     3.5277   YZ=     3.8461   ZZ=    31.1472
   Eigenvalues:    27.8463    29.5140    39.2435
     21  H    Isotropic =    32.1074   Anisotropy =     6.2592
   XX=    34.6974   YX=     1.4301   ZX=    -2.6810
   XY=     0.2810   YY=    29.9981   ZY=     1.7004
   XZ=    -2.7469   YZ=     1.2211   ZZ=    31.6268
   Eigenvalues:    28.3280    31.7140    36.2802
     22  H    Isotropic =    31.9769   Anisotropy =     6.9653
   XX=    30.9013   YX=    -1.0268   ZX=     2.3428
   XY=    -1.1377   YY=    34.3891   ZY=    -3.2284
   XZ=     1.9404   YZ=    -2.4398   ZZ=    30.6403
   Eigenvalues:    28.2412    31.0692    36.6205
     23  H    Isotropic =    32.3648   Anisotropy =     9.6541
   XX=    36.1625   YX=     3.5476   ZX=     2.0265
   XY=     3.7161   YY=    30.2388   ZY=     1.3486
   XZ=     2.6059   YZ=     1.5786   ZZ=    30.6932
   Eigenvalues:    28.4407    29.8529    38.8009
     24  H    Isotropic =    32.0096   Anisotropy =     8.4443
   XX=    30.8102   YX=     0.3100   ZX=    -0.9869
   XY=     0.0843   YY=    31.1653   ZY=    -4.5120
   XZ=    -0.1525   YZ=    -5.0230   ZZ=    34.0533
   Eigenvalues:    27.6175    30.7722    37.6392
     25  H    Isotropic =    31.9396   Anisotropy =     8.9765
   XX=    32.6271   YX=    -2.9737   ZX=    -3.3381
   XY=    -2.4980   YY=    32.7316   ZY=     2.3210
   XZ=    -3.3093   YZ=     3.2625   ZZ=    30.4600
   Eigenvalues:    27.8935    30.0013    37.9239
     26  H    Isotropic =    32.3006   Anisotropy =    10.3214
   XX=    35.4678   YX=     1.5721   ZX=     4.8220
   XY=     2.0668   YY=    29.3569   ZY=     0.4592
   XZ=     4.8668   YZ=     0.0906   ZZ=    32.0772
   Eigenvalues:    28.0133    29.7070    39.1815
     27  H    Isotropic =    31.9111   Anisotropy =     8.0813
   XX=    30.7496   YX=    -2.8772   ZX=     0.5556
   XY=    -2.6395   YY=    36.0793   ZY=     1.4655
   XZ=     0.7497   YZ=     0.4690   ZZ=    28.9044
   Eigenvalues:    28.1769    30.2578    37.2986
     28  H    Isotropic =    32.0578   Anisotropy =     6.1996
   XX=    33.8059   YX=     0.4325   ZX=    -1.2210
   XY=     1.4629   YY=    28.6745   ZY=    -2.4012
   XZ=    -2.1641   YZ=    -2.3393   ZZ=    33.6929
   Eigenvalues:    27.7203    32.2622    36.1909
     29  H    Isotropic =    30.5365   Anisotropy =     7.7785
   XX=    33.4198   YX=     0.8984   ZX=    -1.7591
   XY=     1.3726   YY=    27.1503   ZY=    -3.6791
   XZ=    -2.6888   YZ=    -3.1396   ZZ=    31.0393
   Eigenvalues:    25.1675    30.7198    35.7222
     30  H    Isotropic =    31.1714   Anisotropy =     8.3587
   XX=    28.7761   YX=    -4.1114   ZX=    -0.1365
   XY=    -3.7841   YY=    33.3472   ZY=    -2.8033
   XZ=    -0.0191   YZ=    -2.8274   ZZ=    31.3909
   Eigenvalues:    26.0426    30.7278    36.7438
     31  H    Isotropic =    31.1156   Anisotropy =     8.3158
   XX=    28.1719   YX=     0.3258   ZX=     3.1282
   XY=     0.3690   YY=    30.3227   ZY=     1.3750
   XZ=     3.3269   YZ=     2.1904   ZZ=    34.8522
   Eigenvalues:    26.8294    29.8580    36.6594
     32  H    Isotropic =    30.0196   Anisotropy =     8.6809
   XX=    33.8097   YX=     0.0343   ZX=    -3.8524
   XY=    -0.6047   YY=    29.6230   ZY=    -0.7372
   XZ=    -4.7076   YZ=    -0.9408   ZZ=    26.6260
   Eigenvalues:    24.4795    29.7724    35.8068
     33  H    Isotropic =    30.6563   Anisotropy =     4.0254
   XX=    28.9537   YX=    -2.3491   ZX=     0.4845
   XY=    -2.1361   YY=    29.9355   ZY=     0.4351
   XZ=     1.6125   YZ=     0.9305   ZZ=    33.0797
   Eigenvalues:    26.8981    31.7309    33.3399
     34  H    Isotropic =    31.2572   Anisotropy =     8.9904
   XX=    30.9908   YX=    -2.5294   ZX=     3.5596
   XY=    -3.1550   YY=    30.1589   ZY=    -2.3289
   XZ=     4.0642   YZ=    -1.5277   ZZ=    32.6219
   Eigenvalues:    27.2835    29.2374    37.2508
     35  H    Isotropic =    31.2314   Anisotropy =     5.5271
   XX=    33.4286   YX=     0.6709   ZX=    -1.3185
   XY=     1.3928   YY=    33.3860   ZY=    -1.0801
   XZ=    -2.1550   YZ=    -0.9345   ZZ=    26.8796
   Eigenvalues:    26.3696    32.4085    34.9161
     36  H    Isotropic =    30.9071   Anisotropy =    11.4119
   XX=    28.8501   YX=    -3.9646   ZX=    -2.4164
   XY=    -4.4152   YY=    34.7829   ZY=     3.2161
   XZ=    -2.3765   YZ=     2.9332   ZZ=    29.0883
   Eigenvalues:    26.3148    27.8914    38.5150
     37  C    Isotropic =   142.1582   Anisotropy =    23.1281
   XX=   137.3708   YX=    -3.3290   ZX=     2.9464
   XY=     5.3058   YY=   153.9384   ZY=     9.9355
   XZ=     7.0063   YZ=     7.0202   ZZ=   135.1655
   Eigenvalues:   129.4882   139.4096   157.5770
     38  C    Isotropic =    44.4654   Anisotropy =   179.2373
   XX=   -61.7643   YX=    44.3838   ZX=    -1.8690
   XY=    47.7175   YY=    40.3244   ZY=    32.5274
   XZ=    -4.5598   YZ=    33.1800   ZZ=   154.8362
   Eigenvalues:   -80.4224    49.8617   163.9570
     39  C    Isotropic =    63.0407   Anisotropy =   142.9126
   XX=   -24.7509   YX=    57.1948   ZX=    -9.7201
   XY=    53.9135   YY=    62.4233   ZY=    24.0585
   XZ=    -9.2307   YZ=    26.5876   ZZ=   151.4496
   Eigenvalues:   -53.6710    84.4773   158.3157
     40  H    Isotropic =    29.9252   Anisotropy =     6.3112
   XX=    30.7268   YX=     1.9256   ZX=     1.3873
   XY=     0.6769   YY=    31.7447   ZY=     3.2888
   XZ=     1.8886   YZ=     2.2191   ZZ=    27.3042
   Eigenvalues:    25.7980    29.8450    34.1327
     41  H    Isotropic =    29.3497   Anisotropy =     4.1807
   XX=    25.5385   YX=    -1.1029   ZX=    -0.1771
   XY=    -1.2502   YY=    30.5167   ZY=     1.2778
   XZ=    -0.6415   YZ=    -0.6097   ZZ=    31.9939
   Eigenvalues:    25.2586    30.6538    32.1368
     42  H    Isotropic =    25.6871   Anisotropy =     6.8176
   XX=    23.2014   YX=    -0.7847   ZX=    -0.4624
   XY=     0.5234   YY=    30.0306   ZY=     0.8176
   XZ=    -0.9791   YZ=     1.4007   ZZ=    23.8293
   Eigenvalues:    22.6922    24.1370    30.2322
     43  H    Isotropic =    26.7173   Anisotropy =     6.8991
   XX=    23.6311   YX=     2.7435   ZX=    -0.6479
   XY=     0.1218   YY=    31.0315   ZY=    -0.3087
   XZ=    -0.1827   YZ=    -0.1843   ZZ=    25.4892
   Eigenvalues:    23.3029    25.5323    31.3167
     44  H    Isotropic =    26.8160   Anisotropy =     7.5005
   XX=    23.8914   YX=     1.6799   ZX=    -0.1355
   XY=     3.9866   YY=    30.7642   ZY=     0.7212
   XZ=    -1.1476   YZ=     0.7058   ZZ=    25.7924
   Eigenvalues:    22.6455    25.9862    31.8164
 End of Minotr F.D. properties file   721 does not exist.
 End of Minotr F.D. properties file   722 does not exist.
 End of Minotr F.D. properties file   788 does not exist.

 **********************************************************************

            Population analysis using the SCF density.

 **********************************************************************

 Orbital symmetries:
       Occupied  (A) (A) (A) (A) (A) (A) (A) (A) (A) (A) (A) (A)
                 (A) (A) (A) (A) (A) (A) (A) (A) (A) (A) (A) (A)
                 (A) (A) (A) (A) (A) (A) (A) (A) (A) (A) (A) (A)
                 (A) (A) (A) (A) (A) (A) (A) (A) (A) (A) (A) (A)
                 (A) (A) (A) (A) (A) (A) (A) (A) (A) (A) (A) (A)
                 (A) (A) (A) (A) (A) (A) (A) (A) (A) (A) (A) (A)
                 (A) (A)
       Virtual   (A) (A) (A) (A) (A) (A) (A) (A) (A) (A) (A) (A)
                 (A) (A) (A) (A) (A) (A) (A) (A) (A) (A) (A) (A)
                 (A) (A) (A) (A) (A) (A) (A) (A) (A) (A) (A) (A)
                 (A) (A) (A) (A) (A) (A) (A) (A) (A) (A) (A) (A)
                 (A) (A) (A) (A) (A) (A) (A) (A) (A) (A) (A) (A)
                 (A) (A) (A) (A) (A) (A) (A) (A) (A) (A) (A) (A)
                 (A) (A) (A) (A) (A) (A) (A) (A) (A) (A) (A) (A)
                 (A) (A) (A) (A) (A) (A) (A) (A) (A) (A) (A) (A)
                 (A) (A) (A) (A) (A) (A) (A) (A) (A) (A) (A) (A)
                 (A) (A) (A) (A) (A) (A) (A) (A) (A) (A) (A) (A)
                 (A) (A) (A) (A) (A) (A) (A) (A) (A) (A) (A) (A)
                 (A) (A) (A) (A) (A) (A) (A) (A) (A) (A) (A) (A)
                 (A) (A) (A) (A) (A) (A) (A) (A) (A) (A) (A) (A)
                 (A) (A) (A) (A) (A) (A) (A) (A) (A) (A) (A) (A)
                 (A) (A) (A) (A) (A) (A) (A) (A) (A) (A) (A) (A)
                 (A) (A) (A) (A) (A) (A) (A) (A) (A) (A) (A) (A)
                 (A) (A) (A) (A) (A) (A) (A) (A) (A) (A) (A) (A)
                 (A) (A) (A) (A) (A) (A) (A) (A) (A) (A) (A) (A)
                 (A) (A) (A) (A) (A) (A) (A) (A) (A) (A) (A) (A)
                 (A) (A) (A) (A) (A) (A) (A) (A) (A) (A) (A) (A)
                 (A) (A) (A) (A) (A) (A) (A) (A) (A) (A) (A) (A)
                 (A) (A) (A) (A) (A) (A) (A) (A) (A) (A) (A) (A)
                 (A) (A) (A) (A) (A) (A) (A) (A) (A) (A) (A) (A)
                 (A) (A) (A) (A) (A) (A) (A) (A) (A) (A) (A) (A)
                 (A) (A) (A) (A) (A) (A) (A) (A) (A) (A) (A) (A)
                 (A) (A) (A) (A) (A) (A) (A) (A) (A) (A) (A) (A)
                 (A) (A) (A) (A) (A) (A) (A) (A) (A) (A) (A) (A)
                 (A) (A) (A) (A) (A) (A) (A) (A) (A) (A) (A) (A)
 The electronic state is 1-A.
 Alpha  occ. eigenvalues --  -66.27049 -19.26390 -19.21422 -19.20049 -10.37425
 Alpha  occ. eigenvalues --  -10.32302 -10.31019 -10.25471 -10.25390 -10.24042
 Alpha  occ. eigenvalues --  -10.24009 -10.23910 -10.22834 -10.22693 -10.22577
 Alpha  occ. eigenvalues --  -10.20972 -10.20647 -10.20548  -5.32884  -3.66733
 Alpha  occ. eigenvalues --   -3.66499  -3.66464  -1.13536  -1.04965  -1.04189
 Alpha  occ. eigenvalues --   -0.86083  -0.83583  -0.80440  -0.78350  -0.74236
 Alpha  occ. eigenvalues --   -0.72886  -0.72226  -0.70458  -0.70014  -0.66698
 Alpha  occ. eigenvalues --   -0.63728  -0.62441  -0.58130  -0.55954  -0.53857
 Alpha  occ. eigenvalues --   -0.53167  -0.50634  -0.49897  -0.48610  -0.47662
 Alpha  occ. eigenvalues --   -0.46404  -0.45335  -0.44681  -0.44514  -0.43090
 Alpha  occ. eigenvalues --   -0.42963  -0.42718  -0.42428  -0.41878  -0.41214
 Alpha  occ. eigenvalues --   -0.40926  -0.40572  -0.40340  -0.39763  -0.39290
 Alpha  occ. eigenvalues --   -0.38551  -0.37945  -0.37700  -0.36448  -0.36068
 Alpha  occ. eigenvalues --   -0.35803  -0.34281  -0.33561  -0.32693  -0.30970
 Alpha  occ. eigenvalues --   -0.30376  -0.29191  -0.28514  -0.27054
 Alpha virt. eigenvalues --   -0.00154   0.01325   0.03491   0.05240   0.05766
 Alpha virt. eigenvalues --    0.06819   0.06863   0.07552   0.08188   0.08357
 Alpha virt. eigenvalues --    0.09609   0.09996   0.10853   0.11020   0.11395
 Alpha virt. eigenvalues --    0.11510   0.12801   0.13011   0.13068   0.13633
 Alpha virt. eigenvalues --    0.14068   0.14276   0.14606   0.15337   0.15546
 Alpha virt. eigenvalues --    0.16060   0.16437   0.17289   0.17646   0.18089
 Alpha virt. eigenvalues --    0.18435   0.19008   0.19614   0.20279   0.21409
 Alpha virt. eigenvalues --    0.21958   0.22098   0.23591   0.24132   0.25139
 Alpha virt. eigenvalues --    0.25722   0.26031   0.26577   0.26825   0.27699
 Alpha virt. eigenvalues --    0.28925   0.30013   0.31013   0.31375   0.32629
 Alpha virt. eigenvalues --    0.33535   0.33743   0.34528   0.35392   0.36459
 Alpha virt. eigenvalues --    0.36879   0.37976   0.38902   0.39655   0.40251
 Alpha virt. eigenvalues --    0.41059   0.41823   0.42235   0.43932   0.44676
 Alpha virt. eigenvalues --    0.45026   0.45603   0.46101   0.47853   0.48620
 Alpha virt. eigenvalues --    0.49848   0.50134   0.51351   0.52174   0.52625
 Alpha virt. eigenvalues --    0.53326   0.53933   0.55315   0.55714   0.56393
 Alpha virt. eigenvalues --    0.57694   0.57738   0.57934   0.58518   0.58714
 Alpha virt. eigenvalues --    0.59404   0.59655   0.60130   0.60235   0.60746
 Alpha virt. eigenvalues --    0.60890   0.61374   0.61780   0.62431   0.62810
 Alpha virt. eigenvalues --    0.63294   0.63902   0.64075   0.64354   0.65521
 Alpha virt. eigenvalues --    0.66451   0.67223   0.67963   0.68103   0.68663
 Alpha virt. eigenvalues --    0.68848   0.70197   0.70360   0.70489   0.71363
 Alpha virt. eigenvalues --    0.71990   0.73138   0.73886   0.74636   0.75351
 Alpha virt. eigenvalues --    0.75771   0.77188   0.77588   0.79881   0.80717
 Alpha virt. eigenvalues --    0.82467   0.83589   0.85272   0.86814   0.88382
 Alpha virt. eigenvalues --    0.88776   0.90139   0.90552   0.94408   0.94524
 Alpha virt. eigenvalues --    0.95223   0.95826   0.97183   0.99460   1.01041
 Alpha virt. eigenvalues --    1.01680   1.02767   1.05670   1.08568   1.09537
 Alpha virt. eigenvalues --    1.12946   1.13856   1.15661   1.17996   1.20231
 Alpha virt. eigenvalues --    1.21907   1.23488   1.23839   1.27399   1.28014
 Alpha virt. eigenvalues --    1.29445   1.30184   1.32032   1.32737   1.33535
 Alpha virt. eigenvalues --    1.35746   1.37369   1.38219   1.40976   1.41099
 Alpha virt. eigenvalues --    1.42576   1.44370   1.45185   1.45941   1.48258
 Alpha virt. eigenvalues --    1.48867   1.50208   1.52480   1.53020   1.53720
 Alpha virt. eigenvalues --    1.55220   1.55757   1.56805   1.57864   1.58420
 Alpha virt. eigenvalues --    1.58834   1.59549   1.59781   1.60600   1.60870
 Alpha virt. eigenvalues --    1.61317   1.62557   1.63683   1.64275   1.64932
 Alpha virt. eigenvalues --    1.65622   1.66741   1.67468   1.69357   1.69866
 Alpha virt. eigenvalues --    1.70626   1.72032   1.73157   1.74179   1.74415
 Alpha virt. eigenvalues --    1.76265   1.77541   1.79979   1.80995   1.81449
 Alpha virt. eigenvalues --    1.82198   1.83628   1.85819   1.86684   1.87364
 Alpha virt. eigenvalues --    1.88599   1.91131   1.93728   1.96754   1.98647
 Alpha virt. eigenvalues --    2.02009   2.03469   2.06651   2.07472   2.12477
 Alpha virt. eigenvalues --    2.14888   2.16925   2.17656   2.20917   2.23700
 Alpha virt. eigenvalues --    2.26379   2.29615   2.34092   2.36589   2.40704
 Alpha virt. eigenvalues --    2.41417   2.41685   2.42259   2.42606   2.43084
 Alpha virt. eigenvalues --    2.43815   2.44675   2.46024   2.46763   2.47718
 Alpha virt. eigenvalues --    2.48477   2.48964   2.49639   2.50956   2.51853
 Alpha virt. eigenvalues --    2.52303   2.53739   2.55282   2.56400   2.60335
 Alpha virt. eigenvalues --    2.62801   2.64593   2.68226   2.73305   2.80968
 Alpha virt. eigenvalues --    2.83459   2.86860   2.88580   2.90164   2.90917
 Alpha virt. eigenvalues --    2.92580   2.94053   2.94349   2.95131   2.95899
 Alpha virt. eigenvalues --    2.96190   3.02159   3.02789   3.04160   3.07914
 Alpha virt. eigenvalues --    3.08841   3.11812   3.12288   3.13362   3.14528
 Alpha virt. eigenvalues --    3.15608   3.17340   3.18305   3.20376   3.21702
 Alpha virt. eigenvalues --    3.22465   3.22642   3.23549   3.24395   3.25490
 Alpha virt. eigenvalues --    3.26898   3.28876   3.29230   3.29914   3.32500
 Alpha virt. eigenvalues --    3.33264   3.34367   3.35068   3.39129   3.41519
 Alpha virt. eigenvalues --    3.46364   3.52310   3.56743   3.60196   3.60478
 Alpha virt. eigenvalues --    3.76314   3.88067   3.92070   3.97805   4.02529
 Alpha virt. eigenvalues --    4.09703   4.11575   4.16449   4.22816   4.24430
 Alpha virt. eigenvalues --    4.96346   5.00242   5.02795   5.08726   5.14799
 Alpha virt. eigenvalues --    5.22080   5.49900   5.55157   5.77781   5.85306
 Alpha virt. eigenvalues --   11.52353  11.54084  11.59804  23.42321  23.49830
 Alpha virt. eigenvalues --   23.54471  23.55228  23.56608  23.59770  23.72018
 Alpha virt. eigenvalues --   23.74524  23.77518  23.80803  23.84597  23.84793
 Alpha virt. eigenvalues --   23.91205  24.27531  49.99217  50.05419  50.11756
 Alpha virt. eigenvalues --  141.29862
          Condensed to atoms (all electrons):
               1          2          3          4          5          6
     1  C    5.212517   0.205425  -0.033889  -0.018038  -0.047829   0.401323
     2  C    0.205425   5.599551   0.311022  -0.085502  -0.004733  -0.052165
     3  C   -0.033889   0.311022   5.174092   0.229586  -0.024918  -0.003104
     4  C   -0.018038  -0.085502   0.229586   5.925256   0.238960   0.000229
     5  C   -0.047829  -0.004733  -0.024918   0.238960   4.408154   0.002373
     6  H    0.401323  -0.052165  -0.003104   0.000229   0.002373   0.458967
     7  H   -0.054035   0.412321  -0.048675  -0.008425   0.002119   0.005690
     8  H    0.000262  -0.006633  -0.031772   0.360074  -0.023992   0.000023
     9  H    0.000015   0.006410  -0.031640   0.363036  -0.022541   0.000134
    10  O    0.228144  -0.044891   0.013547  -0.124118   0.330441  -0.025339
    11  O    0.002351  -0.000091   0.003113  -0.100603   0.669001  -0.000238
    12  C    0.337070  -0.061683   0.004307  -0.000932  -0.005740  -0.045145
    13  C   -0.067867  -0.002862   0.000463   0.000101   0.000065  -0.000433
    14  C   -0.055940   0.299695  -0.060753   0.007623  -0.000115  -0.003115
    15  O    0.003828  -0.049266   0.223581  -0.023492   0.001396  -0.000124
    16  Si   0.002620  -0.011038  -0.046057  -0.011548   0.000970  -0.000221
    17  C    0.000012  -0.000283  -0.002162  -0.000156   0.000093   0.000000
    18  C   -0.000238  -0.000246  -0.001892  -0.001445  -0.000034  -0.000006
    19  C   -0.000001  -0.000225   0.002380  -0.000148   0.000001   0.000000
    20  H   -0.000005   0.000279  -0.000056   0.000059   0.000002   0.000000
    21  H   -0.000304  -0.000446   0.000467   0.000532  -0.000005   0.000001
    22  H   -0.000053  -0.000204   0.000046   0.000324  -0.000001   0.000003
    23  H    0.000000   0.000001  -0.000069  -0.000001   0.000000   0.000000
    24  H   -0.000001   0.000002  -0.000058  -0.000021   0.000000   0.000000
    25  H    0.000000  -0.000019  -0.000119  -0.000039   0.000000   0.000000
    26  H    0.000000   0.000006  -0.000021   0.000147  -0.000003   0.000000
    27  H    0.000003  -0.000052   0.000606  -0.000438  -0.000039   0.000000
    28  H    0.000009   0.000010  -0.000351   0.001932   0.000064   0.000000
    29  H    0.006527  -0.034039  -0.007422   0.000458  -0.000056   0.000494
    30  H   -0.002841  -0.036211   0.007418  -0.000275   0.000005  -0.000917
    31  H   -0.004662  -0.037445  -0.010614  -0.000228   0.000114   0.004316
    32  H   -0.047360   0.009695  -0.000238   0.000790   0.000118  -0.005399
    33  H   -0.037468  -0.008559  -0.001876   0.000239   0.001632   0.006537
    34  H   -0.002309  -0.002824  -0.000135  -0.000009   0.000004   0.005597
    35  H   -0.008372   0.006156   0.000278   0.000014  -0.000015  -0.000295
    36  H    0.007228  -0.000406   0.000027  -0.000010  -0.000016  -0.000281
    37  C   -0.000473  -0.091604   0.284467  -0.087925  -0.007858   0.001354
    38  C   -0.000636   0.009058  -0.062070  -0.015064  -0.001932  -0.000027
    39  C   -0.000017   0.000037  -0.003598   0.000104   0.000938   0.000015
    40  H   -0.002399  -0.004652  -0.027271  -0.001728  -0.001662  -0.001853
    41  H   -0.000009  -0.008593  -0.036034   0.006020  -0.000059  -0.000101
    42  H    0.000001  -0.000106  -0.000445  -0.000344   0.000130   0.000001
    43  H    0.000001   0.000020  -0.000309   0.000041   0.000043   0.000000
    44  H   -0.000006  -0.000004  -0.000179   0.000199   0.001315   0.000015
               7          8          9         10         11         12
     1  C   -0.054035   0.000262   0.000015   0.228144   0.002351   0.337070
     2  C    0.412321  -0.006633   0.006410  -0.044891  -0.000091  -0.061683
     3  C   -0.048675  -0.031772  -0.031640   0.013547   0.003113   0.004307
     4  C   -0.008425   0.360074   0.363036  -0.124118  -0.100603  -0.000932
     5  C    0.002119  -0.023992  -0.022541   0.330441   0.669001  -0.005740
     6  H    0.005690   0.000023   0.000134  -0.025339  -0.000238  -0.045145
     7  H    0.471874   0.001082   0.000111   0.002798   0.000006  -0.006644
     8  H    0.001082   0.414989  -0.015210   0.002298   0.002067   0.001288
     9  H    0.000111  -0.015210   0.397796   0.004314   0.009009  -0.000046
    10  O    0.002798   0.002298   0.004314   8.033074  -0.068434  -0.053648
    11  O    0.000006   0.002067   0.009009  -0.068434   7.867600  -0.000236
    12  C   -0.006644   0.001288  -0.000046  -0.053648  -0.000236   5.329619
    13  C   -0.001575  -0.000121   0.000006   0.004749  -0.000005   0.279489
    14  C   -0.052303   0.000283  -0.000179   0.002586   0.000005   0.001793
    15  O   -0.003143  -0.002408  -0.000275   0.000004  -0.000015  -0.000064
    16  Si  -0.003730   0.002774  -0.004580  -0.000519  -0.000493  -0.000475
    17  C   -0.000287  -0.000493  -0.002955  -0.000002  -0.000005   0.000001
    18  C   -0.006728   0.001999   0.000334   0.000004   0.000001   0.000169
    19  C   -0.000248  -0.000010  -0.000044   0.000000   0.000000   0.000000
    20  H    0.000890   0.000023  -0.000004   0.000000   0.000000  -0.000003
    21  H   -0.002144   0.004850   0.000033  -0.000003   0.000002   0.000386
    22  H   -0.001864  -0.000343   0.000009  -0.000001   0.000000   0.000040
    23  H    0.000005   0.000005  -0.000001   0.000000   0.000000   0.000000
    24  H   -0.000039  -0.000004  -0.000005   0.000000   0.000000   0.000000
    25  H   -0.000001   0.000001  -0.000019   0.000000   0.000000   0.000000
    26  H    0.000006  -0.000033   0.000273   0.000000   0.000000   0.000000
    27  H    0.000002   0.000018   0.000271   0.000000   0.000000   0.000000
    28  H   -0.000027   0.000797  -0.000784  -0.000002  -0.000062  -0.000003
    29  H   -0.003787   0.000008   0.000005  -0.000144   0.000000  -0.000484
    30  H   -0.008343  -0.000029   0.000011  -0.000034   0.000000  -0.001050
    31  H    0.008078  -0.000006   0.000005   0.000023   0.000002   0.000227
    32  H    0.000686  -0.000089  -0.000029   0.003887  -0.000018   0.400869
    33  H    0.002762   0.001365   0.000157   0.001081  -0.000202   0.387012
    34  H    0.000474   0.000006   0.000001   0.000003   0.000000  -0.046280
    35  H    0.003894   0.000007  -0.000001  -0.000048   0.000000  -0.035193
    36  H   -0.000378   0.000007   0.000000  -0.000171   0.000000  -0.031758
    37  C    0.007232   0.005517  -0.005825  -0.005894   0.000615   0.000404
    38  C   -0.000238   0.000312   0.006673   0.000521  -0.000741   0.000005
    39  C   -0.000006   0.000033   0.003825  -0.000228   0.000366  -0.000002
    40  H   -0.000215  -0.000020  -0.000471   0.009830  -0.001084   0.000965
    41  H   -0.000306  -0.000116   0.000229   0.000272  -0.000007  -0.000019
    42  H    0.000018  -0.000005  -0.000330  -0.000015  -0.000002   0.000001
    43  H   -0.000001  -0.000003   0.000166  -0.000004   0.000045   0.000000
    44  H    0.000004   0.000007  -0.000110  -0.000450   0.001691  -0.000002
              13         14         15         16         17         18
     1  C   -0.067867  -0.055940   0.003828   0.002620   0.000012  -0.000238
     2  C   -0.002862   0.299695  -0.049266  -0.011038  -0.000283  -0.000246
     3  C    0.000463  -0.060753   0.223581  -0.046057  -0.002162  -0.001892
     4  C    0.000101   0.007623  -0.023492  -0.011548  -0.000156  -0.001445
     5  C    0.000065  -0.000115   0.001396   0.000970   0.000093  -0.000034
     6  H   -0.000433  -0.003115  -0.000124  -0.000221   0.000000  -0.000006
     7  H   -0.001575  -0.052303  -0.003143  -0.003730  -0.000287  -0.006728
     8  H   -0.000121   0.000283  -0.002408   0.002774  -0.000493   0.001999
     9  H    0.000006  -0.000179  -0.000275  -0.004580  -0.002955   0.000334
    10  O    0.004749   0.002586   0.000004  -0.000519  -0.000002   0.000004
    11  O   -0.000005   0.000005  -0.000015  -0.000493  -0.000005   0.000001
    12  C    0.279489   0.001793  -0.000064  -0.000475   0.000001   0.000169
    13  C    5.381680  -0.002195  -0.000003  -0.000068   0.000000  -0.000097
    14  C   -0.002195   5.400818  -0.003078  -0.000660   0.000005   0.000817
    15  O   -0.000003  -0.003078   8.254959   0.351820  -0.023495  -0.022983
    16  Si  -0.000068  -0.000660   0.351820  11.525934   0.321905   0.315460
    17  C    0.000000   0.000005  -0.023495   0.321905   5.773810  -0.058480
    18  C   -0.000097   0.000817  -0.022983   0.315460  -0.058480   5.805521
    19  C    0.000000  -0.000044  -0.021373   0.336702  -0.052883  -0.051241
    20  H   -0.000001  -0.000023   0.000789  -0.009893   0.000370   0.366426
    21  H   -0.000015   0.000242  -0.001219  -0.029715  -0.001316   0.365754
    22  H    0.000075   0.000449  -0.001967  -0.026974   0.002447   0.370360
    23  H    0.000000  -0.000001   0.000882  -0.013314   0.000492  -0.000056
    24  H    0.000000   0.000036  -0.001245  -0.027541   0.002591  -0.000631
    25  H    0.000000  -0.000006  -0.001331  -0.025942  -0.000440   0.002557
    26  H    0.000000   0.000000   0.000906  -0.011909   0.364495   0.000928
    27  H    0.000000   0.000002  -0.002246  -0.024923   0.369582   0.002208
    28  H    0.000000   0.000000  -0.001012  -0.029866   0.370542  -0.001683
    29  H    0.000167   0.385416   0.007316   0.002667   0.000035  -0.000020
    30  H    0.001512   0.390773   0.000013  -0.000094   0.000000   0.000035
    31  H   -0.000011   0.385844   0.000000  -0.000179   0.000000  -0.000002
    32  H   -0.037460  -0.000756   0.000006   0.000060   0.000000   0.000001
    33  H   -0.038213   0.000625  -0.000032  -0.000481  -0.000003   0.000175
    34  H    0.387369   0.000818   0.000000  -0.000007   0.000000  -0.000001
    35  H    0.381843  -0.002456  -0.000002  -0.000072   0.000001   0.000395
    36  H    0.388163   0.000254   0.000000  -0.000005   0.000000  -0.000002
    37  C   -0.000032  -0.010914  -0.080943  -0.000155  -0.000047  -0.000305
    38  C    0.000000  -0.000079   0.008802   0.001396  -0.000127   0.000024
    39  C    0.000000  -0.000019   0.000795   0.000585  -0.000028   0.000001
    40  H   -0.000062   0.001098   0.003526   0.000189   0.000004   0.000012
    41  H   -0.000002   0.001519   0.001990   0.000158   0.000020   0.000011
    42  H    0.000000  -0.000022   0.002795   0.000647   0.000297   0.000015
    43  H    0.000000   0.000000   0.000010   0.000004   0.000002   0.000000
    44  H    0.000000  -0.000014   0.000006   0.000009  -0.000001   0.000000
              19         20         21         22         23         24
     1  C   -0.000001  -0.000005  -0.000304  -0.000053   0.000000  -0.000001
     2  C   -0.000225   0.000279  -0.000446  -0.000204   0.000001   0.000002
     3  C    0.002380  -0.000056   0.000467   0.000046  -0.000069  -0.000058
     4  C   -0.000148   0.000059   0.000532   0.000324  -0.000001  -0.000021
     5  C    0.000001   0.000002  -0.000005  -0.000001   0.000000   0.000000
     6  H    0.000000   0.000000   0.000001   0.000003   0.000000   0.000000
     7  H   -0.000248   0.000890  -0.002144  -0.001864   0.000005  -0.000039
     8  H   -0.000010   0.000023   0.004850  -0.000343   0.000005  -0.000004
     9  H   -0.000044  -0.000004   0.000033   0.000009  -0.000001  -0.000005
    10  O    0.000000   0.000000  -0.000003  -0.000001   0.000000   0.000000
    11  O    0.000000   0.000000   0.000002   0.000000   0.000000   0.000000
    12  C    0.000000  -0.000003   0.000386   0.000040   0.000000   0.000000
    13  C    0.000000  -0.000001  -0.000015   0.000075   0.000000   0.000000
    14  C   -0.000044  -0.000023   0.000242   0.000449  -0.000001   0.000036
    15  O   -0.021373   0.000789  -0.001219  -0.001967   0.000882  -0.001245
    16  Si   0.336702  -0.009893  -0.029715  -0.026974  -0.013314  -0.027541
    17  C   -0.052883   0.000370  -0.001316   0.002447   0.000492   0.002591
    18  C   -0.051241   0.366426   0.365754   0.370360  -0.000056  -0.000631
    19  C    5.721415  -0.000800   0.002982  -0.000499   0.364186   0.368418
    20  H   -0.000800   0.432954  -0.019938  -0.020667   0.000555  -0.000064
    21  H    0.002982  -0.019938   0.453009  -0.019551  -0.000075  -0.000103
    22  H   -0.000499  -0.020667  -0.019551   0.450879  -0.000091   0.001283
    23  H    0.364186   0.000555  -0.000075  -0.000091   0.452318  -0.020510
    24  H    0.368418  -0.000064  -0.000103   0.001283  -0.020510   0.458465
    25  H    0.369433  -0.000060  -0.000105  -0.000069  -0.020624  -0.018161
    26  H   -0.000949   0.000302   0.000018  -0.000044   0.000833   0.000016
    27  H   -0.000285  -0.000030  -0.000043  -0.000099  -0.000024  -0.000093
    28  H    0.002796   0.000074   0.001047  -0.000017  -0.000090  -0.000116
    29  H    0.000069  -0.000002  -0.000001   0.000246  -0.000009   0.000299
    30  H   -0.000002  -0.000001   0.000007   0.000073   0.000000   0.000000
    31  H    0.000001   0.000001  -0.000006  -0.000014   0.000000  -0.000004
    32  H    0.000000   0.000000  -0.000011  -0.000001   0.000000   0.000000
    33  H    0.000001   0.000002   0.000580   0.000018   0.000000   0.000000
    34  H    0.000000   0.000000   0.000000  -0.000006   0.000000   0.000000
    35  H    0.000001  -0.000015   0.000105   0.000521   0.000000   0.000000
    36  H    0.000000   0.000000   0.000004  -0.000002   0.000000   0.000000
    37  C    0.000006   0.000007  -0.000096  -0.000092   0.000001  -0.000011
    38  C   -0.000028   0.000000   0.000009   0.000007   0.000000   0.000004
    39  C   -0.000001   0.000000   0.000001   0.000000   0.000000   0.000000
    40  H    0.000002   0.000000   0.000003   0.000001   0.000000  -0.000001
    41  H   -0.000055   0.000000   0.000001   0.000000   0.000001  -0.000009
    42  H    0.000014   0.000000   0.000001   0.000000  -0.000003  -0.000006
    43  H    0.000000   0.000000   0.000000   0.000000   0.000000   0.000000
    44  H    0.000000   0.000000   0.000000   0.000000   0.000000   0.000000
              25         26         27         28         29         30
     1  C    0.000000   0.000000   0.000003   0.000009   0.006527  -0.002841
     2  C   -0.000019   0.000006  -0.000052   0.000010  -0.034039  -0.036211
     3  C   -0.000119  -0.000021   0.000606  -0.000351  -0.007422   0.007418
     4  C   -0.000039   0.000147  -0.000438   0.001932   0.000458  -0.000275
     5  C    0.000000  -0.000003  -0.000039   0.000064  -0.000056   0.000005
     6  H    0.000000   0.000000   0.000000   0.000000   0.000494  -0.000917
     7  H   -0.000001   0.000006   0.000002  -0.000027  -0.003787  -0.008343
     8  H    0.000001  -0.000033   0.000018   0.000797   0.000008  -0.000029
     9  H   -0.000019   0.000273   0.000271  -0.000784   0.000005   0.000011
    10  O    0.000000   0.000000   0.000000  -0.000002  -0.000144  -0.000034
    11  O    0.000000   0.000000   0.000000  -0.000062   0.000000   0.000000
    12  C    0.000000   0.000000   0.000000  -0.000003  -0.000484  -0.001050
    13  C    0.000000   0.000000   0.000000   0.000000   0.000167   0.001512
    14  C   -0.000006   0.000000   0.000002   0.000000   0.385416   0.390773
    15  O   -0.001331   0.000906  -0.002246  -0.001012   0.007316   0.000013
    16  Si  -0.025942  -0.011909  -0.024923  -0.029866   0.002667  -0.000094
    17  C   -0.000440   0.364495   0.369582   0.370542   0.000035   0.000000
    18  C    0.002557   0.000928   0.002208  -0.001683  -0.000020   0.000035
    19  C    0.369433  -0.000949  -0.000285   0.002796   0.000069  -0.000002
    20  H   -0.000060   0.000302  -0.000030   0.000074  -0.000002  -0.000001
    21  H   -0.000105   0.000018  -0.000043   0.001047  -0.000001   0.000007
    22  H   -0.000069  -0.000044  -0.000099  -0.000017   0.000246   0.000073
    23  H   -0.020624   0.000833  -0.000024  -0.000090  -0.000009   0.000000
    24  H   -0.018161   0.000016  -0.000093  -0.000116   0.000299   0.000000
    25  H    0.455586  -0.000091   0.001037  -0.000089  -0.000010   0.000000
    26  H   -0.000091   0.448644  -0.020054  -0.022627   0.000000   0.000000
    27  H    0.001037  -0.020054   0.447366  -0.018741   0.000002   0.000000
    28  H   -0.000089  -0.022627  -0.018741   0.455401   0.000001   0.000000
    29  H   -0.000010   0.000000   0.000002   0.000001   0.438227  -0.023947
    30  H    0.000000   0.000000   0.000000   0.000000  -0.023947   0.454053
    31  H    0.000000   0.000000   0.000000   0.000000  -0.023304  -0.027378
    32  H    0.000000   0.000000   0.000000   0.000000   0.000029  -0.000093
    33  H    0.000000   0.000000   0.000000  -0.000009   0.000022  -0.000020
    34  H    0.000000   0.000000   0.000000   0.000000   0.000034   0.000193
    35  H    0.000000   0.000000   0.000000   0.000000   0.000252   0.000792
    36  H    0.000000   0.000000   0.000000   0.000000  -0.000020   0.000276
    37  C    0.000065  -0.000001   0.000124  -0.000018  -0.000920  -0.000102
    38  C   -0.000024   0.000005   0.000379  -0.000079  -0.000196   0.000012
    39  C   -0.000001   0.000000   0.000023  -0.000026   0.000003   0.000000
    40  H   -0.000001   0.000000   0.000003   0.000002  -0.000056  -0.000053
    41  H   -0.000010   0.000000   0.000010  -0.000002   0.000313   0.000299
    42  H    0.000040  -0.000001   0.000624  -0.000014   0.000010  -0.000001
    43  H    0.000000   0.000000  -0.000003   0.000002   0.000000   0.000000
    44  H    0.000000   0.000000   0.000000   0.000000   0.000001   0.000000
              31         32         33         34         35         36
     1  C   -0.004662  -0.047360  -0.037468  -0.002309  -0.008372   0.007228
     2  C   -0.037445   0.009695  -0.008559  -0.002824   0.006156  -0.000406
     3  C   -0.010614  -0.000238  -0.001876  -0.000135   0.000278   0.000027
     4  C   -0.000228   0.000790   0.000239  -0.000009   0.000014  -0.000010
     5  C    0.000114   0.000118   0.001632   0.000004  -0.000015  -0.000016
     6  H    0.004316  -0.005399   0.006537   0.005597  -0.000295  -0.000281
     7  H    0.008078   0.000686   0.002762   0.000474   0.003894  -0.000378
     8  H   -0.000006  -0.000089   0.001365   0.000006   0.000007   0.000007
     9  H    0.000005  -0.000029   0.000157   0.000001  -0.000001   0.000000
    10  O    0.000023   0.003887   0.001081   0.000003  -0.000048  -0.000171
    11  O    0.000002  -0.000018  -0.000202   0.000000   0.000000   0.000000
    12  C    0.000227   0.400869   0.387012  -0.046280  -0.035193  -0.031758
    13  C   -0.000011  -0.037460  -0.038213   0.387369   0.381843   0.388163
    14  C    0.385844  -0.000756   0.000625   0.000818  -0.002456   0.000254
    15  O    0.000000   0.000006  -0.000032   0.000000  -0.000002   0.000000
    16  Si  -0.000179   0.000060  -0.000481  -0.000007  -0.000072  -0.000005
    17  C    0.000000   0.000000  -0.000003   0.000000   0.000001   0.000000
    18  C   -0.000002   0.000001   0.000175  -0.000001   0.000395  -0.000002
    19  C    0.000001   0.000000   0.000001   0.000000   0.000001   0.000000
    20  H    0.000001   0.000000   0.000002   0.000000  -0.000015   0.000000
    21  H   -0.000006  -0.000011   0.000580   0.000000   0.000105   0.000004
    22  H   -0.000014  -0.000001   0.000018  -0.000006   0.000521  -0.000002
    23  H    0.000000   0.000000   0.000000   0.000000   0.000000   0.000000
    24  H   -0.000004   0.000000   0.000000   0.000000   0.000000   0.000000
    25  H    0.000000   0.000000   0.000000   0.000000   0.000000   0.000000
    26  H    0.000000   0.000000   0.000000   0.000000   0.000000   0.000000
    27  H    0.000000   0.000000   0.000000   0.000000   0.000000   0.000000
    28  H    0.000000   0.000000  -0.000009   0.000000   0.000000   0.000000
    29  H   -0.023304   0.000029   0.000022   0.000034   0.000252  -0.000020
    30  H   -0.027378  -0.000093  -0.000020   0.000193   0.000792   0.000276
    31  H    0.465833   0.000023   0.000004   0.000048   0.000026  -0.000014
    32  H    0.000023   0.468578  -0.031395  -0.004545   0.006368  -0.006561
    33  H    0.000004  -0.031395   0.486600   0.007372  -0.005837  -0.004083
    34  H    0.000048  -0.004545   0.007372   0.475714  -0.027690  -0.025561
    35  H    0.000026   0.006368  -0.005837  -0.027690   0.471558  -0.025716
    36  H   -0.000014  -0.006561  -0.004083  -0.025561  -0.025716   0.459428
    37  C    0.004668   0.000016   0.000058   0.000002  -0.000004   0.000001
    38  C    0.000191  -0.000002  -0.000001   0.000000   0.000000   0.000000
    39  C   -0.000010   0.000000   0.000000   0.000000   0.000000   0.000000
    40  H    0.000058   0.000002  -0.000055  -0.000009  -0.000004   0.000002
    41  H   -0.001257   0.000000  -0.000001   0.000001   0.000001   0.000000
    42  H    0.000006   0.000000   0.000000   0.000000   0.000000   0.000000
    43  H    0.000000   0.000000   0.000000   0.000000   0.000000   0.000000
    44  H    0.000002   0.000000   0.000000   0.000000   0.000000   0.000000
              37         38         39         40         41         42
     1  C   -0.000473  -0.000636  -0.000017  -0.002399  -0.000009   0.000001
     2  C   -0.091604   0.009058   0.000037  -0.004652  -0.008593  -0.000106
     3  C    0.284467  -0.062070  -0.003598  -0.027271  -0.036034  -0.000445
     4  C   -0.087925  -0.015064   0.000104  -0.001728   0.006020  -0.000344
     5  C   -0.007858  -0.001932   0.000938  -0.001662  -0.000059   0.000130
     6  H    0.001354  -0.000027   0.000015  -0.001853  -0.000101   0.000001
     7  H    0.007232  -0.000238  -0.000006  -0.000215  -0.000306   0.000018
     8  H    0.005517   0.000312   0.000033  -0.000020  -0.000116  -0.000005
     9  H   -0.005825   0.006673   0.003825  -0.000471   0.000229  -0.000330
    10  O   -0.005894   0.000521  -0.000228   0.009830   0.000272  -0.000015
    11  O    0.000615  -0.000741   0.000366  -0.001084  -0.000007  -0.000002
    12  C    0.000404   0.000005  -0.000002   0.000965  -0.000019   0.000001
    13  C   -0.000032   0.000000   0.000000  -0.000062  -0.000002   0.000000
    14  C   -0.010914  -0.000079  -0.000019   0.001098   0.001519  -0.000022
    15  O   -0.080943   0.008802   0.000795   0.003526   0.001990   0.002795
    16  Si  -0.000155   0.001396   0.000585   0.000189   0.000158   0.000647
    17  C   -0.000047  -0.000127  -0.000028   0.000004   0.000020   0.000297
    18  C   -0.000305   0.000024   0.000001   0.000012   0.000011   0.000015
    19  C    0.000006  -0.000028  -0.000001   0.000002  -0.000055   0.000014
    20  H    0.000007   0.000000   0.000000   0.000000   0.000000   0.000000
    21  H   -0.000096   0.000009   0.000001   0.000003   0.000001   0.000001
    22  H   -0.000092   0.000007   0.000000   0.000001   0.000000   0.000000
    23  H    0.000001   0.000000   0.000000   0.000000   0.000001  -0.000003
    24  H   -0.000011   0.000004   0.000000  -0.000001  -0.000009  -0.000006
    25  H    0.000065  -0.000024  -0.000001  -0.000001  -0.000010   0.000040
    26  H   -0.000001   0.000005   0.000000   0.000000   0.000000  -0.000001
    27  H    0.000124   0.000379   0.000023   0.000003   0.000010   0.000624
    28  H   -0.000018  -0.000079  -0.000026   0.000002  -0.000002  -0.000014
    29  H   -0.000920  -0.000196   0.000003  -0.000056   0.000313   0.000010
    30  H   -0.000102   0.000012   0.000000  -0.000053   0.000299  -0.000001
    31  H    0.004668   0.000191  -0.000010   0.000058  -0.001257   0.000006
    32  H    0.000016  -0.000002   0.000000   0.000002   0.000000   0.000000
    33  H    0.000058  -0.000001   0.000000  -0.000055  -0.000001   0.000000
    34  H    0.000002   0.000000   0.000000  -0.000009   0.000001   0.000000
    35  H   -0.000004   0.000000   0.000000  -0.000004   0.000001   0.000000
    36  H    0.000001   0.000000   0.000000   0.000002   0.000000   0.000000
    37  C    5.517599   0.326657  -0.062549   0.379267   0.389371  -0.046114
    38  C    0.326657   5.066248   0.613880  -0.045040  -0.041243   0.399093
    39  C   -0.062549   0.613880   5.153644   0.001103   0.001353  -0.041505
    40  H    0.379267  -0.045040   0.001103   0.448938  -0.020955   0.004872
    41  H    0.389371  -0.041243   0.001353  -0.020955   0.445165  -0.002762
    42  H   -0.046114   0.399093  -0.041505   0.004872  -0.002762   0.464824
    43  H    0.006486  -0.039584   0.391403   0.000114  -0.000393  -0.007865
    44  H   -0.008442  -0.038434   0.386574   0.003638   0.000076   0.005740
              43         44
     1  C    0.000001  -0.000006
     2  C    0.000020  -0.000004
     3  C   -0.000309  -0.000179
     4  C    0.000041   0.000199
     5  C    0.000043   0.001315
     6  H    0.000000   0.000015
     7  H   -0.000001   0.000004
     8  H   -0.000003   0.000007
     9  H    0.000166  -0.000110
    10  O   -0.000004  -0.000450
    11  O    0.000045   0.001691
    12  C    0.000000  -0.000002
    13  C    0.000000   0.000000
    14  C    0.000000  -0.000014
    15  O    0.000010   0.000006
    16  Si   0.000004   0.000009
    17  C    0.000002  -0.000001
    18  C    0.000000   0.000000
    19  C    0.000000   0.000000
    20  H    0.000000   0.000000
    21  H    0.000000   0.000000
    22  H    0.000000   0.000000
    23  H    0.000000   0.000000
    24  H    0.000000   0.000000
    25  H    0.000000   0.000000
    26  H    0.000000   0.000000
    27  H   -0.000003   0.000000
    28  H    0.000002   0.000000
    29  H    0.000000   0.000001
    30  H    0.000000   0.000000
    31  H    0.000000   0.000002
    32  H    0.000000   0.000000
    33  H    0.000000   0.000000
    34  H    0.000000   0.000000
    35  H    0.000000   0.000000
    36  H    0.000000   0.000000
    37  C    0.006486  -0.008442
    38  C   -0.039584  -0.038434
    39  C    0.391403   0.386574
    40  H    0.000114   0.003638
    41  H   -0.000393   0.000076
    42  H   -0.007865   0.005740
    43  H    0.457772  -0.032893
    44  H   -0.032893   0.456722
 Mulliken charges:
               1
     1  C   -0.022584
     2  C   -0.314905
     3  C    0.180331
     4  C   -0.655233
     5  C    0.483611
     6  H    0.251690
     7  H    0.283090
     8  H    0.281194
     9  H    0.292225
    10  O   -0.313633
    11  O   -0.383637
    12  C   -0.454239
    13  C   -0.674661
    14  C   -0.688027
    15  O   -0.623705
    16  Si   1.416558
    17  C   -1.063543
    18  C   -1.087115
    19  C   -1.039573
    20  H    0.248831
    21  H    0.245064
    22  H    0.245779
    23  H    0.235592
    24  H    0.237508
    25  H    0.238442
    26  H    0.239157
    27  H    0.244811
    28  H    0.242943
    29  H    0.251815
    30  H    0.245920
    31  H    0.235666
    32  H    0.242828
    33  H    0.231993
    34  H    0.231744
    35  H    0.233507
    36  H    0.239592
    37  C   -0.513589
    38  C   -0.187730
    39  C   -0.446695
    40  H    0.253962
    41  H    0.265125
    42  H    0.220409
    43  H    0.224947
    44  H    0.224534
 Sum of Mulliken charges =   0.00000
 Mulliken charges with hydrogens summed into heavy atoms:
               1
     1  C    0.229107
     2  C   -0.031816
     3  C    0.180331
     4  C   -0.081813
     5  C    0.483611
    10  O   -0.313633
    11  O   -0.383637
    12  C    0.020582
    13  C    0.030182
    14  C    0.045373
    15  O   -0.623705
    16  Si   1.416558
    17  C   -0.336632
    18  C   -0.347441
    19  C   -0.328031
    37  C    0.005497
    38  C    0.032679
    39  C    0.002786
 Electronic spatial extent (au):  <R**2>=           5237.6083
 Charge=              0.0000 electrons
 Dipole moment (field-independent basis, Debye):
    X=             -1.7278    Y=             -4.7207    Z=              1.8306  Tot=              5.3499
 Quadrupole moment (field-independent basis, Debye-Ang):
   XX=           -121.0259   YY=           -122.0368   ZZ=           -124.5379
   XY=            -10.3250   XZ=             10.1013   YZ=              6.8260
 Traceless Quadrupole moment (field-independent basis, Debye-Ang):
   XX=              1.5076   YY=              0.4967   ZZ=             -2.0043
   XY=            -10.3250   XZ=             10.1013   YZ=              6.8260
 Octapole moment (field-independent basis, Debye-Ang**2):
  XXX=             -3.5724  YYY=             -4.0242  ZZZ=              6.1283  XYY=             -8.8716
  XXY=            -28.2939  XXZ=             10.1659  XZZ=             -3.5799  YZZ=            -23.1733
  YYZ=             10.7671  XYZ=             13.6573
 Hexadecapole moment (field-independent basis, Debye-Ang**3):
 XXXX=          -3497.1371 YYYY=          -2501.7336 ZZZZ=          -1125.3730 XXXY=            -59.5517
 XXXZ=             65.5985 YYYX=            -39.8680 YYYZ=             -6.5530 ZZZX=             10.0659
 ZZZY=              9.5977 XXYY=           -991.5216 XXZZ=           -790.9869 YYZZ=           -669.2642
 XXYZ=             63.5191 YYXZ=             21.4691 ZZXY=            -26.3498
 N-N= 1.642970577607D+03 E-N=-5.780962323241D+03  KE= 1.060547468100D+03
 1\1\GINC-SWANNODE-0-8\SP\RmPW1PW91\6-311G(d)\C14H26O3Si1\AH809\08-Mar-
 2018\0\\#mPW1PW91/6-311g(d) nmr=(giao) scrf=(solvent=chloroform)\\P_ng
 _2ginp013\\0,1\C,0,0.013009,0.13106,1.124087\C,0,-0.940294,1.127796,0.
 425041\C,0,-2.196869,1.449515,1.276687\C,0,-1.702095,1.765665,2.695492
 \C,0,-1.037688,0.575471,3.31203\H,0,0.020029,-0.813354,0.56638\H,0,-0.
 39475,2.068575,0.291482\H,0,-0.97381,2.583446,2.705808\H,0,-2.533966,2
 .071455,3.339135\O,0,-0.380304,-0.246123,2.466897\O,0,-1.069055,0.3587
 44,4.518174\C,0,1.464835,0.633806,1.221325\C,0,2.147408,0.836367,-0.12
 1351\C,0,-1.265905,0.669005,-1.005492\O,0,-2.937589,2.516094,0.639867\
 Si,0,-2.744643,4.170269,0.776501\C,0,-3.307646,4.805392,2.452933\C,0,-
 0.981502,4.736969,0.4733\C,0,-3.828791,5.010697,-0.527402\H,0,-0.92262
 7,5.829341,0.50004\H,0,-0.300782,4.34562,1.234029\H,0,-0.631951,4.4034
 48,-0.508244\H,0,-3.732365,6.098256,-0.461695\H,0,-3.529495,4.694028,-
 1.530692\H,0,-4.878874,4.743959,-0.37711\H,0,-3.36205,5.898252,2.44804
 \H,0,-4.299583,4.414546,2.697935\H,0,-2.614037,4.508296,3.243881\H,0,-
 1.929492,1.37851,-1.509665\H,0,-0.354033,0.592838,-1.606304\H,0,-1.744
 663,-0.315262,-1.016877\H,0,2.04938,-0.08734,1.80724\H,0,1.496123,1.56
 8464,1.795241\H,0,2.109508,-0.077393,-0.722532\H,0,1.686025,1.647574,-
 0.691441\H,0,3.19986,1.097656,0.029335\C,0,-3.201146,0.24362,1.276797\
 C,0,-4.371094,0.417223,2.212694\C,0,-4.619502,-0.374686,3.263258\H,0,-
 2.688616,-0.70002,1.495145\H,0,-3.634258,0.131405,0.274038\H,0,-5.0505
 39,1.239589,1.994894\H,0,-5.482362,-0.199581,3.898958\H,0,-3.971507,-1
 .207031,3.522528\\Version=EM64L-G09RevD.01\State=1-A\HF=-1064.3744802\
 RMSD=3.547e-09\Dipole=0.5342813,0.938181,-1.8068302\Quadrupole=5.72246
 55,3.1744901,-8.8969556,-0.1319374,-5.3200452,7.3198146\PG=C01 [X(C14H
 26O3Si1)]\\@


 TO SEE A WORLD IN A GRAIN OF SAND
 AND A HEAVEN IN A WILD FLOWER
 HOLD INFINITY IN THE PALM OF YOUR HAND
 AND ETERNITY IN AN HOUR

                       -- WILLIAM BLAKE
 Job cpu time:       0 days  1 hours 18 minutes 12.0 seconds.
 File lengths (MBytes):  RWF=    236 Int=      0 D2E=      0 Chk=     11 Scr=      1
 Normal termination of Gaussian 09 at Thu Mar  8 13:24:04 2018.
