 Entering Gaussian System, Link 0=/usr/local/shared/gaussian/em64t/09-D01/g09/g09
 Initial command:
 /usr/local/shared/gaussian/em64t/09-D01/g09/l1.exe "/scratch/ah809/P_ng_correct1ginp002/Gau-2923.inp" -scrdir="/scratch/ah809/P_ng_correct1ginp002/"
 Entering Link 1 = /usr/local/shared/gaussian/em64t/09-D01/g09/l1.exe PID=      2948.
  
 Copyright (c) 1988,1990,1992,1993,1995,1998,2003,2009,2013,
            Gaussian, Inc.  All Rights Reserved.
  
 This is part of the Gaussian(R) 09 program.  It is based on
 the Gaussian(R) 03 system (copyright 2003, Gaussian, Inc.),
 the Gaussian(R) 98 system (copyright 1998, Gaussian, Inc.),
 the Gaussian(R) 94 system (copyright 1995, Gaussian, Inc.),
 the Gaussian 92(TM) system (copyright 1992, Gaussian, Inc.),
 the Gaussian 90(TM) system (copyright 1990, Gaussian, Inc.),
 the Gaussian 88(TM) system (copyright 1988, Gaussian, Inc.),
 the Gaussian 86(TM) system (copyright 1986, Carnegie Mellon
 University), and the Gaussian 82(TM) system (copyright 1983,
 Carnegie Mellon University). Gaussian is a federally registered
 trademark of Gaussian, Inc.
  
 This software contains proprietary and confidential information,
 including trade secrets, belonging to Gaussian, Inc.
  
 This software is provided under written license and may be
 used, copied, transmitted, or stored only in accord with that
 written license.
  
 The following legend is applicable only to US Government
 contracts under FAR:
  
                    RESTRICTED RIGHTS LEGEND
  
 Use, reproduction and disclosure by the US Government is
 subject to restrictions as set forth in subparagraphs (a)
 and (c) of the Commercial Computer Software - Restricted
 Rights clause in FAR 52.227-19.
  
 Gaussian, Inc.
 340 Quinnipiac St., Bldg. 40, Wallingford CT 06492
  
  
 ---------------------------------------------------------------
 Warning -- This program may not be used in any manner that
 competes with the business of Gaussian, Inc. or will provide
 assistance to any competitor of Gaussian, Inc.  The licensee
 of this program is prohibited from giving any competitor of
 Gaussian, Inc. access to this program.  By using this program,
 the user acknowledges that Gaussian, Inc. is engaged in the
 business of creating and licensing software in the field of
 computational chemistry and represents and warrants to the
 licensee that it is not a competitor of Gaussian, Inc. and that
 it will not use this program in any manner prohibited above.
 ---------------------------------------------------------------
  

 Cite this work as:
 Gaussian 09, Revision D.01,
 M. J. Frisch, G. W. Trucks, H. B. Schlegel, G. E. Scuseria, 
 M. A. Robb, J. R. Cheeseman, G. Scalmani, V. Barone, B. Mennucci, 
 G. A. Petersson, H. Nakatsuji, M. Caricato, X. Li, H. P. Hratchian, 
 A. F. Izmaylov, J. Bloino, G. Zheng, J. L. Sonnenberg, M. Hada, 
 M. Ehara, K. Toyota, R. Fukuda, J. Hasegawa, M. Ishida, T. Nakajima, 
 Y. Honda, O. Kitao, H. Nakai, T. Vreven, J. A. Montgomery, Jr., 
 J. E. Peralta, F. Ogliaro, M. Bearpark, J. J. Heyd, E. Brothers, 
 K. N. Kudin, V. N. Staroverov, T. Keith, R. Kobayashi, J. Normand, 
 K. Raghavachari, A. Rendell, J. C. Burant, S. S. Iyengar, J. Tomasi, 
 M. Cossi, N. Rega, J. M. Millam, M. Klene, J. E. Knox, J. B. Cross, 
 V. Bakken, C. Adamo, J. Jaramillo, R. Gomperts, R. E. Stratmann, 
 O. Yazyev, A. J. Austin, R. Cammi, C. Pomelli, J. W. Ochterski, 
 R. L. Martin, K. Morokuma, V. G. Zakrzewski, G. A. Voth, 
 P. Salvador, J. J. Dannenberg, S. Dapprich, A. D. Daniels, 
 O. Farkas, J. B. Foresman, J. V. Ortiz, J. Cioslowski, 
 and D. J. Fox, Gaussian, Inc., Wallingford CT, 2013.
 
 ******************************************
 Gaussian 09:  EM64L-G09RevD.01 24-Apr-2013
                 8-Mar-2018 
 ******************************************
 %mem=6000MB
 %chk=P_ng_correct1ginp002.chk
 --------------------------------------------------------
 #mPW1PW91/6-311g(d) nmr=(giao) scrf=(solvent=chloroform)
 --------------------------------------------------------
 1/38=1/1;
 2/12=2,17=6,18=5,40=1/2;
 3/5=4,6=6,7=1,11=2,16=1,25=1,30=1,70=2201,72=7,74=-7/1,2,8,3;
 4//1;
 5/5=2,38=5,53=7/2;
 8/6=1,10=90,11=11/1;
 10/13=100,45=16/2;
 6/7=2,8=2,9=2,10=2,28=1/1;
 99/9=1/99;
 --------------------
 P_ng_correct1ginp002
 --------------------
 Symbolic Z-matrix:
 Charge =  0 Multiplicity = 1
 C                     0.98061  -0.41291   0.59528 
 C                    -0.5561   -0.48864   0.63579 
 C                    -1.13131   0.5932    1.59593 
 C                    -0.61113   1.95039   1.11032 
 C                     0.88428   2.00647   1.03642 
 H                     1.38959  -0.81858   1.52878 
 H                    -0.93643  -0.25137  -0.3632 
 H                    -0.96975   2.18709   0.10274 
 H                    -0.96419   2.76235   1.75554 
 O                     1.49906   0.93304   0.49552 
 O                     1.51245   3.01978   1.32366 
 C                     1.63493  -1.22561  -0.53818 
 C                     1.23935  -0.78199  -1.94107 
 C                    -1.04065  -1.91083   0.95101 
 O                    -2.57171   0.47901   1.63991 
 Si                   -3.71929   1.1239    0.61037 
 C                    -3.90684   2.97775   0.85248 
 C                    -3.3679    0.77415  -1.19887 
 C                    -5.39403   0.33929   1.01158 
 H                    -2.45427   1.27384  -1.53174 
 H                    -3.25589  -0.30062  -1.36974 
 H                    -4.19216   1.13204  -1.82335 
 H                    -6.17286   0.74608   0.36018 
 H                    -5.34942  -0.74407   0.86733 
 H                    -5.66838   0.54085   2.05106 
 H                    -4.04911   3.21317   1.91132 
 H                    -3.02601   3.51745   0.49519 
 H                    -4.77531   3.34875   0.29985 
 H                    -0.77095  -2.6018    0.14601 
 H                    -0.59798  -2.29228   1.87645 
 H                    -2.12921  -1.95481   1.0514 
 H                     1.41871  -2.29265  -0.42057 
 H                     2.72403  -1.11536  -0.45577 
 H                     1.83111  -1.32634  -2.68436 
 H                     0.18554  -0.99088  -2.14589 
 H                     1.41714   0.28751  -2.08878 
 C                    -0.68403   0.33657   3.07782 
 C                    -1.16461   1.37874   4.05772 
 C                    -0.35682   2.17962   4.76409 
 H                     0.40505   0.25197   3.15374 
 H                    -1.09745  -0.61958   3.4229 
 H                    -2.24214   1.46106   4.19091 
 H                    -0.76644   2.90841   5.45734 
 H                     0.72416   2.13847   4.66712 
 
                          Input orientation:                          
 ---------------------------------------------------------------------
 Center     Atomic      Atomic             Coordinates (Angstroms)
 Number     Number       Type             X           Y           Z
 ---------------------------------------------------------------------
      1          6           0        0.980612   -0.412911    0.595280
      2          6           0       -0.556095   -0.488637    0.635792
      3          6           0       -1.131314    0.593196    1.595931
      4          6           0       -0.611125    1.950386    1.110319
      5          6           0        0.884282    2.006473    1.036415
      6          1           0        1.389589   -0.818577    1.528777
      7          1           0       -0.936433   -0.251372   -0.363196
      8          1           0       -0.969745    2.187092    0.102737
      9          1           0       -0.964186    2.762350    1.755539
     10          8           0        1.499056    0.933038    0.495524
     11          8           0        1.512450    3.019778    1.323658
     12          6           0        1.634934   -1.225605   -0.538178
     13          6           0        1.239350   -0.781991   -1.941072
     14          6           0       -1.040653   -1.910831    0.951009
     15          8           0       -2.571708    0.479005    1.639913
     16         14           0       -3.719290    1.123897    0.610374
     17          6           0       -3.906842    2.977746    0.852482
     18          6           0       -3.367901    0.774148   -1.198873
     19          6           0       -5.394025    0.339286    1.011581
     20          1           0       -2.454265    1.273836   -1.531738
     21          1           0       -3.255894   -0.300618   -1.369744
     22          1           0       -4.192160    1.132039   -1.823352
     23          1           0       -6.172862    0.746081    0.360177
     24          1           0       -5.349424   -0.744071    0.867328
     25          1           0       -5.668382    0.540847    2.051059
     26          1           0       -4.049114    3.213173    1.911322
     27          1           0       -3.026005    3.517448    0.495186
     28          1           0       -4.775306    3.348753    0.299850
     29          1           0       -0.770952   -2.601800    0.146005
     30          1           0       -0.597978   -2.292281    1.876446
     31          1           0       -2.129211   -1.954814    1.051397
     32          1           0        1.418707   -2.292645   -0.420573
     33          1           0        2.724032   -1.115355   -0.455772
     34          1           0        1.831107   -1.326344   -2.684363
     35          1           0        0.185538   -0.990875   -2.145891
     36          1           0        1.417139    0.287508   -2.088782
     37          6           0       -0.684026    0.336574    3.077822
     38          6           0       -1.164613    1.378740    4.057717
     39          6           0       -0.356823    2.179616    4.764094
     40          1           0        0.405049    0.251968    3.153738
     41          1           0       -1.097448   -0.619578    3.422904
     42          1           0       -2.242143    1.461060    4.190906
     43          1           0       -0.766435    2.908406    5.457341
     44          1           0        0.724161    2.138473    4.667123
 ---------------------------------------------------------------------
                    Distance matrix (angstroms):
                    1          2          3          4          5
     1  C    0.000000
     2  C    1.539105   0.000000
     3  C    2.544363   1.556633   0.000000
     4  C    2.895525   2.485365   1.532443   0.000000
     5  C    2.461158   2.908738   2.524488   1.498282   0.000000
     6  H    1.096925   2.166095   2.890080   3.441674   2.911814
     7  H    2.149380   1.094956   2.142301   2.669234   3.220525
     8  H    3.287325   2.759489   2.190031   1.095381   2.083697
     9  H    3.900093   3.462555   2.181430   1.095558   2.122575
    10  O    1.445792   2.502894   2.871452   2.421948   1.350101
    11  O    3.549189   4.130498   3.598878   2.387192   1.226332
    12  C    1.540563   2.592670   3.938856   4.224836   3.672758
    13  C    2.576091   3.154347   4.474548   4.494567   4.094757
    14  C    2.540831   1.535185   2.587334   3.888299   4.365540
    15  O    3.808641   2.450976   1.445583   2.507851   3.826387
    16  Si   4.944804   3.550594   2.819678   3.254799   4.706732
    17  C    5.953983   4.825999   3.733946   3.461748   4.892042
    18  C    4.851563   3.587043   3.584131   3.783612   4.959455
    19  C    6.432348   4.922625   4.310063   5.047923   6.495942
    20  H    4.378093   3.377506   3.463493   3.291709   4.275285
    21  H    4.671393   3.368448   3.756058   4.267615   5.315386
    22  H    5.915591   4.679204   4.620674   4.701056   5.891788
    23  H    7.250567   5.757479   5.193040   5.739859   7.200637
    24  H    6.344528   4.805711   4.484596   5.456246   6.815656
    25  H    6.872996   5.403545   4.560139   5.333633   6.790800
    26  H    6.338659   5.247052   3.934121   3.749134   5.153638
    27  H    5.613441   4.708391   3.654141   2.943759   4.226857
    28  H    6.882440   5.713157   4.748852   4.466844   5.863035
    29  H    2.839201   2.179796   3.527059   4.655947   4.976827
    30  H    2.768639   2.189545   2.947730   4.311305   4.624071
    31  H    3.500929   2.190227   2.790102   4.190304   4.977264
    32  H    2.181120   2.875795   4.347065   4.946429   4.570650
    33  H    2.153521   3.513335   4.689597   4.793191   3.918815
    34  H    3.509097   4.174196   5.548107   5.576833   5.084126
    35  H    2.912079   2.922332   4.271371   4.459663   4.427122
    36  H    2.808083   3.452442   4.490564   4.136818   3.606332
    37  C    3.081519   2.580862   1.569051   2.545736   3.068468
    38  C    4.449772   3.945499   2.584295   3.052914   3.704090
    39  C    5.088117   4.919569   3.626820   3.669780   3.932672
    40  H    2.705373   2.795057   2.214410   2.844784   2.791238
    41  H    3.515182   2.842218   2.193125   3.491314   4.064324
    42  H    5.179425   4.391231   2.953138   3.519897   4.474687
    43  H    6.141902   5.901820   4.517059   4.454046   4.804470
    44  H    4.811988   4.979196   3.906775   3.803843   3.636634
                    6          7          8          9         10
     6  H    0.000000
     7  H    3.051502   0.000000
     8  H    4.078492   2.482803   0.000000
     9  H    4.291237   3.684064   1.750059   0.000000
    10  O    2.036603   2.841097   2.796768   3.316863   0.000000
    11  O    3.845795   4.420738   2.888824   2.527156   2.245099
    12  C    2.120889   2.755300   4.340694   5.283971   2.397236
    13  C    3.473293   2.739577   4.227613   5.575200   2.990948
    14  C    2.726337   2.119387   4.185399   4.742545   3.839945
    15  O    4.169885   2.687010   2.801206   2.794845   4.252869
    16  Si   5.542320   3.253229   2.991334   3.403899   5.223098
    17  C    6.551460   4.552846   3.132697   3.085633   5.790681
    18  C    5.710566   2.768047   3.072743   4.296434   5.155919
    19  C    6.901127   4.702022   4.880024   5.103742   6.937825
    20  H    5.340427   2.448584   2.389424   3.904126   4.455859
    21  H    5.500020   2.528925   3.685564   4.939746   5.254587
    22  H    6.796881   3.826962   3.899604   5.087847   6.148717
    23  H    7.810534   5.379440   5.405110   5.756968   7.675389
    24  H    6.771806   4.607758   5.325214   5.684560   7.060638
    25  H    7.206647   5.370994   5.346332   5.210745   7.344772
    26  H    6.780917   5.183173   3.715688   3.121585   6.163253
    27  H    6.274304   4.393989   2.480336   2.531750   5.211080
    28  H    7.542071   5.304477   3.983793   4.121594   6.726187
    29  H    3.124081   2.410639   4.793212   5.603753   4.215469
    30  H    2.498620   3.048911   4.832084   5.069322   4.087442
    31  H    3.728388   2.515056   4.404509   4.909657   4.670440
    32  H    2.444113   3.117174   5.103587   5.997217   3.354209
    33  H    2.409824   3.762186   4.986189   5.790462   2.569328
    34  H    4.266534   3.768641   5.287431   6.651602   3.914939
    35  H    3.870738   2.232417   4.060847   5.534412   3.521909
    36  H    3.782977   2.967716   3.756114   5.155032   2.664968
    37  C    2.834395   3.499999   3.515279   2.776925   3.433639
    38  C    4.212800   4.717394   4.041444   2.693431   4.470235
    39  C    4.744090   5.703924   4.701487   3.124079   4.818603
    40  H    2.180799   3.797598   3.865666   3.183046   2.954117
    41  H    3.132518   3.807368   4.349392   3.772970   4.209751
    42  H    5.047094   5.037574   4.342723   3.042621   5.285000
    43  H    5.828590   6.625085   5.406793   3.709956   5.801220
    44  H    4.363044   5.811458   4.868809   3.423019   4.410870
                   11         12         13         14         15
    11  O    0.000000
    12  C    4.637317   0.000000
    13  C    5.018615   1.523611   0.000000
    14  C    5.564900   3.137830   3.851860   0.000000
    15  O    4.820362   5.034443   5.379380   2.920622   0.000000
    16  Si   5.610191   5.958779   5.893250   4.062106   1.671161
    17  C    5.439899   7.093192   6.958653   5.667710   2.940465
    18  C    5.934968   5.428065   4.919267   4.152973   2.963062
    19  C    7.414973   7.365928   7.346910   4.900872   2.894788
    20  H    5.190032   4.894478   4.246972   4.278368   3.271837
    21  H    6.404416   5.046514   4.556902   3.589704   3.183388
    22  H    6.783053   6.416010   5.760093   5.185377   3.878985
    23  H    8.072299   8.102855   7.910224   5.809289   3.831105
    24  H    7.839650   7.140629   7.162436   4.464733   3.131854
    25  H    7.631419   7.947511   8.087260   5.351328   3.124461
    26  H    5.595869   7.616509   7.666168   6.019008   3.119626
    27  H    4.640217   6.729691   6.527923   5.797897   3.278555
    28  H    6.379050   7.919483   7.632880   6.483430   3.858376
    29  H    6.180852   2.854874   3.421828   1.094627   3.868571
    30  H    5.742600   3.457471   4.497799   1.094486   3.410511
    31  H    6.171093   4.150576   4.655920   1.094062   2.542760
    32  H    5.592224   1.095061   2.150851   2.841737   5.277410
    33  H    4.661934   1.097761   2.126389   4.096910   5.914283
    34  H    5.920688   2.157485   1.094979   4.669535   6.429886
    35  H    5.466608   2.177289   1.093665   3.455525   4.908693
    36  H    4.372543   2.177457   1.094192   4.484837   5.463583
    37  C    3.886024   4.570934   5.489978   3.114698   2.377228
    38  C    4.163502   5.978489   6.814196   4.526398   2.938574
    39  C    4.004579   6.608836   7.501875   5.633737   4.190263
    40  H    3.498043   4.162461   5.265189   3.408778   3.347282
    41  H    4.946040   4.850088   5.853139   2.789413   2.561129
    42  H    4.974704   6.679381   7.399542   4.828060   2.753291
    43  H    4.721552   7.668303   8.507568   6.603580   4.871730
    44  H    3.546386   6.264319   7.243119   5.772429   4.772901
                   16         17         18         19         20
    16  Si   0.000000
    17  C    1.878975   0.000000
    18  C    1.875946   3.058490   0.000000
    19  C    1.892437   3.032902   3.029916   0.000000
    20  H    2.492271   3.270748   1.093260   3.998005   0.000000
    21  H    2.482911   4.013688   1.094013   3.263708   1.774192
    22  H    2.479253   3.263147   1.094286   3.179588   1.767887
    23  H    2.495067   3.218313   3.209241   1.093799   4.205453
    24  H    2.492522   3.991639   3.240464   1.093828   4.267249
    25  H    2.492886   3.236987   3.988571   1.093807   4.868702
    26  H    2.483208   1.093988   4.010761   3.298112   4.261365
    27  H    2.494594   1.093075   3.242287   3.996861   3.077191
    28  H    2.482253   1.094202   3.294776   3.153770   3.612094
    29  H    4.773799   6.439274   4.466527   5.547253   4.546308
    30  H    4.797478   6.306367   5.151024   5.538520   5.270551
    31  H    3.493038   5.246874   3.747706   3.990425   4.147581
    32  H    6.255767   7.599945   5.737821   7.442543   5.380928
    33  H    6.904152   7.901487   6.421376   8.376870   5.803507
    34  H    6.904048   7.997407   5.800727   8.284736   5.143335
    35  H    5.226561   6.441100   4.079103   6.547555   3.531948
    36  H    5.862414   6.650804   4.891356   7.483775   4.033722
    37  C    3.990113   4.723819   5.068015   5.143292   5.025958
    38  C    4.298313   4.511116   5.731644   5.314822   5.737265
    39  C    5.447395   5.342317   6.826339   6.545347   6.697552
    40  H    4.923325   5.596253   5.783861   6.182695   5.583330
    41  H    4.221858   5.238368   5.334628   5.019410   5.474892
    42  H    3.887911   4.026988   5.548774   4.615284   5.729634
    43  H    5.949531   5.574199   7.458409   6.912290   7.373453
    44  H    6.101707   6.058222   7.281227   7.350664   7.019677
                   21         22         23         24         25
    21  H    0.000000
    22  H    1.770554   0.000000
    23  H    3.549212   2.973204   0.000000
    24  H    3.095805   3.478334   1.776459   0.000000
    25  H    4.269667   4.188054   1.776430   1.775941   0.000000
    26  H    4.872506   4.277776   3.605953   4.294241   3.127760
    27  H    4.255401   3.525012   4.195404   4.867988   4.273529
    28  H    4.291161   3.124399   2.954776   4.171672   3.427631
    29  H    3.710508   5.433653   6.358837   4.993383   6.122931
    30  H    4.644243   6.191334   6.527637   5.098187   5.810861
    31  H    3.141290   4.695594   4.911592   3.445222   4.444477
    32  H    5.169235   6.721464   8.214338   7.061471   8.022747
    33  H    6.103987   7.399646   9.126086   8.189575   8.914024
    34  H    5.353309   6.562372   8.810658   8.032034   9.063827
    35  H    3.594762   4.875965   7.051712   6.306838   7.364030
    36  H    4.764467   5.678725   7.988479   7.455811   8.210181
    37  C    5.177003   6.079579   6.138453   5.274468   5.093110
    38  C    6.054010   6.619205   6.257365   5.674289   5.001267
    39  C    7.223582   7.694262   7.434771   6.975586   6.185368
    40  H    5.845489   6.832297   7.163592   6.271660   6.179475
    41  H    5.265938   6.337871   6.083186   4.962436   4.911413
    42  H    5.920475   6.331044   5.535001   5.056082   4.143048
    43  H    7.943823   8.240119   7.738616   7.443964   6.421618
    44  H    7.631105   8.204230   8.249695   7.722431   7.089486
                   26         27         28         29         30
    26  H    0.000000
    27  H    1.773352   0.000000
    28  H    1.772732   1.768239   0.000000
    29  H    6.904824   6.530880   7.174092   0.000000
    30  H    6.497813   6.446406   7.194233   1.766394   0.000000
    31  H    5.579748   5.573084   5.974484   1.755902   1.771797
    32  H    8.102397   7.372331   8.408934   2.282804   3.056684
    33  H    8.379427   7.445140   8.760097   3.845331   4.226127
    34  H    8.735247   7.560647   8.625935   4.050738   5.256850
    35  H    7.215766   6.133048   7.030220   2.960193   4.299622
    36  H    7.378365   6.070497   7.309115   4.257947   5.141891
    37  C    4.578140   4.719410   5.790416   4.151765   2.891641
    38  C    4.036397   4.553074   5.571321   5.594744   4.307600
    39  C    4.779075   5.209405   6.389002   6.660344   5.328652
    40  H    5.491075   5.431702   6.676139   4.309690   3.018400
    41  H    5.068253   5.422716   6.247220   3.843679   2.332153
    42  H    3.395813   4.301339   5.012047   5.918822   4.706121
    43  H    4.841809   5.486308   6.547111   7.653279   6.316513
    44  H    5.615476   5.776710   7.126148   6.719082   5.400695
                   31         32         33         34         35
    31  H    0.000000
    32  H    3.855976   0.000000
    33  H    5.150749   1.758159   0.000000
    34  H    5.480419   2.495708   2.410072   0.000000
    35  H    4.063237   2.488380   3.052204   1.763629   0.000000
    36  H    5.240738   3.072477   2.518475   1.769351   1.776053
    37  C    3.383108   4.855208   5.119496   6.503381   5.459436
    38  C    4.591404   6.340954   6.458611   7.857955   6.776632
    39  C    5.832580   7.073500   6.898949   8.518116   7.621946
    40  H    3.963862   4.503139   4.502868   6.213544   5.447835
    41  H    2.910573   4.889019   5.467507   6.809894   5.726726
    42  H    4.640848   6.982683   7.272718   8.463469   7.215304
    43  H    6.702269   8.147125   7.958575   9.537698   8.597661
    44  H    6.161997   6.782466   6.389909   8.202111   7.516654
                   36         37         38         39         40
    36  H    0.000000
    37  C    5.577732   0.000000
    38  C    6.755419   1.509062   0.000000
    39  C    7.327273   2.519400   1.338990   0.000000
    40  H    5.339439   1.094991   2.133221   2.624790   0.000000
    41  H    6.125735   1.097372   2.097802   3.191050   1.757709
    42  H    7.362204   2.220620   1.088847   2.097451   3.089538
    43  H    8.281369   3.504743   2.111249   1.086052   3.706160
    44  H    7.039073   2.784907   2.125097   1.086104   2.439481
                   41         42         43         44
    41  H    0.000000
    42  H    2.495838   0.000000
    43  H    4.085973   2.424125   0.000000
    44  H    3.531740   3.079713   1.854486   0.000000
 Stoichiometry    C14H26O3Si
 Framework group  C1[X(C14H26O3Si)]
 Deg. of freedom   126
 Full point group                 C1      NOp   1
 Largest Abelian subgroup         C1      NOp   1
 Largest concise Abelian subgroup C1      NOp   1
                         Standard orientation:                         
 ---------------------------------------------------------------------
 Center     Atomic      Atomic             Coordinates (Angstroms)
 Number     Number       Type             X           Y           Z
 ---------------------------------------------------------------------
      1          6           0        2.357444   -0.438875    0.492297
      2          6           0        0.883928   -0.808475    0.739256
      3          6           0       -0.043607    0.399732    0.418285
      4          6           0        0.235914    0.810902   -1.031262
      5          6           0        1.678604    1.133076   -1.275596
      6          1           0        2.705236    0.224832    1.293408
      7          1           0        0.609589   -1.605190    0.040035
      8          1           0       -0.016090    0.011941   -1.736964
      9          1           0       -0.373391    1.673954   -1.321323
     10          8           0        2.582023    0.285612   -0.738555
     11          8           0        2.025088    2.034931   -2.030908
     12          6           0        3.328295   -1.635015    0.486603
     13          6           0        3.052986   -2.664864   -0.601978
     14          6           0        0.677435   -1.385293    2.146891
     15          8           0       -1.416312    0.036311    0.689050
     16         14           0       -2.515152   -0.760593   -0.285771
     17          6           0       -3.131310    0.337518   -1.680421
     18          6           0       -1.839236   -2.352813   -1.011821
     19          6           0       -4.021023   -1.224608    0.762256
     20          1           0       -1.016736   -2.157630   -1.705085
     21          1           0       -1.474455   -3.013922   -0.220156
     22          1           0       -2.622353   -2.883512   -1.561865
     23          1           0       -4.766945   -1.741965    0.152060
     24          1           0       -3.723324   -1.884042    1.582611
     25          1           0       -4.479481   -0.326703    1.186517
     26          1           0       -3.472315    1.300007   -1.287814
     27          1           0       -2.345594    0.525028   -2.416833
     28          1           0       -3.970315   -0.137525   -2.197802
     29          1           0        1.203183   -2.338916    2.258249
     30          1           0        1.053705   -0.707956    2.919894
     31          1           0       -0.378791   -1.582847    2.352633
     32          1           0        3.332800   -2.131261    1.462758
     33          1           0        4.344362   -1.252322    0.324631
     34          1           0        3.849199   -3.416459   -0.613334
     35          1           0        2.109948   -3.190656   -0.427837
     36          1           0        3.015175   -2.201413   -1.592452
     37          6           0        0.229876    1.602286    1.388334
     38          6           0       -0.600561    2.829144    1.101175
     39          6           0       -0.095253    4.012656    0.731231
     40          1           0        1.288911    1.880569    1.385306
     41          1           0       -0.012811    1.303928    2.416104
     42          1           0       -1.678129    2.725554    1.218231
     43          1           0       -0.748150    4.859778    0.542504
     44          1           0        0.971538    4.167978    0.599112
 ---------------------------------------------------------------------
 Rotational constants (GHZ):      0.4406716      0.3105581      0.2437844
 Standard basis: 6-311G(d) (5D, 7F)
 There are   428 symmetry adapted cartesian basis functions of A   symmetry.
 There are   410 symmetry adapted basis functions of A   symmetry.
   410 basis functions,   720 primitive gaussians,   428 cartesian basis functions
    74 alpha electrons       74 beta electrons
       nuclear repulsion energy      1640.9671556774 Hartrees.
 NAtoms=   44 NActive=   44 NUniq=   44 SFac= 1.00D+00 NAtFMM=   60 NAOKFM=F Big=F
 Integral buffers will be    131072 words long.
 Raffenetti 2 integral format.
 Two-electron integral symmetry is turned on.
 ------------------------------------------------------------------------------
 Polarizable Continuum Model (PCM)
 =================================
 Model                : PCM (using non-symmetric T matrix).
 Atomic radii         : UFF (Universal Force Field).
 Polarization charges : Total charges.
 Charge compensation  : None.
 Solution method      : On-the-fly selection.
 Cavity type          : Scaled VdW (van der Waals Surface) (Alpha=1.100).
 Cavity algorithm     : GePol (No added spheres)
                        Default sphere list used, NSphG=   44.
                        Lebedev-Laikov grids with approx.  5.0 points / Ang**2.
                        Smoothing algorithm: Karplus/York (Gamma=1.0000).
                        Polarization charges: spherical gaussians, with
                                              point-specific exponents (IZeta= 3).
                        Self-potential: point-specific (ISelfS= 7).
                        Self-field    : sphere-specific E.n sum rule (ISelfD= 2).
 Solvent              : Chloroform, Eps=   4.711300 Eps(inf)=   2.090627
 ------------------------------------------------------------------------------
 One-electron integrals computed using PRISM.
 NBasis=   410 RedAO= T EigKep=  1.14D-03  NBF=   410
 NBsUse=   410 1.00D-06 EigRej= -1.00D+00 NBFU=   410
 ExpMin= 6.54D-02 ExpMax= 6.94D+04 ExpMxC= 2.33D+03 IAcc=2 IRadAn=         4 AccDes= 0.00D+00
 Harris functional with IExCor=  908 and IRadAn=       4 diagonalized for initial guess.
 HarFok:  IExCor=  908 AccDes= 0.00D+00 IRadAn=         4 IDoV= 1 UseB2=F ITyADJ=14
 ICtDFT=  3500011 ScaDFX=  1.000000  1.000000  1.000000  1.000000
 FoFCou: FMM=F IPFlag=           0 FMFlag=      100000 FMFlg1=           0
         NFxFlg=           0 DoJE=T BraDBF=F KetDBF=T FulRan=T
         wScrn=  0.000000 ICntrl=     500 IOpCl=  0 I1Cent=   200000004 NGrid=           0
         NMat0=    1 NMatS0=      1 NMatT0=    0 NMatD0=    1 NMtDS0=    0 NMtDT0=    0
 Petite list used in FoFCou.
 Requested convergence on RMS density matrix=1.00D-08 within 128 cycles.
 Requested convergence on MAX density matrix=1.00D-06.
 Requested convergence on             energy=1.00D-06.
 No special actions if energy rises.
 Inv3:  Mode=1 IEnd=    25038963.
 Iteration    1 A*A^-1 deviation from unit magnitude is 1.03D-14 for   2446.
 Iteration    1 A*A^-1 deviation from orthogonality  is 8.66D-15 for   2349    935.
 Iteration    1 A^-1*A deviation from unit magnitude is 8.66D-15 for   2446.
 Iteration    1 A^-1*A deviation from orthogonality  is 2.76D-11 for   2359   2278.
 Error on total polarization charges =  0.01119
 SCF Done:  E(RmPW1PW91) =  -1064.37727332     A.U. after   13 cycles
            NFock= 13  Conv=0.35D-08     -V/T= 2.0036
 DoSCS=F DFT=T ScalE2(SS,OS)=  1.000000  1.000000
 Range of M.O.s used for correlation:     1   410
 NBasis=   410 NAE=    74 NBE=    74 NFC=     0 NFV=     0
 NROrb=    410 NOA=    74 NOB=    74 NVA=   336 NVB=   336
 NEqPCM:  Using equilibrium solvation (IEInf=0, Eps=   4.7113, EpsInf=   2.0906)
          Differentiating once with respect to magnetic field using GIAOs.
          Electric field/nuclear overlap derivatives assumed to be zero.
 FoFJK:  IHMeth= 1 ICntrl=    6127 DoSepK=F KAlg= 0 I1Cent=   0 FoldK=F
 IRaf=         1 NMat=   1 IRICut=       1 DoRegI=T DoRafI=F ISym2E= 0.
          There are     3 degrees of freedom in the 1st order CPHF.  IDoFFX=0 NUNeed=     3.
      3 vectors produced by pass  0 Test12= 8.29D-13 3.33D-08 XBig12= 3.50D+01 1.18D+00.
 AX will form     3 AO Fock derivatives at one time.
      3 vectors produced by pass  1 Test12= 8.29D-13 3.33D-08 XBig12= 6.92D-02 1.04D-01.
      3 vectors produced by pass  2 Test12= 8.29D-13 3.33D-08 XBig12= 7.28D-04 9.77D-03.
      3 vectors produced by pass  3 Test12= 8.29D-13 3.33D-08 XBig12= 2.78D-06 4.56D-04.
      3 vectors produced by pass  4 Test12= 8.29D-13 3.33D-08 XBig12= 1.11D-08 3.63D-05.
      3 vectors produced by pass  5 Test12= 8.29D-13 3.33D-08 XBig12= 4.39D-11 1.51D-06.
      2 vectors produced by pass  6 Test12= 8.29D-13 3.33D-08 XBig12= 1.30D-13 6.76D-08.
 InvSVY:  IOpt=1 It=  1 EMax= 8.88D-16
 Solved reduced A of dimension    20 with     3 vectors.
 Calculating GIAO nuclear magnetic shielding tensors.
 SCF GIAO Magnetic shielding tensor (ppm):
      1  C    Isotropic =   104.7154   Anisotropy =    59.1305
   XX=    94.8291   YX=     3.8278   ZX=   -17.1036
   XY=    -1.3975   YY=    91.4310   ZY=   -23.9053
   XZ=   -10.8028   YZ=   -26.3168   ZZ=   127.8862
   Eigenvalues:    76.8315    93.1790   144.1358
      2  C    Isotropic =   145.8857   Anisotropy =    19.4001
   XX=   150.6458   YX=    -9.1325   ZX=     1.6601
   XY=   -11.0903   YY=   144.6874   ZY=     2.2273
   XZ=     2.4127   YZ=    -7.3755   ZZ=   142.3240
   Eigenvalues:   136.9800   141.8581   158.8191
      3  C    Isotropic =   104.6361   Anisotropy =    56.9277
   XX=   138.5159   YX=    15.4245   ZX=    -0.6629
   XY=    12.1191   YY=    95.8832   ZY=    -0.1525
   XZ=     3.2387   YZ=    -2.9070   ZZ=    79.5093
   Eigenvalues:    79.2326    92.0879   142.5879
      4  C    Isotropic =   143.3684   Anisotropy =    27.7882
   XX=   155.6042   YX=     6.7359   ZX=    -8.9263
   XY=     5.7924   YY=   134.6469   ZY=   -11.2626
   XZ=    -7.5264   YZ=    -3.1398   ZZ=   139.8542
   Eigenvalues:   129.5846   138.6268   161.8939
      5  C    Isotropic =     8.7693   Anisotropy =    95.3955
   XX=   -63.1781   YX=    37.4665   ZX=   -23.2637
   XY=    51.4473   YY=    36.8839   ZY=    24.3528
   XZ=   -29.4016   YZ=    27.9162   ZZ=    52.6020
   Eigenvalues:   -88.3246    42.2661    72.3662
      6  H    Isotropic =    27.9098   Anisotropy =     2.5869
   XX=    28.0218   YX=    -0.1028   ZX=     1.1419
   XY=    -0.2597   YY=    27.7535   ZY=     0.7874
   XZ=     1.4194   YZ=     1.7222   ZZ=    27.9540
   Eigenvalues:    26.0295    28.0654    29.6343
      7  H    Isotropic =    29.8724   Anisotropy =     4.3052
   XX=    31.6994   YX=    -0.5370   ZX=     1.8037
   XY=    -0.7827   YY=    29.7580   ZY=     3.1846
   XZ=     1.9494   YZ=     2.7100   ZZ=    28.1599
   Eigenvalues:    25.3378    31.5369    32.7426
      8  H    Isotropic =    29.7424   Anisotropy =     4.6634
   XX=    30.8083   YX=     2.1605   ZX=     1.1201
   XY=     1.9553   YY=    28.0766   ZY=     0.4246
   XZ=     1.4455   YZ=     1.2821   ZZ=    30.3424
   Eigenvalues:    26.9652    29.4107    32.8514
      9  H    Isotropic =    29.1120   Anisotropy =     3.5026
   XX=    28.7807   YX=    -1.1559   ZX=     1.0311
   XY=     0.2497   YY=    30.1693   ZY=    -1.9549
   XZ=    -0.2741   YZ=    -1.7171   ZZ=    28.3861
   Eigenvalues:    27.2323    28.6567    31.4471
     10  O    Isotropic =   106.4398   Anisotropy =   177.2352
   XX=   164.7254   YX=   -63.7560   ZX=    62.0266
   XY=   -82.5920   YY=    93.4506   ZY=   168.6517
   XZ=    66.3109   YZ=   113.8891   ZZ=    61.1433
   Eigenvalues:  -100.1767   194.8994   224.5966
     11  O    Isotropic =  -135.7617   Anisotropy =   589.2742
   XX=  -245.2861   YX=    60.8956   ZX=   -22.1419
   XY=    55.9984   YY=  -165.4490   ZY=   343.5784
   XZ=   -19.8568   YZ=   309.6338   ZZ=     3.4500
   Eigenvalues:  -436.6324  -227.7404   257.0878
     12  C    Isotropic =   160.2245   Anisotropy =    22.4421
   XX=   160.4192   YX=   -10.2914   ZX=     0.4953
   XY=   -13.1503   YY=   165.7391   ZY=    -2.7755
   XZ=    -1.1382   YZ=     5.7089   ZZ=   154.5151
   Eigenvalues:   150.9345   154.5531   175.1859
     13  C    Isotropic =   180.8417   Anisotropy =    11.1248
   XX=   180.0889   YX=    -0.8274   ZX=     2.6810
   XY=    -0.7098   YY=   181.2371   ZY=     6.6382
   XZ=     3.1525   YZ=     6.8437   ZZ=   181.1992
   Eigenvalues:   173.4307   180.8362   188.2582
     14  C    Isotropic =   177.0296   Anisotropy =    19.1023
   XX=   171.4279   YX=    -0.9170   ZX=    -0.4109
   XY=     1.0141   YY=   171.3086   ZY=    -4.6867
   XZ=    -3.9764   YZ=    -4.5147   ZZ=   188.3523
   Eigenvalues:   169.9524   171.3719   189.7645
     15  O    Isotropic =   246.7054   Anisotropy =    18.3050
   XX=   234.5471   YX=     3.1545   ZX=   -15.4914
   XY=    12.1908   YY=   247.5583   ZY=    -7.2222
   XZ=     6.1686   YZ=     9.6954   ZZ=   258.0108
   Eigenvalues:   230.1817   251.0258   258.9087
     16  Si   Isotropic =   335.4840   Anisotropy =    51.7663
   XX=   340.6074   YX=    22.3637   ZX=    24.2215
   XY=    17.2369   YY=   326.9353   ZY=    15.5481
   XZ=    10.6007   YZ=    10.6794   ZZ=   338.9092
   Eigenvalues:   312.8019   323.6552   369.9948
     17  C    Isotropic =   185.0387   Anisotropy =    11.2465
   XX=   183.1868   YX=     1.0144   ZX=     6.7835
   XY=     3.6032   YY=   186.4970   ZY=    -4.8420
   XZ=     5.7813   YZ=    -6.2021   ZZ=   185.4322
   Eigenvalues:   175.2910   187.2887   192.5364
     18  C    Isotropic =   185.4298   Anisotropy =     7.6644
   XX=   188.9800   YX=    -0.6508   ZX=     2.4062
   XY=    -4.1287   YY=   186.4880   ZY=     4.8879
   XZ=     2.6856   YZ=     5.8581   ZZ=   180.8215
   Eigenvalues:   176.6332   189.1168   190.5394
     19  C    Isotropic =   186.4309   Anisotropy =    13.2613
   XX=   189.2825   YX=     4.8542   ZX=    -5.5646
   XY=     5.5912   YY=   178.1567   ZY=     1.2362
   XZ=    -3.0169   YZ=     2.0871   ZZ=   191.8535
   Eigenvalues:   175.4662   188.5546   195.2718
     20  H    Isotropic =    32.0860   Anisotropy =     6.2186
   XX=    34.4392   YX=     1.5275   ZX=    -2.8501
   XY=     0.3269   YY=    30.0338   ZY=     1.5055
   XZ=    -2.7948   YZ=     1.1633   ZZ=    31.7851
   Eigenvalues:    28.3896    31.6366    36.2318
     21  H    Isotropic =    31.9485   Anisotropy =     6.7953
   XX=    31.0404   YX=    -1.0903   ZX=     2.6934
   XY=    -1.2314   YY=    34.0086   ZY=    -3.0440
   XZ=     2.2395   YZ=    -2.2722   ZZ=    30.7965
   Eigenvalues:    28.1661    31.2008    36.4787
     22  H    Isotropic =    32.1839   Anisotropy =    10.6651
   XX=    33.0245   YX=     3.7423   ZX=     3.2922
   XY=     3.1696   YY=    32.6971   ZY=     3.6167
   XZ=     3.2672   YZ=     4.0213   ZZ=    30.8302
   Eigenvalues:    27.7508    29.5070    39.2940
     23  H    Isotropic =    32.3543   Anisotropy =     9.6947
   XX=    35.8590   YX=     3.8294   ZX=     1.9183
   XY=     3.9771   YY=    30.6193   ZY=     1.4351
   XZ=     2.4885   YZ=     1.7166   ZZ=    30.5847
   Eigenvalues:    28.4473    29.7982    38.8175
     24  H    Isotropic =    31.9964   Anisotropy =     8.3871
   XX=    30.8795   YX=     0.2924   ZX=    -0.7782
   XY=     0.0232   YY=    30.9709   ZY=    -4.5215
   XZ=     0.0496   YZ=    -4.9856   ZZ=    34.1388
   Eigenvalues:    27.5421    30.8592    37.5878
     25  H    Isotropic =    31.9483   Anisotropy =     9.0130
   XX=    32.8928   YX=    -3.0478   ZX=    -3.3605
   XY=    -2.5926   YY=    32.6567   ZY=     2.1247
   XZ=    -3.3966   YZ=     3.0942   ZZ=    30.2955
   Eigenvalues:    27.8659    30.0221    37.9570
     26  H    Isotropic =    31.9359   Anisotropy =     8.1980
   XX=    31.0785   YX=    -3.2512   ZX=     0.4742
   XY=    -3.0110   YY=    35.8113   ZY=     1.3501
   XZ=     0.7546   YZ=     0.4114   ZZ=    28.9180
   Eigenvalues:    28.2107    30.1958    37.4013
     27  H    Isotropic =    32.0932   Anisotropy =     6.2210
   XX=    33.8497   YX=     0.7194   ZX=    -1.0980
   XY=     1.6948   YY=    28.8022   ZY=    -2.5238
   XZ=    -2.0307   YZ=    -2.4853   ZZ=    33.6278
   Eigenvalues:    27.6931    32.3460    36.2405
     28  H    Isotropic =    32.3208   Anisotropy =    10.3424
   XX=    35.0866   YX=     1.9155   ZX=     4.8492
   XY=     2.3901   YY=    29.6512   ZY=     0.7957
   XZ=     4.9297   YZ=     0.4749   ZZ=    32.2245
   Eigenvalues:    28.0469    29.6998    39.2157
     29  H    Isotropic =    31.3172   Anisotropy =     9.3516
   XX=    29.6870   YX=    -3.5958   ZX=    -0.4729
   XY=    -3.4783   YY=    34.0659   ZY=    -3.7273
   XZ=    -0.4001   YZ=    -4.1184   ZZ=    30.1987
   Eigenvalues:    26.0387    30.3614    37.5516
     30  H    Isotropic =    31.5151   Anisotropy =     9.0114
   XX=    28.0948   YX=     0.0203   ZX=     2.4290
   XY=     0.1638   YY=    29.9282   ZY=     1.4890
   XZ=     2.1998   YZ=     2.0897   ZZ=    36.5222
   Eigenvalues:    27.4427    29.5798    37.5227
     31  H    Isotropic =    30.5123   Anisotropy =     7.4895
   XX=    34.2328   YX=     1.3937   ZX=    -0.8976
   XY=     1.5406   YY=    27.3616   ZY=    -3.6903
   XZ=    -1.8109   YZ=    -3.5004   ZZ=    29.9424
   Eigenvalues:    24.8123    31.2193    35.5053
     32  H    Isotropic =    30.3037   Anisotropy =     7.2543
   XX=    29.5634   YX=    -2.8768   ZX=     1.2798
   XY=    -2.8379   YY=    28.2903   ZY=    -2.3477
   XZ=     1.3933   YZ=    -2.4439   ZZ=    33.0574
   Eigenvalues:    25.8262    29.9451    35.1399
     33  H    Isotropic =    30.0664   Anisotropy =     9.8979
   XX=    36.3571   YX=     1.6651   ZX=     0.6067
   XY=     1.0186   YY=    28.5354   ZY=     1.6628
   XZ=     0.8353   YZ=     1.4510   ZZ=    25.3067
   Eigenvalues:    24.6758    28.8584    36.6650
     34  H    Isotropic =    31.1803   Anisotropy =    11.9203
   XX=    32.2503   YX=    -5.3803   ZX=    -0.5964
   XY=    -5.7947   YY=    33.7819   ZY=     2.2504
   XZ=    -0.8575   YZ=     2.6658   ZZ=    27.5086
   Eigenvalues:    26.1468    28.2669    39.1271
     35  H    Isotropic =    31.2266   Anisotropy =     6.7052
   XX=    33.9169   YX=     1.9447   ZX=    -1.3270
   XY=     2.4261   YY=    32.8802   ZY=     2.0192
   XZ=    -0.4788   YZ=     2.3088   ZZ=    26.8828
   Eigenvalues:    25.8758    32.1072    35.6968
     36  H    Isotropic =    31.1066   Anisotropy =     7.1744
   XX=    27.6602   YX=    -1.8372   ZX=    -1.0589
   XY=    -1.3541   YY=    29.9434   ZY=     0.2619
   XZ=    -1.1459   YZ=     0.0721   ZZ=    35.7161
   Eigenvalues:    26.7476    30.6826    35.8895
     37  C    Isotropic =   144.2423   Anisotropy =    18.0366
   XX=   141.5976   YX=    -5.9996   ZX=     5.1273
   XY=     3.1219   YY=   152.1611   ZY=     8.5107
   XZ=     7.8923   YZ=     7.8827   ZZ=   138.9682
   Eigenvalues:   131.0222   145.4380   156.2667
     38  C    Isotropic =    44.4084   Anisotropy =   179.0942
   XX=   -67.8368   YX=    39.1571   ZX=     9.8780
   XY=    42.0081   YY=    47.1560   ZY=    30.0635
   XZ=     7.2850   YZ=    31.7205   ZZ=   153.9058
   Eigenvalues:   -80.7224    50.1429   163.8045
     39  C    Isotropic =    63.0446   Anisotropy =   142.8396
   XX=   -33.5866   YX=    50.9233   ZX=     0.6677
   XY=    48.3175   YY=    71.2381   ZY=    20.5783
   XZ=     0.0599   YZ=    24.1190   ZZ=   151.4821
   Eigenvalues:   -53.6605    84.5232   158.2709
     40  H    Isotropic =    30.1450   Anisotropy =     6.4027
   XX=    31.2154   YX=     1.6929   ZX=     1.3711
   XY=     0.4336   YY=    32.8940   ZY=     2.7500
   XZ=     1.8415   YZ=     2.0091   ZZ=    26.3255
   Eigenvalues:    25.2989    30.7225    34.4134
     41  H    Isotropic =    29.4524   Anisotropy =     4.4123
   XX=    25.4043   YX=    -1.5831   ZX=     0.3303
   XY=    -1.4862   YY=    30.6698   ZY=     1.2648
   XZ=    -0.4218   YZ=    -0.5020   ZZ=    32.2832
   Eigenvalues:    24.9893    30.9741    32.3939
     42  H    Isotropic =    25.6717   Anisotropy =     6.9837
   XX=    23.1660   YX=    -1.2662   ZX=    -0.3770
   XY=     0.2013   YY=    30.0945   ZY=     0.7268
   XZ=    -0.9732   YZ=     1.4171   ZZ=    23.7547
   Eigenvalues:    22.7207    23.9670    30.3275
     43  H    Isotropic =    26.6608   Anisotropy =     6.9165
   XX=    23.3553   YX=     2.1360   ZX=    -0.4347
   XY=    -0.4143   YY=    31.1454   ZY=    -0.4670
   XZ=    -0.0221   YZ=    -0.3546   ZZ=    25.4818
   Eigenvalues:    23.2462    25.4644    31.2718
     44  H    Isotropic =    26.7871   Anisotropy =     7.4487
   XX=    23.4451   YX=     1.2306   ZX=     0.0587
   XY=     3.4878   YY=    31.0819   ZY=     0.1509
   XZ=    -1.1306   YZ=     0.3168   ZZ=    25.8344
   Eigenvalues:    22.6689    25.9395    31.7529
 End of Minotr F.D. properties file   721 does not exist.
 End of Minotr F.D. properties file   722 does not exist.
 End of Minotr F.D. properties file   788 does not exist.

 **********************************************************************

            Population analysis using the SCF density.

 **********************************************************************

 Orbital symmetries:
       Occupied  (A) (A) (A) (A) (A) (A) (A) (A) (A) (A) (A) (A)
                 (A) (A) (A) (A) (A) (A) (A) (A) (A) (A) (A) (A)
                 (A) (A) (A) (A) (A) (A) (A) (A) (A) (A) (A) (A)
                 (A) (A) (A) (A) (A) (A) (A) (A) (A) (A) (A) (A)
                 (A) (A) (A) (A) (A) (A) (A) (A) (A) (A) (A) (A)
                 (A) (A) (A) (A) (A) (A) (A) (A) (A) (A) (A) (A)
                 (A) (A)
       Virtual   (A) (A) (A) (A) (A) (A) (A) (A) (A) (A) (A) (A)
                 (A) (A) (A) (A) (A) (A) (A) (A) (A) (A) (A) (A)
                 (A) (A) (A) (A) (A) (A) (A) (A) (A) (A) (A) (A)
                 (A) (A) (A) (A) (A) (A) (A) (A) (A) (A) (A) (A)
                 (A) (A) (A) (A) (A) (A) (A) (A) (A) (A) (A) (A)
                 (A) (A) (A) (A) (A) (A) (A) (A) (A) (A) (A) (A)
                 (A) (A) (A) (A) (A) (A) (A) (A) (A) (A) (A) (A)
                 (A) (A) (A) (A) (A) (A) (A) (A) (A) (A) (A) (A)
                 (A) (A) (A) (A) (A) (A) (A) (A) (A) (A) (A) (A)
                 (A) (A) (A) (A) (A) (A) (A) (A) (A) (A) (A) (A)
                 (A) (A) (A) (A) (A) (A) (A) (A) (A) (A) (A) (A)
                 (A) (A) (A) (A) (A) (A) (A) (A) (A) (A) (A) (A)
                 (A) (A) (A) (A) (A) (A) (A) (A) (A) (A) (A) (A)
                 (A) (A) (A) (A) (A) (A) (A) (A) (A) (A) (A) (A)
                 (A) (A) (A) (A) (A) (A) (A) (A) (A) (A) (A) (A)
                 (A) (A) (A) (A) (A) (A) (A) (A) (A) (A) (A) (A)
                 (A) (A) (A) (A) (A) (A) (A) (A) (A) (A) (A) (A)
                 (A) (A) (A) (A) (A) (A) (A) (A) (A) (A) (A) (A)
                 (A) (A) (A) (A) (A) (A) (A) (A) (A) (A) (A) (A)
                 (A) (A) (A) (A) (A) (A) (A) (A) (A) (A) (A) (A)
                 (A) (A) (A) (A) (A) (A) (A) (A) (A) (A) (A) (A)
                 (A) (A) (A) (A) (A) (A) (A) (A) (A) (A) (A) (A)
                 (A) (A) (A) (A) (A) (A) (A) (A) (A) (A) (A) (A)
                 (A) (A) (A) (A) (A) (A) (A) (A) (A) (A) (A) (A)
                 (A) (A) (A) (A) (A) (A) (A) (A) (A) (A) (A) (A)
                 (A) (A) (A) (A) (A) (A) (A) (A) (A) (A) (A) (A)
                 (A) (A) (A) (A) (A) (A) (A) (A) (A) (A) (A) (A)
                 (A) (A) (A) (A) (A) (A) (A) (A) (A) (A) (A) (A)
 The electronic state is 1-A.
 Alpha  occ. eigenvalues --  -66.27032 -19.26329 -19.21387 -19.20257 -10.37515
 Alpha  occ. eigenvalues --  -10.32273 -10.30927 -10.25483 -10.25267 -10.24257
 Alpha  occ. eigenvalues --  -10.24007 -10.23975 -10.22874 -10.22656 -10.22258
 Alpha  occ. eigenvalues --  -10.20931 -10.20648 -10.20522  -5.32867  -3.66717
 Alpha  occ. eigenvalues --   -3.66482  -3.66446  -1.13547  -1.05051  -1.04190
 Alpha  occ. eigenvalues --   -0.86138  -0.83532  -0.80573  -0.77950  -0.74233
 Alpha  occ. eigenvalues --   -0.72819  -0.72114  -0.70424  -0.70003  -0.67000
 Alpha  occ. eigenvalues --   -0.63193  -0.62531  -0.58601  -0.55962  -0.53882
 Alpha  occ. eigenvalues --   -0.52786  -0.50718  -0.49644  -0.48686  -0.47706
 Alpha  occ. eigenvalues --   -0.46356  -0.45344  -0.44746  -0.44453  -0.43580
 Alpha  occ. eigenvalues --   -0.43179  -0.42694  -0.42474  -0.41803  -0.41301
 Alpha  occ. eigenvalues --   -0.40850  -0.40512  -0.39932  -0.39690  -0.38939
 Alpha  occ. eigenvalues --   -0.38298  -0.37745  -0.37208  -0.36831  -0.36155
 Alpha  occ. eigenvalues --   -0.35835  -0.34330  -0.33632  -0.32407  -0.31360
 Alpha  occ. eigenvalues --   -0.30390  -0.29139  -0.28518  -0.27171
 Alpha virt. eigenvalues --   -0.00661   0.01210   0.03742   0.05500   0.05664
 Alpha virt. eigenvalues --    0.06468   0.07646   0.07960   0.08365   0.08749
 Alpha virt. eigenvalues --    0.09728   0.10296   0.10339   0.11024   0.11202
 Alpha virt. eigenvalues --    0.11724   0.12065   0.13089   0.13378   0.13586
 Alpha virt. eigenvalues --    0.13898   0.14764   0.14839   0.15242   0.15832
 Alpha virt. eigenvalues --    0.16514   0.16664   0.17367   0.18303   0.18497
 Alpha virt. eigenvalues --    0.18850   0.18895   0.19522   0.20635   0.21032
 Alpha virt. eigenvalues --    0.21974   0.22714   0.23410   0.24185   0.24673
 Alpha virt. eigenvalues --    0.25743   0.26011   0.26689   0.27230   0.27995
 Alpha virt. eigenvalues --    0.28720   0.29506   0.30333   0.31425   0.32535
 Alpha virt. eigenvalues --    0.33657   0.34138   0.34474   0.35168   0.35937
 Alpha virt. eigenvalues --    0.36761   0.37451   0.38298   0.40041   0.40359
 Alpha virt. eigenvalues --    0.41236   0.41532   0.42738   0.43832   0.44092
 Alpha virt. eigenvalues --    0.44867   0.45323   0.46668   0.47407   0.48392
 Alpha virt. eigenvalues --    0.49551   0.50336   0.50930   0.51809   0.51961
 Alpha virt. eigenvalues --    0.53658   0.54177   0.54888   0.56277   0.56647
 Alpha virt. eigenvalues --    0.56877   0.57617   0.57816   0.58278   0.58907
 Alpha virt. eigenvalues --    0.59772   0.59872   0.60429   0.60841   0.61093
 Alpha virt. eigenvalues --    0.61550   0.61894   0.61977   0.62483   0.63158
 Alpha virt. eigenvalues --    0.63721   0.63906   0.64413   0.64841   0.65353
 Alpha virt. eigenvalues --    0.66676   0.66926   0.67255   0.68012   0.68672
 Alpha virt. eigenvalues --    0.69343   0.69880   0.69940   0.70458   0.71516
 Alpha virt. eigenvalues --    0.72161   0.72623   0.73847   0.74299   0.74994
 Alpha virt. eigenvalues --    0.76963   0.77673   0.78583   0.80007   0.81587
 Alpha virt. eigenvalues --    0.83186   0.84141   0.84804   0.88124   0.88614
 Alpha virt. eigenvalues --    0.89721   0.90416   0.91485   0.92863   0.95401
 Alpha virt. eigenvalues --    0.95581   0.96691   0.97519   0.99404   1.00946
 Alpha virt. eigenvalues --    1.02624   1.03896   1.05290   1.09258   1.10453
 Alpha virt. eigenvalues --    1.11806   1.13856   1.16080   1.16619   1.18277
 Alpha virt. eigenvalues --    1.19328   1.23400   1.26040   1.26506   1.27569
 Alpha virt. eigenvalues --    1.29090   1.29570   1.30199   1.32739   1.33563
 Alpha virt. eigenvalues --    1.34677   1.37864   1.38939   1.39389   1.41109
 Alpha virt. eigenvalues --    1.42589   1.43912   1.46471   1.47118   1.49261
 Alpha virt. eigenvalues --    1.49927   1.50869   1.51854   1.52261   1.53871
 Alpha virt. eigenvalues --    1.54566   1.55803   1.56692   1.57016   1.58537
 Alpha virt. eigenvalues --    1.58846   1.59732   1.59834   1.60552   1.60721
 Alpha virt. eigenvalues --    1.61505   1.62208   1.62785   1.63291   1.64267
 Alpha virt. eigenvalues --    1.65830   1.66162   1.66846   1.68220   1.68877
 Alpha virt. eigenvalues --    1.69652   1.70722   1.72177   1.73294   1.74296
 Alpha virt. eigenvalues --    1.75782   1.77652   1.79582   1.80208   1.80738
 Alpha virt. eigenvalues --    1.81446   1.82123   1.83607   1.85625   1.87613
 Alpha virt. eigenvalues --    1.91388   1.92336   1.93627   1.95767   1.97470
 Alpha virt. eigenvalues --    1.99950   2.02743   2.05691   2.07312   2.12696
 Alpha virt. eigenvalues --    2.14898   2.17281   2.19639   2.22405   2.23818
 Alpha virt. eigenvalues --    2.27868   2.31483   2.33537   2.36613   2.39805
 Alpha virt. eigenvalues --    2.40633   2.41633   2.42298   2.42946   2.43868
 Alpha virt. eigenvalues --    2.44338   2.45345   2.45992   2.46995   2.47848
 Alpha virt. eigenvalues --    2.48071   2.49295   2.49691   2.50017   2.51145
 Alpha virt. eigenvalues --    2.52546   2.54014   2.57337   2.59164   2.61609
 Alpha virt. eigenvalues --    2.63097   2.63607   2.69724   2.72975   2.80480
 Alpha virt. eigenvalues --    2.82322   2.87670   2.88272   2.89588   2.91865
 Alpha virt. eigenvalues --    2.92125   2.93959   2.94687   2.95496   2.96196
 Alpha virt. eigenvalues --    2.99015   3.01287   3.02363   3.04157   3.08156
 Alpha virt. eigenvalues --    3.10320   3.11078   3.12425   3.13877   3.14850
 Alpha virt. eigenvalues --    3.15544   3.17384   3.18780   3.20453   3.21612
 Alpha virt. eigenvalues --    3.22554   3.22678   3.24131   3.25185   3.25956
 Alpha virt. eigenvalues --    3.26263   3.28615   3.29010   3.30668   3.31382
 Alpha virt. eigenvalues --    3.33168   3.34460   3.35234   3.38051   3.41141
 Alpha virt. eigenvalues --    3.43129   3.50713   3.56192   3.60010   3.63271
 Alpha virt. eigenvalues --    3.78821   3.88385   3.90715   3.97680   4.04453
 Alpha virt. eigenvalues --    4.08476   4.10624   4.19643   4.20712   4.24377
 Alpha virt. eigenvalues --    4.94800   4.99618   5.02189   5.09006   5.14365
 Alpha virt. eigenvalues --    5.23282   5.49581   5.54933   5.77876   5.85340
 Alpha virt. eigenvalues --   11.52242  11.54176  11.59546  23.42272  23.49749
 Alpha virt. eigenvalues --   23.54597  23.55363  23.57067  23.60291  23.70710
 Alpha virt. eigenvalues --   23.75941  23.77800  23.79241  23.82262  23.85920
 Alpha virt. eigenvalues --   23.89327  24.27402  49.98608  50.05548  50.11922
 Alpha virt. eigenvalues --  141.29830
          Condensed to atoms (all electrons):
               1          2          3          4          5          6
     1  C    5.189446   0.257119  -0.050014  -0.010078  -0.050044   0.404149
     2  C    0.257119   5.566584   0.311638  -0.088707  -0.011960  -0.046773
     3  C   -0.050014   0.311638   5.220092   0.230262  -0.007139  -0.017570
     4  C   -0.010078  -0.088707   0.230262   5.866320   0.234453   0.003487
     5  C   -0.050044  -0.011960  -0.007139   0.234453   4.425042  -0.002736
     6  H    0.404149  -0.046773  -0.017570   0.003487  -0.002736   0.478287
     7  H   -0.042905   0.410516  -0.055410  -0.007789   0.000704   0.006959
     8  H    0.000535  -0.005817  -0.032152   0.363959  -0.031160   0.000149
     9  H   -0.000529   0.007290  -0.033785   0.365718  -0.025941   0.000120
    10  O    0.225793  -0.038365   0.003035  -0.110130   0.332565  -0.034560
    11  O    0.001024  -0.000115   0.002302  -0.098272   0.663019   0.000346
    12  C    0.334895  -0.062563   0.010810  -0.002324   0.003091  -0.055318
    13  C   -0.073810  -0.009083  -0.001080   0.000415  -0.000316   0.008478
    14  C   -0.062926   0.294552  -0.063009   0.008107  -0.000027  -0.001088
    15  O    0.003755  -0.050741   0.227709  -0.024532   0.001729  -0.000071
    16  Si   0.002364  -0.012126  -0.043468  -0.009085   0.001492  -0.000256
    17  C    0.000008  -0.000283  -0.002123  -0.000974   0.000095   0.000001
    18  C   -0.000100  -0.001185  -0.001469  -0.001899  -0.000081  -0.000007
    19  C   -0.000001  -0.000220   0.002377  -0.000145   0.000001   0.000000
    20  H   -0.000062  -0.000873   0.000582   0.000388   0.000029  -0.000014
    21  H   -0.000049  -0.000322   0.000111   0.000321   0.000005  -0.000003
    22  H   -0.000003   0.000273  -0.000061   0.000050   0.000002   0.000000
    23  H    0.000000  -0.000001  -0.000066  -0.000001   0.000000   0.000000
    24  H   -0.000001  -0.000005  -0.000057  -0.000020   0.000000   0.000000
    25  H    0.000000  -0.000022  -0.000122  -0.000039   0.000000   0.000000
    26  H    0.000003  -0.000049   0.000598  -0.000397  -0.000033   0.000000
    27  H    0.000006  -0.000011  -0.000385   0.001618   0.000085   0.000000
    28  H    0.000000   0.000006  -0.000013   0.000127  -0.000002   0.000000
    29  H   -0.006983  -0.036742   0.007354  -0.000235   0.000007  -0.000720
    30  H   -0.003719  -0.037918  -0.009683  -0.000152   0.000008   0.005104
    31  H    0.005343  -0.030303  -0.007791   0.000456  -0.000074  -0.000122
    32  H   -0.034972  -0.006240  -0.000256   0.000090  -0.000036  -0.000069
    33  H   -0.045686   0.009327  -0.000062   0.000242  -0.000173  -0.007389
    34  H    0.008086  -0.000068   0.000007  -0.000017   0.000025  -0.000204
    35  H   -0.007724   0.003624   0.000345   0.000106  -0.000034  -0.000406
    36  H   -0.009222  -0.000119  -0.000537   0.000801  -0.000407   0.000617
    37  C   -0.000847  -0.093578   0.275343  -0.097735  -0.003910   0.006138
    38  C   -0.000655   0.009538  -0.058928  -0.014177  -0.000765   0.000154
    39  C   -0.000043   0.000028  -0.003074  -0.000639   0.000712   0.000030
    40  H    0.004438  -0.009956  -0.025177  -0.002862   0.002498   0.000127
    41  H   -0.000192  -0.006887  -0.040746   0.006658  -0.000218   0.000133
    42  H    0.000009  -0.000252  -0.001683   0.000082   0.000117  -0.000005
    43  H    0.000000   0.000018  -0.000294   0.000047   0.000010  -0.000001
    44  H   -0.000050  -0.000004  -0.000367  -0.000115   0.001014   0.000107
               7          8          9         10         11         12
     1  C   -0.042905   0.000535  -0.000529   0.225793   0.001024   0.334895
     2  C    0.410516  -0.005817   0.007290  -0.038365  -0.000115  -0.062563
     3  C   -0.055410  -0.032152  -0.033785   0.003035   0.002302   0.010810
     4  C   -0.007789   0.363959   0.365718  -0.110130  -0.098272  -0.002324
     5  C    0.000704  -0.031160  -0.025941   0.332565   0.663019   0.003091
     6  H    0.006959   0.000149   0.000120  -0.034560   0.000346  -0.055318
     7  H    0.471668   0.001383   0.000170   0.002380  -0.000017  -0.013340
     8  H    0.001383   0.420605  -0.016703   0.003440   0.001716  -0.000343
     9  H    0.000170  -0.016703   0.404266   0.004730   0.009898   0.000059
    10  O    0.002380   0.003440   0.004730   8.038828  -0.069405  -0.055231
    11  O   -0.000017   0.001716   0.009898  -0.069405   7.867313  -0.000161
    12  C   -0.013340  -0.000343   0.000059  -0.055231  -0.000161   5.332287
    13  C    0.004857   0.000266   0.000010   0.000240  -0.000001   0.285393
    14  C   -0.045951   0.000231  -0.000130   0.003343   0.000005  -0.002596
    15  O   -0.001674  -0.003793  -0.000280  -0.000034  -0.000016  -0.000068
    16  Si  -0.002845   0.003206  -0.004656  -0.000936  -0.000470  -0.000137
    17  C   -0.000314  -0.000051  -0.002177   0.000000  -0.000002   0.000000
    18  C   -0.006082   0.002471   0.000330   0.000010   0.000001  -0.000006
    19  C   -0.000150  -0.000003  -0.000037   0.000000   0.000000   0.000000
    20  H   -0.001845   0.005205   0.000029  -0.000031   0.000005   0.000017
    21  H   -0.002255  -0.000342   0.000005  -0.000003   0.000000   0.000019
    22  H    0.000738  -0.000024  -0.000007   0.000000   0.000000   0.000000
    23  H    0.000000   0.000006  -0.000002   0.000000   0.000000   0.000000
    24  H   -0.000028  -0.000005  -0.000005   0.000000   0.000000   0.000000
    25  H    0.000000   0.000000  -0.000018   0.000000   0.000000   0.000000
    26  H    0.000006   0.000019   0.000264   0.000000   0.000001   0.000000
    27  H   -0.000068   0.001185  -0.000901  -0.000004  -0.000052   0.000000
    28  H    0.000005  -0.000049   0.000209   0.000000   0.000000   0.000000
    29  H   -0.008322  -0.000030   0.000014  -0.000006   0.000000   0.001886
    30  H    0.007746  -0.000013   0.000011   0.000030   0.000001  -0.001186
    31  H   -0.004198   0.000043  -0.000029  -0.000108   0.000000   0.000085
    32  H    0.000196   0.000002  -0.000003   0.003099   0.000007   0.389241
    33  H   -0.000384  -0.000012  -0.000009   0.003472  -0.000032   0.403370
    34  H    0.000319  -0.000001   0.000000  -0.000188   0.000000  -0.035452
    35  H   -0.001997  -0.000049   0.000000  -0.000039   0.000001  -0.037848
    36  H    0.000264   0.000202  -0.000009   0.010993  -0.000106  -0.043400
    37  C    0.008647   0.006258  -0.008542  -0.003036   0.000859  -0.000514
    38  C   -0.000193   0.000043   0.007931   0.000135  -0.000470   0.000007
    39  C   -0.000008   0.000048   0.004092  -0.000049   0.000155   0.000000
    40  H   -0.000105   0.000006  -0.000268   0.001166  -0.000542   0.000816
    41  H   -0.000172  -0.000118   0.000272   0.000002   0.000000  -0.000081
    42  H    0.000009   0.000022  -0.000235   0.000001  -0.000004   0.000001
    43  H   -0.000001  -0.000003   0.000158   0.000000   0.000013   0.000000
    44  H    0.000007   0.000031   0.000050  -0.000140   0.001807  -0.000002
              13         14         15         16         17         18
     1  C   -0.073810  -0.062926   0.003755   0.002364   0.000008  -0.000100
     2  C   -0.009083   0.294552  -0.050741  -0.012126  -0.000283  -0.001185
     3  C   -0.001080  -0.063009   0.227709  -0.043468  -0.002123  -0.001469
     4  C    0.000415   0.008107  -0.024532  -0.009085  -0.000974  -0.001899
     5  C   -0.000316  -0.000027   0.001729   0.001492   0.000095  -0.000081
     6  H    0.008478  -0.001088  -0.000071  -0.000256   0.000001  -0.000007
     7  H    0.004857  -0.045951  -0.001674  -0.002845  -0.000314  -0.006082
     8  H    0.000266   0.000231  -0.003793   0.003206  -0.000051   0.002471
     9  H    0.000010  -0.000130  -0.000280  -0.004656  -0.002177   0.000330
    10  O    0.000240   0.003343  -0.000034  -0.000936   0.000000   0.000010
    11  O   -0.000001   0.000005  -0.000016  -0.000470  -0.000002   0.000001
    12  C    0.285393  -0.002596  -0.000068  -0.000137   0.000000  -0.000006
    13  C    5.385932  -0.000089  -0.000001  -0.000204   0.000000  -0.000035
    14  C   -0.000089   5.394148  -0.005022  -0.001101   0.000011   0.001040
    15  O   -0.000001  -0.005022   8.260139   0.349393  -0.023735  -0.023279
    16  Si  -0.000204  -0.001101   0.349393  11.526583   0.322910   0.313151
    17  C    0.000000   0.000011  -0.023735   0.322910   5.769031  -0.058054
    18  C   -0.000035   0.001040  -0.023279   0.313151  -0.058054   5.806503
    19  C    0.000000  -0.000127  -0.021115   0.335512  -0.053211  -0.050854
    20  H    0.000221   0.000277  -0.001113  -0.030155  -0.001492   0.366372
    21  H    0.000080   0.000571  -0.001975  -0.027240   0.002389   0.370271
    22  H   -0.000003  -0.000029   0.000796  -0.010101   0.000442   0.366370
    23  H    0.000000  -0.000002   0.000885  -0.013418   0.000478  -0.000047
    24  H    0.000000   0.000061  -0.001334  -0.028248   0.002536  -0.000518
    25  H    0.000000  -0.000009  -0.001292  -0.026104  -0.000501   0.002570
    26  H    0.000000   0.000001  -0.002242  -0.025091   0.370259   0.002196
    27  H    0.000000   0.000001  -0.001077  -0.029220   0.369825  -0.001712
    28  H    0.000000   0.000001   0.000909  -0.012148   0.364433   0.000874
    29  H    0.000137   0.391955   0.000128  -0.000190   0.000001   0.000107
    30  H    0.000164   0.384772  -0.000121  -0.000166   0.000001   0.000008
    31  H   -0.000103   0.384719   0.007204   0.003527   0.000042  -0.000105
    32  H   -0.038610   0.002002  -0.000003  -0.000012   0.000000  -0.000003
    33  H   -0.046712  -0.000405   0.000004   0.000026   0.000000   0.000000
    34  H    0.391962  -0.000062   0.000000   0.000000   0.000000   0.000000
    35  H    0.384336   0.000861   0.000008  -0.000051   0.000003   0.000546
    36  H    0.386347   0.000088   0.000002  -0.000009   0.000000   0.000016
    37  C    0.000020  -0.008536  -0.078678   0.000576  -0.000036  -0.000352
    38  C    0.000000  -0.000283   0.007805   0.001045  -0.000059   0.000029
    39  C    0.000000  -0.000002   0.000786   0.000552  -0.000020   0.000001
    40  H   -0.000025   0.001099   0.003330  -0.000022   0.000005   0.000013
    41  H    0.000002   0.001303   0.002299   0.000024   0.000022   0.000010
    42  H    0.000000   0.000013   0.003474   0.000694   0.000234   0.000017
    43  H    0.000000   0.000000   0.000009   0.000007   0.000003   0.000000
    44  H    0.000000  -0.000006   0.000000  -0.000002  -0.000001   0.000000
              19         20         21         22         23         24
     1  C   -0.000001  -0.000062  -0.000049  -0.000003   0.000000  -0.000001
     2  C   -0.000220  -0.000873  -0.000322   0.000273  -0.000001  -0.000005
     3  C    0.002377   0.000582   0.000111  -0.000061  -0.000066  -0.000057
     4  C   -0.000145   0.000388   0.000321   0.000050  -0.000001  -0.000020
     5  C    0.000001   0.000029   0.000005   0.000002   0.000000   0.000000
     6  H    0.000000  -0.000014  -0.000003   0.000000   0.000000   0.000000
     7  H   -0.000150  -0.001845  -0.002255   0.000738   0.000000  -0.000028
     8  H   -0.000003   0.005205  -0.000342  -0.000024   0.000006  -0.000005
     9  H   -0.000037   0.000029   0.000005  -0.000007  -0.000002  -0.000005
    10  O    0.000000  -0.000031  -0.000003   0.000000   0.000000   0.000000
    11  O    0.000000   0.000005   0.000000   0.000000   0.000000   0.000000
    12  C    0.000000   0.000017   0.000019   0.000000   0.000000   0.000000
    13  C    0.000000   0.000221   0.000080  -0.000003   0.000000   0.000000
    14  C   -0.000127   0.000277   0.000571  -0.000029  -0.000002   0.000061
    15  O   -0.021115  -0.001113  -0.001975   0.000796   0.000885  -0.001334
    16  Si   0.335512  -0.030155  -0.027240  -0.010101  -0.013418  -0.028248
    17  C   -0.053211  -0.001492   0.002389   0.000442   0.000478   0.002536
    18  C   -0.050854   0.366372   0.370271   0.366370  -0.000047  -0.000518
    19  C    5.723580   0.002983  -0.000490  -0.000861   0.364155   0.368824
    20  H    0.002983   0.450029  -0.019351  -0.019863  -0.000080  -0.000097
    21  H   -0.000490  -0.019351   0.449894  -0.020413  -0.000074   0.001210
    22  H   -0.000861  -0.019863  -0.020413   0.433739   0.000625  -0.000065
    23  H    0.364155  -0.000080  -0.000074   0.000625   0.452135  -0.020537
    24  H    0.368824  -0.000097   0.001210  -0.000065  -0.020537   0.458572
    25  H    0.369507  -0.000106  -0.000072  -0.000051  -0.020583  -0.018147
    26  H   -0.000382  -0.000027  -0.000099  -0.000040  -0.000026  -0.000094
    27  H    0.002764   0.000888  -0.000027   0.000079  -0.000080  -0.000116
    28  H   -0.000744   0.000072  -0.000040   0.000304   0.000815   0.000002
    29  H   -0.000004   0.000011   0.000182  -0.000003   0.000000  -0.000002
    30  H    0.000002  -0.000009  -0.000006   0.000000   0.000000  -0.000007
    31  H    0.000203  -0.000013   0.000399   0.000009  -0.000013   0.000587
    32  H    0.000000   0.000001  -0.000004   0.000000   0.000000   0.000000
    33  H    0.000000   0.000000   0.000000   0.000000   0.000000   0.000000
    34  H    0.000000  -0.000004  -0.000003   0.000000   0.000000   0.000000
    35  H    0.000001   0.000428   0.000499  -0.000019   0.000000   0.000000
    36  H    0.000000   0.000057  -0.000011   0.000000   0.000000   0.000000
    37  C   -0.000001  -0.000105  -0.000099   0.000007   0.000002  -0.000008
    38  C   -0.000037   0.000009   0.000007   0.000000   0.000000   0.000003
    39  C   -0.000001   0.000000   0.000000   0.000000   0.000000   0.000000
    40  H    0.000002   0.000004   0.000001   0.000000   0.000000  -0.000001
    41  H   -0.000042   0.000000   0.000000   0.000000   0.000001  -0.000008
    42  H    0.000032   0.000001   0.000000   0.000000  -0.000005  -0.000009
    43  H    0.000000   0.000000   0.000000   0.000000   0.000000   0.000000
    44  H    0.000000   0.000000   0.000000   0.000000   0.000000   0.000000
              25         26         27         28         29         30
     1  C    0.000000   0.000003   0.000006   0.000000  -0.006983  -0.003719
     2  C   -0.000022  -0.000049  -0.000011   0.000006  -0.036742  -0.037918
     3  C   -0.000122   0.000598  -0.000385  -0.000013   0.007354  -0.009683
     4  C   -0.000039  -0.000397   0.001618   0.000127  -0.000235  -0.000152
     5  C    0.000000  -0.000033   0.000085  -0.000002   0.000007   0.000008
     6  H    0.000000   0.000000   0.000000   0.000000  -0.000720   0.005104
     7  H    0.000000   0.000006  -0.000068   0.000005  -0.008322   0.007746
     8  H    0.000000   0.000019   0.001185  -0.000049  -0.000030  -0.000013
     9  H   -0.000018   0.000264  -0.000901   0.000209   0.000014   0.000011
    10  O    0.000000   0.000000  -0.000004   0.000000  -0.000006   0.000030
    11  O    0.000000   0.000001  -0.000052   0.000000   0.000000   0.000001
    12  C    0.000000   0.000000   0.000000   0.000000   0.001886  -0.001186
    13  C    0.000000   0.000000   0.000000   0.000000   0.000137   0.000164
    14  C   -0.000009   0.000001   0.000001   0.000001   0.391955   0.384772
    15  O   -0.001292  -0.002242  -0.001077   0.000909   0.000128  -0.000121
    16  Si  -0.026104  -0.025091  -0.029220  -0.012148  -0.000190  -0.000166
    17  C   -0.000501   0.370259   0.369825   0.364433   0.000001   0.000001
    18  C    0.002570   0.002196  -0.001712   0.000874   0.000107   0.000008
    19  C    0.369507  -0.000382   0.002764  -0.000744  -0.000004   0.000002
    20  H   -0.000106  -0.000027   0.000888   0.000072   0.000011  -0.000009
    21  H   -0.000072  -0.000099  -0.000027  -0.000040   0.000182  -0.000006
    22  H   -0.000051  -0.000040   0.000079   0.000304  -0.000003   0.000000
    23  H   -0.020583  -0.000026  -0.000080   0.000815   0.000000   0.000000
    24  H   -0.018147  -0.000094  -0.000116   0.000002  -0.000002  -0.000007
    25  H    0.455857   0.001091  -0.000084  -0.000103   0.000000   0.000000
    26  H    0.001091   0.448214  -0.018447  -0.020379   0.000000   0.000000
    27  H   -0.000084  -0.018447   0.454898  -0.022458   0.000000   0.000000
    28  H   -0.000103  -0.020379  -0.022458   0.450160   0.000000   0.000000
    29  H    0.000000   0.000000   0.000000   0.000000   0.458928  -0.026374
    30  H    0.000000   0.000000   0.000000   0.000000  -0.026374   0.467633
    31  H   -0.000015   0.000002   0.000001   0.000000  -0.024922  -0.023900
    32  H    0.000000   0.000000   0.000000   0.000000  -0.000187   0.000303
    33  H    0.000000   0.000000   0.000000   0.000000   0.000214  -0.000152
    34  H    0.000000   0.000000   0.000000   0.000000  -0.000050   0.000009
    35  H    0.000000   0.000000   0.000001   0.000000   0.001717  -0.000126
    36  H    0.000000   0.000000  -0.000001   0.000000  -0.000108   0.000006
    37  C    0.000064   0.000121  -0.000029  -0.000001  -0.000208   0.004254
    38  C   -0.000027   0.000409  -0.000056   0.000005   0.000013   0.000165
    39  C   -0.000001   0.000050  -0.000020   0.000000   0.000000  -0.000011
    40  H    0.000000   0.000002   0.000004   0.000000  -0.000073  -0.000188
    41  H   -0.000009   0.000009  -0.000001   0.000000   0.000211   0.000336
    42  H    0.000061   0.000499  -0.000014  -0.000001  -0.000001   0.000004
    43  H    0.000000  -0.000001   0.000002   0.000000   0.000000   0.000000
    44  H    0.000000   0.000000  -0.000001   0.000000   0.000000   0.000004
              31         32         33         34         35         36
     1  C    0.005343  -0.034972  -0.045686   0.008086  -0.007724  -0.009222
     2  C   -0.030303  -0.006240   0.009327  -0.000068   0.003624  -0.000119
     3  C   -0.007791  -0.000256  -0.000062   0.000007   0.000345  -0.000537
     4  C    0.000456   0.000090   0.000242  -0.000017   0.000106   0.000801
     5  C   -0.000074  -0.000036  -0.000173   0.000025  -0.000034  -0.000407
     6  H   -0.000122  -0.000069  -0.007389  -0.000204  -0.000406   0.000617
     7  H   -0.004198   0.000196  -0.000384   0.000319  -0.001997   0.000264
     8  H    0.000043   0.000002  -0.000012  -0.000001  -0.000049   0.000202
     9  H   -0.000029  -0.000003  -0.000009   0.000000   0.000000  -0.000009
    10  O   -0.000108   0.003099   0.003472  -0.000188  -0.000039   0.010993
    11  O    0.000000   0.000007  -0.000032   0.000000   0.000001  -0.000106
    12  C    0.000085   0.389241   0.403370  -0.035452  -0.037848  -0.043400
    13  C   -0.000103  -0.038610  -0.046712   0.391962   0.384336   0.386347
    14  C    0.384719   0.002002  -0.000405  -0.000062   0.000861   0.000088
    15  O    0.007204  -0.000003   0.000004   0.000000   0.000008   0.000002
    16  Si   0.003527  -0.000012   0.000026   0.000000  -0.000051  -0.000009
    17  C    0.000042   0.000000   0.000000   0.000000   0.000003   0.000000
    18  C   -0.000105  -0.000003   0.000000   0.000000   0.000546   0.000016
    19  C    0.000203   0.000000   0.000000   0.000000   0.000001   0.000000
    20  H   -0.000013   0.000001   0.000000  -0.000004   0.000428   0.000057
    21  H    0.000399  -0.000004   0.000000  -0.000003   0.000499  -0.000011
    22  H    0.000009   0.000000   0.000000   0.000000  -0.000019   0.000000
    23  H   -0.000013   0.000000   0.000000   0.000000   0.000000   0.000000
    24  H    0.000587   0.000000   0.000000   0.000000   0.000000   0.000000
    25  H   -0.000015   0.000000   0.000000   0.000000   0.000000   0.000000
    26  H    0.000002   0.000000   0.000000   0.000000   0.000000   0.000000
    27  H    0.000001   0.000000   0.000000   0.000000   0.000001  -0.000001
    28  H    0.000000   0.000000   0.000000   0.000000   0.000000   0.000000
    29  H   -0.024922  -0.000187   0.000214  -0.000050   0.001717  -0.000108
    30  H   -0.023900   0.000303  -0.000152   0.000009  -0.000126   0.000006
    31  H    0.428869   0.000271   0.000023  -0.000003  -0.000016   0.000023
    32  H    0.000271   0.469532  -0.025687  -0.003706  -0.006101   0.007140
    33  H    0.000023  -0.025687   0.470787  -0.006363   0.007027  -0.003506
    34  H   -0.000003  -0.003706  -0.006363   0.464514  -0.027461  -0.025816
    35  H   -0.000016  -0.006101   0.007027  -0.027461   0.482078  -0.027490
    36  H    0.000023   0.007140  -0.003506  -0.025816  -0.027490   0.468085
    37  C   -0.000477  -0.000007  -0.000020   0.000002  -0.000024   0.000016
    38  C   -0.000137  -0.000001  -0.000002   0.000000   0.000000   0.000000
    39  C    0.000003   0.000000   0.000000   0.000000   0.000000   0.000000
    40  H    0.000004  -0.000015  -0.000038   0.000001  -0.000004  -0.000007
    41  H    0.000465  -0.000005   0.000005   0.000000   0.000001   0.000000
    42  H    0.000003   0.000000   0.000000   0.000000   0.000000   0.000000
    43  H    0.000000   0.000000   0.000000   0.000000   0.000000   0.000000
    44  H    0.000000   0.000000   0.000000   0.000000   0.000000   0.000000
              37         38         39         40         41         42
     1  C   -0.000847  -0.000655  -0.000043   0.004438  -0.000192   0.000009
     2  C   -0.093578   0.009538   0.000028  -0.009956  -0.006887  -0.000252
     3  C    0.275343  -0.058928  -0.003074  -0.025177  -0.040746  -0.001683
     4  C   -0.097735  -0.014177  -0.000639  -0.002862   0.006658   0.000082
     5  C   -0.003910  -0.000765   0.000712   0.002498  -0.000218   0.000117
     6  H    0.006138   0.000154   0.000030   0.000127   0.000133  -0.000005
     7  H    0.008647  -0.000193  -0.000008  -0.000105  -0.000172   0.000009
     8  H    0.006258   0.000043   0.000048   0.000006  -0.000118   0.000022
     9  H   -0.008542   0.007931   0.004092  -0.000268   0.000272  -0.000235
    10  O   -0.003036   0.000135  -0.000049   0.001166   0.000002   0.000001
    11  O    0.000859  -0.000470   0.000155  -0.000542   0.000000  -0.000004
    12  C   -0.000514   0.000007   0.000000   0.000816  -0.000081   0.000001
    13  C    0.000020   0.000000   0.000000  -0.000025   0.000002   0.000000
    14  C   -0.008536  -0.000283  -0.000002   0.001099   0.001303   0.000013
    15  O   -0.078678   0.007805   0.000786   0.003330   0.002299   0.003474
    16  Si   0.000576   0.001045   0.000552  -0.000022   0.000024   0.000694
    17  C   -0.000036  -0.000059  -0.000020   0.000005   0.000022   0.000234
    18  C   -0.000352   0.000029   0.000001   0.000013   0.000010   0.000017
    19  C   -0.000001  -0.000037  -0.000001   0.000002  -0.000042   0.000032
    20  H   -0.000105   0.000009   0.000000   0.000004   0.000000   0.000001
    21  H   -0.000099   0.000007   0.000000   0.000001   0.000000   0.000000
    22  H    0.000007   0.000000   0.000000   0.000000   0.000000   0.000000
    23  H    0.000002   0.000000   0.000000   0.000000   0.000001  -0.000005
    24  H   -0.000008   0.000003   0.000000  -0.000001  -0.000008  -0.000009
    25  H    0.000064  -0.000027  -0.000001   0.000000  -0.000009   0.000061
    26  H    0.000121   0.000409   0.000050   0.000002   0.000009   0.000499
    27  H   -0.000029  -0.000056  -0.000020   0.000004  -0.000001  -0.000014
    28  H   -0.000001   0.000005   0.000000   0.000000   0.000000  -0.000001
    29  H   -0.000208   0.000013   0.000000  -0.000073   0.000211  -0.000001
    30  H    0.004254   0.000165  -0.000011  -0.000188   0.000336   0.000004
    31  H   -0.000477  -0.000137   0.000003   0.000004   0.000465   0.000003
    32  H   -0.000007  -0.000001   0.000000  -0.000015  -0.000005   0.000000
    33  H   -0.000020  -0.000002   0.000000  -0.000038   0.000005   0.000000
    34  H    0.000002   0.000000   0.000000   0.000001   0.000000   0.000000
    35  H   -0.000024   0.000000   0.000000  -0.000004   0.000001   0.000000
    36  H    0.000016   0.000000   0.000000  -0.000007   0.000000   0.000000
    37  C    5.504424   0.330955  -0.063954   0.380156   0.394765  -0.045089
    38  C    0.330955   5.058698   0.615844  -0.047341  -0.041767   0.398592
    39  C   -0.063954   0.615844   5.153136   0.001647   0.001430  -0.041052
    40  H    0.380156  -0.047341   0.001647   0.452590  -0.021128   0.005174
    41  H    0.394765  -0.041767   0.001430  -0.021128   0.442686  -0.002415
    42  H   -0.045089   0.398592  -0.041052   0.005174  -0.002415   0.461663
    43  H    0.006463  -0.039861   0.391804   0.000116  -0.000382  -0.007927
    44  H   -0.008792  -0.038344   0.386360   0.004320   0.000120   0.005646
              43         44
     1  C    0.000000  -0.000050
     2  C    0.000018  -0.000004
     3  C   -0.000294  -0.000367
     4  C    0.000047  -0.000115
     5  C    0.000010   0.001014
     6  H   -0.000001   0.000107
     7  H   -0.000001   0.000007
     8  H   -0.000003   0.000031
     9  H    0.000158   0.000050
    10  O    0.000000  -0.000140
    11  O    0.000013   0.001807
    12  C    0.000000  -0.000002
    13  C    0.000000   0.000000
    14  C    0.000000  -0.000006
    15  O    0.000009   0.000000
    16  Si   0.000007  -0.000002
    17  C    0.000003  -0.000001
    18  C    0.000000   0.000000
    19  C    0.000000   0.000000
    20  H    0.000000   0.000000
    21  H    0.000000   0.000000
    22  H    0.000000   0.000000
    23  H    0.000000   0.000000
    24  H    0.000000   0.000000
    25  H    0.000000   0.000000
    26  H   -0.000001   0.000000
    27  H    0.000002  -0.000001
    28  H    0.000000   0.000000
    29  H    0.000000   0.000000
    30  H    0.000000   0.000004
    31  H    0.000000   0.000000
    32  H    0.000000   0.000000
    33  H    0.000000   0.000000
    34  H    0.000000   0.000000
    35  H    0.000000   0.000000
    36  H    0.000000   0.000000
    37  C    0.006463  -0.008792
    38  C   -0.039861  -0.038344
    39  C    0.391804   0.386360
    40  H    0.000116   0.004320
    41  H   -0.000382   0.000120
    42  H   -0.007927   0.005646
    43  H    0.457199  -0.032870
    44  H   -0.032870   0.457488
 Mulliken charges:
               1
     1  C   -0.036358
     2  C   -0.319228
     3  C    0.163955
     4  C   -0.613385
     5  C    0.468353
     6  H    0.252925
     7  H    0.279478
     8  H    0.279641
     9  H    0.288640
    10  O   -0.320997
    11  O   -0.378804
    12  C   -0.451408
    13  C   -0.678788
    14  C   -0.677759
    15  O   -0.628167
    16  Si   1.416399
    17  C   -1.059694
    18  C   -1.087119
    19  C   -1.041518
    20  H    0.247630
    21  H    0.246912
    22  H    0.248109
    23  H    0.235835
    24  H    0.237517
    25  H    0.238158
    26  H    0.243563
    27  H    0.243407
    28  H    0.238015
    29  H    0.242292
    30  H    0.233171
    31  H    0.260044
    32  H    0.244033
    33  H    0.242135
    34  H    0.234475
    35  H    0.227803
    36  H    0.236090
    37  C   -0.504494
    38  C   -0.188284
    39  C   -0.447803
    40  H    0.250232
    41  H    0.263415
    42  H    0.222346
    43  H    0.225494
    44  H    0.223739
 Sum of Mulliken charges =   0.00000
 Mulliken charges with hydrogens summed into heavy atoms:
               1
     1  C    0.216567
     2  C   -0.039751
     3  C    0.163955
     4  C   -0.045104
     5  C    0.468353
    10  O   -0.320997
    11  O   -0.378804
    12  C    0.034760
    13  C    0.019579
    14  C    0.057748
    15  O   -0.628167
    16  Si   1.416399
    17  C   -0.334708
    18  C   -0.344468
    19  C   -0.330008
    37  C    0.009153
    38  C    0.034061
    39  C    0.001431
 Electronic spatial extent (au):  <R**2>=           5255.3007
 Charge=              0.0000 electrons
 Dipole moment (field-independent basis, Debye):
    X=             -1.6973    Y=             -3.9584    Z=              2.6769  Tot=              5.0711
 Quadrupole moment (field-independent basis, Debye-Ang):
   XX=           -120.7815   YY=           -121.8121   ZZ=           -124.8708
   XY=             -7.8474   XZ=             12.2703   YZ=              5.7076
 Traceless Quadrupole moment (field-independent basis, Debye-Ang):
   XX=              1.7067   YY=              0.6760   ZZ=             -2.3827
   XY=             -7.8474   XZ=             12.2703   YZ=              5.7076
 Octapole moment (field-independent basis, Debye-Ang**2):
  XXX=             -1.2965  YYY=             -3.7732  ZZZ=              6.1757  XYY=             -8.5177
  XXY=            -23.1085  XXZ=             16.6805  XZZ=             -5.8644  YZZ=            -22.3932
  YYZ=             13.8015  XYZ=              9.8390
 Hexadecapole moment (field-independent basis, Debye-Ang**3):
 XXXX=          -3607.1727 YYYY=          -2381.2095 ZZZZ=          -1142.0061 XXXY=            -54.0559
 XXXZ=             76.9354 YYYX=            -40.5399 YYYZ=            -24.9210 ZZZX=              9.8992
 ZZZY=              6.1214 XXYY=           -980.8962 XXZZ=           -828.9718 YYZZ=           -653.8304
 XXYZ=             55.7636 YYXZ=             35.0524 ZZXY=            -21.6012
 N-N= 1.640967155677D+03 E-N=-5.776927269290D+03  KE= 1.060530049517D+03
 1\1\GINC-SWANNODE-0-9\SP\RmPW1PW91\6-311G(d)\C14H26O3Si1\ROOT\08-Mar-2
 018\0\\#mPW1PW91/6-311g(d) nmr=(giao) scrf=(solvent=chloroform)\\P_ng_
 correct1ginp002\\0,1\C,0,0.980612,-0.412911,0.59528\C,0,-0.556095,-0.4
 88637,0.635792\C,0,-1.131314,0.593196,1.595931\C,0,-0.611125,1.950386,
 1.110319\C,0,0.884282,2.006473,1.036415\H,0,1.389589,-0.818577,1.52877
 7\H,0,-0.936433,-0.251372,-0.363196\H,0,-0.969745,2.187092,0.102737\H,
 0,-0.964186,2.76235,1.755539\O,0,1.499056,0.933038,0.495524\O,0,1.5124
 5,3.019778,1.323658\C,0,1.634934,-1.225605,-0.538178\C,0,1.23935,-0.78
 1991,-1.941072\C,0,-1.040653,-1.910831,0.951009\O,0,-2.571708,0.479005
 ,1.639913\Si,0,-3.71929,1.123897,0.610374\C,0,-3.906842,2.977746,0.852
 482\C,0,-3.367901,0.774148,-1.198873\C,0,-5.394025,0.339286,1.011581\H
 ,0,-2.454265,1.273836,-1.531738\H,0,-3.255894,-0.300618,-1.369744\H,0,
 -4.19216,1.132039,-1.823352\H,0,-6.172862,0.746081,0.360177\H,0,-5.349
 424,-0.744071,0.867328\H,0,-5.668382,0.540847,2.051059\H,0,-4.049114,3
 .213173,1.911322\H,0,-3.026005,3.517448,0.495186\H,0,-4.775306,3.34875
 3,0.29985\H,0,-0.770952,-2.6018,0.146005\H,0,-0.597978,-2.292281,1.876
 446\H,0,-2.129211,-1.954814,1.051397\H,0,1.418707,-2.292645,-0.420573\
 H,0,2.724032,-1.115355,-0.455772\H,0,1.831107,-1.326344,-2.684363\H,0,
 0.185538,-0.990875,-2.145891\H,0,1.417139,0.287508,-2.088782\C,0,-0.68
 4026,0.336574,3.077822\C,0,-1.164613,1.37874,4.057717\C,0,-0.356823,2.
 179616,4.764094\H,0,0.405049,0.251968,3.153738\H,0,-1.097448,-0.619578
 ,3.422904\H,0,-2.242143,1.46106,4.190906\H,0,-0.766435,2.908406,5.4573
 41\H,0,0.724161,2.138473,4.667123\\Version=EM64L-G09RevD.01\State=1-A\
 HF=-1064.3772733\RMSD=3.508e-09\Dipole=-1.1253694,-1.5254525,-0.622092
 \Quadrupole=-3.5500531,-0.0756811,3.6257342,-11.128569,0.6477677,0.792
 2499\PG=C01 [X(C14H26O3Si1)]\\@


 HE THAT RISETH LATE MUST TROT ALL DAY.

                  -- BENJAMIN FRANKLIN
 Job cpu time:       0 days  1 hours 18 minutes 44.3 seconds.
 File lengths (MBytes):  RWF=    237 Int=      0 D2E=      0 Chk=     11 Scr=      1
 Normal termination of Gaussian 09 at Thu Mar  8 13:19:32 2018.
