 Entering Gaussian System, Link 0=/usr/local/shared/gaussian/em64t/09-D01/g09/g09
 Initial command:
 /usr/local/shared/gaussian/em64t/09-D01/g09/l1.exe "/scratch/ah809/P_ng_3ginp004/Gau-30271.inp" -scrdir="/scratch/ah809/P_ng_3ginp004/"
 Entering Link 1 = /usr/local/shared/gaussian/em64t/09-D01/g09/l1.exe PID=     30282.
  
 Copyright (c) 1988,1990,1992,1993,1995,1998,2003,2009,2013,
            Gaussian, Inc.  All Rights Reserved.
  
 This is part of the Gaussian(R) 09 program.  It is based on
 the Gaussian(R) 03 system (copyright 2003, Gaussian, Inc.),
 the Gaussian(R) 98 system (copyright 1998, Gaussian, Inc.),
 the Gaussian(R) 94 system (copyright 1995, Gaussian, Inc.),
 the Gaussian 92(TM) system (copyright 1992, Gaussian, Inc.),
 the Gaussian 90(TM) system (copyright 1990, Gaussian, Inc.),
 the Gaussian 88(TM) system (copyright 1988, Gaussian, Inc.),
 the Gaussian 86(TM) system (copyright 1986, Carnegie Mellon
 University), and the Gaussian 82(TM) system (copyright 1983,
 Carnegie Mellon University). Gaussian is a federally registered
 trademark of Gaussian, Inc.
  
 This software contains proprietary and confidential information,
 including trade secrets, belonging to Gaussian, Inc.
  
 This software is provided under written license and may be
 used, copied, transmitted, or stored only in accord with that
 written license.
  
 The following legend is applicable only to US Government
 contracts under FAR:
  
                    RESTRICTED RIGHTS LEGEND
  
 Use, reproduction and disclosure by the US Government is
 subject to restrictions as set forth in subparagraphs (a)
 and (c) of the Commercial Computer Software - Restricted
 Rights clause in FAR 52.227-19.
  
 Gaussian, Inc.
 340 Quinnipiac St., Bldg. 40, Wallingford CT 06492
  
  
 ---------------------------------------------------------------
 Warning -- This program may not be used in any manner that
 competes with the business of Gaussian, Inc. or will provide
 assistance to any competitor of Gaussian, Inc.  The licensee
 of this program is prohibited from giving any competitor of
 Gaussian, Inc. access to this program.  By using this program,
 the user acknowledges that Gaussian, Inc. is engaged in the
 business of creating and licensing software in the field of
 computational chemistry and represents and warrants to the
 licensee that it is not a competitor of Gaussian, Inc. and that
 it will not use this program in any manner prohibited above.
 ---------------------------------------------------------------
  

 Cite this work as:
 Gaussian 09, Revision D.01,
 M. J. Frisch, G. W. Trucks, H. B. Schlegel, G. E. Scuseria, 
 M. A. Robb, J. R. Cheeseman, G. Scalmani, V. Barone, B. Mennucci, 
 G. A. Petersson, H. Nakatsuji, M. Caricato, X. Li, H. P. Hratchian, 
 A. F. Izmaylov, J. Bloino, G. Zheng, J. L. Sonnenberg, M. Hada, 
 M. Ehara, K. Toyota, R. Fukuda, J. Hasegawa, M. Ishida, T. Nakajima, 
 Y. Honda, O. Kitao, H. Nakai, T. Vreven, J. A. Montgomery, Jr., 
 J. E. Peralta, F. Ogliaro, M. Bearpark, J. J. Heyd, E. Brothers, 
 K. N. Kudin, V. N. Staroverov, T. Keith, R. Kobayashi, J. Normand, 
 K. Raghavachari, A. Rendell, J. C. Burant, S. S. Iyengar, J. Tomasi, 
 M. Cossi, N. Rega, J. M. Millam, M. Klene, J. E. Knox, J. B. Cross, 
 V. Bakken, C. Adamo, J. Jaramillo, R. Gomperts, R. E. Stratmann, 
 O. Yazyev, A. J. Austin, R. Cammi, C. Pomelli, J. W. Ochterski, 
 R. L. Martin, K. Morokuma, V. G. Zakrzewski, G. A. Voth, 
 P. Salvador, J. J. Dannenberg, S. Dapprich, A. D. Daniels, 
 O. Farkas, J. B. Foresman, J. V. Ortiz, J. Cioslowski, 
 and D. J. Fox, Gaussian, Inc., Wallingford CT, 2013.
 
 ******************************************
 Gaussian 09:  EM64L-G09RevD.01 24-Apr-2013
                 8-Mar-2018 
 ******************************************
 %mem=6000MB
 %chk=P_ng_3ginp004.chk
 --------------------------------------------------------
 #mPW1PW91/6-311g(d) nmr=(giao) scrf=(solvent=chloroform)
 --------------------------------------------------------
 1/38=1/1;
 2/12=2,17=6,18=5,40=1/2;
 3/5=4,6=6,7=1,11=2,16=1,25=1,30=1,70=2201,72=7,74=-7/1,2,8,3;
 4//1;
 5/5=2,38=5,53=7/2;
 8/6=1,10=90,11=11/1;
 10/13=100,45=16/2;
 6/7=2,8=2,9=2,10=2,28=1/1;
 99/9=1/99;
 -------------
 P_ng_3ginp004
 -------------
 Symbolic Z-matrix:
 Charge =  0 Multiplicity = 1
 C                    -0.11203   0.56619  -0.15836 
 C                    -1.52205   0.201     0.31955 
 C                    -1.82437   0.9694    1.64971 
 C                    -1.6837    2.46924   1.35953 
 C                    -0.4695    2.87119   0.56506 
 H                     0.63184   0.26655   0.58752 
 H                    -1.57528  -0.87629   0.51934 
 H                    -2.56343   2.8471    0.82481 
 H                    -1.62857   3.02318   2.30269 
 O                     0.03396   1.99169  -0.32418 
 O                    -0.01227   4.00826   0.64796 
 C                     0.3306   -0.07707  -1.48237 
 C                     0.3346   -1.59672  -1.45302 
 C                    -2.58504   0.46729  -0.76887 
 O                    -3.18954   0.61752   1.96945 
 Si                   -4.13998   1.09341   3.26085 
 C                    -3.95515  -0.09648   4.70903 
 C                    -3.81439   2.82835   3.88763 
 C                    -5.9537    1.03039   2.7219 
 H                    -4.52996   3.08774   4.67417 
 H                    -2.81039   2.91428   4.31232 
 H                    -3.92061   3.56294   3.08427 
 H                    -6.21726   0.0207    2.3941 
 H                    -6.60915   1.31011   3.55167 
 H                    -6.12641   1.72189   1.89218 
 H                    -4.68023   0.1417    5.49299 
 H                    -4.12777  -1.12624   4.38293 
 H                    -2.95358  -0.0333    5.1427 
 H                    -3.59609   0.25761  -0.40629 
 H                    -2.56113   1.50076  -1.12721 
 H                    -2.42948  -0.1854   -1.63372 
 H                     1.34555   0.27222  -1.71433 
 H                    -0.28554   0.28366  -2.31422 
 H                     0.75314  -1.9889   -2.38547 
 H                     0.94465  -1.9713   -0.62498 
 H                    -0.67613  -2.00115  -1.34858 
 C                    -0.84211   0.56321   2.80296 
 C                    -0.73041  -0.92043   3.04608 
 C                     0.42529  -1.59675   3.06085 
 H                    -1.16746   1.0189    3.74516 
 H                     0.15438   0.98139   2.61432 
 H                    -1.65681  -1.46363   3.22419 
 H                     0.43779  -2.66706   3.24644 
 H                     1.38124  -1.10826   2.89875 
 
                          Input orientation:                          
 ---------------------------------------------------------------------
 Center     Atomic      Atomic             Coordinates (Angstroms)
 Number     Number       Type             X           Y           Z
 ---------------------------------------------------------------------
      1          6           0       -0.112027    0.566194   -0.158359
      2          6           0       -1.522052    0.200998    0.319546
      3          6           0       -1.824374    0.969399    1.649711
      4          6           0       -1.683696    2.469236    1.359527
      5          6           0       -0.469496    2.871187    0.565060
      6          1           0        0.631841    0.266554    0.587521
      7          1           0       -1.575275   -0.876287    0.519339
      8          1           0       -2.563427    2.847095    0.824811
      9          1           0       -1.628565    3.023176    2.302693
     10          8           0        0.033958    1.991689   -0.324183
     11          8           0       -0.012270    4.008255    0.647960
     12          6           0        0.330596   -0.077066   -1.482365
     13          6           0        0.334599   -1.596721   -1.453020
     14          6           0       -2.585036    0.467291   -0.768866
     15          8           0       -3.189541    0.617518    1.969447
     16         14           0       -4.139982    1.093408    3.260848
     17          6           0       -3.955150   -0.096476    4.709027
     18          6           0       -3.814387    2.828346    3.887625
     19          6           0       -5.953701    1.030387    2.721900
     20          1           0       -4.529964    3.087740    4.674175
     21          1           0       -2.810389    2.914284    4.312322
     22          1           0       -3.920608    3.562943    3.084272
     23          1           0       -6.217256    0.020695    2.394099
     24          1           0       -6.609153    1.310110    3.551666
     25          1           0       -6.126405    1.721887    1.892183
     26          1           0       -4.680225    0.141703    5.492988
     27          1           0       -4.127774   -1.126235    4.382927
     28          1           0       -2.953577   -0.033303    5.142699
     29          1           0       -3.596094    0.257611   -0.406288
     30          1           0       -2.561132    1.500757   -1.127206
     31          1           0       -2.429483   -0.185397   -1.633724
     32          1           0        1.345546    0.272215   -1.714333
     33          1           0       -0.285538    0.283656   -2.314220
     34          1           0        0.753138   -1.988902   -2.385471
     35          1           0        0.944649   -1.971295   -0.624982
     36          1           0       -0.676125   -2.001151   -1.348580
     37          6           0       -0.842110    0.563205    2.802957
     38          6           0       -0.730408   -0.920434    3.046079
     39          6           0        0.425293   -1.596748    3.060849
     40          1           0       -1.167463    1.018895    3.745159
     41          1           0        0.154379    0.981392    2.614324
     42          1           0       -1.656814   -1.463631    3.224195
     43          1           0        0.437791   -2.667062    3.246442
     44          1           0        1.381235   -1.108260    2.898748
 ---------------------------------------------------------------------
                    Distance matrix (angstroms):
                    1          2          3          4          5
     1  C    0.000000
     2  C    1.532949   0.000000
     3  C    2.522662   1.565624   0.000000
     4  C    2.897532   2.500519   1.534115   0.000000
     5  C    2.442153   2.880635   2.574677   1.505664   0.000000
     6  H    1.095199   2.171489   2.766809   3.287782   2.827996
     7  H    2.163590   1.096947   2.178611   3.451115   3.907480
     8  H    3.489770   2.888180   2.180000   1.096643   2.110118
     9  H    3.793867   3.450928   2.163961   1.095195   2.094256
    10  O    1.442514   2.458074   2.897366   2.452196   1.348234
    11  O    3.536649   4.108832   3.677210   2.380876   1.228353
    12  C    1.537105   2.599328   3.943207   4.314786   3.677539
    13  C    2.560044   3.133837   4.568706   5.340032   4.968040
    14  C    2.549171   1.544502   2.584615   3.057819   3.468946
    15  O    3.741829   2.382474   1.445591   2.463419   3.801312
    16  Si   5.309741   4.037476   2.823682   3.397244   4.888787
    17  C    6.237000   5.027524   3.877591   4.791819   6.174890
    18  C    5.932520   4.988882   3.524783   3.325670   4.714824
    19  C    6.529665   5.108689   4.266691   4.707365   6.173897
    20  H    7.016391   6.028566   4.577660   4.412559   5.780927
    21  H    5.725528   4.996398   3.441555   3.191630   4.418553
    22  H    5.830990   4.969855   3.630239   3.028979   4.328410
    23  H    6.639761   5.136265   4.555389   5.255365   6.671389
    24  H    7.518666   6.128240   5.160196   5.514451   7.003725
    25  H    6.458567   5.097682   4.374072   4.536509   5.923071
    26  H    7.279172   6.061524   4.859192   5.610891   7.033121
    27  H    6.293951   5.006236   4.143405   5.295458   6.628611
    28  H    6.044420   5.036563   3.805453   4.710381   5.963346
    29  H    3.506482   2.198111   2.805845   3.415648   4.189261
    30  H    2.794671   2.205029   2.921716   2.809215   3.019401
    31  H    2.848191   2.188149   3.532797   4.069745   4.244868
    32  H    2.152208   3.516369   4.674532   4.842708   3.904442
    33  H    2.181208   2.910760   4.307088   4.497557   3.875488
    34  H    3.498150   4.158037   5.628304   6.311748   5.815577
    35  H    2.788037   3.419884   4.635666   5.528543   5.183207
    36  H    2.885497   2.889238   4.374059   5.322913   5.238739
    37  C    3.049987   2.600163   1.568379   2.534701   3.236326
    38  C    3.586207   3.052588   2.591925   3.904239   4.538713
    39  C    3.915397   3.812976   3.692888   4.886160   5.195388
    40  H    4.068948   3.539705   2.196562   2.839230   3.745821
    41  H    2.816227   2.947107   2.201383   2.677072   2.856576
    42  H    4.236535   3.350543   2.902880   4.352603   5.222200
    43  H    4.727464   4.542408   4.570644   5.868791   6.219741
    44  H    3.792035   4.098233   4.019041   4.955954   4.970644
                    6          7          8          9         10
     6  H    0.000000
     7  H    2.486382   0.000000
     8  H    4.114029   3.864367   0.000000
     9  H    3.956035   4.288240   1.757585   0.000000
    10  O    2.040774   3.395062   2.966195   3.275428   0.000000
    11  O    3.797217   5.130134   2.808553   2.514146   2.239138
    12  C    2.119729   2.877137   4.716900   5.270339   2.389378
    13  C    2.779200   2.838458   5.773610   6.269198   3.773771
    14  C    3.496910   2.117615   2.864217   4.108754   3.062787
    15  O    4.078708   2.634411   2.583258   2.887021   4.188082
    16  Si   5.531786   4.239492   3.390460   3.308970   5.575045
    17  C    6.177304   4.881126   5.068396   4.575551   6.753267
    18  C    6.101017   5.484823   3.308486   2.706988   5.766202
    19  C    6.964796   5.259020   4.288745   4.780559   6.786367
    20  H    7.162685   6.458046   4.329293   3.747828   6.856697
    21  H    5.721325   5.502786   3.496890   2.333918   5.517125
    22  H    6.150182   5.637928   2.731216   2.481063   5.452064
    23  H    7.087616   5.085990   4.878695   5.484463   7.095883
    24  H    7.893488   6.270189   5.115267   5.413020   7.721249
    25  H    7.035199   5.417379   3.885896   4.700259   6.552491
    26  H    7.231683   5.950983   5.795848   5.271954   7.712681
    27  H    6.244910   4.637352   5.558302   5.271720   7.014153
    28  H    5.804721   4.897530   5.205100   4.377597   6.550783
    29  H    4.343175   2.495239   3.047529   4.342591   4.023810
    30  H    3.828658   3.055055   2.371287   3.866736   2.760499
    31  H    3.809185   2.417164   3.906193   5.141186   3.538805
    32  H    2.409967   3.852213   5.325160   5.705227   2.570870
    33  H    3.043350   3.322340   4.649034   5.533948   2.641913
    34  H    3.733695   3.885530   6.685236   7.264456   4.539960
    35  H    2.564367   2.976328   6.133953   6.335413   4.077386
    36  H    3.256033   2.358582   5.638353   6.283534   4.182867
    37  C    2.677441   2.797245   3.477377   2.630634   3.547826
    38  C    3.051093   2.664613   4.742179   4.112343   4.519224
    39  C    3.103532   3.313700   5.803452   5.112419   4.948582
    40  H    3.711360   3.763501   3.717454   2.512064   4.353078
    41  H    2.201566   3.291145   3.750956   2.728532   3.109666
    42  H    3.896605   2.769091   5.016109   4.580546   5.233444
    43  H    3.964041   3.833588   6.728858   6.126932   5.883571
    44  H    2.791680   3.802151   5.958725   5.146158   4.670345
                   11         12         13         14         15
    11  O    0.000000
    12  C    4.620140   0.000000
    13  C    5.995848   1.519944   0.000000
    14  C    4.600538   3.050625   3.640396   0.000000
    15  O    4.830991   4.978837   5.388478   2.808265   0.000000
    16  Si   5.688719   6.622246   7.034147   4.364456   1.672581
    17  C    6.991951   7.530029   7.656599   5.674712   2.932788
    18  C    5.132612   7.379641   8.081942   5.363655   2.992925
    19  C    6.962006   7.641642   7.992144   4.883690   2.894344
    20  H    6.121055   8.458370   9.118699   6.346353   3.900549
    21  H    4.738543   7.238257   7.967389   5.644203   3.302719
    22  H    4.626989   7.223335   8.081828   5.119911   3.233082
    23  H    7.579676   7.609921   7.768086   4.837026   3.115058
    24  H    7.696126   8.684805   9.039482   5.964131   3.831037
    25  H    6.645165   7.504443   7.996757   4.603964   3.138594
    26  H    7.759789   8.591376   8.741716   6.611100   3.855370
    27  H    7.566395   7.441738   7.361549   5.608951   3.121833
    28  H    6.722214   7.394537   7.533916   5.944158   3.247888
    29  H    5.293634   4.085198   4.470407   1.094380   2.436993
    30  H    3.991924   3.313269   4.252738   1.094089   3.280895
    31  H    5.351235   2.766348   3.108800   1.094613   3.768979
    32  H    4.624077   1.098148   2.140846   4.047399   5.852904
    33  H    4.766741   1.096232   2.159179   2.776604   5.185991
    34  H    6.764129   2.156214   1.094735   4.448562   6.426776
    35  H    6.187980   2.168011   1.094584   4.292561   5.524902
    36  H    6.367090   2.175658   1.093634   3.173833   4.917722
    37  C    4.147411   4.488783   4.915614   3.975539   2.491610
    38  C    5.527990   4.726923   4.672633   4.463097   3.093827
    39  C    6.117970   4.791575   4.514780   5.290468   4.377346
    40  H    4.456836   5.547280   6.009884   4.763423   2.720856
    41  H    3.613345   4.234884   4.818966   4.383454   3.424919
    42  H    6.267619   5.293776   5.085251   4.531511   2.873121
    43  H    7.177362   5.392697   4.820915   5.923204   5.057343
    44  H    5.760784   4.621835   4.502436   5.627171   4.973319
                   16         17         18         19         20
    16  Si   0.000000
    17  C    1.883404   0.000000
    18  C    1.873198   3.041233   0.000000
    19  C    1.893149   3.035243   3.027909   0.000000
    20  H    2.475265   3.235870   1.094530   3.173501   0.000000
    21  H    2.487771   3.245386   1.093510   3.994862   1.765775
    22  H    2.485540   4.004044   1.093751   3.267816   1.767746
    23  H    2.493398   3.238787   3.985888   1.093797   4.177615
    24  H    2.495664   3.218960   3.198222   1.093789   2.956860
    25  H    2.492811   3.994421   3.248302   1.093814   3.486210
    26  H    2.485971   1.094101   3.247294   3.176544   3.061400
    27  H    2.487172   1.093866   3.997780   3.277810   4.243132
    28  H    2.493672   1.093257   3.241179   3.999056   3.527807
    29  H    3.800297   5.140112   5.009393   3.992625   5.890063
    30  H    4.681209   6.209352   5.336822   5.152319   6.328573
    31  H    5.340223   6.524267   6.440955   5.733211   7.410468
    32  H    7.451027   8.336238   8.033719   8.575196   9.124792
    33  H    6.825967   7.933256   7.575692   7.618936   8.643825
    34  H    8.082337   8.722451   9.133449   8.954498  10.174579
    35  H    7.095460   7.481619   8.127029   8.234012   9.145834
    36  H    6.543808   7.146635   7.783995   7.322011   8.776244
    37  C    3.371459   3.709353   3.891246   5.133536   4.845101
    38  C    3.965713   3.720654   4.926711   5.585122   5.757845
    39  C    5.302704   4.914833   6.183842   6.907119   7.007269
    40  H    3.012636   3.153457   3.209457   4.894412   4.055811
    41  H    4.344200   4.736856   4.558908   6.109224   5.533783
    42  H    3.564536   3.058789   4.849364   4.993562   5.574263
    43  H    5.924301   5.295753   6.977940   7.402530   7.735293
    44  H    5.955023   5.725192   6.593120   7.642406   7.463299
                   21         22         23         24         25
    21  H    0.000000
    22  H    1.778047   0.000000
    23  H    4.864070   4.277669   0.000000
    24  H    4.193159   3.538642   1.776552   0.000000
    25  H    4.274909   3.110644   1.776015   1.776651   0.000000
    26  H    3.546472   4.252507   3.461245   2.975680   4.189775
    27  H    4.250445   4.870094   3.104323   3.575474   4.279034
    28  H    3.065664   4.255027   4.267238   4.207063   4.869639
    29  H    5.471794   4.818147   3.843018   5.084455   3.718810
    30  H    5.625714   4.882349   5.287477   6.189884   4.677262
    31  H    6.716292   6.207495   5.532907   6.826013   5.453163
    32  H    7.782859   7.847795   8.610369   9.596104   8.422503
    33  H    7.563474   7.287741   7.577776   8.686215   7.340168
    34  H    9.033293   9.087627   8.687299  10.016806   8.910465
    35  H    7.895959   8.249672   8.023450   9.234280   8.365137
    36  H    7.795024   7.818951   6.985674   8.377212   7.353170
    37  C    3.417584   4.307519   5.417903   5.863209   5.485966
    38  C    4.542549   5.502682   5.605025   6.307978   6.118016
    39  C    5.690802   6.746096   6.869071   7.627198   7.436657
    40  H    2.571649   3.806410   5.321858   5.452911   5.340302
    41  H    3.925445   4.846728   6.447416   6.836083   6.365380
    42  H    4.656275   5.514598   4.867229   5.685643   5.647922
    43  H    6.545090   7.604926   7.227737   8.097560   8.011589
    44  H    5.979027   7.068529   7.698459   8.373835   8.086258
                   26         27         28         29         30
    26  H    0.000000
    27  H    1.773444   0.000000
    28  H    1.770492   1.774963   0.000000
    29  H    5.999186   5.013411   5.593632   0.000000
    30  H    7.082694   6.302144   6.466766   1.770955   0.000000
    31  H    7.480833   6.322140   6.798361   1.750382   1.765505
    32  H    9.395341   8.312008   8.099055   5.111849   4.137169
    33  H    8.960241   7.848716   7.926193   3.821082   2.840540
    34  H    9.804643   8.389202   8.616116   5.280133   4.974468
    35  H    8.575169   7.177935   7.226211   5.063022   4.959624
    36  H    8.211680   6.747557   7.155132   3.810005   3.983167
    37  C    4.705854   4.018221   3.207570   4.239937   4.390925
    38  C    4.766189   3.656722   3.182027   4.638834   5.160429
    39  C    5.916403   4.764419   4.265586   5.624166   6.004421
    40  H    4.020431   3.711034   2.500088   4.869529   5.090623
    41  H    5.689040   5.089880   4.132998   4.869703   4.652181
    42  H    4.106767   2.749934   2.721781   4.461377   5.342291
    43  H    6.255415   4.950771   4.694023   6.178056   6.744854
    44  H    6.710722   5.705461   4.998144   6.128839   6.209471
                   31         32         33         34         35
    31  H    0.000000
    32  H    3.803518   0.000000
    33  H    2.297735   1.737939   0.000000
    34  H    3.734546   2.431877   2.499689   0.000000
    35  H    3.948640   2.526013   3.074360   1.770962   0.000000
    36  H    2.540184   3.064167   2.511048   1.765810   1.775217
    37  C    4.771194   5.027566   5.154941   5.998154   4.622441
    38  C    5.032662   5.328557   5.511855   5.730992   4.169750
    39  C    5.672801   5.209823   5.738690   5.470253   3.741038
    40  H    5.654679   6.056302   6.167207   7.093671   5.700911
    41  H    5.107216   4.545226   4.997090   5.846290   4.453761
    42  H    5.082350   6.034599   5.967198   6.127979   4.673489
    43  H    6.180287   5.837179   6.336474   5.681354   3.965970
    44  H    5.993042   4.815340   5.647176   5.393793   3.654054
                   36         37         38         39         40
    36  H    0.000000
    37  C    4.882492   0.000000
    38  C    4.525917   1.507571   0.000000
    39  C    4.562864   2.517581   1.339128   0.000000
    40  H    5.942076   1.096017   2.107303   3.137952   0.000000
    41  H    5.028907   1.097020   2.141542   2.630510   1.739960
    42  H    4.707542   2.224691   1.088585   2.092743   2.583371
    43  H    4.774775   3.502778   2.110816   1.086358   4.051153
    44  H    4.803101   2.783206   2.125093   1.085690   3.425940
                   41         42         43         44
    41  H    0.000000
    42  H    3.103305   0.000000
    43  H    3.713639   2.415804   0.000000
    44  H    2.439819   3.076028   1.854951   0.000000
 Stoichiometry    C14H26O3Si
 Framework group  C1[X(C14H26O3Si)]
 Deg. of freedom   126
 Full point group                 C1      NOp   1
 Largest Abelian subgroup         C1      NOp   1
 Largest concise Abelian subgroup C1      NOp   1
                         Standard orientation:                         
 ---------------------------------------------------------------------
 Center     Atomic      Atomic             Coordinates (Angstroms)
 Number     Number       Type             X           Y           Z
 ---------------------------------------------------------------------
      1          6           0        2.440516   -0.073345    0.045828
      2          6           0        1.145557    0.260139    0.795362
      3          6           0       -0.076758   -0.090172   -0.118096
      4          6           0        0.019903   -1.580627   -0.468393
      5          6           0        1.382424   -2.068363   -0.883934
      6          1           0        2.514411    0.523155   -0.869699
      7          1           0        1.116588    1.333408    1.020190
      8          1           0       -0.305754   -2.201283    0.375028
      9          1           0       -0.652948   -1.807281   -1.302269
     10          8           0        2.466845   -1.454672   -0.369005
     11          8           0        1.504463   -3.065581   -1.590697
     12          6           0        3.743398    0.176431    0.822230
     13          6           0        3.930653    1.621565    1.254380
     14          6           0        1.076981   -0.446260    2.167143
     15          8           0       -1.233992    0.187072    0.702683
     16         14           0       -2.859883    0.028218    0.343837
     17          6           0       -3.546295    1.619108   -0.394483
     18          6           0       -3.281550   -1.381142   -0.815807
     19          6           0       -3.799464   -0.282356    1.957759
     20          1           0       -4.366676   -1.464508   -0.932205
     21          1           0       -2.853815   -1.218538   -1.808968
     22          1           0       -2.913460   -2.334485   -0.426016
     23          1           0       -3.632694    0.540906    2.658345
     24          1           0       -4.873050   -0.364852    1.765454
     25          1           0       -3.455861   -1.210586    2.423327
     26          1           0       -4.633692    1.553917   -0.496339
     27          1           0       -3.312162    2.472085    0.249066
     28          1           0       -3.123330    1.805709   -1.385186
     29          1           0        0.127953   -0.250308    2.675685
     30          1           0        1.197919   -1.530259    2.081397
     31          1           0        1.862603   -0.078489    2.834767
     32          1           0        4.588089   -0.110745    0.181951
     33          1           0        3.811938   -0.489875    1.690022
     34          1           0        4.917365    1.752014    1.710261
     35          1           0        3.862155    2.299096    0.397424
     36          1           0        3.182741    1.922042    1.993551
     37          6           0       -0.091687    0.759276   -1.436439
     38          6           0        0.024003    2.248341   -1.231325
     39          6           0        0.941408    3.021891   -1.825675
     40          1           0       -1.026083    0.582319   -1.981271
     41          1           0        0.701054    0.418271   -2.113736
     42          1           0       -0.694093    2.712094   -0.557317
     43          1           0        0.968682    4.091598   -1.638177
     44          1           0        1.677396    2.618079   -2.514137
 ---------------------------------------------------------------------
 Rotational constants (GHZ):      0.5148540      0.2617626      0.2324252
 Standard basis: 6-311G(d) (5D, 7F)
 There are   428 symmetry adapted cartesian basis functions of A   symmetry.
 There are   410 symmetry adapted basis functions of A   symmetry.
   410 basis functions,   720 primitive gaussians,   428 cartesian basis functions
    74 alpha electrons       74 beta electrons
       nuclear repulsion energy      1630.2948106101 Hartrees.
 NAtoms=   44 NActive=   44 NUniq=   44 SFac= 1.00D+00 NAtFMM=   60 NAOKFM=F Big=F
 Integral buffers will be    131072 words long.
 Raffenetti 2 integral format.
 Two-electron integral symmetry is turned on.
 ------------------------------------------------------------------------------
 Polarizable Continuum Model (PCM)
 =================================
 Model                : PCM (using non-symmetric T matrix).
 Atomic radii         : UFF (Universal Force Field).
 Polarization charges : Total charges.
 Charge compensation  : None.
 Solution method      : On-the-fly selection.
 Cavity type          : Scaled VdW (van der Waals Surface) (Alpha=1.100).
 Cavity algorithm     : GePol (No added spheres)
                        Default sphere list used, NSphG=   44.
                        Lebedev-Laikov grids with approx.  5.0 points / Ang**2.
                        Smoothing algorithm: Karplus/York (Gamma=1.0000).
                        Polarization charges: spherical gaussians, with
                                              point-specific exponents (IZeta= 3).
                        Self-potential: point-specific (ISelfS= 7).
                        Self-field    : sphere-specific E.n sum rule (ISelfD= 2).
 Solvent              : Chloroform, Eps=   4.711300 Eps(inf)=   2.090627
 ------------------------------------------------------------------------------
 One-electron integrals computed using PRISM.
 NBasis=   410 RedAO= T EigKep=  1.09D-03  NBF=   410
 NBsUse=   410 1.00D-06 EigRej= -1.00D+00 NBFU=   410
 ExpMin= 6.54D-02 ExpMax= 6.94D+04 ExpMxC= 2.33D+03 IAcc=2 IRadAn=         4 AccDes= 0.00D+00
 Harris functional with IExCor=  908 and IRadAn=       4 diagonalized for initial guess.
 HarFok:  IExCor=  908 AccDes= 0.00D+00 IRadAn=         4 IDoV= 1 UseB2=F ITyADJ=14
 ICtDFT=  3500011 ScaDFX=  1.000000  1.000000  1.000000  1.000000
 FoFCou: FMM=F IPFlag=           0 FMFlag=      100000 FMFlg1=           0
         NFxFlg=           0 DoJE=T BraDBF=F KetDBF=T FulRan=T
         wScrn=  0.000000 ICntrl=     500 IOpCl=  0 I1Cent=   200000004 NGrid=           0
         NMat0=    1 NMatS0=      1 NMatT0=    0 NMatD0=    1 NMtDS0=    0 NMtDT0=    0
 Petite list used in FoFCou.
 Requested convergence on RMS density matrix=1.00D-08 within 128 cycles.
 Requested convergence on MAX density matrix=1.00D-06.
 Requested convergence on             energy=1.00D-06.
 No special actions if energy rises.
 Inv3:  Mode=1 IEnd=    23772675.
 Iteration    1 A*A^-1 deviation from unit magnitude is 7.44D-15 for   1798.
 Iteration    1 A*A^-1 deviation from orthogonality  is 6.00D-15 for   2599   1089.
 Iteration    1 A^-1*A deviation from unit magnitude is 8.44D-15 for    355.
 Iteration    1 A^-1*A deviation from orthogonality  is 9.98D-13 for   2092   2070.
 Error on total polarization charges =  0.01105
 SCF Done:  E(RmPW1PW91) =  -1064.37703597     A.U. after   13 cycles
            NFock= 13  Conv=0.31D-08     -V/T= 2.0036
 DoSCS=F DFT=T ScalE2(SS,OS)=  1.000000  1.000000
 Range of M.O.s used for correlation:     1   410
 NBasis=   410 NAE=    74 NBE=    74 NFC=     0 NFV=     0
 NROrb=    410 NOA=    74 NOB=    74 NVA=   336 NVB=   336
 NEqPCM:  Using equilibrium solvation (IEInf=0, Eps=   4.7113, EpsInf=   2.0906)
          Differentiating once with respect to magnetic field using GIAOs.
          Electric field/nuclear overlap derivatives assumed to be zero.
 FoFJK:  IHMeth= 1 ICntrl=    6127 DoSepK=F KAlg= 0 I1Cent=   0 FoldK=F
 IRaf=         1 NMat=   1 IRICut=       1 DoRegI=T DoRafI=F ISym2E= 0.
          There are     3 degrees of freedom in the 1st order CPHF.  IDoFFX=0 NUNeed=     3.
      3 vectors produced by pass  0 Test12= 8.29D-13 3.33D-08 XBig12= 3.76D+01 1.07D+00.
 AX will form     3 AO Fock derivatives at one time.
      3 vectors produced by pass  1 Test12= 8.29D-13 3.33D-08 XBig12= 7.57D-02 1.04D-01.
      3 vectors produced by pass  2 Test12= 8.29D-13 3.33D-08 XBig12= 9.18D-04 1.25D-02.
      3 vectors produced by pass  3 Test12= 8.29D-13 3.33D-08 XBig12= 6.13D-06 8.38D-04.
      3 vectors produced by pass  4 Test12= 8.29D-13 3.33D-08 XBig12= 3.81D-08 5.48D-05.
      3 vectors produced by pass  5 Test12= 8.29D-13 3.33D-08 XBig12= 8.15D-11 1.73D-06.
      1 vectors produced by pass  6 Test12= 8.29D-13 3.33D-08 XBig12= 2.23D-13 1.04D-07.
 InvSVY:  IOpt=1 It=  1 EMax= 8.88D-16
 Solved reduced A of dimension    19 with     3 vectors.
 Calculating GIAO nuclear magnetic shielding tensors.
 SCF GIAO Magnetic shielding tensor (ppm):
      1  C    Isotropic =   107.7427   Anisotropy =    60.0859
   XX=    98.5934   YX=    10.1699   ZX=     4.5643
   XY=    -0.1832   YY=   141.6801   ZY=    18.9862
   XZ=     4.6792   YZ=    18.1049   ZZ=    82.9547
   Eigenvalues:    77.1432    98.2850   147.8000
      2  C    Isotropic =   148.2041   Anisotropy =    21.1725
   XX=   161.8357   YX=     2.3884   ZX=    -2.0256
   XY=     4.0103   YY=   135.9726   ZY=    -5.8786
   XZ=     6.4490   YZ=   -12.8219   ZZ=   146.8042
   Eigenvalues:   130.1092   152.1841   162.3191
      3  C    Isotropic =   105.3103   Anisotropy =    56.8016
   XX=   131.2842   YX=    -7.1805   ZX=   -23.0403
   XY=    -1.2526   YY=    83.7612   ZY=     2.0434
   XZ=   -20.8493   YZ=     2.8354   ZZ=   100.8854
   Eigenvalues:    83.3556    89.3972   143.1780
      4  C    Isotropic =   143.2354   Anisotropy =    37.2854
   XX=   149.9284   YX=   -14.7723   ZX=    -7.5424
   XY=   -11.7156   YY=   149.8346   ZY=     1.5982
   XZ=   -14.7636   YZ=    14.9538   ZZ=   129.9431
   Eigenvalues:   124.6915   136.9223   168.0923
      5  C    Isotropic =     8.8601   Anisotropy =    95.7233
   XX=   -76.4887   YX=   -20.0600   ZX=   -13.5381
   XY=   -29.5084   YY=    43.9884   ZY=   -21.2679
   XZ=   -26.2353   YZ=   -18.1356   ZZ=    59.0807
   Eigenvalues:   -85.2075    39.1122    72.6757
      6  H    Isotropic =    27.9750   Anisotropy =     2.7333
   XX=    28.9350   YX=     0.3474   ZX=     0.0082
   XY=     0.9242   YY=    27.3981   ZY=    -2.3233
   XZ=     0.6280   YZ=    -2.1609   ZZ=    27.5920
   Eigenvalues:    25.1293    28.9986    29.7972
      7  H    Isotropic =    29.9025   Anisotropy =     4.2352
   XX=    29.4445   YX=     0.6281   ZX=     2.5551
   XY=    -0.0214   YY=    32.4693   ZY=    -0.6216
   XZ=     2.0827   YZ=    -1.5427   ZZ=    27.7937
   Eigenvalues:    25.9840    30.9975    32.7259
      8  H    Isotropic =    29.4391   Anisotropy =     4.1893
   XX=    29.4011   YX=     0.9222   ZX=    -0.2869
   XY=     1.4314   YY=    31.4371   ZY=    -1.4100
   XZ=    -0.6054   YZ=    -0.6114   ZZ=    27.4790
   Eigenvalues:    27.2221    28.8632    32.2319
      9  H    Isotropic =    29.3834   Anisotropy =     4.5699
   XX=    32.0834   YX=    -0.1788   ZX=     1.7823
   XY=    -1.5660   YY=    29.1991   ZY=     3.0982
   XZ=     0.9717   YZ=     3.2214   ZZ=    26.8676
   Eigenvalues:    24.3236    31.3966    32.4300
     10  O    Isotropic =   111.7210   Anisotropy =   186.6994
   XX=   197.0829   YX=    50.9671   ZX=    40.5068
   XY=    72.0626   YY=   -16.9555   ZY=  -108.2052
   XZ=    56.9822   YZ=  -158.0885   ZZ=   155.0356
   Eigenvalues:  -109.0351   208.0109   236.1872
     11  O    Isotropic =  -130.1402   Anisotropy =   594.7553
   XX=  -273.1045   YX=   -68.5219   ZX=   -49.1452
   XY=   -75.2983   YY=  -149.2992   ZY=  -287.3282
   XZ=   -51.6893   YZ=  -336.8929   ZZ=    31.9832
   Eigenvalues:  -432.1203  -224.6637   266.3634
     12  C    Isotropic =   159.8874   Anisotropy =    26.2468
   XX=   167.7046   YX=     5.2137   ZX=    13.1286
   XY=     1.6906   YY=   162.6157   ZY=     6.9470
   XZ=    11.7619   YZ=     9.7160   ZZ=   149.3418
   Eigenvalues:   141.3168   160.9600   177.3853
     13  C    Isotropic =   178.4921   Anisotropy =    14.7139
   XX=   175.9222   YX=     2.1890   ZX=     2.5953
   XY=     4.0814   YY=   186.5211   ZY=     3.5456
   XZ=     2.1998   YZ=     2.8821   ZZ=   173.0331
   Eigenvalues:   171.5441   175.6309   188.3014
     14  C    Isotropic =   179.8796   Anisotropy =    15.4126
   XX=   177.8062   YX=     1.7830   ZX=     2.4296
   XY=     1.0485   YY=   178.1982   ZY=    -9.3036
   XZ=     2.4359   YZ=    -8.1361   ZZ=   183.6343
   Eigenvalues:   170.8194   178.6647   190.1546
     15  O    Isotropic =   244.7923   Anisotropy =    17.5330
   XX=   239.6826   YX=    -5.6863   ZX=    -5.9187
   XY=    -9.1577   YY=   247.4053   ZY=     8.3961
   XZ=     2.5524   YZ=     4.5808   ZZ=   247.2889
   Eigenvalues:   234.8086   243.0874   256.4810
     16  Si   Isotropic =   333.8642   Anisotropy =    55.0476
   XX=   367.8737   YX=     9.9315   ZX=    18.0127
   XY=     3.5130   YY=   311.9802   ZY=    -0.7916
   XZ=     1.6974   YZ=    -2.4034   ZZ=   321.7388
   Eigenvalues:   310.4091   320.6209   370.5627
     17  C    Isotropic =   184.6535   Anisotropy =    10.6840
   XX=   187.2106   YX=    -2.1066   ZX=     2.0218
   XY=     0.5551   YY=   188.7992   ZY=    -6.0078
   XZ=     2.4792   YZ=    -5.2573   ZZ=   177.9509
   Eigenvalues:   175.2898   186.8946   191.7762
     18  C    Isotropic =   184.6705   Anisotropy =    10.0960
   XX=   190.0597   YX=     0.0984   ZX=     0.9097
   XY=    -4.0013   YY=   183.5043   ZY=     6.6890
   XZ=    -1.7969   YZ=     6.8069   ZZ=   180.4476
   Eigenvalues:   175.0058   187.6046   191.4012
     19  C    Isotropic =   185.8750   Anisotropy =    12.9542
   XX=   188.9471   YX=     1.0692   ZX=    -2.9721
   XY=     0.3687   YY=   175.5507   ZY=    -3.4448
   XZ=    -0.8069   YZ=    -3.5508   ZZ=   193.1273
   Eigenvalues:   174.8713   188.2427   194.5112
     20  H    Isotropic =    32.1280   Anisotropy =    10.5293
   XX=    38.2019   YX=     2.5623   ZX=     2.1320
   XY=     1.7622   YY=    29.2362   ZY=     1.2712
   XZ=     1.6444   YZ=     1.3964   ZZ=    28.9457
   Eigenvalues:    27.7491    29.4873    39.1475
     21  H    Isotropic =    31.9418   Anisotropy =     6.1502
   XX=    31.5539   YX=     1.3427   ZX=    -1.2233
   XY=     0.7440   YY=    28.8055   ZY=     1.3713
   XZ=    -1.8051   YZ=     0.6820   ZZ=    35.4660
   Eigenvalues:    28.1509    31.6325    36.0420
     22  H    Isotropic =    31.8744   Anisotropy =     6.8916
   XX=    31.3309   YX=    -0.6999   ZX=     0.9815
   XY=    -1.1041   YY=    36.1688   ZY=    -1.3742
   XZ=     0.2568   YZ=    -0.5724   ZZ=    28.1234
   Eigenvalues:    27.9289    31.2255    36.4688
     23  H    Isotropic =    31.9282   Anisotropy =     8.5298
   XX=    29.5032   YX=     0.4131   ZX=    -1.2029
   XY=     0.3856   YY=    31.6436   ZY=     3.7098
   XZ=    -0.9027   YZ=     4.6167   ZZ=    34.6378
   Eigenvalues:    28.0849    30.0849    37.6147
     24  H    Isotropic =    32.3508   Anisotropy =     9.8370
   XX=    38.7225   YX=     1.0531   ZX=    -1.1314
   XY=     0.9256   YY=    28.4360   ZY=    -0.2433
   XZ=    -0.6581   YZ=    -0.1794   ZZ=    29.8940
   Eigenvalues:    28.3311    29.8126    38.9088
     25  H    Isotropic =    32.0492   Anisotropy =     8.0569
   XX=    30.1697   YX=    -1.1574   ZX=    -0.7080
   XY=    -1.1878   YY=    33.5109   ZY=    -3.9680
   XZ=    -0.1691   YZ=    -4.7360   ZZ=    32.4670
   Eigenvalues:    28.0251    30.7020    37.4204
     26  H    Isotropic =    32.2734   Anisotropy =    10.2056
   XX=    38.5820   YX=    -1.7390   ZX=     1.4252
   XY=    -1.3007   YY=    29.6603   ZY=    -0.8309
   XZ=     1.5395   YZ=    -0.8045   ZZ=    28.5780
   Eigenvalues:    28.0977    29.6454    39.0771
     27  H    Isotropic =    31.9052   Anisotropy =     7.9379
   XX=    30.0185   YX=    -0.3527   ZX=     0.2486
   XY=     0.0831   YY=    35.8599   ZY=     3.5817
   XZ=     0.2445   YZ=     2.6925   ZZ=    29.8371
   Eigenvalues:    28.4501    30.0683    37.1971
     28  H    Isotropic =    32.0310   Anisotropy =     6.3500
   XX=    31.8051   YX=    -0.7265   ZX=    -1.8696
   XY=    -0.2560   YY=    30.0653   ZY=    -3.4752
   XZ=    -1.8704   YZ=    -2.4967   ZZ=    34.2225
   Eigenvalues:    28.0243    31.8042    36.2643
     29  H    Isotropic =    30.6561   Anisotropy =     8.3773
   XX=    34.2109   YX=    -1.4855   ZX=    -2.3127
   XY=    -0.8527   YY=    24.2343   ZY=    -0.4259
   XZ=    -2.3209   YZ=    -0.4131   ZZ=    33.5232
   Eigenvalues:    24.0472    31.6801    36.2410
     30  H    Isotropic =    31.4355   Anisotropy =     7.8460
   XX=    28.2347   YX=    -0.6074   ZX=     0.5968
   XY=    -0.3792   YY=    35.1694   ZY=    -2.9366
   XZ=     0.7096   YZ=    -2.7787   ZZ=    30.9024
   Eigenvalues:    28.0770    29.5634    36.6662
     31  H    Isotropic =    31.1940   Anisotropy =     9.6570
   XX=    32.3081   YX=     2.5561   ZX=     3.3216
   XY=     2.3485   YY=    26.2818   ZY=     0.2923
   XZ=     3.6040   YZ=     0.4984   ZZ=    34.9922
   Eigenvalues:    25.3343    30.6157    37.6320
     32  H    Isotropic =    30.1921   Anisotropy =     9.2559
   XX=    34.8836   YX=    -1.2554   ZX=    -2.9505
   XY=    -1.4458   YY=    28.2468   ZY=     3.4010
   XZ=    -2.3659   YZ=     2.4199   ZZ=    27.4458
   Eigenvalues:    24.7676    29.4459    36.3627
     33  H    Isotropic =    30.3405   Anisotropy =     6.0757
   XX=    31.1622   YX=    -0.8005   ZX=     2.5926
   XY=    -0.5217   YY=    30.1324   ZY=    -3.3702
   XZ=     1.9824   YZ=    -2.7779   ZZ=    29.7269
   Eigenvalues:    26.4816    30.1489    34.3910
     34  H    Isotropic =    31.0080   Anisotropy =    11.9983
   XX=    35.4473   YX=     2.9010   ZX=     4.2016
   XY=     3.6655   YY=    29.3769   ZY=     2.2437
   XZ=     4.4593   YZ=     1.8619   ZZ=    28.2000
   Eigenvalues:    26.0673    27.9499    39.0069
     35  H    Isotropic =    31.3925   Anisotropy =     8.2543
   XX=    29.4056   YX=     2.0576   ZX=     0.9337
   XY=     2.3033   YY=    34.2622   ZY=    -4.1645
   XZ=     0.8762   YZ=    -3.4454   ZZ=    30.5096
   Eigenvalues:    26.6862    30.5958    36.8953
     36  H    Isotropic =    31.3141   Anisotropy =     5.9137
   XX=    31.9400   YX=     0.9119   ZX=    -1.7473
   XY=     0.3868   YY=    30.9415   ZY=     4.4194
   XZ=    -1.8575   YZ=     3.6266   ZZ=    31.0607
   Eigenvalues:    26.4282    32.2574    35.2566
     37  C    Isotropic =   141.0744   Anisotropy =    35.4767
   XX=   122.8060   YX=     4.1406   ZX=     0.6867
   XY=     6.2722   YY=   159.5576   ZY=   -10.6941
   XZ=    -0.6372   YZ=   -10.0876   ZZ=   140.8596
   Eigenvalues:   121.9517   136.5459   164.7255
     38  C    Isotropic =    45.3808   Anisotropy =   179.8113
   XX=    70.5903   YX=    31.0491   ZX=    82.0068
   XY=    31.7764   YY=   -22.2038   ZY=   -63.6619
   XZ=    80.7406   YZ=   -63.4641   ZZ=    87.7559
   Eigenvalues:   -80.6679    51.5553   165.2550
     39  C    Isotropic =    63.9913   Anisotropy =   142.9242
   XX=    93.4346   YX=    32.1960   ZX=    60.6983
   XY=    33.8433   YY=     0.0683   ZY=   -60.4456
   XZ=    57.8402   YZ=   -64.1954   ZZ=    98.4709
   Eigenvalues:   -52.5618    85.2616   159.2741
     40  H    Isotropic =    29.4882   Anisotropy =     4.6760
   XX=    31.2698   YX=     1.7173   ZX=     1.0322
   XY=     1.4402   YY=    27.9047   ZY=    -1.2546
   XZ=     2.6823   YZ=    -0.2523   ZZ=    29.2902
   Eigenvalues:    26.4868    29.3723    32.6055
     41  H    Isotropic =    29.6710   Anisotropy =     5.2243
   XX=    28.7321   YX=     0.3609   ZX=    -2.0663
   XY=    -0.7312   YY=    28.3302   ZY=    -0.8493
   XZ=    -1.7327   YZ=    -2.0409   ZZ=    31.9507
   Eigenvalues:    27.1739    28.6852    33.1539
     42  H    Isotropic =    25.7687   Anisotropy =     6.5856
   XX=    27.0848   YX=     1.4217   ZX=     0.0075
   XY=     2.6543   YY=    27.7970   ZY=    -3.1147
   XZ=    -0.1253   YZ=    -2.3996   ZZ=    22.4242
   Eigenvalues:    21.1614    25.9855    30.1591
     43  H    Isotropic =    26.6769   Anisotropy =     6.8951
   XX=    26.5072   YX=     3.4203   ZX=     0.0273
   XY=     1.6678   YY=    28.2272   ZY=    -2.1484
   XZ=    -0.3792   YZ=    -4.0142   ZZ=    25.2962
   Eigenvalues:    22.8556    25.9014    31.2736
     44  H    Isotropic =    26.7524   Anisotropy =     7.1665
   XX=    27.1204   YX=     1.5720   ZX=    -0.8439
   XY=     3.6424   YY=    26.1222   ZY=    -4.6406
   XZ=    -0.2910   YZ=    -2.9772   ZZ=    27.0147
   Eigenvalues:    22.1708    26.5564    31.5301
 End of Minotr F.D. properties file   721 does not exist.
 End of Minotr F.D. properties file   722 does not exist.
 End of Minotr F.D. properties file   788 does not exist.

 **********************************************************************

            Population analysis using the SCF density.

 **********************************************************************

 Orbital symmetries:
       Occupied  (A) (A) (A) (A) (A) (A) (A) (A) (A) (A) (A) (A)
                 (A) (A) (A) (A) (A) (A) (A) (A) (A) (A) (A) (A)
                 (A) (A) (A) (A) (A) (A) (A) (A) (A) (A) (A) (A)
                 (A) (A) (A) (A) (A) (A) (A) (A) (A) (A) (A) (A)
                 (A) (A) (A) (A) (A) (A) (A) (A) (A) (A) (A) (A)
                 (A) (A) (A) (A) (A) (A) (A) (A) (A) (A) (A) (A)
                 (A) (A)
       Virtual   (A) (A) (A) (A) (A) (A) (A) (A) (A) (A) (A) (A)
                 (A) (A) (A) (A) (A) (A) (A) (A) (A) (A) (A) (A)
                 (A) (A) (A) (A) (A) (A) (A) (A) (A) (A) (A) (A)
                 (A) (A) (A) (A) (A) (A) (A) (A) (A) (A) (A) (A)
                 (A) (A) (A) (A) (A) (A) (A) (A) (A) (A) (A) (A)
                 (A) (A) (A) (A) (A) (A) (A) (A) (A) (A) (A) (A)
                 (A) (A) (A) (A) (A) (A) (A) (A) (A) (A) (A) (A)
                 (A) (A) (A) (A) (A) (A) (A) (A) (A) (A) (A) (A)
                 (A) (A) (A) (A) (A) (A) (A) (A) (A) (A) (A) (A)
                 (A) (A) (A) (A) (A) (A) (A) (A) (A) (A) (A) (A)
                 (A) (A) (A) (A) (A) (A) (A) (A) (A) (A) (A) (A)
                 (A) (A) (A) (A) (A) (A) (A) (A) (A) (A) (A) (A)
                 (A) (A) (A) (A) (A) (A) (A) (A) (A) (A) (A) (A)
                 (A) (A) (A) (A) (A) (A) (A) (A) (A) (A) (A) (A)
                 (A) (A) (A) (A) (A) (A) (A) (A) (A) (A) (A) (A)
                 (A) (A) (A) (A) (A) (A) (A) (A) (A) (A) (A) (A)
                 (A) (A) (A) (A) (A) (A) (A) (A) (A) (A) (A) (A)
                 (A) (A) (A) (A) (A) (A) (A) (A) (A) (A) (A) (A)
                 (A) (A) (A) (A) (A) (A) (A) (A) (A) (A) (A) (A)
                 (A) (A) (A) (A) (A) (A) (A) (A) (A) (A) (A) (A)
                 (A) (A) (A) (A) (A) (A) (A) (A) (A) (A) (A) (A)
                 (A) (A) (A) (A) (A) (A) (A) (A) (A) (A) (A) (A)
                 (A) (A) (A) (A) (A) (A) (A) (A) (A) (A) (A) (A)
                 (A) (A) (A) (A) (A) (A) (A) (A) (A) (A) (A) (A)
                 (A) (A) (A) (A) (A) (A) (A) (A) (A) (A) (A) (A)
                 (A) (A) (A) (A) (A) (A) (A) (A) (A) (A) (A) (A)
                 (A) (A) (A) (A) (A) (A) (A) (A) (A) (A) (A) (A)
                 (A) (A) (A) (A) (A) (A) (A) (A) (A) (A) (A) (A)
 The electronic state is 1-A.
 Alpha  occ. eigenvalues --  -66.27041 -19.26250 -19.21392 -19.20032 -10.37425
 Alpha  occ. eigenvalues --  -10.32294 -10.30480 -10.25223 -10.25142 -10.25108
 Alpha  occ. eigenvalues --  -10.24641 -10.23703 -10.23251 -10.22565 -10.22259
 Alpha  occ. eigenvalues --  -10.20919 -10.20543 -10.20531  -5.32869  -3.66715
 Alpha  occ. eigenvalues --   -3.66484  -3.66451  -1.13550  -1.04891  -1.04184
 Alpha  occ. eigenvalues --   -0.86035  -0.83287  -0.81127  -0.77487  -0.74027
 Alpha  occ. eigenvalues --   -0.73558  -0.71913  -0.70352  -0.69932  -0.67005
 Alpha  occ. eigenvalues --   -0.63379  -0.62134  -0.58909  -0.54952  -0.53317
 Alpha  occ. eigenvalues --   -0.53076  -0.51516  -0.51141  -0.48149  -0.47406
 Alpha  occ. eigenvalues --   -0.46757  -0.45458  -0.45113  -0.44616  -0.43776
 Alpha  occ. eigenvalues --   -0.42911  -0.42761  -0.41983  -0.41554  -0.40965
 Alpha  occ. eigenvalues --   -0.40525  -0.40298  -0.39715  -0.39414  -0.39269
 Alpha  occ. eigenvalues --   -0.38541  -0.37994  -0.37394  -0.37075  -0.36514
 Alpha  occ. eigenvalues --   -0.35278  -0.34448  -0.33380  -0.31866  -0.31205
 Alpha  occ. eigenvalues --   -0.30417  -0.29617  -0.28470  -0.27459
 Alpha virt. eigenvalues --   -0.00620   0.00449   0.03904   0.05328   0.06178
 Alpha virt. eigenvalues --    0.06317   0.06882   0.07952   0.08360   0.09132
 Alpha virt. eigenvalues --    0.09618   0.10221   0.10594   0.11198   0.11530
 Alpha virt. eigenvalues --    0.11797   0.12647   0.12908   0.13850   0.14075
 Alpha virt. eigenvalues --    0.14369   0.14807   0.14984   0.15202   0.15398
 Alpha virt. eigenvalues --    0.16144   0.16517   0.16832   0.17565   0.17688
 Alpha virt. eigenvalues --    0.18241   0.19499   0.19994   0.20239   0.20909
 Alpha virt. eigenvalues --    0.21949   0.23040   0.23520   0.24234   0.24536
 Alpha virt. eigenvalues --    0.25026   0.25588   0.26338   0.27499   0.28178
 Alpha virt. eigenvalues --    0.28789   0.30486   0.30834   0.31676   0.32073
 Alpha virt. eigenvalues --    0.33021   0.33299   0.34652   0.35431   0.36265
 Alpha virt. eigenvalues --    0.37176   0.37932   0.38873   0.39566   0.40317
 Alpha virt. eigenvalues --    0.40895   0.41686   0.42551   0.43170   0.44345
 Alpha virt. eigenvalues --    0.45014   0.46471   0.46583   0.47547   0.48807
 Alpha virt. eigenvalues --    0.48942   0.49741   0.50436   0.51821   0.52579
 Alpha virt. eigenvalues --    0.52827   0.53919   0.54954   0.55445   0.56035
 Alpha virt. eigenvalues --    0.56816   0.57041   0.57596   0.57767   0.58788
 Alpha virt. eigenvalues --    0.59372   0.59778   0.60396   0.61079   0.61414
 Alpha virt. eigenvalues --    0.61560   0.61929   0.62389   0.62795   0.62993
 Alpha virt. eigenvalues --    0.63519   0.64007   0.64285   0.64909   0.65702
 Alpha virt. eigenvalues --    0.66496   0.66684   0.67108   0.67321   0.68067
 Alpha virt. eigenvalues --    0.68760   0.69028   0.69686   0.70764   0.70991
 Alpha virt. eigenvalues --    0.72137   0.72669   0.73296   0.74171   0.74445
 Alpha virt. eigenvalues --    0.75424   0.77558   0.78430   0.80537   0.81082
 Alpha virt. eigenvalues --    0.82585   0.83433   0.86033   0.86973   0.88284
 Alpha virt. eigenvalues --    0.89887   0.91108   0.91477   0.92875   0.95080
 Alpha virt. eigenvalues --    0.95706   0.97013   0.98554   0.99293   1.00713
 Alpha virt. eigenvalues --    1.02532   1.03949   1.04670   1.06575   1.09840
 Alpha virt. eigenvalues --    1.11798   1.12669   1.15259   1.17752   1.18967
 Alpha virt. eigenvalues --    1.20845   1.23230   1.25310   1.26011   1.27751
 Alpha virt. eigenvalues --    1.28471   1.29202   1.31151   1.31847   1.33140
 Alpha virt. eigenvalues --    1.33299   1.34788   1.36643   1.40531   1.40977
 Alpha virt. eigenvalues --    1.42071   1.44203   1.44917   1.48006   1.48874
 Alpha virt. eigenvalues --    1.50082   1.51773   1.52950   1.53430   1.53899
 Alpha virt. eigenvalues --    1.54588   1.55201   1.56487   1.56688   1.57585
 Alpha virt. eigenvalues --    1.58944   1.59432   1.60059   1.60324   1.60415
 Alpha virt. eigenvalues --    1.61578   1.61654   1.63422   1.64224   1.64320
 Alpha virt. eigenvalues --    1.64843   1.65715   1.66815   1.68912   1.69466
 Alpha virt. eigenvalues --    1.69963   1.71562   1.72498   1.73582   1.75146
 Alpha virt. eigenvalues --    1.76218   1.76707   1.78606   1.79317   1.80194
 Alpha virt. eigenvalues --    1.80534   1.82035   1.83886   1.85178   1.87399
 Alpha virt. eigenvalues --    1.90106   1.92474   1.93663   1.95163   1.97249
 Alpha virt. eigenvalues --    2.00852   2.03698   2.06669   2.09632   2.12119
 Alpha virt. eigenvalues --    2.13534   2.16737   2.19563   2.21799   2.24302
 Alpha virt. eigenvalues --    2.27823   2.29472   2.34069   2.37440   2.40958
 Alpha virt. eigenvalues --    2.41461   2.41993   2.42102   2.42512   2.43198
 Alpha virt. eigenvalues --    2.44602   2.45160   2.45869   2.46459   2.48298
 Alpha virt. eigenvalues --    2.48412   2.48879   2.50104   2.51517   2.52302
 Alpha virt. eigenvalues --    2.53112   2.54057   2.54300   2.57949   2.59889
 Alpha virt. eigenvalues --    2.62151   2.64422   2.66315   2.72526   2.81540
 Alpha virt. eigenvalues --    2.83113   2.87100   2.88294   2.89671   2.91469
 Alpha virt. eigenvalues --    2.92955   2.93244   2.94914   2.95873   2.97037
 Alpha virt. eigenvalues --    2.99976   3.01363   3.01624   3.03958   3.07453
 Alpha virt. eigenvalues --    3.08834   3.09930   3.13703   3.14510   3.14817
 Alpha virt. eigenvalues --    3.15671   3.16967   3.18646   3.19803   3.21410
 Alpha virt. eigenvalues --    3.22668   3.22982   3.23238   3.24110   3.24956
 Alpha virt. eigenvalues --    3.26747   3.27818   3.28681   3.29805   3.33558
 Alpha virt. eigenvalues --    3.34516   3.34706   3.37889   3.39452   3.40348
 Alpha virt. eigenvalues --    3.44405   3.51117   3.56261   3.59543   3.63426
 Alpha virt. eigenvalues --    3.77100   3.88835   3.90442   3.98415   4.00523
 Alpha virt. eigenvalues --    4.08493   4.11130   4.19584   4.22188   4.24715
 Alpha virt. eigenvalues --    4.94620   4.99488   5.01624   5.08888   5.14191
 Alpha virt. eigenvalues --    5.24050   5.51079   5.53539   5.77946   5.85653
 Alpha virt. eigenvalues --   11.52907  11.53677  11.59546  23.41607  23.48977
 Alpha virt. eigenvalues --   23.54597  23.55052  23.58240  23.60612  23.70092
 Alpha virt. eigenvalues --   23.75998  23.77754  23.77988  23.80909  23.86201
 Alpha virt. eigenvalues --   23.88391  24.26811  49.98318  50.04499  50.11589
 Alpha virt. eigenvalues --  141.29999
          Condensed to atoms (all electrons):
               1          2          3          4          5          6
     1  C    5.238669   0.235533  -0.057984  -0.003753  -0.054412   0.397879
     2  C    0.235533   5.625285   0.284755  -0.069393  -0.019319  -0.052064
     3  C   -0.057984   0.284755   5.209464   0.206920  -0.014846  -0.016739
     4  C   -0.003753  -0.069393   0.206920   5.885413   0.231818   0.003056
     5  C   -0.054412  -0.019319  -0.014846   0.231818   4.409603  -0.002945
     6  H    0.397879  -0.052064  -0.016739   0.003056  -0.002945   0.476480
     7  H   -0.024199   0.389090  -0.039746   0.007922   0.000213  -0.000639
     8  H    0.002017  -0.007569  -0.029675   0.373534  -0.019672  -0.000278
     9  H   -0.001271   0.008143  -0.032765   0.355704  -0.027191   0.000192
    10  O    0.211692  -0.041454   0.002601  -0.107186   0.349121  -0.032725
    11  O    0.001352  -0.000371   0.004872  -0.103147   0.660131   0.000251
    12  C    0.342948  -0.053044   0.008881  -0.001544   0.003890  -0.049046
    13  C   -0.074872   0.002159  -0.000556   0.000123  -0.000155   0.001533
    14  C   -0.084209   0.294017  -0.078590  -0.008895   0.000516   0.007631
    15  O    0.003634  -0.060454   0.217537  -0.029691   0.001637  -0.000030
    16  Si   0.000060   0.003156  -0.047889  -0.011083   0.001565  -0.000028
    17  C    0.000002  -0.000291  -0.000334  -0.000153   0.000004   0.000000
    18  C    0.000014  -0.000199  -0.001529  -0.006455  -0.000270   0.000000
    19  C    0.000000   0.000030   0.002556  -0.000393  -0.000006   0.000000
    20  H    0.000000   0.000007  -0.000112   0.000449  -0.000002   0.000000
    21  H    0.000009  -0.000084   0.000952  -0.001622  -0.000188  -0.000003
    22  H    0.000005  -0.000095   0.000145   0.000232  -0.000122   0.000001
    23  H   -0.000001   0.000042  -0.000124  -0.000021   0.000000   0.000000
    24  H    0.000000   0.000001  -0.000069  -0.000001   0.000000   0.000000
    25  H    0.000000   0.000006   0.000005   0.000026  -0.000002   0.000000
    26  H    0.000000   0.000006  -0.000022  -0.000010   0.000000   0.000000
    27  H   -0.000002   0.000019   0.000282  -0.000023   0.000001   0.000000
    28  H    0.000001  -0.000050   0.000233  -0.000047   0.000004  -0.000001
    29  H    0.006734  -0.034343  -0.006060  -0.000132  -0.000103  -0.000131
    30  H   -0.006513  -0.038468  -0.011145   0.006983  -0.001770   0.000530
    31  H   -0.007365  -0.033934   0.007515  -0.000678   0.000022  -0.000301
    32  H   -0.047056   0.009369  -0.000169   0.000270  -0.000227  -0.007957
    33  H   -0.039334  -0.012857  -0.000455   0.000154  -0.000086   0.007484
    34  H    0.007816  -0.000100   0.000011  -0.000001   0.000005  -0.000291
    35  H   -0.002155  -0.002879  -0.000225   0.000003  -0.000005   0.005227
    36  H   -0.009712   0.004618   0.000194  -0.000009  -0.000002  -0.000489
    37  C    0.003361  -0.092795   0.318552  -0.098709   0.003721   0.004272
    38  C   -0.003689  -0.014438  -0.062894   0.008311  -0.000294   0.000077
    39  C   -0.001105   0.000063  -0.002276  -0.000088  -0.000034   0.003475
    40  H   -0.000252   0.006394  -0.041347  -0.003295  -0.000166   0.000712
    41  H   -0.000572  -0.000999  -0.025077  -0.005608   0.002956  -0.001614
    42  H    0.000179  -0.001281  -0.000687   0.000031  -0.000007   0.000023
    43  H    0.000051   0.000030  -0.000341   0.000016   0.000000   0.000020
    44  H    0.000056  -0.000211   0.000294  -0.000055  -0.000016   0.001086
               7          8          9         10         11         12
     1  C   -0.024199   0.002017  -0.001271   0.211692   0.001352   0.342948
     2  C    0.389090  -0.007569   0.008143  -0.041454  -0.000371  -0.053044
     3  C   -0.039746  -0.029675  -0.032765   0.002601   0.004872   0.008881
     4  C    0.007922   0.373534   0.355704  -0.107186  -0.103147  -0.001544
     5  C    0.000213  -0.019672  -0.027191   0.349121   0.660131   0.003890
     6  H   -0.000639  -0.000278   0.000192  -0.032725   0.000251  -0.049046
     7  H    0.441888  -0.000201  -0.000077   0.003118   0.000020  -0.008053
     8  H   -0.000201   0.392984  -0.015612  -0.000548   0.000709   0.000017
     9  H   -0.000077  -0.015612   0.427294   0.005448   0.013625   0.000054
    10  O    0.003118  -0.000548   0.005448   8.023510  -0.070006  -0.047542
    11  O    0.000020   0.000709   0.013625  -0.070006   7.877566  -0.000152
    12  C   -0.008053   0.000017   0.000054  -0.047542  -0.000152   5.316478
    13  C    0.001975  -0.000009  -0.000002   0.003790   0.000001   0.285175
    14  C   -0.038882   0.000429   0.000089   0.000042  -0.000012  -0.008183
    15  O    0.003014  -0.001321  -0.000715  -0.000030  -0.000019  -0.000063
    16  Si   0.000386   0.000378  -0.002813  -0.000184  -0.000319   0.000011
    17  C   -0.000031   0.000051  -0.000121   0.000000   0.000000   0.000000
    18  C    0.000027   0.000322  -0.004428  -0.000003  -0.000033   0.000000
    19  C    0.000003  -0.000115   0.000029   0.000000   0.000000   0.000000
    20  H    0.000000  -0.000021   0.000443   0.000000   0.000000   0.000000
    21  H    0.000002  -0.000131   0.001451  -0.000003  -0.000078   0.000000
    22  H    0.000006   0.001321  -0.001958  -0.000001  -0.000001   0.000000
    23  H   -0.000004  -0.000018  -0.000005   0.000000   0.000000   0.000000
    24  H    0.000000   0.000003  -0.000002   0.000000   0.000000   0.000000
    25  H    0.000004   0.000079  -0.000003   0.000000   0.000000   0.000000
    26  H   -0.000001   0.000000  -0.000001   0.000000   0.000000   0.000000
    27  H   -0.000029  -0.000002  -0.000003   0.000000   0.000000   0.000000
    28  H   -0.000014   0.000013  -0.000046   0.000000   0.000000   0.000000
    29  H   -0.002526   0.000435  -0.000130  -0.000107   0.000002   0.000012
    30  H    0.006709  -0.000608   0.000421   0.009045  -0.000323  -0.003235
    31  H   -0.006169   0.000159   0.000019  -0.000072   0.000002   0.002244
    32  H   -0.000283   0.000011  -0.000012   0.004019  -0.000026   0.403415
    33  H    0.000187  -0.000056   0.000002   0.003163  -0.000020   0.391194
    34  H    0.000248   0.000000   0.000000  -0.000120   0.000000  -0.033560
    35  H    0.000229  -0.000001   0.000000  -0.000022   0.000000  -0.043383
    36  H   -0.000016  -0.000001   0.000000  -0.000050   0.000000  -0.034857
    37  C   -0.009911   0.005347  -0.007601  -0.003036  -0.000101  -0.000626
    38  C    0.007964  -0.000177   0.000119   0.000324  -0.000001  -0.000156
    39  C    0.001856   0.000000  -0.000007  -0.000019   0.000000  -0.000136
    40  H    0.000237  -0.000273   0.002716  -0.000095   0.000005  -0.000004
    41  H   -0.000037   0.000232   0.000095   0.000291   0.000183   0.000485
    42  H    0.000133   0.000022  -0.000010   0.000004   0.000000   0.000019
    43  H    0.000120  -0.000001   0.000001   0.000000   0.000000  -0.000012
    44  H   -0.000030   0.000002   0.000003  -0.000021   0.000000   0.000058
              13         14         15         16         17         18
     1  C   -0.074872  -0.084209   0.003634   0.000060   0.000002   0.000014
     2  C    0.002159   0.294017  -0.060454   0.003156  -0.000291  -0.000199
     3  C   -0.000556  -0.078590   0.217537  -0.047889  -0.000334  -0.001529
     4  C    0.000123  -0.008895  -0.029691  -0.011083  -0.000153  -0.006455
     5  C   -0.000155   0.000516   0.001637   0.001565   0.000004  -0.000270
     6  H    0.001533   0.007631  -0.000030  -0.000028   0.000000   0.000000
     7  H    0.001975  -0.038882   0.003014   0.000386  -0.000031   0.000027
     8  H   -0.000009   0.000429  -0.001321   0.000378   0.000051   0.000322
     9  H   -0.000002   0.000089  -0.000715  -0.002813  -0.000121  -0.004428
    10  O    0.003790   0.000042  -0.000030  -0.000184   0.000000  -0.000003
    11  O    0.000001  -0.000012  -0.000019  -0.000319   0.000000  -0.000033
    12  C    0.285175  -0.008183  -0.000063   0.000011   0.000000   0.000000
    13  C    5.370029  -0.002365  -0.000001  -0.000006   0.000000   0.000000
    14  C   -0.002365   5.422951  -0.007428  -0.000478   0.000012  -0.000057
    15  O   -0.000001  -0.007428   8.252892   0.355368  -0.025589  -0.021608
    16  Si  -0.000006  -0.000478   0.355368  11.527334   0.323630   0.318063
    17  C    0.000000   0.000012  -0.025589   0.323630   5.774978  -0.058579
    18  C    0.000000  -0.000057  -0.021608   0.318063  -0.058579   5.803630
    19  C    0.000000   0.000003  -0.022822   0.330993  -0.056207  -0.049871
    20  H    0.000000   0.000000   0.000662  -0.008987  -0.000322   0.367288
    21  H    0.000000  -0.000004  -0.000997  -0.029890  -0.001445   0.366637
    22  H    0.000000  -0.000016  -0.001909  -0.026770   0.002482   0.367950
    23  H    0.000000   0.000021  -0.001272  -0.025546  -0.001099   0.002664
    24  H    0.000000  -0.000001   0.000942  -0.012627   0.000596  -0.000215
    25  H    0.000000   0.000062  -0.001282  -0.027296   0.002533  -0.000460
    26  H    0.000000   0.000000   0.000990  -0.010953   0.363806   0.000357
    27  H    0.000000   0.000002  -0.002503  -0.025792   0.370588   0.002425
    28  H    0.000000   0.000002  -0.001628  -0.029990   0.368808  -0.001651
    29  H   -0.000042   0.386952   0.008165   0.000769  -0.000014   0.000037
    30  H    0.000543   0.384654   0.000027  -0.000339   0.000001  -0.000007
    31  H   -0.000800   0.387823   0.000274   0.000111   0.000001  -0.000001
    32  H   -0.038201  -0.000379   0.000004   0.000001   0.000000   0.000000
    33  H   -0.036745   0.005228  -0.000001   0.000000   0.000000   0.000000
    34  H    0.389639  -0.000104   0.000000   0.000000   0.000000   0.000000
    35  H    0.384590   0.000487   0.000000   0.000002   0.000000   0.000000
    36  H    0.384156   0.000269  -0.000018  -0.000009   0.000000   0.000000
    37  C    0.000045   0.007962  -0.049650  -0.004506  -0.000007  -0.002016
    38  C   -0.000035  -0.000161   0.003897  -0.002532  -0.002098   0.000172
    39  C   -0.000025  -0.000007   0.000451   0.000579  -0.000119  -0.000001
    40  H    0.000000  -0.000102  -0.004268   0.006653   0.000920   0.000785
    41  H   -0.000031  -0.000275   0.003508   0.001352   0.000034  -0.000036
    42  H    0.000001  -0.000055   0.003952   0.000398  -0.000823   0.000069
    43  H    0.000032  -0.000002   0.000013   0.000003   0.000012   0.000000
    44  H    0.000048   0.000003  -0.000006  -0.000011  -0.000005   0.000000
              19         20         21         22         23         24
     1  C    0.000000   0.000000   0.000009   0.000005  -0.000001   0.000000
     2  C    0.000030   0.000007  -0.000084  -0.000095   0.000042   0.000001
     3  C    0.002556  -0.000112   0.000952   0.000145  -0.000124  -0.000069
     4  C   -0.000393   0.000449  -0.001622   0.000232  -0.000021  -0.000001
     5  C   -0.000006  -0.000002  -0.000188  -0.000122   0.000000   0.000000
     6  H    0.000000   0.000000  -0.000003   0.000001   0.000000   0.000000
     7  H    0.000003   0.000000   0.000002   0.000006  -0.000004   0.000000
     8  H   -0.000115  -0.000021  -0.000131   0.001321  -0.000018   0.000003
     9  H    0.000029   0.000443   0.001451  -0.001958  -0.000005  -0.000002
    10  O    0.000000   0.000000  -0.000003  -0.000001   0.000000   0.000000
    11  O    0.000000   0.000000  -0.000078  -0.000001   0.000000   0.000000
    12  C    0.000000   0.000000   0.000000   0.000000   0.000000   0.000000
    13  C    0.000000   0.000000   0.000000   0.000000   0.000000   0.000000
    14  C    0.000003   0.000000  -0.000004  -0.000016   0.000021  -0.000001
    15  O   -0.022822   0.000662  -0.000997  -0.001909  -0.001272   0.000942
    16  Si   0.330993  -0.008987  -0.029890  -0.026770  -0.025546  -0.012627
    17  C   -0.056207  -0.000322  -0.001445   0.002482  -0.001099   0.000596
    18  C   -0.049871   0.367288   0.366637   0.367950   0.002664  -0.000215
    19  C    5.727894  -0.000794   0.002996  -0.000348   0.369498   0.363982
    20  H   -0.000794   0.430357  -0.019491  -0.020063  -0.000051   0.000500
    21  H    0.002996  -0.019491   0.448301  -0.018996  -0.000098  -0.000061
    22  H   -0.000348  -0.020063  -0.018996   0.445788  -0.000057  -0.000078
    23  H    0.369498  -0.000051  -0.000098  -0.000057   0.456855  -0.020908
    24  H    0.363982   0.000500  -0.000061  -0.000078  -0.020908   0.453955
    25  H    0.369310  -0.000065  -0.000101   0.001231  -0.018213  -0.020834
    26  H   -0.000100   0.000316   0.000082  -0.000037  -0.000066   0.000606
    27  H   -0.000694  -0.000040  -0.000008  -0.000098   0.001152  -0.000027
    28  H    0.002761   0.000021   0.000818  -0.000045  -0.000106  -0.000065
    29  H    0.000099   0.000000   0.000003   0.000012   0.000084   0.000002
    30  H   -0.000004   0.000000  -0.000004  -0.000009  -0.000005  -0.000001
    31  H   -0.000004   0.000000   0.000000  -0.000001   0.000000   0.000000
    32  H    0.000000   0.000000   0.000000   0.000000   0.000000   0.000000
    33  H    0.000000   0.000000   0.000000   0.000000   0.000000   0.000000
    34  H    0.000000   0.000000   0.000000   0.000000   0.000000   0.000000
    35  H    0.000000   0.000000   0.000000   0.000000   0.000000   0.000000
    36  H    0.000000   0.000000   0.000000   0.000000   0.000000   0.000000
    37  C   -0.000113   0.000066   0.000191   0.000238  -0.000015   0.000010
    38  C   -0.000032  -0.000005   0.000065   0.000003  -0.000002  -0.000001
    39  C    0.000000   0.000000  -0.000003   0.000001   0.000000   0.000000
    40  H    0.000010   0.000070   0.003428  -0.000235   0.000006   0.000012
    41  H    0.000011  -0.000003  -0.000062   0.000011   0.000000  -0.000001
    42  H   -0.000042   0.000001   0.000026   0.000000  -0.000015   0.000001
    43  H    0.000000   0.000000   0.000000   0.000000   0.000000   0.000000
    44  H    0.000000   0.000000   0.000000   0.000000   0.000000   0.000000
              25         26         27         28         29         30
     1  C    0.000000   0.000000  -0.000002   0.000001   0.006734  -0.006513
     2  C    0.000006   0.000006   0.000019  -0.000050  -0.034343  -0.038468
     3  C    0.000005  -0.000022   0.000282   0.000233  -0.006060  -0.011145
     4  C    0.000026  -0.000010  -0.000023  -0.000047  -0.000132   0.006983
     5  C   -0.000002   0.000000   0.000001   0.000004  -0.000103  -0.001770
     6  H    0.000000   0.000000   0.000000  -0.000001  -0.000131   0.000530
     7  H    0.000004  -0.000001  -0.000029  -0.000014  -0.002526   0.006709
     8  H    0.000079   0.000000  -0.000002   0.000013   0.000435  -0.000608
     9  H   -0.000003  -0.000001  -0.000003  -0.000046  -0.000130   0.000421
    10  O    0.000000   0.000000   0.000000   0.000000  -0.000107   0.009045
    11  O    0.000000   0.000000   0.000000   0.000000   0.000002  -0.000323
    12  C    0.000000   0.000000   0.000000   0.000000   0.000012  -0.003235
    13  C    0.000000   0.000000   0.000000   0.000000  -0.000042   0.000543
    14  C    0.000062   0.000000   0.000002   0.000002   0.386952   0.384654
    15  O   -0.001282   0.000990  -0.002503  -0.001628   0.008165   0.000027
    16  Si  -0.027296  -0.010953  -0.025792  -0.029990   0.000769  -0.000339
    17  C    0.002533   0.363806   0.370588   0.368808  -0.000014   0.000001
    18  C   -0.000460   0.000357   0.002425  -0.001651   0.000037  -0.000007
    19  C    0.369310  -0.000100  -0.000694   0.002761   0.000099  -0.000004
    20  H   -0.000065   0.000316  -0.000040   0.000021   0.000000   0.000000
    21  H   -0.000101   0.000082  -0.000008   0.000818   0.000003  -0.000004
    22  H    0.001231  -0.000037  -0.000098  -0.000045   0.000012  -0.000009
    23  H   -0.018213  -0.000066   0.001152  -0.000106   0.000084  -0.000005
    24  H   -0.020834   0.000606  -0.000027  -0.000065   0.000002  -0.000001
    25  H    0.459611  -0.000015  -0.000088  -0.000117   0.000182  -0.000002
    26  H   -0.000015   0.449231  -0.021253  -0.021979   0.000000   0.000000
    27  H   -0.000088  -0.021253   0.452334  -0.018839  -0.000011   0.000000
    28  H   -0.000117  -0.021979  -0.018839   0.455696  -0.000001   0.000000
    29  H    0.000182   0.000000  -0.000011  -0.000001   0.430230  -0.023888
    30  H   -0.000002   0.000000   0.000000   0.000000  -0.023888   0.475127
    31  H   -0.000003   0.000000   0.000001   0.000000  -0.026869  -0.026994
    32  H    0.000000   0.000000   0.000000   0.000000   0.000018  -0.000215
    33  H    0.000000   0.000000   0.000000   0.000000   0.000176   0.001220
    34  H    0.000000   0.000000   0.000000   0.000000  -0.000003   0.000005
    35  H    0.000000   0.000000   0.000000   0.000000   0.000009  -0.000006
    36  H    0.000000   0.000000   0.000000   0.000000  -0.000053  -0.000100
    37  C   -0.000015   0.000014   0.000125   0.000948   0.000314  -0.000074
    38  C    0.000002   0.000114  -0.000228   0.000355   0.000009  -0.000048
    39  C    0.000000   0.000002  -0.000057   0.000240   0.000003  -0.000004
    40  H   -0.000001   0.000011  -0.000040   0.002074  -0.000014   0.000014
    41  H    0.000001   0.000000  -0.000015  -0.000006  -0.000036  -0.000007
    42  H    0.000001   0.000243   0.000988  -0.001203   0.000013  -0.000007
    43  H    0.000000  -0.000001  -0.000009   0.000013   0.000000   0.000000
    44  H    0.000000   0.000000   0.000001  -0.000009   0.000000   0.000000
              31         32         33         34         35         36
     1  C   -0.007365  -0.047056  -0.039334   0.007816  -0.002155  -0.009712
     2  C   -0.033934   0.009369  -0.012857  -0.000100  -0.002879   0.004618
     3  C    0.007515  -0.000169  -0.000455   0.000011  -0.000225   0.000194
     4  C   -0.000678   0.000270   0.000154  -0.000001   0.000003  -0.000009
     5  C    0.000022  -0.000227  -0.000086   0.000005  -0.000005  -0.000002
     6  H   -0.000301  -0.007957   0.007484  -0.000291   0.005227  -0.000489
     7  H   -0.006169  -0.000283   0.000187   0.000248   0.000229  -0.000016
     8  H    0.000159   0.000011  -0.000056   0.000000  -0.000001  -0.000001
     9  H    0.000019  -0.000012   0.000002   0.000000   0.000000   0.000000
    10  O   -0.000072   0.004019   0.003163  -0.000120  -0.000022  -0.000050
    11  O    0.000002  -0.000026  -0.000020   0.000000   0.000000   0.000000
    12  C    0.002244   0.403415   0.391194  -0.033560  -0.043383  -0.034857
    13  C   -0.000800  -0.038201  -0.036745   0.389639   0.384590   0.384156
    14  C    0.387823  -0.000379   0.005228  -0.000104   0.000487   0.000269
    15  O    0.000274   0.000004  -0.000001   0.000000   0.000000  -0.000018
    16  Si   0.000111   0.000001   0.000000   0.000000   0.000002  -0.000009
    17  C    0.000001   0.000000   0.000000   0.000000   0.000000   0.000000
    18  C   -0.000001   0.000000   0.000000   0.000000   0.000000   0.000000
    19  C   -0.000004   0.000000   0.000000   0.000000   0.000000   0.000000
    20  H    0.000000   0.000000   0.000000   0.000000   0.000000   0.000000
    21  H    0.000000   0.000000   0.000000   0.000000   0.000000   0.000000
    22  H   -0.000001   0.000000   0.000000   0.000000   0.000000   0.000000
    23  H    0.000000   0.000000   0.000000   0.000000   0.000000   0.000000
    24  H    0.000000   0.000000   0.000000   0.000000   0.000000   0.000000
    25  H   -0.000003   0.000000   0.000000   0.000000   0.000000   0.000000
    26  H    0.000000   0.000000   0.000000   0.000000   0.000000   0.000000
    27  H    0.000001   0.000000   0.000000   0.000000   0.000000   0.000000
    28  H    0.000000   0.000000   0.000000   0.000000   0.000000   0.000000
    29  H   -0.026869   0.000018   0.000176  -0.000003   0.000009  -0.000053
    30  H   -0.026994  -0.000215   0.001220   0.000005  -0.000006  -0.000100
    31  H    0.461997   0.000284  -0.001634   0.000004  -0.000077   0.003231
    32  H    0.000284   0.475116  -0.033290  -0.006291  -0.004802   0.006549
    33  H   -0.001634  -0.033290   0.478198  -0.004245   0.007035  -0.006162
    34  H    0.000004  -0.006291  -0.004245   0.462578  -0.025205  -0.026819
    35  H   -0.000077  -0.004802   0.007035  -0.025205   0.475275  -0.027079
    36  H    0.003231   0.006549  -0.006162  -0.026819  -0.027079   0.474329
    37  C   -0.000114   0.000015  -0.000003  -0.000001  -0.000076   0.000017
    38  C   -0.000035  -0.000012  -0.000023   0.000005   0.000535   0.000020
    39  C   -0.000001  -0.000004  -0.000004   0.000006   0.001357   0.000042
    40  H    0.000010  -0.000003   0.000002   0.000000   0.000007   0.000000
    41  H   -0.000008  -0.000010  -0.000022   0.000002  -0.000067   0.000008
    42  H    0.000002   0.000000  -0.000001   0.000000   0.000000   0.000002
    43  H   -0.000001   0.000000   0.000001  -0.000001   0.000048   0.000003
    44  H    0.000001  -0.000002   0.000001  -0.000002   0.000037   0.000004
              37         38         39         40         41         42
     1  C    0.003361  -0.003689  -0.001105  -0.000252  -0.000572   0.000179
     2  C   -0.092795  -0.014438   0.000063   0.006394  -0.000999  -0.001281
     3  C    0.318552  -0.062894  -0.002276  -0.041347  -0.025077  -0.000687
     4  C   -0.098709   0.008311  -0.000088  -0.003295  -0.005608   0.000031
     5  C    0.003721  -0.000294  -0.000034  -0.000166   0.002956  -0.000007
     6  H    0.004272   0.000077   0.003475   0.000712  -0.001614   0.000023
     7  H   -0.009911   0.007964   0.001856   0.000237  -0.000037   0.000133
     8  H    0.005347  -0.000177   0.000000  -0.000273   0.000232   0.000022
     9  H   -0.007601   0.000119  -0.000007   0.002716   0.000095  -0.000010
    10  O   -0.003036   0.000324  -0.000019  -0.000095   0.000291   0.000004
    11  O   -0.000101  -0.000001   0.000000   0.000005   0.000183   0.000000
    12  C   -0.000626  -0.000156  -0.000136  -0.000004   0.000485   0.000019
    13  C    0.000045  -0.000035  -0.000025   0.000000  -0.000031   0.000001
    14  C    0.007962  -0.000161  -0.000007  -0.000102  -0.000275  -0.000055
    15  O   -0.049650   0.003897   0.000451  -0.004268   0.003508   0.003952
    16  Si  -0.004506  -0.002532   0.000579   0.006653   0.001352   0.000398
    17  C   -0.000007  -0.002098  -0.000119   0.000920   0.000034  -0.000823
    18  C   -0.002016   0.000172  -0.000001   0.000785  -0.000036   0.000069
    19  C   -0.000113  -0.000032   0.000000   0.000010   0.000011  -0.000042
    20  H    0.000066  -0.000005   0.000000   0.000070  -0.000003   0.000001
    21  H    0.000191   0.000065  -0.000003   0.003428  -0.000062   0.000026
    22  H    0.000238   0.000003   0.000001  -0.000235   0.000011   0.000000
    23  H   -0.000015  -0.000002   0.000000   0.000006   0.000000  -0.000015
    24  H    0.000010  -0.000001   0.000000   0.000012  -0.000001   0.000001
    25  H   -0.000015   0.000002   0.000000  -0.000001   0.000001   0.000001
    26  H    0.000014   0.000114   0.000002   0.000011   0.000000   0.000243
    27  H    0.000125  -0.000228  -0.000057  -0.000040  -0.000015   0.000988
    28  H    0.000948   0.000355   0.000240   0.002074  -0.000006  -0.001203
    29  H    0.000314   0.000009   0.000003  -0.000014  -0.000036   0.000013
    30  H   -0.000074  -0.000048  -0.000004   0.000014  -0.000007  -0.000007
    31  H   -0.000114  -0.000035  -0.000001   0.000010  -0.000008   0.000002
    32  H    0.000015  -0.000012  -0.000004  -0.000003  -0.000010   0.000000
    33  H   -0.000003  -0.000023  -0.000004   0.000002  -0.000022  -0.000001
    34  H   -0.000001   0.000005   0.000006   0.000000   0.000002   0.000000
    35  H   -0.000076   0.000535   0.001357   0.000007  -0.000067   0.000000
    36  H    0.000017   0.000020   0.000042   0.000000   0.000008   0.000002
    37  C    5.479846   0.315932  -0.057450   0.392220   0.384613  -0.047391
    38  C    0.315932   5.073200   0.621674  -0.042045  -0.045464   0.397767
    39  C   -0.057450   0.621674   5.140074  -0.002087   0.001969  -0.038095
    40  H    0.392220  -0.042045  -0.002087   0.443856  -0.026169  -0.001531
    41  H    0.384613  -0.045464   0.001969  -0.026169   0.446975   0.004474
    42  H   -0.047391   0.397767  -0.038095  -0.001531   0.004474   0.453107
    43  H    0.006393  -0.039191   0.392573  -0.000345   0.000145  -0.007761
    44  H   -0.009065  -0.040822   0.388406   0.000129   0.004335   0.005753
              43         44
     1  C    0.000051   0.000056
     2  C    0.000030  -0.000211
     3  C   -0.000341   0.000294
     4  C    0.000016  -0.000055
     5  C    0.000000  -0.000016
     6  H    0.000020   0.001086
     7  H    0.000120  -0.000030
     8  H   -0.000001   0.000002
     9  H    0.000001   0.000003
    10  O    0.000000  -0.000021
    11  O    0.000000   0.000000
    12  C   -0.000012   0.000058
    13  C    0.000032   0.000048
    14  C   -0.000002   0.000003
    15  O    0.000013  -0.000006
    16  Si   0.000003  -0.000011
    17  C    0.000012  -0.000005
    18  C    0.000000   0.000000
    19  C    0.000000   0.000000
    20  H    0.000000   0.000000
    21  H    0.000000   0.000000
    22  H    0.000000   0.000000
    23  H    0.000000   0.000000
    24  H    0.000000   0.000000
    25  H    0.000000   0.000000
    26  H   -0.000001   0.000000
    27  H   -0.000009   0.000001
    28  H    0.000013  -0.000009
    29  H    0.000000   0.000000
    30  H    0.000000   0.000000
    31  H   -0.000001   0.000001
    32  H    0.000000  -0.000002
    33  H    0.000001   0.000001
    34  H   -0.000001  -0.000002
    35  H    0.000048   0.000037
    36  H    0.000003   0.000004
    37  C    0.006393  -0.009065
    38  C   -0.039191  -0.040822
    39  C    0.392573   0.388406
    40  H   -0.000345   0.000129
    41  H    0.000145   0.004335
    42  H   -0.007761   0.005753
    43  H    0.451720  -0.032561
    44  H   -0.032561   0.457963
 Mulliken charges:
               1
     1  C   -0.033559
     2  C   -0.326031
     3  C    0.205888
     4  C   -0.628971
     5  C    0.476633
     6  H    0.255351
     7  H    0.265497
     8  H    0.298224
     9  H    0.278927
    10  O   -0.312942
    11  O   -0.384111
    12  C   -0.471284
    13  C   -0.669993
    14  C   -0.668953
    15  O   -0.623664
    16  Si   1.397239
    17  C   -1.061221
    18  C   -1.083021
    19  C   -1.038629
    20  H    0.249776
    21  H    0.248306
    22  H    0.251413
    23  H    0.237302
    24  H    0.234277
    25  H    0.235443
    26  H    0.238659
    27  H    0.241844
    28  H    0.243808
    29  H    0.260205
    30  H    0.228496
    31  H    0.241360
    32  H    0.239871
    33  H    0.240893
    34  H    0.236426
    35  H    0.231140
    36  H    0.231935
    37  C   -0.540927
    38  C   -0.176160
    39  C   -0.451250
    40  H    0.261996
    41  H    0.254438
    42  H    0.231697
    43  H    0.229030
    44  H    0.224640
 Sum of Mulliken charges =   0.00000
 Mulliken charges with hydrogens summed into heavy atoms:
               1
     1  C    0.221793
     2  C   -0.060535
     3  C    0.205888
     4  C   -0.051821
     5  C    0.476633
    10  O   -0.312942
    11  O   -0.384111
    12  C    0.009480
    13  C    0.029508
    14  C    0.061109
    15  O   -0.623664
    16  Si   1.397239
    17  C   -0.336910
    18  C   -0.333526
    19  C   -0.331606
    37  C   -0.024493
    38  C    0.055538
    39  C    0.002420
 Electronic spatial extent (au):  <R**2>=           5495.7615
 Charge=              0.0000 electrons
 Dipole moment (field-independent basis, Debye):
    X=             -1.5917    Y=              4.1242    Z=              1.4701  Tot=              4.6588
 Quadrupole moment (field-independent basis, Debye-Ang):
   XX=           -114.9980   YY=           -132.0552   ZZ=           -122.0127
   XY=             12.5257   XZ=              5.6407   YZ=             -8.4000
 Traceless Quadrupole moment (field-independent basis, Debye-Ang):
   XX=              8.0240   YY=             -9.0332   ZZ=              1.0093
   XY=             12.5257   XZ=              5.6407   YZ=             -8.4000
 Octapole moment (field-independent basis, Debye-Ang**2):
  XXX=              2.1385  YYY=             40.4327  ZZZ=              2.1226  XYY=            -21.5590
  XXY=             18.1427  XXZ=              7.6315  XZZ=             10.0035  YZZ=              8.9017
  YYZ=             33.7169  XYZ=            -19.4112
 Hexadecapole moment (field-independent basis, Debye-Ang**3):
 XXXX=          -4291.9673 YYYY=          -1878.4455 ZZZZ=          -1223.9270 XXXY=             52.3220
 XXXZ=             45.5199 YYYX=             76.3315 YYYZ=            -86.0127 ZZZX=              8.7352
 ZZZY=             12.7162 XXYY=          -1118.1201 XXZZ=           -961.3329 YYZZ=           -553.7393
 XXYZ=            -14.7318 YYXZ=             15.5180 ZZXY=             21.8914
 N-N= 1.630294810610D+03 E-N=-5.755542367517D+03  KE= 1.060516127026D+03
 1\1\GINC-SWANNODE-0-8\SP\RmPW1PW91\6-311G(d)\C14H26O3Si1\AH809\08-Mar-
 2018\0\\#mPW1PW91/6-311g(d) nmr=(giao) scrf=(solvent=chloroform)\\P_ng
 _3ginp004\\0,1\C,0,-0.112027,0.566194,-0.158359\C,0,-1.522052,0.200998
 ,0.319546\C,0,-1.824374,0.969399,1.649711\C,0,-1.683696,2.469236,1.359
 527\C,0,-0.469496,2.871187,0.56506\H,0,0.631841,0.266554,0.587521\H,0,
 -1.575275,-0.876287,0.519339\H,0,-2.563427,2.847095,0.824811\H,0,-1.62
 8565,3.023176,2.302693\O,0,0.033958,1.991689,-0.324183\O,0,-0.01227,4.
 008255,0.64796\C,0,0.330596,-0.077066,-1.482365\C,0,0.334599,-1.596721
 ,-1.45302\C,0,-2.585036,0.467291,-0.768866\O,0,-3.189541,0.617518,1.96
 9447\Si,0,-4.139982,1.093408,3.260848\C,0,-3.95515,-0.096476,4.709027\
 C,0,-3.814387,2.828346,3.887625\C,0,-5.953701,1.030387,2.7219\H,0,-4.5
 29964,3.08774,4.674175\H,0,-2.810389,2.914284,4.312322\H,0,-3.920608,3
 .562943,3.084272\H,0,-6.217256,0.020695,2.394099\H,0,-6.609153,1.31011
 ,3.551666\H,0,-6.126405,1.721887,1.892183\H,0,-4.680225,0.141703,5.492
 988\H,0,-4.127774,-1.126235,4.382927\H,0,-2.953577,-0.033303,5.142699\
 H,0,-3.596094,0.257611,-0.406288\H,0,-2.561132,1.500757,-1.127206\H,0,
 -2.429483,-0.185397,-1.633724\H,0,1.345546,0.272215,-1.714333\H,0,-0.2
 85538,0.283656,-2.31422\H,0,0.753138,-1.988902,-2.385471\H,0,0.944649,
 -1.971295,-0.624982\H,0,-0.676125,-2.001151,-1.34858\C,0,-0.84211,0.56
 3205,2.802957\C,0,-0.730408,-0.920434,3.046079\C,0,0.425293,-1.596748,
 3.060849\H,0,-1.167463,1.018895,3.745159\H,0,0.154379,0.981392,2.61432
 4\H,0,-1.656814,-1.463631,3.224195\H,0,0.437791,-2.667062,3.246442\H,0
 ,1.381235,-1.10826,2.898748\\Version=EM64L-G09RevD.01\State=1-A\HF=-10
 64.377036\RMSD=3.105e-09\Dipole=-0.664379,-1.6217259,0.5367625\Quadrup
 ole=1.7296202,-6.6465675,4.9169473,-10.5525683,0.2345701,6.071007\PG=C
 01 [X(C14H26O3Si1)]\\@


 PENOTUS DIED A HUNDRED YEARS OLD WANTING BUT TWO...
 AND HE USED TO SAY BEFORE HE DIED, HAVING SPENT HIS
 WHOLE LIFE IN VAINLY SEARCHING AFTER THE PHILOSOPHER'S
 STONE, THAT IF HE HAD A MORTAL ENEMY HE DID NOT DARE
 TO ENCOUNTER OPENLY, HE WOULD ADVISE HIM ABOVE ALL
 THINGS TO GIVE HIMSELF UP TO THE STUDY AND PRACTICE
 OF ALCHEMY.  --  NICOLAS LEMERY, M.D.
 "A COURSE OF CHYMISTRY", WALTER KETTILBY, LONDON, 1686
 Job cpu time:       0 days  1 hours 16 minutes 26.8 seconds.
 File lengths (MBytes):  RWF=    230 Int=      0 D2E=      0 Chk=     11 Scr=      1
 Normal termination of Gaussian 09 at Thu Mar  8 13:22:19 2018.
