 Entering Gaussian System, Link 0=/usr/local/shared/gaussian/em64t/09-D01/g09/g09
 Initial command:
 /usr/local/shared/gaussian/em64t/09-D01/g09/l1.exe "/scratch/ah809/P_ng_correct1ginp012/Gau-2933.inp" -scrdir="/scratch/ah809/P_ng_correct1ginp012/"
 Entering Link 1 = /usr/local/shared/gaussian/em64t/09-D01/g09/l1.exe PID=      2958.
  
 Copyright (c) 1988,1990,1992,1993,1995,1998,2003,2009,2013,
            Gaussian, Inc.  All Rights Reserved.
  
 This is part of the Gaussian(R) 09 program.  It is based on
 the Gaussian(R) 03 system (copyright 2003, Gaussian, Inc.),
 the Gaussian(R) 98 system (copyright 1998, Gaussian, Inc.),
 the Gaussian(R) 94 system (copyright 1995, Gaussian, Inc.),
 the Gaussian 92(TM) system (copyright 1992, Gaussian, Inc.),
 the Gaussian 90(TM) system (copyright 1990, Gaussian, Inc.),
 the Gaussian 88(TM) system (copyright 1988, Gaussian, Inc.),
 the Gaussian 86(TM) system (copyright 1986, Carnegie Mellon
 University), and the Gaussian 82(TM) system (copyright 1983,
 Carnegie Mellon University). Gaussian is a federally registered
 trademark of Gaussian, Inc.
  
 This software contains proprietary and confidential information,
 including trade secrets, belonging to Gaussian, Inc.
  
 This software is provided under written license and may be
 used, copied, transmitted, or stored only in accord with that
 written license.
  
 The following legend is applicable only to US Government
 contracts under FAR:
  
                    RESTRICTED RIGHTS LEGEND
  
 Use, reproduction and disclosure by the US Government is
 subject to restrictions as set forth in subparagraphs (a)
 and (c) of the Commercial Computer Software - Restricted
 Rights clause in FAR 52.227-19.
  
 Gaussian, Inc.
 340 Quinnipiac St., Bldg. 40, Wallingford CT 06492
  
  
 ---------------------------------------------------------------
 Warning -- This program may not be used in any manner that
 competes with the business of Gaussian, Inc. or will provide
 assistance to any competitor of Gaussian, Inc.  The licensee
 of this program is prohibited from giving any competitor of
 Gaussian, Inc. access to this program.  By using this program,
 the user acknowledges that Gaussian, Inc. is engaged in the
 business of creating and licensing software in the field of
 computational chemistry and represents and warrants to the
 licensee that it is not a competitor of Gaussian, Inc. and that
 it will not use this program in any manner prohibited above.
 ---------------------------------------------------------------
  

 Cite this work as:
 Gaussian 09, Revision D.01,
 M. J. Frisch, G. W. Trucks, H. B. Schlegel, G. E. Scuseria, 
 M. A. Robb, J. R. Cheeseman, G. Scalmani, V. Barone, B. Mennucci, 
 G. A. Petersson, H. Nakatsuji, M. Caricato, X. Li, H. P. Hratchian, 
 A. F. Izmaylov, J. Bloino, G. Zheng, J. L. Sonnenberg, M. Hada, 
 M. Ehara, K. Toyota, R. Fukuda, J. Hasegawa, M. Ishida, T. Nakajima, 
 Y. Honda, O. Kitao, H. Nakai, T. Vreven, J. A. Montgomery, Jr., 
 J. E. Peralta, F. Ogliaro, M. Bearpark, J. J. Heyd, E. Brothers, 
 K. N. Kudin, V. N. Staroverov, T. Keith, R. Kobayashi, J. Normand, 
 K. Raghavachari, A. Rendell, J. C. Burant, S. S. Iyengar, J. Tomasi, 
 M. Cossi, N. Rega, J. M. Millam, M. Klene, J. E. Knox, J. B. Cross, 
 V. Bakken, C. Adamo, J. Jaramillo, R. Gomperts, R. E. Stratmann, 
 O. Yazyev, A. J. Austin, R. Cammi, C. Pomelli, J. W. Ochterski, 
 R. L. Martin, K. Morokuma, V. G. Zakrzewski, G. A. Voth, 
 P. Salvador, J. J. Dannenberg, S. Dapprich, A. D. Daniels, 
 O. Farkas, J. B. Foresman, J. V. Ortiz, J. Cioslowski, 
 and D. J. Fox, Gaussian, Inc., Wallingford CT, 2013.
 
 ******************************************
 Gaussian 09:  EM64L-G09RevD.01 24-Apr-2013
                 8-Mar-2018 
 ******************************************
 %mem=6000MB
 %chk=P_ng_correct1ginp012.chk
 --------------------------------------------------------
 #mPW1PW91/6-311g(d) nmr=(giao) scrf=(solvent=chloroform)
 --------------------------------------------------------
 1/38=1/1;
 2/12=2,17=6,18=5,40=1/2;
 3/5=4,6=6,7=1,11=2,16=1,25=1,30=1,70=2201,72=7,74=-7/1,2,8,3;
 4//1;
 5/5=2,38=5,53=7/2;
 8/6=1,10=90,11=11/1;
 10/13=100,45=16/2;
 6/7=2,8=2,9=2,10=2,28=1/1;
 99/9=1/99;
 --------------------
 P_ng_correct1ginp012
 --------------------
 Symbolic Z-matrix:
 Charge =  0 Multiplicity = 1
 C                     0.83763  -0.15309   0.65893 
 C                    -0.69339  -0.2135    0.78386 
 C                    -1.21052   1.05422   1.51946 
 C                    -0.78331   2.26211   0.67315 
 C                     0.69011   2.30311   0.39566 
 H                     1.3027   -0.30498   1.64029 
 H                    -1.10007  -0.17148  -0.23496 
 H                    -1.27313   2.26972  -0.30602 
 H                    -1.07114   3.19364   1.17625 
 O                     1.31123   1.12718   0.17486 
 O                     1.28601   3.36768   0.26422 
 C                     1.39568  -1.22646  -0.29355 
 C                     2.91674  -1.18966  -0.39233 
 C                    -1.18009  -1.5494    1.35938 
 O                    -2.63605   0.98887   1.74095 
 Si                   -3.89631   1.27966   0.68324 
 C                    -5.48637   0.58494   1.43774 
 C                    -4.16489   3.12293   0.42765 
 C                    -3.67719   0.45939  -0.98854 
 H                    -4.26413   3.63205   1.39083 
 H                    -3.33093   3.57472  -0.11574 
 H                    -5.07825   3.29911  -0.14849 
 H                    -4.5731    0.59869  -1.60134 
 H                    -2.83066   0.88545  -1.53366 
 H                    -3.51051  -0.61569  -0.87412 
 H                    -5.39314  -0.49406   1.59122 
 H                    -5.68653   1.05757   2.40364 
 H                    -6.33701   0.77077   0.77572 
 H                    -1.09729  -2.34063   0.6061 
 H                    -0.58628  -1.86717   2.22008 
 H                    -2.23178  -1.5143    1.6567 
 H                     0.98482  -1.0759   -1.29922 
 H                     1.10069  -2.22668   0.03938 
 H                     3.27042  -1.99666  -1.04203 
 H                     3.26928  -0.24351  -0.81427 
 H                     3.37571  -1.3215    0.59262 
 C                    -0.61022   1.27203   2.95712 
 C                    -0.89523   0.19727   3.97185 
 C                     0.04242  -0.41537   4.70615 
 H                    -1.04881   2.19251   3.36875 
 H                     0.47012   1.45108   2.90749 
 H                    -1.94134  -0.06741   4.11959 
 H                    -0.233    -1.17396   5.433 
 H                     1.09654  -0.17454   4.61013 
 
                          Input orientation:                          
 ---------------------------------------------------------------------
 Center     Atomic      Atomic             Coordinates (Angstroms)
 Number     Number       Type             X           Y           Z
 ---------------------------------------------------------------------
      1          6           0        0.837633   -0.153091    0.658929
      2          6           0       -0.693386   -0.213501    0.783855
      3          6           0       -1.210517    1.054224    1.519458
      4          6           0       -0.783311    2.262107    0.673150
      5          6           0        0.690112    2.303112    0.395664
      6          1           0        1.302703   -0.304984    1.640294
      7          1           0       -1.100065   -0.171476   -0.234956
      8          1           0       -1.273125    2.269716   -0.306015
      9          1           0       -1.071143    3.193636    1.176253
     10          8           0        1.311230    1.127175    0.174862
     11          8           0        1.286014    3.367675    0.264215
     12          6           0        1.395675   -1.226458   -0.293548
     13          6           0        2.916744   -1.189663   -0.392333
     14          6           0       -1.180094   -1.549400    1.359379
     15          8           0       -2.636047    0.988874    1.740949
     16         14           0       -3.896309    1.279662    0.683238
     17          6           0       -5.486369    0.584940    1.437737
     18          6           0       -4.164889    3.122929    0.427654
     19          6           0       -3.677186    0.459393   -0.988543
     20          1           0       -4.264131    3.632048    1.390830
     21          1           0       -3.330932    3.574716   -0.115741
     22          1           0       -5.078250    3.299107   -0.148487
     23          1           0       -4.573103    0.598694   -1.601339
     24          1           0       -2.830663    0.885452   -1.533663
     25          1           0       -3.510508   -0.615692   -0.874121
     26          1           0       -5.393135   -0.494059    1.591222
     27          1           0       -5.686528    1.057569    2.403639
     28          1           0       -6.337011    0.770774    0.775717
     29          1           0       -1.097290   -2.340631    0.606099
     30          1           0       -0.586277   -1.867166    2.220079
     31          1           0       -2.231776   -1.514295    1.656697
     32          1           0        0.984823   -1.075897   -1.299217
     33          1           0        1.100690   -2.226675    0.039384
     34          1           0        3.270420   -1.996658   -1.042029
     35          1           0        3.269282   -0.243510   -0.814270
     36          1           0        3.375707   -1.321496    0.592618
     37          6           0       -0.610217    1.272033    2.957122
     38          6           0       -0.895233    0.197270    3.971850
     39          6           0        0.042420   -0.415372    4.706152
     40          1           0       -1.048813    2.192505    3.368746
     41          1           0        0.470122    1.451079    2.907489
     42          1           0       -1.941341   -0.067408    4.119594
     43          1           0       -0.233004   -1.173959    5.433002
     44          1           0        1.096539   -0.174541    4.610125
 ---------------------------------------------------------------------
                    Distance matrix (angstroms):
                    1          2          3          4          5
     1  C    0.000000
     2  C    1.537295   0.000000
     3  C    2.528446   1.554240   0.000000
     4  C    2.908753   2.479713   1.535488   0.000000
     5  C    2.474673   2.897948   2.536735   1.499885   0.000000
     6  H    1.096558   2.173989   2.859777   3.446270   2.954071
     7  H    2.134020   1.097784   2.143014   2.616738   3.118654
     8  H    3.355057   2.773136   2.194013   1.094870   2.085130
     9  H    3.887368   3.450400   2.171244   1.097135   2.122350
    10  O    1.448343   2.487322   2.858753   2.433817   1.348098
    11  O    3.571084   4.124666   3.627721   2.381515   1.227058
    12  C    1.539721   2.559503   3.909058   4.225230   3.664791
    13  C    2.549968   3.920376   5.071909   5.171110   4.216433
    14  C    2.551770   1.533864   2.608718   3.893062   4.389563
    15  O    3.813306   2.477028   1.444114   2.488764   3.821040
    16  Si   4.946067   3.535304   2.821979   3.264362   4.708015
    17  C    6.414377   4.902831   4.302304   5.051360   6.495148
    18  C    5.984231   4.828041   3.768274   3.498050   4.923836
    19  C    4.844883   3.535144   3.567681   3.792824   4.938484
    20  H    6.394603   5.282697   3.998285   3.808925   5.225031
    21  H    5.645670   4.702819   3.677352   2.972485   4.248212
    22  H    6.896902   5.695148   4.772934   4.494103   5.878955
    23  H    5.911857   4.626123   4.610192   4.722580   5.881708
    24  H    4.398003   3.338643   3.460478   3.310114   4.257689
    25  H    4.633635   3.293451   3.715885   4.255981   5.270387
    26  H    6.309350   4.776839   4.460563   5.448833   6.801428
    27  H    6.861078   5.400999   4.562506   5.337325   6.800359
    28  H    7.234824   5.728819   5.187912   5.751363   7.202288
    29  H    2.920967   2.172422   3.517398   4.613922   4.980305
    30  H    2.720802   2.192902   3.068398   4.413922   4.727460
    31  H    3.502812   2.195578   2.767507   4.162527   4.969933
    32  H    2.169694   2.810570   4.159551   4.261314   3.791725
    33  H    2.180088   2.797466   4.277452   4.909204   4.562289
    34  H    3.494345   4.714367   5.995656   6.124676   5.216605
    35  H    2.844540   4.272896   5.215266   4.991397   3.821170
    36  H    2.794886   4.221581   5.247526   5.490549   4.515417
    37  C    3.067399   2.633784   1.573111   2.495343   3.052056
    38  C    3.755133   3.220681   2.616868   3.893263   4.442634
    39  C    4.132937   3.995820   3.726202   4.910787   5.137117
    40  H    4.050137   3.549205   2.177544   2.709534   3.446057
    41  H    2.786476   2.938435   2.215552   2.687216   2.661507
    42  H    4.439171   3.564532   2.924529   4.318061   5.139218
    43  H    4.998020   4.769591   4.608271   5.896234   6.190068
    44  H    3.959728   4.224416   4.047789   4.997085   4.905673
                    6          7          8          9         10
     6  H    0.000000
     7  H    3.050849   0.000000
     8  H    4.129417   2.448350   0.000000
     9  H    4.253331   3.649154   1.758279   0.000000
    10  O    2.049059   2.769258   2.866275   3.308889   0.000000
    11  O    3.922027   4.297457   2.842511   2.533435   2.242423
    12  C    2.144179   2.710192   4.398395   5.270933   2.401276
    13  C    2.742145   4.146833   5.434129   6.130009   2.875261
    14  C    2.791373   2.108787   4.167474   4.747820   3.843674
    15  O    4.147041   2.758596   2.772756   2.762025   4.248853
    16  Si   5.518767   3.281442   2.973201   3.447887   5.234516
    17  C    6.850145   4.754969   4.861128   5.134967   6.935144
    18  C    6.566250   4.548110   3.102989   3.183813   5.833937
    19  C    5.682812   2.758159   3.085875   4.353606   5.165630
    20  H    6.822909   5.207810   3.698831   3.230081   6.231983
    21  H    6.293354   4.361758   2.444136   2.630802   5.255909
    22  H    7.543591   5.279998   3.945052   4.221726   6.756278
    23  H    6.771256   3.810795   3.919188   5.168410   6.169243
    24  H    5.345639   2.408050   2.418518   3.970802   4.486955
    25  H    5.439285   2.533001   3.695160   4.966439   5.233269
    26  H    6.698687   4.676477   5.311539   5.696570   7.041519
    27  H    7.161606   5.432161   5.318802   5.231734   7.344447
    28  H    7.763374   5.416170   5.390725   5.810340   7.680081
    29  H    3.312610   2.326503   4.702996   5.563620   4.244127
    30  H    2.518890   3.027629   4.895580   5.190027   4.092618
    31  H    3.735672   2.581140   4.369209   4.872629   4.661125
    32  H    3.055500   2.509459   4.156670   5.346388   2.670763
    33  H    2.509306   3.023645   5.096256   5.948874   3.363182
    34  H    3.732094   4.804560   6.275943   7.121032   3.882986
    35  H    3.145806   4.408173   5.216137   5.883489   2.586721
    36  H    2.535403   4.694674   5.942725   6.364081   3.229950
    37  C    2.807184   3.537376   3.476044   2.660170   3.384363
    38  C    3.243352   4.227901   4.768434   4.101770   4.488911
    39  C    3.316622   5.077333   5.836281   5.169637   4.951961
    40  H    3.841175   4.310186   3.682410   2.410350   4.111645
    41  H    2.320071   3.869513   3.746423   2.899859   2.877434
    42  H    4.089889   4.436291   5.049225   4.478271   5.250444
    43  H    4.183079   5.820869   6.773261   6.156157   5.943729
    44  H    2.979835   5.319764   5.979810   5.275883   4.627323
                   11         12         13         14         15
    11  O    0.000000
    12  C    4.629167   0.000000
    13  C    4.884636   1.524717   0.000000
    14  C    5.608806   3.077506   4.470122   0.000000
    15  O    4.818921   5.030075   6.334856   2.950971   0.000000
    16  Si   5.602843   5.936316   7.326125   3.979772   1.670799
    17  C    7.415250   7.324004   8.781269   4.806823   2.894725
    18  C    5.458842   7.096279   8.331888   5.622079   2.935352
    19  C    5.887348   5.390643   6.823105   3.972840   2.968913
    20  H    5.669503   7.646935   8.831395   6.029899   3.124037
    21  H    4.637178   6.739711   7.861887   5.749665   3.258334
    22  H    6.378000   7.900221   9.172156   6.401351   3.856358
    23  H    6.743649   6.377132   7.794724   4.989255   3.882694
    24  H    5.132331   4.884668   6.216223   4.125842   3.282020
    25  H    6.337953   4.978025   6.470791   3.360232   3.190283
    26  H    7.828472   7.083552   8.571607   4.349392   3.134173
    27  H    7.650495   7.915125   9.321148   5.309869   3.122389
    28  H    8.069451   8.057710   9.530983   5.684863   3.830976
    29  H    6.195303   2.874999   4.293491   1.095597   3.839435
    30  H    5.893593   3.264500   4.422088   1.092885   3.547969
    31  H    6.176365   4.128524   5.550781   1.093465   2.537004
    32  H    4.720208   1.096740   2.137218   3.461099   5.159127
    33  H    5.601932   1.094666   2.135375   2.720857   5.215197
    34  H    5.866874   2.160579   1.094729   5.076798   7.179465
    35  H    4.258772   2.178931   1.094312   5.121235   6.551399
    36  H    5.144219   2.171370   1.094603   4.625493   6.541992
    37  C    3.903736   4.564309   5.451445   3.292116   2.379757
    38  C    5.343769   5.046670   5.958259   3.155472   2.938365
    39  C    5.965633   5.242724   5.903881   3.739178   4.235389
    40  H    4.058393   5.574695   6.427318   4.249311   2.572501
    41  H    3.365400   4.274633   4.883472   3.758022   3.350035
    42  H    6.089299   5.652866   6.724428   3.224063   2.693752
    43  H    7.046291   5.953883   6.622363   4.199088   4.907516
    44  H    5.609824   5.024144   5.419244   4.200077   4.849526
                   16         17         18         19         20
    16  Si   0.000000
    17  C    1.892141   0.000000
    18  C    1.880184   3.034463   0.000000
    19  C    1.875022   3.029148   3.055796   0.000000
    20  H    2.483888   3.283433   1.093965   4.008947   0.000000
    21  H    2.495053   3.999745   1.093103   3.253754   1.773106
    22  H    2.483326   3.170074   1.094169   3.276072   1.772889
    23  H    2.478116   3.173362   3.264232   1.094345   4.271976
    24  H    2.491115   3.996536   3.260863   1.093290   4.260432
    25  H    2.483259   3.269592   4.012495   1.093929   4.872499
    26  H    2.492190   1.093841   3.993129   3.241719   4.282472
    27  H    2.492787   1.093805   3.238150   3.987752   3.110778
    28  H    2.494904   1.093799   3.220543   3.206905   3.586375
    29  H    4.576787   5.339907   6.268373   4.127818   6.805702
    30  H    4.818788   5.534960   6.396898   5.026117   6.667505
    31  H    3.394774   3.879060   5.172168   3.603047   5.539494
    32  H    5.770982   7.219808   6.865257   4.918126   7.546696
    33  H    6.138318   7.297254   7.516338   5.576710   8.058061
    34  H    8.066773   9.460192   9.146254   7.369144   9.714453
    35  H    7.477184   9.078507   8.254828   6.984115   8.754126
    36  H    7.723759   9.104126   8.754468   7.444121   9.140124
    37  C    3.996124   5.153396   4.739168   5.063097   4.623205
    38  C    4.581812   5.258379   5.640165   5.693283   5.459747
    39  C    5.879674   6.500051   6.966101   6.857859   6.776382
    40  H    4.019138   5.099506   4.384705   5.375685   4.040137
    41  H    4.903305   6.195979   5.516157   5.776043   5.428631
    42  H    4.176726   4.492787   5.362167   5.420677   5.150484
    43  H    6.480765   6.830352   7.679614   7.467695   7.462362
    44  H    6.516416   7.346804   7.486588   7.384809   7.320571
                   21         22         23         24         25
    21  H    0.000000
    22  H    1.769224   0.000000
    23  H    3.550591   3.107762   0.000000
    24  H    3.081057   3.577162   1.767175   0.000000
    25  H    4.262265   4.279020   1.769940   1.774998   0.000000
    26  H    4.870455   4.184955   3.472608   4.270155   3.104351
    27  H    4.269911   3.450774   4.182120   4.867025   4.275345
    28  H    4.206340   2.971717   2.965026   4.200103   3.554346
    29  H    6.364082   6.944357   5.059021   4.241553   3.315130
    30  H    6.527118   7.244191   6.048015   5.167664   4.437498
    31  H    5.499792   5.876218   4.534461   4.036812   2.974505
    32  H    6.454034   7.564767   5.812579   4.296486   4.538777
    33  H    7.302019   8.291493   6.547260   5.255031   4.969196
    34  H    8.687696   9.926925   8.280672   6.765462   6.922156
    35  H    7.656998   9.092562   7.926650   6.245111   6.790262
    36  H    8.333887   9.662743   8.466650   6.921757   7.075976
    37  C    4.706073   5.806647   6.077616   5.024637   5.162714
    38  C    5.835081   6.640497   6.689417   5.876237   5.566328
    39  C    7.109920   7.974092   7.881359   6.991569   6.618374
    40  H    4.388647   5.461855   6.297825   5.377452   5.652241
    41  H    5.300733   6.598381   6.818373   5.562279   5.866646
    42  H    5.756222   6.276156   6.332372   5.801564   5.263087
    43  H    7.933197   8.639314   8.453444   7.715143   7.129761
    44  H    7.482863   8.534556   8.445414   7.368353   7.176103
                   26         27         28         29         30
    26  H    0.000000
    27  H    1.775852   0.000000
    28  H    1.776444   1.776375   0.000000
    29  H    4.778554   5.986653   6.096252   0.000000
    30  H    5.038528   5.882204   6.489673   1.757906   0.000000
    31  H    3.322553   4.371238   4.780232   1.753182   1.774707
    32  H    7.026487   7.922736   7.831015   3.092729   3.934451
    33  H    6.897820   7.902043   8.052719   2.272723   2.780384
    34  H    9.178725  10.071139  10.161969   4.680976   5.052943
    35  H    8.993700   9.604909   9.789673   5.048001   5.168062
    36  H    8.864223   9.542738   9.937203   4.587649   4.317835
    37  C    5.278358   5.110897   6.148655   4.337729   3.224651
    38  C    5.135801   5.114285   6.336965   4.220195   2.725078
    39  C    6.265320   6.347595   7.586330   4.670760   2.946782
    40  H    5.408359   4.871130   6.058891   5.308850   4.244326
    41  H    6.316162   6.189754   7.165496   4.704279   3.549544
    42  H    4.299951   4.270422   5.586231   4.269029   2.946775
    43  H    6.469041   6.625533   7.920302   5.040546   3.305785
    44  H    7.164617   7.238555   8.417480   5.053420   3.377746
                   31         32         33         34         35
    31  H    0.000000
    32  H    4.390459   0.000000
    33  H    3.772071   1.769058   0.000000
    34  H    6.147354   2.477479   2.435178   0.000000
    35  H    6.162971   2.479273   3.060140   1.767881   0.000000
    36  H    5.710806   3.058706   2.510203   1.771722   1.775588
    37  C    3.476231   5.115990   4.866349   6.460410   5.618788
    38  C    3.174230   5.739313   5.032247   6.877861   6.359593
    39  C    3.959643   6.114644   5.116588   6.779531   6.396658
    40  H    4.250986   6.050455   5.935837   7.460549   6.486735
    41  H    4.202163   4.934258   4.706327   5.943673   4.955645
    42  H    2.871184   6.240433   5.528517   7.584643   7.178065
    43  H    4.286187   6.842185   5.654915   7.407890   7.222198
    44  H    4.647081   5.978733   5.010284   6.323979   5.843768
                   36         37         38         39         40
    36  H    0.000000
    37  C    5.310825   0.000000
    38  C    5.653918   1.505331   0.000000
    39  C    5.371501   2.516421   1.339299   0.000000
    40  H    6.295353   1.099577   2.090044   3.127374   0.000000
    41  H    4.635539   1.096199   2.137544   2.627120   1.752037
    42  H    6.502561   2.217506   1.089139   2.097722   2.543145
    43  H    6.039361   3.500735   2.110398   1.086105   4.032341
    44  H    4.759252   2.781728   2.124334   1.085536   3.427311
                   41         42         43         44
    41  H    0.000000
    42  H    3.096798   0.000000
    43  H    3.709909   2.422377   0.000000
    44  H    2.435982   3.079093   1.855707   0.000000
 Stoichiometry    C14H26O3Si
 Framework group  C1[X(C14H26O3Si)]
 Deg. of freedom   126
 Full point group                 C1      NOp   1
 Largest Abelian subgroup         C1      NOp   1
 Largest concise Abelian subgroup C1      NOp   1
                         Standard orientation:                         
 ---------------------------------------------------------------------
 Center     Atomic      Atomic             Coordinates (Angstroms)
 Number     Number       Type             X           Y           Z
 ---------------------------------------------------------------------
      1          6           0        2.140281   -0.099399    0.506317
      2          6           0        0.665823    0.193621    0.827859
      3          6           0       -0.159589    0.238740   -0.488319
      4          6           0       -0.012924   -1.139034   -1.150097
      5          6           0        1.414287   -1.547320   -1.364634
      6          1           0        2.602415    0.771833    0.026917
      7          1           0        0.287707   -0.660331    1.404855
      8          1           0       -0.464487   -1.933200   -0.546663
      9          1           0       -0.529033   -1.147340   -2.118224
     10          8           0        2.305121   -1.207559   -0.411562
     11          8           0        1.740389   -2.256739   -2.311236
     12          6           0        2.964394   -0.432619    1.763513
     13          6           0        4.434183   -0.690308    1.450337
     14          6           0        0.499228    1.409596    1.747854
     15          8           0       -1.533017    0.606386   -0.235342
     16         14           0       -2.798158   -0.319577    0.342224
     17          6           0       -4.194062    0.839030    0.880074
     18          6           0       -3.494666   -1.439923   -0.997475
     19          6           0       -2.344907   -1.362975    1.832724
     20          1           0       -3.738368   -0.859921   -1.892442
     21          1           0       -2.779671   -2.218311   -1.276342
     22          1           0       -4.408238   -1.930224   -0.647910
     23          1           0       -3.231740   -1.867922    2.227878
     24          1           0       -1.611496   -2.131162    1.573339
     25          1           0       -1.928032   -0.740277    2.629683
     26          1           0       -3.848537    1.504668    1.676332
     27          1           0       -4.527003    1.449992    0.036105
     28          1           0       -5.046846    0.263820    1.251946
     29          1           0        0.789228    1.153421    2.772846
     30          1           0        1.129275    2.247776    1.439808
     31          1           0       -0.537518    1.753752    1.796632
     32          1           0        2.555827   -1.329535    2.244609
     33          1           0        2.909589    0.386704    2.487392
     34          1           0        4.988116   -0.877173    2.375903
     35          1           0        4.560143   -1.564606    0.804382
     36          1           0        4.885482    0.174517    0.953787
     37          6           0        0.333090    1.301522   -1.538291
     38          6           0        0.288046    2.742311   -1.104562
     39          6           0        1.325851    3.585657   -1.178389
     40          1           0       -0.324275    1.235607   -2.417265
     41          1           0        1.339758    1.059099   -1.898157
     42          1           0       -0.667408    3.108560   -0.731474
     43          1           0        1.221724    4.619255   -0.861442
     44          1           0        2.293453    3.274975   -1.559979
 ---------------------------------------------------------------------
 Rotational constants (GHZ):      0.4861217      0.2617946      0.2418207
 Standard basis: 6-311G(d) (5D, 7F)
 There are   428 symmetry adapted cartesian basis functions of A   symmetry.
 There are   410 symmetry adapted basis functions of A   symmetry.
   410 basis functions,   720 primitive gaussians,   428 cartesian basis functions
    74 alpha electrons       74 beta electrons
       nuclear repulsion energy      1629.6058922080 Hartrees.
 NAtoms=   44 NActive=   44 NUniq=   44 SFac= 1.00D+00 NAtFMM=   60 NAOKFM=F Big=F
 Integral buffers will be    131072 words long.
 Raffenetti 2 integral format.
 Two-electron integral symmetry is turned on.
 ------------------------------------------------------------------------------
 Polarizable Continuum Model (PCM)
 =================================
 Model                : PCM (using non-symmetric T matrix).
 Atomic radii         : UFF (Universal Force Field).
 Polarization charges : Total charges.
 Charge compensation  : None.
 Solution method      : On-the-fly selection.
 Cavity type          : Scaled VdW (van der Waals Surface) (Alpha=1.100).
 Cavity algorithm     : GePol (No added spheres)
                        Default sphere list used, NSphG=   44.
                        Lebedev-Laikov grids with approx.  5.0 points / Ang**2.
                        Smoothing algorithm: Karplus/York (Gamma=1.0000).
                        Polarization charges: spherical gaussians, with
                                              point-specific exponents (IZeta= 3).
                        Self-potential: point-specific (ISelfS= 7).
                        Self-field    : sphere-specific E.n sum rule (ISelfD= 2).
 Solvent              : Chloroform, Eps=   4.711300 Eps(inf)=   2.090627
 ------------------------------------------------------------------------------
 One-electron integrals computed using PRISM.
 NBasis=   410 RedAO= T EigKep=  1.11D-03  NBF=   410
 NBsUse=   410 1.00D-06 EigRej= -1.00D+00 NBFU=   410
 ExpMin= 6.54D-02 ExpMax= 6.94D+04 ExpMxC= 2.33D+03 IAcc=2 IRadAn=         4 AccDes= 0.00D+00
 Harris functional with IExCor=  908 and IRadAn=       4 diagonalized for initial guess.
 HarFok:  IExCor=  908 AccDes= 0.00D+00 IRadAn=         4 IDoV= 1 UseB2=F ITyADJ=14
 ICtDFT=  3500011 ScaDFX=  1.000000  1.000000  1.000000  1.000000
 FoFCou: FMM=F IPFlag=           0 FMFlag=      100000 FMFlg1=           0
         NFxFlg=           0 DoJE=T BraDBF=F KetDBF=T FulRan=T
         wScrn=  0.000000 ICntrl=     500 IOpCl=  0 I1Cent=   200000004 NGrid=           0
         NMat0=    1 NMatS0=      1 NMatT0=    0 NMatD0=    1 NMtDS0=    0 NMtDT0=    0
 Petite list used in FoFCou.
 Requested convergence on RMS density matrix=1.00D-08 within 128 cycles.
 Requested convergence on MAX density matrix=1.00D-06.
 Requested convergence on             energy=1.00D-06.
 No special actions if energy rises.
 Inv3:  Mode=1 IEnd=    24710700.
 Iteration    1 A*A^-1 deviation from unit magnitude is 8.33D-15 for   1896.
 Iteration    1 A*A^-1 deviation from orthogonality  is 7.99D-15 for   2572   1073.
 Iteration    1 A^-1*A deviation from unit magnitude is 9.55D-15 for   1837.
 Iteration    1 A^-1*A deviation from orthogonality  is 3.45D-11 for   2154   2081.
 Error on total polarization charges =  0.01133
 SCF Done:  E(RmPW1PW91) =  -1064.37592487     A.U. after   13 cycles
            NFock= 13  Conv=0.36D-08     -V/T= 2.0036
 DoSCS=F DFT=T ScalE2(SS,OS)=  1.000000  1.000000
 Range of M.O.s used for correlation:     1   410
 NBasis=   410 NAE=    74 NBE=    74 NFC=     0 NFV=     0
 NROrb=    410 NOA=    74 NOB=    74 NVA=   336 NVB=   336
 NEqPCM:  Using equilibrium solvation (IEInf=0, Eps=   4.7113, EpsInf=   2.0906)
          Differentiating once with respect to magnetic field using GIAOs.
          Electric field/nuclear overlap derivatives assumed to be zero.
 FoFJK:  IHMeth= 1 ICntrl=    6127 DoSepK=F KAlg= 0 I1Cent=   0 FoldK=F
 IRaf=         1 NMat=   1 IRICut=       1 DoRegI=T DoRafI=F ISym2E= 0.
          There are     3 degrees of freedom in the 1st order CPHF.  IDoFFX=0 NUNeed=     3.
      3 vectors produced by pass  0 Test12= 8.29D-13 3.33D-08 XBig12= 3.28D+01 1.07D+00.
 AX will form     3 AO Fock derivatives at one time.
      3 vectors produced by pass  1 Test12= 8.29D-13 3.33D-08 XBig12= 7.80D-02 8.65D-02.
      3 vectors produced by pass  2 Test12= 8.29D-13 3.33D-08 XBig12= 5.20D-04 9.78D-03.
      3 vectors produced by pass  3 Test12= 8.29D-13 3.33D-08 XBig12= 3.17D-06 8.20D-04.
      3 vectors produced by pass  4 Test12= 8.29D-13 3.33D-08 XBig12= 1.55D-08 5.61D-05.
      3 vectors produced by pass  5 Test12= 8.29D-13 3.33D-08 XBig12= 4.63D-11 1.46D-06.
      2 vectors produced by pass  6 Test12= 8.29D-13 3.33D-08 XBig12= 1.41D-13 9.78D-08.
 InvSVY:  IOpt=1 It=  1 EMax= 1.78D-15
 Solved reduced A of dimension    20 with     3 vectors.
 Calculating GIAO nuclear magnetic shielding tensors.
 SCF GIAO Magnetic shielding tensor (ppm):
      1  C    Isotropic =   101.9215   Anisotropy =    48.9835
   XX=    93.1034   YX=   -15.0111   ZX=    -2.6364
   XY=    -3.6084   YY=   115.2821   ZY=    27.9580
   XZ=     6.9508   YZ=    23.5308   ZZ=    97.3790
   Eigenvalues:    75.9629    95.2245   134.5772
      2  C    Isotropic =   140.6736   Anisotropy =    22.5883
   XX=   148.5227   YX=     2.1541   ZX=    12.8548
   XY=    -0.8549   YY=   136.2683   ZY=    -1.8184
   XZ=     9.5576   YZ=    -9.3772   ZZ=   137.2296
   Eigenvalues:   127.3392   138.9491   155.7324
      3  C    Isotropic =   105.3627   Anisotropy =    58.5495
   XX=   142.2806   YX=    -6.3853   ZX=   -11.7335
   XY=    -1.3491   YY=    81.2115   ZY=     1.4489
   XZ=    -7.9245   YZ=    -0.3122   ZZ=    92.5961
   Eigenvalues:    80.9673    90.7251   144.3957
      4  C    Isotropic =   138.3223   Anisotropy =    26.6111
   XX=   140.8716   YX=   -13.4954   ZX=    -3.9074
   XY=    -6.6666   YY=   141.8531   ZY=     6.0347
   XZ=    -1.2960   YZ=    17.0294   ZZ=   132.2423
   Eigenvalues:   123.6814   135.2224   156.0630
      5  C    Isotropic =     9.7006   Anisotropy =    93.4329
   XX=   -56.1590   YX=    -2.9748   ZX=   -51.0979
   XY=    -6.0253   YY=    61.4698   ZY=   -19.7098
   XZ=   -63.5064   YZ=   -14.9030   ZZ=    23.7911
   Eigenvalues:   -87.0290    44.1416    71.9892
      6  H    Isotropic =    28.0328   Anisotropy =     2.4703
   XX=    28.5170   YX=     0.0104   ZX=     0.9880
   XY=     0.5180   YY=    29.2694   ZY=    -1.4441
   XZ=     0.8747   YZ=    -0.8956   ZZ=    26.3119
   Eigenvalues:    25.5864    28.8323    29.6796
      7  H    Isotropic =    30.0142   Anisotropy =     5.5161
   XX=    31.6363   YX=     2.2621   ZX=    -0.0190
   XY=     2.7572   YY=    29.7441   ZY=    -1.8820
   XZ=    -0.0564   YZ=    -2.2407   ZZ=    28.6622
   Eigenvalues:    26.5407    29.8102    33.6916
      8  H    Isotropic =    29.5197   Anisotropy =     4.7980
   XX=    31.4048   YX=     1.0604   ZX=    -1.6943
   XY=     1.9143   YY=    30.4715   ZY=     0.1820
   XZ=    -1.8767   YZ=     1.0116   ZZ=    26.6827
   Eigenvalues:    25.8378    30.0029    32.7184
      9  H    Isotropic =    29.3271   Anisotropy =     4.8424
   XX=    29.5726   YX=     0.2396   ZX=     1.1541
   XY=    -0.5806   YY=    27.6805   ZY=     2.8241
   XZ=    -0.0512   YZ=     3.0334   ZZ=    30.7281
   Eigenvalues:    25.8524    29.5734    32.5553
     10  O    Isotropic =   106.1848   Anisotropy =   192.7069
   XX=   154.0394   YX=    70.8495   ZX=    63.6778
   XY=    68.2427   YY=   102.5579   ZY=  -121.7996
   XZ=    74.8481   YZ=  -178.3835   ZZ=    61.9571
   Eigenvalues:  -106.0795   189.9779   234.6561
     11  O    Isotropic =  -128.5702   Anisotropy =   581.0622
   XX=  -219.5466   YX=    45.4635   ZX=  -104.7748
   XY=    39.1148   YY=    67.9840   ZY=  -268.8611
   XZ=  -102.2044   YZ=  -306.2507   ZZ=  -234.1481
   Eigenvalues:  -430.2896  -214.2256   258.8045
     12  C    Isotropic =   156.4652   Anisotropy =    24.8743
   XX=   158.6497   YX=    -2.1278   ZX=    11.2929
   XY=    -4.0520   YY=   147.9021   ZY=    -8.8920
   XZ=     8.6685   YZ=    -4.7628   ZZ=   162.8437
   Eigenvalues:   145.1865   151.1610   173.0481
     13  C    Isotropic =   175.0352   Anisotropy =    21.5287
   XX=   189.0609   YX=    -0.9122   ZX=    -1.0385
   XY=    -1.7959   YY=   166.9650   ZY=    -6.4244
   XZ=    -3.9546   YZ=    -5.1548   ZZ=   169.0796
   Eigenvalues:   161.8799   173.8380   189.3876
     14  C    Isotropic =   174.9640   Anisotropy =    13.3577
   XX=   169.1211   YX=     2.1821   ZX=     3.9116
   XY=    -1.7293   YY=   182.4753   ZY=     2.8619
   XZ=     1.9575   YZ=     4.5016   ZZ=   173.2956
   Eigenvalues:   167.4433   173.5796   183.8691
     15  O    Isotropic =   248.8452   Anisotropy =    21.5217
   XX=   250.7183   YX=    -9.1700   ZX=     6.0665
   XY=    13.8436   YY=   239.5900   ZY=   -11.7817
   XZ=     9.6847   YZ=    -4.7605   ZZ=   256.2273
   Eigenvalues:   234.3684   248.9743   263.1930
     16  Si   Isotropic =   335.1723   Anisotropy =    52.0871
   XX=   347.3439   YX=    27.4021   ZX=   -20.1873
   XY=    12.7194   YY=   338.2388   ZY=    -4.5086
   XZ=   -15.5282   YZ=    -8.2145   ZZ=   319.9343
   Eigenvalues:   310.5767   325.0433   369.8970
     17  C    Isotropic =   186.4566   Anisotropy =    13.1400
   XX=   189.0415   YX=    -4.2186   ZX=    -5.0033
   XY=    -1.6573   YY=   192.9648   ZY=     0.6686
   XZ=    -4.7787   YZ=     1.5878   ZZ=   177.3635
   Eigenvalues:   175.5855   188.5677   195.2166
     18  C    Isotropic =   184.4848   Anisotropy =    12.4665
   XX=   184.5318   YX=     6.6919   ZX=     0.8728
   XY=     6.4229   YY=   181.6554   ZY=     6.2000
   XZ=    -1.3737   YZ=     5.6480   ZZ=   187.2673
   Eigenvalues:   174.4790   186.1797   192.7958
     19  C    Isotropic =   185.6149   Anisotropy =     7.6014
   XX=   189.4686   YX=     1.6541   ZX=     0.6979
   XY=     1.9668   YY=   182.4273   ZY=    -6.6697
   XZ=     3.8118   YZ=    -5.9156   ZZ=   184.9489
   Eigenvalues:   176.6448   189.5175   190.6825
     20  H    Isotropic =    31.9102   Anisotropy =     8.3235
   XX=    30.6464   YX=    -0.4070   ZX=     3.0775
   XY=    -0.3466   YY=    29.5289   ZY=    -1.4816
   XZ=     2.9338   YZ=    -2.4620   ZZ=    35.5552
   Eigenvalues:    28.6385    29.6328    37.4592
     21  H    Isotropic =    32.0154   Anisotropy =     6.6930
   XX=    33.5629   YX=    -1.4642   ZX=    -0.2738
   XY=    -2.1964   YY=    32.9083   ZY=     3.4515
   XZ=    -1.3032   YZ=     3.6043   ZZ=    29.5749
   Eigenvalues:    27.3227    32.2461    36.4774
     22  H    Isotropic =    32.2966   Anisotropy =    10.1728
   XX=    36.2221   YX=     4.6248   ZX=    -0.7356
   XY=     4.6917   YY=    31.3195   ZY=     0.4048
   XZ=    -1.1161   YZ=     0.1403   ZZ=    29.3483
   Eigenvalues:    28.0911    29.7203    39.0785
     23  H    Isotropic =    32.1772   Anisotropy =    10.6755
   XX=    34.3045   YX=     3.7375   ZX=    -3.5748
   XY=     3.6712   YY=    31.1805   ZY=    -3.3867
   XZ=    -3.0082   YZ=    -3.1439   ZZ=    31.0467
   Eigenvalues:    27.8264    29.4111    39.2942
     24  H    Isotropic =    32.0867   Anisotropy =     6.1541
   XX=    33.4617   YX=    -2.7179   ZX=    -1.8820
   XY=    -2.7402   YY=    33.4234   ZY=    -0.6207
   XZ=    -0.8921   YZ=    -1.2186   ZZ=    29.3752
   Eigenvalues:    28.2725    31.7982    36.1895
     25  H    Isotropic =    31.9588   Anisotropy =     6.7162
   XX=    31.2989   YX=     2.5094   ZX=     1.5906
   XY=     2.2622   YY=    29.7799   ZY=     1.4242
   XZ=     1.5735   YZ=     2.1617   ZZ=    34.7976
   Eigenvalues:    27.9895    31.4505    36.4363
     26  H    Isotropic =    31.9598   Anisotropy =     8.2619
   XX=    30.7903   YX=    -0.6276   ZX=     0.2043
   XY=     0.2330   YY=    32.7496   ZY=     5.2159
   XZ=     0.4918   YZ=     4.6189   ZZ=    32.3397
   Eigenvalues:    27.5761    30.8356    37.4678
     27  H    Isotropic =    31.9182   Anisotropy =     8.9758
   XX=    31.6279   YX=    -3.5986   ZX=     2.0821
   XY=    -3.4700   YY=    32.2788   ZY=    -3.7967
   XZ=     1.8621   YZ=    -2.8674   ZZ=    31.8479
   Eigenvalues:    28.0676    29.7850    37.9021
     28  H    Isotropic =    32.3384   Anisotropy =     9.6817
   XX=    36.8809   YX=     1.8358   ZX=    -3.2672
   XY=     2.4798   YY=    30.5171   ZY=    -0.9973
   XZ=    -3.2647   YZ=    -0.7976   ZZ=    29.6172
   Eigenvalues:    28.3621    29.8603    38.7929
     29  H    Isotropic =    31.3526   Anisotropy =     9.2672
   XX=    28.8313   YX=    -1.4114   ZX=     1.7853
   XY=    -1.1707   YY=    28.0984   ZY=     1.0584
   XZ=     1.7257   YZ=     0.7984   ZZ=    37.1283
   Eigenvalues:    26.8020    29.7251    37.5308
     30  H    Isotropic =    31.0890   Anisotropy =     8.4195
   XX=    28.1635   YX=     3.3703   ZX=     0.2183
   XY=     3.6721   YY=    35.1988   ZY=    -0.7819
   XZ=     0.1131   YZ=    -0.5336   ZZ=    29.9048
   Eigenvalues:    26.6530    29.9120    36.7020
     31  H    Isotropic =    30.5635   Anisotropy =     5.9124
   XX=    33.6313   YX=    -1.4427   ZX=     0.3547
   XY=    -2.1234   YY=    28.9714   ZY=     2.7981
   XZ=    -0.6352   YZ=     3.0247   ZZ=    29.0879
   Eigenvalues:    25.9310    31.2545    34.5051
     32  H    Isotropic =    30.6080   Anisotropy =     5.3447
   XX=    32.3613   YX=     0.2215   ZX=    -0.1820
   XY=     0.2692   YY=    29.7041   ZY=    -4.1837
   XZ=    -0.2023   YZ=    -4.5900   ZZ=    29.7584
   Eigenvalues:    25.3441    32.3087    34.1711
     33  H    Isotropic =    30.2025   Anisotropy =     5.4078
   XX=    32.0508   YX=    -2.7985   ZX=     1.5561
   XY=    -2.5578   YY=    27.7410   ZY=     4.3437
   XZ=     1.9481   YZ=     4.1410   ZZ=    30.8158
   Eigenvalues:    23.5608    33.2391    33.8077
     34  H    Isotropic =    30.9855   Anisotropy =    11.3285
   XX=    34.2349   YX=    -1.9113   ZX=     4.9878
   XY=    -2.1332   YY=    26.5984   ZY=    -1.7621
   XZ=     4.3750   YZ=    -1.4589   ZZ=    32.1234
   Eigenvalues:    26.0386    28.3801    38.5379
     35  H    Isotropic =    30.5192   Anisotropy =     8.0166
   XX=    32.1302   YX=    -3.4087   ZX=    -0.5740
   XY=    -3.2859   YY=    30.9993   ZY=     3.5570
   XZ=     0.3947   YZ=     3.7255   ZZ=    28.4282
   Eigenvalues:    25.2686    30.4254    35.8636
     36  H    Isotropic =    31.2110   Anisotropy =     8.9938
   XX=    34.6336   YX=     3.5796   ZX=    -1.9097
   XY=     2.8593   YY=    30.8881   ZY=    -2.0317
   XZ=    -1.1544   YZ=    -2.7945   ZZ=    28.1114
   Eigenvalues:    26.7013    29.7248    37.2069
     37  C    Isotropic =   138.0288   Anisotropy =    33.4954
   XX=   123.9724   YX=     6.6381   ZX=    -5.9427
   XY=    11.4177   YY=   154.8282   ZY=    -8.0405
   XZ=    -6.1176   YZ=    -6.7688   ZZ=   135.2858
   Eigenvalues:   120.3537   133.3736   160.3590
     38  C    Isotropic =    40.4490   Anisotropy =   188.1045
   XX=    -1.6876   YX=    47.7228   ZX=    59.6178
   XY=    50.9404   YY=    -8.9388   ZY=   -62.2442
   XZ=    59.3780   YZ=   -63.1987   ZZ=   131.9734
   Eigenvalues:   -88.6516    44.1466   165.8520
     39  C    Isotropic =    67.1799   Anisotropy =   138.5852
   XX=    49.6134   YX=    48.9064   ZX=    46.8969
   XY=    51.5789   YY=    22.7163   ZY=   -54.2137
   XZ=    43.7457   YZ=   -60.1498   ZZ=   129.2100
   Eigenvalues:   -46.1926    88.1623   159.5701
     40  H    Isotropic =    29.5064   Anisotropy =     5.3530
   XX=    27.1060   YX=     1.3320   ZX=     1.2545
   XY=     0.8582   YY=    29.1308   ZY=    -1.6338
   XZ=     2.8609   YZ=    -0.2387   ZZ=    32.2823
   Eigenvalues:    25.8346    29.6095    33.0751
     41  H    Isotropic =    29.7056   Anisotropy =     5.6275
   XX=    29.7740   YX=     1.6872   ZX=    -2.0885
   XY=     0.1662   YY=    29.7991   ZY=    -1.8276
   XZ=    -2.7465   YZ=    -2.6019   ZZ=    29.5438
   Eigenvalues:    26.7945    28.8651    33.4573
     42  H    Isotropic =    25.4055   Anisotropy =     7.7381
   XX=    23.6761   YX=     1.8090   ZX=     0.5964
   XY=     3.0081   YY=    29.1074   ZY=    -2.2250
   XZ=     1.0807   YZ=    -2.5185   ZZ=    23.4329
   Eigenvalues:    21.2567    24.3955    30.5642
     43  H    Isotropic =    26.9069   Anisotropy =     6.9600
   XX=    26.3324   YX=     4.4249   ZX=     0.6340
   XY=     2.0426   YY=    29.2686   ZY=    -0.8808
   XZ=    -0.0400   YZ=    -2.1329   ZZ=    25.1198
   Eigenvalues:    23.4826    25.6913    31.5469
     44  H    Isotropic =    26.8116   Anisotropy =     7.0757
   XX=    26.8891   YX=     2.1074   ZX=    -0.3027
   XY=     5.1414   YY=    27.7444   ZY=    -2.8346
   XZ=     0.3705   YZ=    -1.8910   ZZ=    25.8014
   Eigenvalues:    22.7268    26.1793    31.5288
 End of Minotr F.D. properties file   721 does not exist.
 End of Minotr F.D. properties file   722 does not exist.
 End of Minotr F.D. properties file   788 does not exist.

 **********************************************************************

            Population analysis using the SCF density.

 **********************************************************************

 Orbital symmetries:
       Occupied  (A) (A) (A) (A) (A) (A) (A) (A) (A) (A) (A) (A)
                 (A) (A) (A) (A) (A) (A) (A) (A) (A) (A) (A) (A)
                 (A) (A) (A) (A) (A) (A) (A) (A) (A) (A) (A) (A)
                 (A) (A) (A) (A) (A) (A) (A) (A) (A) (A) (A) (A)
                 (A) (A) (A) (A) (A) (A) (A) (A) (A) (A) (A) (A)
                 (A) (A) (A) (A) (A) (A) (A) (A) (A) (A) (A) (A)
                 (A) (A)
       Virtual   (A) (A) (A) (A) (A) (A) (A) (A) (A) (A) (A) (A)
                 (A) (A) (A) (A) (A) (A) (A) (A) (A) (A) (A) (A)
                 (A) (A) (A) (A) (A) (A) (A) (A) (A) (A) (A) (A)
                 (A) (A) (A) (A) (A) (A) (A) (A) (A) (A) (A) (A)
                 (A) (A) (A) (A) (A) (A) (A) (A) (A) (A) (A) (A)
                 (A) (A) (A) (A) (A) (A) (A) (A) (A) (A) (A) (A)
                 (A) (A) (A) (A) (A) (A) (A) (A) (A) (A) (A) (A)
                 (A) (A) (A) (A) (A) (A) (A) (A) (A) (A) (A) (A)
                 (A) (A) (A) (A) (A) (A) (A) (A) (A) (A) (A) (A)
                 (A) (A) (A) (A) (A) (A) (A) (A) (A) (A) (A) (A)
                 (A) (A) (A) (A) (A) (A) (A) (A) (A) (A) (A) (A)
                 (A) (A) (A) (A) (A) (A) (A) (A) (A) (A) (A) (A)
                 (A) (A) (A) (A) (A) (A) (A) (A) (A) (A) (A) (A)
                 (A) (A) (A) (A) (A) (A) (A) (A) (A) (A) (A) (A)
                 (A) (A) (A) (A) (A) (A) (A) (A) (A) (A) (A) (A)
                 (A) (A) (A) (A) (A) (A) (A) (A) (A) (A) (A) (A)
                 (A) (A) (A) (A) (A) (A) (A) (A) (A) (A) (A) (A)
                 (A) (A) (A) (A) (A) (A) (A) (A) (A) (A) (A) (A)
                 (A) (A) (A) (A) (A) (A) (A) (A) (A) (A) (A) (A)
                 (A) (A) (A) (A) (A) (A) (A) (A) (A) (A) (A) (A)
                 (A) (A) (A) (A) (A) (A) (A) (A) (A) (A) (A) (A)
                 (A) (A) (A) (A) (A) (A) (A) (A) (A) (A) (A) (A)
                 (A) (A) (A) (A) (A) (A) (A) (A) (A) (A) (A) (A)
                 (A) (A) (A) (A) (A) (A) (A) (A) (A) (A) (A) (A)
                 (A) (A) (A) (A) (A) (A) (A) (A) (A) (A) (A) (A)
                 (A) (A) (A) (A) (A) (A) (A) (A) (A) (A) (A) (A)
                 (A) (A) (A) (A) (A) (A) (A) (A) (A) (A) (A) (A)
                 (A) (A) (A) (A) (A) (A) (A) (A) (A) (A) (A) (A)
 The electronic state is 1-A.
 Alpha  occ. eigenvalues --  -66.27076 -19.26446 -19.21438 -19.20151 -10.37600
 Alpha  occ. eigenvalues --  -10.32275 -10.30956 -10.25505 -10.25461 -10.24428
 Alpha  occ. eigenvalues --  -10.24123 -10.23904 -10.22636 -10.22466 -10.21997
 Alpha  occ. eigenvalues --  -10.20958 -10.20649 -10.20543  -5.32910  -3.66761
 Alpha  occ. eigenvalues --   -3.66524  -3.66488  -1.13587  -1.05023  -1.04250
 Alpha  occ. eigenvalues --   -0.86135  -0.83432  -0.80846  -0.78078  -0.74252
 Alpha  occ. eigenvalues --   -0.72703  -0.71789  -0.70434  -0.70014  -0.66584
 Alpha  occ. eigenvalues --   -0.63944  -0.61996  -0.58767  -0.56902  -0.53459
 Alpha  occ. eigenvalues --   -0.52891  -0.50729  -0.49323  -0.48213  -0.47362
 Alpha  occ. eigenvalues --   -0.46942  -0.45168  -0.45035  -0.44476  -0.43625
 Alpha  occ. eigenvalues --   -0.42889  -0.42577  -0.41825  -0.41749  -0.41218
 Alpha  occ. eigenvalues --   -0.41007  -0.40688  -0.40253  -0.39745  -0.39248
 Alpha  occ. eigenvalues --   -0.38293  -0.37877  -0.37011  -0.36641  -0.36080
 Alpha  occ. eigenvalues --   -0.35717  -0.34622  -0.33156  -0.32505  -0.31532
 Alpha  occ. eigenvalues --   -0.30472  -0.29302  -0.28485  -0.26843
 Alpha virt. eigenvalues --   -0.00504   0.00995   0.03894   0.05327   0.05867
 Alpha virt. eigenvalues --    0.06478   0.07699   0.08004   0.08480   0.08962
 Alpha virt. eigenvalues --    0.09589   0.10114   0.10319   0.10583   0.11327
 Alpha virt. eigenvalues --    0.11395   0.12961   0.13021   0.13691   0.14097
 Alpha virt. eigenvalues --    0.14310   0.14589   0.14878   0.15228   0.15647
 Alpha virt. eigenvalues --    0.16004   0.16104   0.16885   0.17336   0.17731
 Alpha virt. eigenvalues --    0.17955   0.18677   0.19562   0.20428   0.21408
 Alpha virt. eigenvalues --    0.21825   0.22748   0.23774   0.24259   0.24532
 Alpha virt. eigenvalues --    0.24855   0.25651   0.26423   0.27175   0.28300
 Alpha virt. eigenvalues --    0.28893   0.29031   0.31706   0.31879   0.32638
 Alpha virt. eigenvalues --    0.32718   0.33652   0.34203   0.35464   0.36219
 Alpha virt. eigenvalues --    0.36656   0.38079   0.38751   0.39615   0.40841
 Alpha virt. eigenvalues --    0.41133   0.41842   0.43096   0.43377   0.44397
 Alpha virt. eigenvalues --    0.45140   0.46399   0.47034   0.47610   0.48362
 Alpha virt. eigenvalues --    0.49315   0.50493   0.51174   0.51927   0.53011
 Alpha virt. eigenvalues --    0.53742   0.54420   0.54735   0.55549   0.56517
 Alpha virt. eigenvalues --    0.56783   0.57367   0.57799   0.58102   0.58875
 Alpha virt. eigenvalues --    0.59544   0.60085   0.60377   0.60699   0.60894
 Alpha virt. eigenvalues --    0.61245   0.61994   0.62560   0.62890   0.63225
 Alpha virt. eigenvalues --    0.63727   0.64146   0.64944   0.65458   0.66050
 Alpha virt. eigenvalues --    0.66360   0.66906   0.67531   0.67768   0.68219
 Alpha virt. eigenvalues --    0.68907   0.69392   0.69518   0.70493   0.71479
 Alpha virt. eigenvalues --    0.72157   0.72776   0.72870   0.73750   0.74602
 Alpha virt. eigenvalues --    0.76342   0.77143   0.78251   0.79764   0.81527
 Alpha virt. eigenvalues --    0.81898   0.84428   0.86582   0.87346   0.88114
 Alpha virt. eigenvalues --    0.89753   0.90018   0.91246   0.93157   0.94072
 Alpha virt. eigenvalues --    0.94665   0.96751   0.98112   0.99360   1.00940
 Alpha virt. eigenvalues --    1.02085   1.04297   1.06426   1.07914   1.10844
 Alpha virt. eigenvalues --    1.11530   1.14605   1.16151   1.17511   1.18561
 Alpha virt. eigenvalues --    1.20102   1.24267   1.24839   1.26696   1.27635
 Alpha virt. eigenvalues --    1.28700   1.29237   1.31342   1.31535   1.33227
 Alpha virt. eigenvalues --    1.34707   1.36835   1.38697   1.39438   1.41766
 Alpha virt. eigenvalues --    1.42456   1.44402   1.45739   1.47399   1.48928
 Alpha virt. eigenvalues --    1.50700   1.51385   1.51546   1.52408   1.53015
 Alpha virt. eigenvalues --    1.53716   1.54661   1.55854   1.56991   1.57991
 Alpha virt. eigenvalues --    1.59175   1.59240   1.59682   1.60212   1.60308
 Alpha virt. eigenvalues --    1.61453   1.61601   1.63093   1.64027   1.64823
 Alpha virt. eigenvalues --    1.65604   1.65914   1.67266   1.67644   1.68265
 Alpha virt. eigenvalues --    1.69041   1.71131   1.71619   1.73648   1.74043
 Alpha virt. eigenvalues --    1.75641   1.75952   1.77053   1.80569   1.81290
 Alpha virt. eigenvalues --    1.82157   1.82195   1.83786   1.86340   1.87861
 Alpha virt. eigenvalues --    1.88783   1.89785   1.94195   1.95264   1.97338
 Alpha virt. eigenvalues --    1.97820   2.03325   2.08186   2.09312   2.11941
 Alpha virt. eigenvalues --    2.14203   2.16964   2.21635   2.21786   2.25906
 Alpha virt. eigenvalues --    2.28373   2.30238   2.34403   2.36364   2.41086
 Alpha virt. eigenvalues --    2.41224   2.41791   2.42254   2.42599   2.43023
 Alpha virt. eigenvalues --    2.44576   2.44771   2.46079   2.46432   2.47711
 Alpha virt. eigenvalues --    2.48158   2.48447   2.49768   2.51478   2.51765
 Alpha virt. eigenvalues --    2.53109   2.55096   2.56692   2.57001   2.59588
 Alpha virt. eigenvalues --    2.59921   2.64175   2.69635   2.73661   2.80197
 Alpha virt. eigenvalues --    2.83239   2.87013   2.88423   2.89950   2.91413
 Alpha virt. eigenvalues --    2.93108   2.94092   2.95229   2.96685   2.97982
 Alpha virt. eigenvalues --    2.99622   3.00839   3.02069   3.02986   3.03851
 Alpha virt. eigenvalues --    3.08565   3.10292   3.12527   3.13115   3.14643
 Alpha virt. eigenvalues --    3.15472   3.17432   3.17766   3.19911   3.20864
 Alpha virt. eigenvalues --    3.22452   3.22653   3.23396   3.24081   3.25857
 Alpha virt. eigenvalues --    3.26589   3.28055   3.29147   3.29482   3.31706
 Alpha virt. eigenvalues --    3.33019   3.33842   3.35070   3.37229   3.39867
 Alpha virt. eigenvalues --    3.43637   3.50417   3.57531   3.60813   3.64954
 Alpha virt. eigenvalues --    3.77953   3.88155   3.89701   3.96715   4.04667
 Alpha virt. eigenvalues --    4.09058   4.11888   4.20026   4.20853   4.25282
 Alpha virt. eigenvalues --    4.93649   4.99897   5.01669   5.08197   5.14813
 Alpha virt. eigenvalues --    5.23711   5.49766   5.54789   5.77970   5.85491
 Alpha virt. eigenvalues --   11.52499  11.53343  11.59363  23.41429  23.49053
 Alpha virt. eigenvalues --   23.54590  23.55191  23.57849  23.61923  23.72058
 Alpha virt. eigenvalues --   23.73747  23.77208  23.78970  23.81681  23.87509
 Alpha virt. eigenvalues --   23.89003  24.27014  49.98288  50.05066  50.11395
 Alpha virt. eigenvalues --  141.29766
          Condensed to atoms (all electrons):
               1          2          3          4          5          6
     1  C    5.187197   0.291195  -0.041982  -0.004136  -0.049629   0.379962
     2  C    0.291195   5.529135   0.275306  -0.091427  -0.012246  -0.037198
     3  C   -0.041982   0.275306   5.214208   0.250553  -0.014446  -0.018662
     4  C   -0.004136  -0.091427   0.250553   5.854191   0.239772   0.003293
     5  C   -0.049629  -0.012246  -0.014446   0.239772   4.408320  -0.002473
     6  H    0.379962  -0.037198  -0.018662   0.003293  -0.002473   0.478052
     7  H   -0.053662   0.407234  -0.057528  -0.006125   0.000424   0.008188
     8  H    0.000954  -0.007684  -0.028154   0.362101  -0.027298   0.000058
     9  H   -0.000906   0.008609  -0.036861   0.371440  -0.026454   0.000114
    10  O    0.214966  -0.032925   0.003861  -0.109553   0.338431  -0.033588
    11  O    0.001263  -0.000135   0.002803  -0.098138   0.662204   0.000104
    12  C    0.329356  -0.072399   0.008951  -0.002634   0.002923  -0.048922
    13  C   -0.074448   0.007971  -0.000091   0.000089  -0.000060  -0.006481
    14  C   -0.053488   0.279679  -0.051974   0.007256   0.000066  -0.001100
    15  O    0.003656  -0.051197   0.227495  -0.021982   0.001894  -0.000057
    16  Si   0.002687  -0.014888  -0.046092  -0.005051   0.001600  -0.000251
    17  C   -0.000002  -0.000277   0.002304  -0.000095   0.000002   0.000000
    18  C    0.000007  -0.000343  -0.000850  -0.001517   0.000071   0.000001
    19  C   -0.000082  -0.003017  -0.000859  -0.002934  -0.000070  -0.000010
    20  H    0.000002  -0.000044   0.000547  -0.000144  -0.000034   0.000000
    21  H    0.000006  -0.000030  -0.000278   0.001206   0.000085   0.000000
    22  H    0.000000   0.000005  -0.000023   0.000115   0.000000   0.000000
    23  H   -0.000004   0.000347  -0.000095   0.000065   0.000003   0.000000
    24  H   -0.000056  -0.001247   0.000691   0.000115   0.000014  -0.000011
    25  H   -0.000068  -0.000556   0.000129   0.000169   0.000013  -0.000006
    26  H   -0.000001   0.000013  -0.000091  -0.000018   0.000000   0.000000
    27  H    0.000000  -0.000022  -0.000122  -0.000030   0.000000   0.000000
    28  H    0.000000   0.000003  -0.000071   0.000000   0.000000   0.000000
    29  H   -0.006028  -0.033608   0.006527  -0.000330  -0.000005  -0.000464
    30  H   -0.004803  -0.043397  -0.005086  -0.000135   0.000000   0.005112
    31  H    0.005220  -0.031025  -0.008911   0.000468  -0.000076  -0.000152
    32  H   -0.043433  -0.005395  -0.000669   0.000176  -0.000227   0.007684
    33  H   -0.036785  -0.007693  -0.000316   0.000102  -0.000005  -0.000110
    34  H    0.008380  -0.000252   0.000012  -0.000001   0.000009  -0.000293
    35  H   -0.011215   0.000358  -0.000078   0.000337   0.000659   0.000373
    36  H   -0.004182  -0.000014  -0.000001  -0.000004  -0.000107   0.005108
    37  C   -0.004727  -0.081862   0.287520  -0.119291   0.000914   0.006561
    38  C   -0.001473  -0.004496  -0.048399   0.008127  -0.000358   0.000437
    39  C   -0.000751   0.002486  -0.000804   0.000005  -0.000060   0.002582
    40  H   -0.000497   0.008174  -0.042734  -0.003165  -0.000624   0.000386
    41  H    0.001092  -0.003622  -0.024815  -0.008176   0.007262  -0.002340
    42  H    0.000093  -0.000374  -0.002159  -0.000089  -0.000006   0.000005
    43  H    0.000031  -0.000026  -0.000265   0.000016   0.000000   0.000004
    44  H    0.000132  -0.000133   0.000157  -0.000060  -0.000025   0.000869
               7          8          9         10         11         12
     1  C   -0.053662   0.000954  -0.000906   0.214966   0.001263   0.329356
     2  C    0.407234  -0.007684   0.008609  -0.032925  -0.000135  -0.072399
     3  C   -0.057528  -0.028154  -0.036861   0.003861   0.002803   0.008951
     4  C   -0.006125   0.362101   0.371440  -0.109553  -0.098138  -0.002634
     5  C    0.000424  -0.027298  -0.026454   0.338431   0.662204   0.002923
     6  H    0.008188   0.000058   0.000114  -0.033588   0.000104  -0.048922
     7  H    0.489893   0.001757   0.000369   0.003132  -0.000095  -0.009731
     8  H    0.001757   0.412079  -0.014894   0.002985   0.001891  -0.000130
     9  H    0.000369  -0.014894   0.410904   0.004410   0.008854   0.000078
    10  O    0.003132   0.002985   0.004410   8.036817  -0.069445  -0.050281
    11  O   -0.000095   0.001891   0.008854  -0.069445   7.875350  -0.000118
    12  C   -0.009731  -0.000130   0.000078  -0.050281  -0.000118   5.327588
    13  C   -0.000378   0.000002  -0.000003  -0.003720  -0.000021   0.316131
    14  C   -0.042803   0.000257  -0.000147   0.003332   0.000005  -0.005762
    15  O   -0.001300  -0.003604  -0.000055  -0.000033  -0.000018  -0.000079
    16  Si  -0.003103   0.004003  -0.003449  -0.000774  -0.000539  -0.000286
    17  C   -0.000025  -0.000006  -0.000037   0.000000   0.000000   0.000000
    18  C   -0.000162   0.000075  -0.001683   0.000000   0.000001   0.000000
    19  C   -0.003287   0.002462   0.000276   0.000004   0.000001  -0.000003
    20  H    0.000003   0.000009   0.000189   0.000000   0.000001   0.000000
    21  H   -0.000066   0.001772  -0.000627  -0.000001  -0.000039   0.000000
    22  H    0.000004  -0.000042   0.000142   0.000000   0.000000   0.000000
    23  H    0.000571  -0.000044  -0.000002   0.000000   0.000000   0.000000
    24  H   -0.000121   0.004949   0.000008  -0.000031   0.000004   0.000065
    25  H   -0.001493  -0.000382   0.000006  -0.000006   0.000000   0.000057
    26  H   -0.000025  -0.000006  -0.000003   0.000000   0.000000   0.000000
    27  H   -0.000004   0.000001  -0.000015   0.000000   0.000000   0.000000
    28  H   -0.000004   0.000006  -0.000002   0.000000   0.000000   0.000000
    29  H   -0.010647  -0.000032   0.000015  -0.000032   0.000000   0.001856
    30  H    0.007688  -0.000012   0.000021   0.000039   0.000001  -0.001565
    31  H   -0.002260   0.000034  -0.000037  -0.000104   0.000000   0.000280
    32  H    0.006556   0.000081   0.000005   0.002323  -0.000048   0.387189
    33  H    0.000477  -0.000008  -0.000002   0.003132   0.000007   0.389315
    34  H   -0.000030  -0.000001   0.000000  -0.000119   0.000000  -0.038719
    35  H    0.000042  -0.000015  -0.000006   0.012017   0.000178  -0.038699
    36  H    0.000023   0.000000   0.000000  -0.000381  -0.000002  -0.042486
    37  C    0.008693   0.006653  -0.005307  -0.003957   0.000455  -0.000523
    38  C   -0.000504  -0.000196   0.000069   0.000287   0.000000   0.000012
    39  C   -0.000073   0.000002  -0.000009  -0.000006   0.000000   0.000045
    40  H   -0.000171  -0.000258   0.004279  -0.000079  -0.000094   0.000018
    41  H   -0.000242   0.000286  -0.000040   0.000658   0.000335   0.000492
    42  H   -0.000068   0.000029   0.000014   0.000000   0.000000   0.000011
    43  H   -0.000001  -0.000001   0.000000   0.000000   0.000000  -0.000001
    44  H    0.000005   0.000002   0.000002  -0.000019  -0.000001   0.000020
              13         14         15         16         17         18
     1  C   -0.074448  -0.053488   0.003656   0.002687  -0.000002   0.000007
     2  C    0.007971   0.279679  -0.051197  -0.014888  -0.000277  -0.000343
     3  C   -0.000091  -0.051974   0.227495  -0.046092   0.002304  -0.000850
     4  C    0.000089   0.007256  -0.021982  -0.005051  -0.000095  -0.001517
     5  C   -0.000060   0.000066   0.001894   0.001600   0.000002   0.000071
     6  H   -0.006481  -0.001100  -0.000057  -0.000251   0.000000   0.000001
     7  H   -0.000378  -0.042803  -0.001300  -0.003103  -0.000025  -0.000162
     8  H    0.000002   0.000257  -0.003604   0.004003  -0.000006   0.000075
     9  H   -0.000003  -0.000147  -0.000055  -0.003449  -0.000037  -0.001683
    10  O   -0.003720   0.003332  -0.000033  -0.000774   0.000000   0.000000
    11  O   -0.000021   0.000005  -0.000018  -0.000539   0.000000   0.000001
    12  C    0.316131  -0.005762  -0.000079  -0.000286   0.000000   0.000000
    13  C    5.340105  -0.000309   0.000001   0.000019   0.000000   0.000000
    14  C   -0.000309   5.429411  -0.006781  -0.000944  -0.000198   0.000010
    15  O    0.000001  -0.006781   8.254008   0.351294  -0.021286  -0.024665
    16  Si   0.000019  -0.000944   0.351294  11.535069   0.332670   0.324900
    17  C    0.000000  -0.000198  -0.021286   0.332670   5.726647  -0.053623
    18  C    0.000000   0.000010  -0.024665   0.324900  -0.053623   5.764958
    19  C    0.000000   0.001066  -0.022830   0.311995  -0.049861  -0.059106
    20  H    0.000000   0.000001  -0.002229  -0.025042  -0.000566   0.370720
    21  H    0.000000   0.000001  -0.001245  -0.029397   0.002776   0.369398
    22  H    0.000000   0.000001   0.000974  -0.012567  -0.000373   0.364382
    23  H    0.000000  -0.000041   0.000759  -0.010068  -0.000932   0.000116
    24  H   -0.000001   0.000289  -0.001059  -0.031159   0.003031  -0.001480
    25  H   -0.000001   0.000635  -0.002164  -0.028948  -0.000374   0.002324
    26  H    0.000000   0.000094  -0.001264  -0.029094   0.369119   0.002493
    27  H    0.000000  -0.000010  -0.001348  -0.025896   0.369182  -0.000640
    28  H    0.000000  -0.000003   0.000909  -0.013250   0.363812   0.000528
    29  H    0.000160   0.388708   0.000088  -0.000608  -0.000001   0.000002
    30  H   -0.000161   0.386150  -0.000113  -0.000130   0.000002   0.000000
    31  H    0.000014   0.384417   0.006505   0.004121   0.000307   0.000046
    32  H   -0.044124   0.000537  -0.000002  -0.000083   0.000000   0.000000
    33  H   -0.038607   0.002715  -0.000004  -0.000015   0.000000   0.000000
    34  H    0.392944  -0.000006   0.000000  -0.000001   0.000000   0.000000
    35  H    0.385871  -0.000056   0.000000   0.000003   0.000000   0.000000
    36  H    0.385325   0.000000   0.000000   0.000000   0.000000   0.000000
    37  C   -0.000043  -0.002723  -0.075739   0.000936   0.000044  -0.000093
    38  C    0.000007  -0.016868   0.003390  -0.000290  -0.000031   0.000009
    39  C   -0.000002  -0.004915   0.000720   0.000098  -0.000001   0.000000
    40  H   -0.000002  -0.000469   0.001145   0.000874  -0.000024   0.000009
    41  H   -0.000017   0.000322   0.003497   0.000225   0.000004  -0.000006
    42  H    0.000000  -0.000067   0.007114   0.000664   0.000052   0.000002
    43  H    0.000000   0.000066   0.000005   0.000001   0.000000   0.000000
    44  H   -0.000001   0.000121   0.000001   0.000000   0.000000   0.000000
              19         20         21         22         23         24
     1  C   -0.000082   0.000002   0.000006   0.000000  -0.000004  -0.000056
     2  C   -0.003017  -0.000044  -0.000030   0.000005   0.000347  -0.001247
     3  C   -0.000859   0.000547  -0.000278  -0.000023  -0.000095   0.000691
     4  C   -0.002934  -0.000144   0.001206   0.000115   0.000065   0.000115
     5  C   -0.000070  -0.000034   0.000085   0.000000   0.000003   0.000014
     6  H   -0.000010   0.000000   0.000000   0.000000   0.000000  -0.000011
     7  H   -0.003287   0.000003  -0.000066   0.000004   0.000571  -0.000121
     8  H    0.002462   0.000009   0.001772  -0.000042  -0.000044   0.004949
     9  H    0.000276   0.000189  -0.000627   0.000142  -0.000002   0.000008
    10  O    0.000004   0.000000  -0.000001   0.000000   0.000000  -0.000031
    11  O    0.000001   0.000001  -0.000039   0.000000   0.000000   0.000004
    12  C   -0.000003   0.000000   0.000000   0.000000   0.000000   0.000065
    13  C    0.000000   0.000000   0.000000   0.000000   0.000000  -0.000001
    14  C    0.001066   0.000001   0.000001   0.000001  -0.000041   0.000289
    15  O   -0.022830  -0.002229  -0.001245   0.000974   0.000759  -0.001059
    16  Si   0.311995  -0.025042  -0.029397  -0.012567  -0.010068  -0.031159
    17  C   -0.049861  -0.000566   0.002776  -0.000373  -0.000932   0.003031
    18  C   -0.059106   0.370720   0.369398   0.364382   0.000116  -0.001480
    19  C    5.804912   0.002264  -0.001837   0.000740   0.366445   0.366560
    20  H    0.002264   0.449756  -0.018400  -0.020659  -0.000039  -0.000024
    21  H   -0.001837  -0.018400   0.454792  -0.022098   0.000044   0.000853
    22  H    0.000740  -0.020659  -0.022098   0.451501   0.000397   0.000090
    23  H    0.366445  -0.000039   0.000044   0.000397   0.433679  -0.020125
    24  H    0.366560  -0.000024   0.000853   0.000090  -0.020125   0.451103
    25  H    0.369719  -0.000101  -0.000042  -0.000034  -0.020331  -0.018784
    26  H   -0.000341  -0.000098  -0.000118  -0.000012  -0.000093  -0.000088
    27  H    0.002568   0.001171  -0.000089  -0.000112  -0.000040  -0.000108
    28  H   -0.000080  -0.000017  -0.000076   0.000809   0.000608  -0.000073
    29  H    0.000242   0.000000   0.000000   0.000000  -0.000010   0.000046
    30  H    0.000035   0.000000   0.000000   0.000000   0.000000  -0.000016
    31  H   -0.000430   0.000003   0.000001   0.000000   0.000026  -0.000026
    32  H    0.000025   0.000000   0.000000   0.000000  -0.000002   0.000015
    33  H   -0.000004   0.000000   0.000000   0.000000   0.000000   0.000000
    34  H    0.000000   0.000000   0.000000   0.000000   0.000000   0.000000
    35  H    0.000000   0.000000   0.000000   0.000000   0.000000   0.000000
    36  H    0.000000   0.000000   0.000000   0.000000   0.000000   0.000000
    37  C   -0.000230   0.000142  -0.000034   0.000003   0.000004  -0.000067
    38  C    0.000007  -0.000002   0.000000   0.000000   0.000000   0.000001
    39  C    0.000001   0.000000   0.000000   0.000000   0.000000   0.000000
    40  H    0.000032   0.000035  -0.000026   0.000000   0.000000   0.000004
    41  H    0.000013  -0.000007  -0.000002   0.000000   0.000000   0.000005
    42  H    0.000020  -0.000006   0.000000   0.000000   0.000000   0.000002
    43  H    0.000000   0.000000   0.000000   0.000000   0.000000   0.000000
    44  H    0.000000   0.000000   0.000000   0.000000   0.000000   0.000000
              25         26         27         28         29         30
     1  C   -0.000068  -0.000001   0.000000   0.000000  -0.006028  -0.004803
     2  C   -0.000556   0.000013  -0.000022   0.000003  -0.033608  -0.043397
     3  C    0.000129  -0.000091  -0.000122  -0.000071   0.006527  -0.005086
     4  C    0.000169  -0.000018  -0.000030   0.000000  -0.000330  -0.000135
     5  C    0.000013   0.000000   0.000000   0.000000  -0.000005   0.000000
     6  H   -0.000006   0.000000   0.000000   0.000000  -0.000464   0.005112
     7  H   -0.001493  -0.000025  -0.000004  -0.000004  -0.010647   0.007688
     8  H   -0.000382  -0.000006   0.000001   0.000006  -0.000032  -0.000012
     9  H    0.000006  -0.000003  -0.000015  -0.000002   0.000015   0.000021
    10  O   -0.000006   0.000000   0.000000   0.000000  -0.000032   0.000039
    11  O    0.000000   0.000000   0.000000   0.000000   0.000000   0.000001
    12  C    0.000057   0.000000   0.000000   0.000000   0.001856  -0.001565
    13  C   -0.000001   0.000000   0.000000   0.000000   0.000160  -0.000161
    14  C    0.000635   0.000094  -0.000010  -0.000003   0.388708   0.386150
    15  O   -0.002164  -0.001264  -0.001348   0.000909   0.000088  -0.000113
    16  Si  -0.028948  -0.029094  -0.025896  -0.013250  -0.000608  -0.000130
    17  C   -0.000374   0.369119   0.369182   0.363812  -0.000001   0.000002
    18  C    0.002324   0.002493  -0.000640   0.000528   0.000002   0.000000
    19  C    0.369719  -0.000341   0.002568  -0.000080   0.000242   0.000035
    20  H   -0.000101  -0.000098   0.001171  -0.000017   0.000000   0.000000
    21  H   -0.000042  -0.000118  -0.000089  -0.000076   0.000000   0.000000
    22  H   -0.000034  -0.000012  -0.000112   0.000809   0.000000   0.000000
    23  H   -0.020331  -0.000093  -0.000040   0.000608  -0.000010   0.000000
    24  H   -0.018784  -0.000088  -0.000108  -0.000073   0.000046  -0.000016
    25  H    0.447161   0.001220  -0.000074  -0.000075   0.000589   0.000011
    26  H    0.001220   0.458427  -0.018004  -0.020593   0.000002  -0.000011
    27  H   -0.000074  -0.018004   0.455413  -0.020528  -0.000001   0.000001
    28  H   -0.000075  -0.020593  -0.020528   0.452054   0.000001   0.000000
    29  H    0.000589   0.000002  -0.000001   0.000001   0.468834  -0.027578
    30  H    0.000011  -0.000011   0.000001   0.000000  -0.027578   0.451763
    31  H    0.000195   0.000819  -0.000027  -0.000017  -0.026007  -0.022698
    32  H    0.000010   0.000000   0.000000   0.000000   0.000217   0.000123
    33  H   -0.000004   0.000000   0.000000   0.000000  -0.000784   0.000485
    34  H    0.000000   0.000000   0.000000   0.000000   0.000006   0.000005
    35  H    0.000000   0.000000   0.000000   0.000000  -0.000024  -0.000002
    36  H    0.000000   0.000000   0.000000   0.000000   0.000025  -0.000006
    37  C   -0.000092  -0.000007   0.000060   0.000000  -0.000488   0.001838
    38  C    0.000005   0.000000  -0.000011   0.000000   0.000669   0.001910
    39  C    0.000000   0.000000  -0.000001   0.000000   0.000252   0.001923
    40  H    0.000006   0.000004  -0.000011   0.000000   0.000027   0.000135
    41  H    0.000003   0.000000   0.000000   0.000000  -0.000004  -0.000358
    42  H    0.000004   0.000028   0.000039  -0.000002   0.000052  -0.000613
    43  H    0.000000   0.000000   0.000000   0.000000  -0.000007  -0.000029
    44  H    0.000000   0.000000   0.000000   0.000000   0.000005  -0.000069
              31         32         33         34         35         36
     1  C    0.005220  -0.043433  -0.036785   0.008380  -0.011215  -0.004182
     2  C   -0.031025  -0.005395  -0.007693  -0.000252   0.000358  -0.000014
     3  C   -0.008911  -0.000669  -0.000316   0.000012  -0.000078  -0.000001
     4  C    0.000468   0.000176   0.000102  -0.000001   0.000337  -0.000004
     5  C   -0.000076  -0.000227  -0.000005   0.000009   0.000659  -0.000107
     6  H   -0.000152   0.007684  -0.000110  -0.000293   0.000373   0.005108
     7  H   -0.002260   0.006556   0.000477  -0.000030   0.000042   0.000023
     8  H    0.000034   0.000081  -0.000008  -0.000001  -0.000015   0.000000
     9  H   -0.000037   0.000005  -0.000002   0.000000  -0.000006   0.000000
    10  O   -0.000104   0.002323   0.003132  -0.000119   0.012017  -0.000381
    11  O    0.000000  -0.000048   0.000007   0.000000   0.000178  -0.000002
    12  C    0.000280   0.387189   0.389315  -0.038719  -0.038699  -0.042486
    13  C    0.000014  -0.044124  -0.038607   0.392944   0.385871   0.385325
    14  C    0.384417   0.000537   0.002715  -0.000006  -0.000056   0.000000
    15  O    0.006505  -0.000002  -0.000004   0.000000   0.000000   0.000000
    16  Si   0.004121  -0.000083  -0.000015  -0.000001   0.000003   0.000000
    17  C    0.000307   0.000000   0.000000   0.000000   0.000000   0.000000
    18  C    0.000046   0.000000   0.000000   0.000000   0.000000   0.000000
    19  C   -0.000430   0.000025  -0.000004   0.000000   0.000000   0.000000
    20  H    0.000003   0.000000   0.000000   0.000000   0.000000   0.000000
    21  H    0.000001   0.000000   0.000000   0.000000   0.000000   0.000000
    22  H    0.000000   0.000000   0.000000   0.000000   0.000000   0.000000
    23  H    0.000026  -0.000002   0.000000   0.000000   0.000000   0.000000
    24  H   -0.000026   0.000015   0.000000   0.000000   0.000000   0.000000
    25  H    0.000195   0.000010  -0.000004   0.000000   0.000000   0.000000
    26  H    0.000819   0.000000   0.000000   0.000000   0.000000   0.000000
    27  H   -0.000027   0.000000   0.000000   0.000000   0.000000   0.000000
    28  H   -0.000017   0.000000   0.000000   0.000000   0.000000   0.000000
    29  H   -0.026007   0.000217  -0.000784   0.000006  -0.000024   0.000025
    30  H   -0.022698   0.000123   0.000485   0.000005  -0.000002  -0.000006
    31  H    0.430551  -0.000125   0.000458  -0.000001   0.000005  -0.000005
    32  H   -0.000125   0.485689  -0.024768  -0.004747  -0.004824   0.007409
    33  H    0.000458  -0.024768   0.466643  -0.005502   0.007157  -0.004422
    34  H   -0.000001  -0.004747  -0.005502   0.473825  -0.026596  -0.027029
    35  H    0.000005  -0.004824   0.007157  -0.026596   0.463490  -0.026965
    36  H   -0.000005   0.007409  -0.004422  -0.027029  -0.026965   0.485694
    37  C   -0.000318   0.000040   0.000008   0.000000  -0.000003  -0.000009
    38  C    0.000725  -0.000011  -0.000006   0.000000  -0.000001  -0.000004
    39  C    0.000318  -0.000002   0.000008   0.000000   0.000000  -0.000008
    40  H   -0.000083   0.000001   0.000001   0.000000   0.000000   0.000000
    41  H    0.000007  -0.000020  -0.000010   0.000001   0.000002  -0.000007
    42  H    0.000249   0.000000   0.000000   0.000000   0.000000   0.000000
    43  H    0.000001   0.000000   0.000000   0.000000   0.000000   0.000000
    44  H   -0.000013   0.000000   0.000004   0.000000  -0.000001   0.000012
              37         38         39         40         41         42
     1  C   -0.004727  -0.001473  -0.000751  -0.000497   0.001092   0.000093
     2  C   -0.081862  -0.004496   0.002486   0.008174  -0.003622  -0.000374
     3  C    0.287520  -0.048399  -0.000804  -0.042734  -0.024815  -0.002159
     4  C   -0.119291   0.008127   0.000005  -0.003165  -0.008176  -0.000089
     5  C    0.000914  -0.000358  -0.000060  -0.000624   0.007262  -0.000006
     6  H    0.006561   0.000437   0.002582   0.000386  -0.002340   0.000005
     7  H    0.008693  -0.000504  -0.000073  -0.000171  -0.000242  -0.000068
     8  H    0.006653  -0.000196   0.000002  -0.000258   0.000286   0.000029
     9  H   -0.005307   0.000069  -0.000009   0.004279  -0.000040   0.000014
    10  O   -0.003957   0.000287  -0.000006  -0.000079   0.000658   0.000000
    11  O    0.000455   0.000000   0.000000  -0.000094   0.000335   0.000000
    12  C   -0.000523   0.000012   0.000045   0.000018   0.000492   0.000011
    13  C   -0.000043   0.000007  -0.000002  -0.000002  -0.000017   0.000000
    14  C   -0.002723  -0.016868  -0.004915  -0.000469   0.000322  -0.000067
    15  O   -0.075739   0.003390   0.000720   0.001145   0.003497   0.007114
    16  Si   0.000936  -0.000290   0.000098   0.000874   0.000225   0.000664
    17  C    0.000044  -0.000031  -0.000001  -0.000024   0.000004   0.000052
    18  C   -0.000093   0.000009   0.000000   0.000009  -0.000006   0.000002
    19  C   -0.000230   0.000007   0.000001   0.000032   0.000013   0.000020
    20  H    0.000142  -0.000002   0.000000   0.000035  -0.000007  -0.000006
    21  H   -0.000034   0.000000   0.000000  -0.000026  -0.000002   0.000000
    22  H    0.000003   0.000000   0.000000   0.000000   0.000000   0.000000
    23  H    0.000004   0.000000   0.000000   0.000000   0.000000   0.000000
    24  H   -0.000067   0.000001   0.000000   0.000004   0.000005   0.000002
    25  H   -0.000092   0.000005   0.000000   0.000006   0.000003   0.000004
    26  H   -0.000007   0.000000   0.000000   0.000004   0.000000   0.000028
    27  H    0.000060  -0.000011  -0.000001  -0.000011   0.000000   0.000039
    28  H    0.000000   0.000000   0.000000   0.000000   0.000000  -0.000002
    29  H   -0.000488   0.000669   0.000252   0.000027  -0.000004   0.000052
    30  H    0.001838   0.001910   0.001923   0.000135  -0.000358  -0.000613
    31  H   -0.000318   0.000725   0.000318  -0.000083   0.000007   0.000249
    32  H    0.000040  -0.000011  -0.000002   0.000001  -0.000020   0.000000
    33  H    0.000008  -0.000006   0.000008   0.000001  -0.000010   0.000000
    34  H    0.000000   0.000000   0.000000   0.000000   0.000001   0.000000
    35  H   -0.000003  -0.000001   0.000000   0.000000   0.000002   0.000000
    36  H   -0.000009  -0.000004  -0.000008   0.000000  -0.000007   0.000000
    37  C    5.492182   0.326532  -0.063795   0.386657   0.379826  -0.048522
    38  C    0.326532   5.050945   0.616940  -0.040146  -0.045273   0.397434
    39  C   -0.063795   0.616940   5.165921  -0.001453   0.002366  -0.039124
    40  H    0.386657  -0.040146  -0.001453   0.454134  -0.023506  -0.001364
    41  H    0.379826  -0.045273   0.002366  -0.023506   0.456216   0.005077
    42  H   -0.048522   0.397434  -0.039124  -0.001364   0.005077   0.458835
    43  H    0.006567  -0.039877   0.392782  -0.000409   0.000125  -0.007844
    44  H   -0.008973  -0.039752   0.387606   0.000214   0.004714   0.005793
              43         44
     1  C    0.000031   0.000132
     2  C   -0.000026  -0.000133
     3  C   -0.000265   0.000157
     4  C    0.000016  -0.000060
     5  C    0.000000  -0.000025
     6  H    0.000004   0.000869
     7  H   -0.000001   0.000005
     8  H   -0.000001   0.000002
     9  H    0.000000   0.000002
    10  O    0.000000  -0.000019
    11  O    0.000000  -0.000001
    12  C   -0.000001   0.000020
    13  C    0.000000  -0.000001
    14  C    0.000066   0.000121
    15  O    0.000005   0.000001
    16  Si   0.000001   0.000000
    17  C    0.000000   0.000000
    18  C    0.000000   0.000000
    19  C    0.000000   0.000000
    20  H    0.000000   0.000000
    21  H    0.000000   0.000000
    22  H    0.000000   0.000000
    23  H    0.000000   0.000000
    24  H    0.000000   0.000000
    25  H    0.000000   0.000000
    26  H    0.000000   0.000000
    27  H    0.000000   0.000000
    28  H    0.000000   0.000000
    29  H   -0.000007   0.000005
    30  H   -0.000029  -0.000069
    31  H    0.000001  -0.000013
    32  H    0.000000   0.000000
    33  H    0.000000   0.000004
    34  H    0.000000   0.000000
    35  H    0.000000  -0.000001
    36  H    0.000000   0.000012
    37  C    0.006567  -0.008973
    38  C   -0.039877  -0.039752
    39  C    0.392782   0.387606
    40  H   -0.000409   0.000214
    41  H    0.000125   0.004714
    42  H   -0.007844   0.005793
    43  H    0.457283  -0.033281
    44  H   -0.033281   0.461451
 Mulliken charges:
               1
     1  C   -0.033844
     2  C   -0.272980
     3  C    0.151349
     4  C   -0.624560
     5  C    0.469533
     6  H    0.253224
     7  H    0.258848
     8  H    0.280320
     9  H    0.280735
    10  O   -0.321337
    11  O   -0.384765
    12  C   -0.452051
    13  C   -0.660170
    14  C   -0.696474
    15  O   -0.624401
    16  Si   1.410765
    17  C   -1.042238
    18  C   -1.055884
    19  C   -1.084407
    20  H    0.242567
    21  H    0.243470
    22  H    0.236757
    23  H    0.248763
    24  H    0.246629
    25  H    0.251276
    26  H    0.237646
    27  H    0.238659
    28  H    0.236060
    29  H    0.238336
    30  H    0.249539
    31  H    0.257545
    32  H    0.230399
    33  H    0.248534
    34  H    0.228116
    35  H    0.237995
    36  H    0.222035
    37  C   -0.488828
    38  C   -0.169808
    39  C   -0.463054
    40  H    0.258977
    41  H    0.245920
    42  H    0.224723
    43  H    0.224862
    44  H    0.221219
 Sum of Mulliken charges =   0.00000
 Mulliken charges with hydrogens summed into heavy atoms:
               1
     1  C    0.219380
     2  C   -0.014132
     3  C    0.151349
     4  C   -0.063505
     5  C    0.469533
    10  O   -0.321337
    11  O   -0.384765
    12  C    0.026882
    13  C    0.027976
    14  C    0.048945
    15  O   -0.624401
    16  Si   1.410765
    17  C   -0.329873
    18  C   -0.333090
    19  C   -0.337739
    37  C    0.016069
    38  C    0.054915
    39  C   -0.016972
 Electronic spatial extent (au):  <R**2>=           5476.6856
 Charge=              0.0000 electrons
 Dipole moment (field-independent basis, Debye):
    X=             -1.9452    Y=              2.1588    Z=              3.9854  Tot=              4.9323
 Quadrupole moment (field-independent basis, Debye-Ang):
   XX=           -119.8414   YY=           -125.9941   ZZ=           -124.6838
   XY=             11.4354   XZ=              7.6738   YZ=             -7.8978
 Traceless Quadrupole moment (field-independent basis, Debye-Ang):
   XX=              3.6650   YY=             -2.4876   ZZ=             -1.1774
   XY=             11.4354   XZ=              7.6738   YZ=             -7.8978
 Octapole moment (field-independent basis, Debye-Ang**2):
  XXX=             -8.3578  YYY=             12.0275  ZZZ=             18.7095  XYY=            -11.3869
  XXY=             11.3929  XXZ=             20.3133  XZZ=             -8.5074  YZZ=             15.5749
  YYZ=             24.1908  XYZ=            -16.3227
 Hexadecapole moment (field-independent basis, Debye-Ang**3):
 XXXX=          -4284.0270 YYYY=          -1776.9343 ZZZZ=          -1413.5128 XXXY=             74.8612
 XXXZ=             15.1116 YYYX=             21.3624 YYYZ=            -11.6914 ZZZX=             52.5704
 ZZZY=            -15.7838 XXYY=          -1043.3956 XXZZ=           -948.3006 YYZZ=           -613.4520
 XXYZ=            -64.9926 YYXZ=             30.8546 ZZXY=             22.3549
 N-N= 1.629605892208D+03 E-N=-5.754086212633D+03  KE= 1.060530920587D+03
 1\1\GINC-SWANNODE-0-9\SP\RmPW1PW91\6-311G(d)\C14H26O3Si1\ROOT\08-Mar-2
 018\0\\#mPW1PW91/6-311g(d) nmr=(giao) scrf=(solvent=chloroform)\\P_ng_
 correct1ginp012\\0,1\C,0,0.837633,-0.153091,0.658929\C,0,-0.693386,-0.
 213501,0.783855\C,0,-1.210517,1.054224,1.519458\C,0,-0.783311,2.262107
 ,0.67315\C,0,0.690112,2.303112,0.395664\H,0,1.302703,-0.304984,1.64029
 4\H,0,-1.100065,-0.171476,-0.234956\H,0,-1.273125,2.269716,-0.306015\H
 ,0,-1.071143,3.193636,1.176253\O,0,1.31123,1.127175,0.174862\O,0,1.286
 014,3.367675,0.264215\C,0,1.395675,-1.226458,-0.293548\C,0,2.916744,-1
 .189663,-0.392333\C,0,-1.180094,-1.5494,1.359379\O,0,-2.636047,0.98887
 4,1.740949\Si,0,-3.896309,1.279662,0.683238\C,0,-5.486369,0.58494,1.43
 7737\C,0,-4.164889,3.122929,0.427654\C,0,-3.677186,0.459393,-0.988543\
 H,0,-4.264131,3.632048,1.39083\H,0,-3.330932,3.574716,-0.115741\H,0,-5
 .07825,3.299107,-0.148487\H,0,-4.573103,0.598694,-1.601339\H,0,-2.8306
 63,0.885452,-1.533663\H,0,-3.510508,-0.615692,-0.874121\H,0,-5.393135,
 -0.494059,1.591222\H,0,-5.686528,1.057569,2.403639\H,0,-6.337011,0.770
 774,0.775717\H,0,-1.09729,-2.340631,0.606099\H,0,-0.586277,-1.867166,2
 .220079\H,0,-2.231776,-1.514295,1.656697\H,0,0.984823,-1.075897,-1.299
 217\H,0,1.10069,-2.226675,0.039384\H,0,3.27042,-1.996658,-1.042029\H,0
 ,3.269282,-0.24351,-0.81427\H,0,3.375707,-1.321496,0.592618\C,0,-0.610
 217,1.272033,2.957122\C,0,-0.895233,0.19727,3.97185\C,0,0.04242,-0.415
 372,4.706152\H,0,-1.048813,2.192505,3.368746\H,0,0.470122,1.451079,2.9
 07489\H,0,-1.941341,-0.067408,4.119594\H,0,-0.233004,-1.173959,5.43300
 2\H,0,1.096539,-0.174541,4.610125\\Version=EM64L-G09RevD.01\State=1-A\
 HF=-1064.3759249\RMSD=3.599e-09\Dipole=-1.172454,-1.5452566,-0.055861\
 Quadrupole=-1.8579145,-1.4936102,3.3515247,-10.2736223,5.0843432,2.293
 8685\PG=C01 [X(C14H26O3Si1)]\\@


 CLIMB THE MOUNTAINS AND GET THEIR GOOD TIDINGS.
 NATURE'S PEACE WILL FLOW INTO YOU AS SUNSHINE FLOWS INTO TREES.
 THE WINDS WILL BLOW THEIR OWN FRESHNESS INTO YOU, 
 AND CARES WILL DROP OFF LIKE AUTUMN LEAVES.

                                         -- JOHN MUIR
 Job cpu time:       0 days  1 hours 17 minutes 52.3 seconds.
 File lengths (MBytes):  RWF=    236 Int=      0 D2E=      0 Chk=     11 Scr=      1
 Normal termination of Gaussian 09 at Thu Mar  8 13:18:39 2018.
