 Entering Gaussian System, Link 0=/usr/local/shared/gaussian/em64t/09-D01/g09/g09
 Initial command:
 /usr/local/shared/gaussian/em64t/09-D01/g09/l1.exe "/scratch/ah809/P_ng_2ginp004/Gau-32683.inp" -scrdir="/scratch/ah809/P_ng_2ginp004/"
 Entering Link 1 = /usr/local/shared/gaussian/em64t/09-D01/g09/l1.exe PID=     32688.
  
 Copyright (c) 1988,1990,1992,1993,1995,1998,2003,2009,2013,
            Gaussian, Inc.  All Rights Reserved.
  
 This is part of the Gaussian(R) 09 program.  It is based on
 the Gaussian(R) 03 system (copyright 2003, Gaussian, Inc.),
 the Gaussian(R) 98 system (copyright 1998, Gaussian, Inc.),
 the Gaussian(R) 94 system (copyright 1995, Gaussian, Inc.),
 the Gaussian 92(TM) system (copyright 1992, Gaussian, Inc.),
 the Gaussian 90(TM) system (copyright 1990, Gaussian, Inc.),
 the Gaussian 88(TM) system (copyright 1988, Gaussian, Inc.),
 the Gaussian 86(TM) system (copyright 1986, Carnegie Mellon
 University), and the Gaussian 82(TM) system (copyright 1983,
 Carnegie Mellon University). Gaussian is a federally registered
 trademark of Gaussian, Inc.
  
 This software contains proprietary and confidential information,
 including trade secrets, belonging to Gaussian, Inc.
  
 This software is provided under written license and may be
 used, copied, transmitted, or stored only in accord with that
 written license.
  
 The following legend is applicable only to US Government
 contracts under FAR:
  
                    RESTRICTED RIGHTS LEGEND
  
 Use, reproduction and disclosure by the US Government is
 subject to restrictions as set forth in subparagraphs (a)
 and (c) of the Commercial Computer Software - Restricted
 Rights clause in FAR 52.227-19.
  
 Gaussian, Inc.
 340 Quinnipiac St., Bldg. 40, Wallingford CT 06492
  
  
 ---------------------------------------------------------------
 Warning -- This program may not be used in any manner that
 competes with the business of Gaussian, Inc. or will provide
 assistance to any competitor of Gaussian, Inc.  The licensee
 of this program is prohibited from giving any competitor of
 Gaussian, Inc. access to this program.  By using this program,
 the user acknowledges that Gaussian, Inc. is engaged in the
 business of creating and licensing software in the field of
 computational chemistry and represents and warrants to the
 licensee that it is not a competitor of Gaussian, Inc. and that
 it will not use this program in any manner prohibited above.
 ---------------------------------------------------------------
  

 Cite this work as:
 Gaussian 09, Revision D.01,
 M. J. Frisch, G. W. Trucks, H. B. Schlegel, G. E. Scuseria, 
 M. A. Robb, J. R. Cheeseman, G. Scalmani, V. Barone, B. Mennucci, 
 G. A. Petersson, H. Nakatsuji, M. Caricato, X. Li, H. P. Hratchian, 
 A. F. Izmaylov, J. Bloino, G. Zheng, J. L. Sonnenberg, M. Hada, 
 M. Ehara, K. Toyota, R. Fukuda, J. Hasegawa, M. Ishida, T. Nakajima, 
 Y. Honda, O. Kitao, H. Nakai, T. Vreven, J. A. Montgomery, Jr., 
 J. E. Peralta, F. Ogliaro, M. Bearpark, J. J. Heyd, E. Brothers, 
 K. N. Kudin, V. N. Staroverov, T. Keith, R. Kobayashi, J. Normand, 
 K. Raghavachari, A. Rendell, J. C. Burant, S. S. Iyengar, J. Tomasi, 
 M. Cossi, N. Rega, J. M. Millam, M. Klene, J. E. Knox, J. B. Cross, 
 V. Bakken, C. Adamo, J. Jaramillo, R. Gomperts, R. E. Stratmann, 
 O. Yazyev, A. J. Austin, R. Cammi, C. Pomelli, J. W. Ochterski, 
 R. L. Martin, K. Morokuma, V. G. Zakrzewski, G. A. Voth, 
 P. Salvador, J. J. Dannenberg, S. Dapprich, A. D. Daniels, 
 O. Farkas, J. B. Foresman, J. V. Ortiz, J. Cioslowski, 
 and D. J. Fox, Gaussian, Inc., Wallingford CT, 2013.
 
 ******************************************
 Gaussian 09:  EM64L-G09RevD.01 24-Apr-2013
                 8-Mar-2018 
 ******************************************
 %mem=6000MB
 %chk=P_ng_2ginp004.chk
 --------------------------------------------------------
 #mPW1PW91/6-311g(d) nmr=(giao) scrf=(solvent=chloroform)
 --------------------------------------------------------
 1/38=1/1;
 2/12=2,17=6,18=5,40=1/2;
 3/5=4,6=6,7=1,11=2,16=1,25=1,30=1,70=2201,72=7,74=-7/1,2,8,3;
 4//1;
 5/5=2,38=5,53=7/2;
 8/6=1,10=90,11=11/1;
 10/13=100,45=16/2;
 6/7=2,8=2,9=2,10=2,28=1/1;
 99/9=1/99;
 -------------
 P_ng_2ginp004
 -------------
 Symbolic Z-matrix:
 Charge =  0 Multiplicity = 1
 C                    -0.40119  -0.268     1.41608 
 C                    -1.02372   0.8674    0.59374 
 C                    -1.94612   1.74834   1.49621 
 C                    -1.01594   2.30738   2.58329 
 C                    -0.25788   1.26023   3.3438 
 H                    -1.18009  -0.99049   1.68891 
 H                    -0.21979   1.53957   0.25929 
 H                    -0.27519   2.99169   2.15138 
 H                    -1.59289   2.88626   3.31408 
 O                     0.17348   0.18113   2.66373 
 O                     0.04344   1.42494   4.52235 
 C                     0.69105  -1.07415   0.6891 
 C                     1.90181  -0.2521    0.26554 
 C                    -1.66904   0.34811  -0.69867 
 O                    -2.44006   2.7828    0.61553 
 Si                   -3.08384   4.27906   0.99573 
 C                    -4.32029   4.24879   2.40315 
 C                    -1.73064   5.51735   1.41583 
 C                    -3.99108   4.94343  -0.52661 
 H                    -2.14764   6.52589   1.49409 
 H                    -1.25545   5.27366   2.36979 
 H                    -0.96187   5.52315   0.63764 
 H                    -4.41043   5.93243  -0.32068 
 H                    -3.30291   5.02565  -1.37282 
 H                    -4.80656   4.26988  -0.80551 
 H                    -4.7656    5.23917   2.53963 
 H                    -5.12953   3.54244   2.19657 
 H                    -3.84247   3.96642   3.34525 
 H                    -2.26384   1.11654  -1.20099 
 H                    -0.89702   0.03667  -1.41093 
 H                    -2.30467  -0.52249  -0.51904 
 H                     0.27331  -1.58338  -0.18604 
 H                     1.04949  -1.85914   1.36753 
 H                     1.64117   0.47746  -0.5064 
 H                     2.3405    0.28161   1.11408 
 H                     2.67153  -0.91002  -0.15109 
 C                    -3.12859   0.97559   2.17022 
 C                    -4.166     0.40244   1.24389 
 C                    -4.59427  -0.86584   1.28794 
 H                    -3.66285   1.65616   2.84151 
 H                    -2.74135   0.1846    2.82343 
 H                    -4.5987    1.078     0.5079 
 H                    -5.35439  -1.21739   0.59623 
 H                    -4.20788  -1.57918   2.00934 
 
                          Input orientation:                          
 ---------------------------------------------------------------------
 Center     Atomic      Atomic             Coordinates (Angstroms)
 Number     Number       Type             X           Y           Z
 ---------------------------------------------------------------------
      1          6           0       -0.401189   -0.268004    1.416076
      2          6           0       -1.023724    0.867398    0.593735
      3          6           0       -1.946122    1.748336    1.496212
      4          6           0       -1.015936    2.307379    2.583289
      5          6           0       -0.257880    1.260227    3.343795
      6          1           0       -1.180087   -0.990486    1.688912
      7          1           0       -0.219789    1.539574    0.259287
      8          1           0       -0.275185    2.991691    2.151380
      9          1           0       -1.592889    2.886256    3.314085
     10          8           0        0.173481    0.181130    2.663730
     11          8           0        0.043444    1.424937    4.522349
     12          6           0        0.691050   -1.074146    0.689095
     13          6           0        1.901809   -0.252103    0.265542
     14          6           0       -1.669043    0.348108   -0.698669
     15          8           0       -2.440058    2.782803    0.615534
     16         14           0       -3.083840    4.279063    0.995732
     17          6           0       -4.320287    4.248792    2.403150
     18          6           0       -1.730641    5.517350    1.415830
     19          6           0       -3.991077    4.943431   -0.526613
     20          1           0       -2.147637    6.525888    1.494089
     21          1           0       -1.255453    5.273661    2.369790
     22          1           0       -0.961874    5.523149    0.637644
     23          1           0       -4.410427    5.932431   -0.320678
     24          1           0       -3.302911    5.025650   -1.372819
     25          1           0       -4.806561    4.269876   -0.805512
     26          1           0       -4.765598    5.239166    2.539625
     27          1           0       -5.129525    3.542439    2.196571
     28          1           0       -3.842465    3.966421    3.345245
     29          1           0       -2.263835    1.116539   -1.200989
     30          1           0       -0.897017    0.036665   -1.410926
     31          1           0       -2.304668   -0.522490   -0.519043
     32          1           0        0.273312   -1.583382   -0.186039
     33          1           0        1.049492   -1.859142    1.367527
     34          1           0        1.641171    0.477460   -0.506399
     35          1           0        2.340504    0.281611    1.114075
     36          1           0        2.671531   -0.910020   -0.151090
     37          6           0       -3.128591    0.975586    2.170221
     38          6           0       -4.166004    0.402437    1.243887
     39          6           0       -4.594265   -0.865842    1.287943
     40          1           0       -3.662853    1.656163    2.841506
     41          1           0       -2.741348    0.184602    2.823428
     42          1           0       -4.598700    1.077998    0.507895
     43          1           0       -5.354390   -1.217386    0.596228
     44          1           0       -4.207878   -1.579180    2.009341
 ---------------------------------------------------------------------
                    Distance matrix (angstroms):
                    1          2          3          4          5
     1  C    0.000000
     2  C    1.533927   0.000000
     3  C    2.541430   1.562477   0.000000
     4  C    2.893596   2.455999   1.536070   0.000000
     5  C    2.464169   2.881607   2.549897   1.499849   0.000000
     6  H    1.096860   2.162312   2.850454   3.420931   2.941906
     7  H    2.153696   1.099994   2.133961   2.573783   3.097366
     8  H    3.343974   2.738465   2.183394   1.097060   2.102408
     9  H    3.869360   3.435119   2.173545   1.096374   2.104068
    10  O    1.445202   2.487799   2.883045   2.437646   1.346481
    11  O    3.565484   4.108979   3.635996   2.379274   1.227565
    12  C    1.539920   2.592130   3.946203   4.235149   3.660218
    13  C    2.574448   3.149561   4.508090   4.520634   4.053029
    14  C    2.541494   1.535059   2.618189   3.877698   4.377769
    15  O    3.755699   2.382279   1.445575   2.475118   3.810977
    16  Si   5.296142   4.005638   2.819479   3.268654   4.755294
    17  C    6.060948   5.057187   3.565316   3.836700   5.130252
    18  C    5.936140   4.774686   3.776024   3.489653   4.899915
    19  C    6.619697   5.164727   4.299104   5.046952   6.517884
    20  H    7.015207   5.838863   4.781800   4.501436   5.892349
    21  H    5.687652   4.756388   3.697036   2.983585   4.248705
    22  H    5.870075   4.656369   3.994383   3.758941   5.098173
    23  H    7.585229   6.161207   5.184645   5.752964   7.245792
    24  H    6.649865   5.133526   4.562127   5.316958   6.759961
    25  H    6.703366   5.276799   4.454010   5.450156   6.853119
    26  H    7.116133   6.074575   4.606957   4.759963   6.066149
    27  H    6.122566   5.155825   3.720667   4.312370   5.500685
    28  H    5.787437   5.011991   3.454698   3.364857   4.491407
    29  H    3.497919   2.195673   2.788369   4.158859   4.969866
    30  H    2.886279   2.173669   3.532972   4.596089   4.951058
    31  H    2.726294   2.193372   3.057198   4.392431   4.721116
    32  H    2.179895   2.880395   4.342373   4.946651   4.563771
    33  H    2.153730   3.511552   4.690859   4.806659   3.917310
    34  H    2.902217   2.909297   4.300494   4.467101   4.363842
    35  H    2.812501   3.454263   4.546699   4.186647   3.561031
    36  H    3.508533   4.167600   5.577022   5.605881   5.050311
    37  C    3.090950   2.632010   1.565140   2.531326   3.114366
    38  C    3.827920   3.242346   2.608254   3.917363   4.518722
    39  C    4.237418   4.029244   3.726924   4.954966   5.248898
    40  H    4.046322   3.555225   2.182997   2.738052   3.464520
    41  H    2.768002   2.896200   2.199807   2.746069   2.755969
    42  H    4.500624   3.582202   2.909002   4.319124   5.188280
    43  H    5.109567   4.806350   4.606709   5.932501   6.297786
    44  H    4.069647   4.257760   4.056008   5.061941   5.044352
                    6          7          8          9         10
     6  H    0.000000
     7  H    3.060589   0.000000
     8  H    4.109800   2.385734   0.000000
     9  H    4.223828   3.609813   1.760495   0.000000
    10  O    2.038406   2.789512   2.891895   3.295562   0.000000
    11  O    3.919140   4.272719   2.859674   2.504584   2.240185
    12  C    2.123155   2.801052   4.427518   5.271787   2.396410
    13  C    3.474086   2.776927   4.337959   5.599627   2.987660
    14  C    2.780549   2.106563   4.129667   4.748704   3.837773
    15  O    4.120361   2.569460   2.662542   2.830296   4.218340
    16  Si   5.645611   4.031121   3.298695   3.088302   5.494125
    17  C    6.149880   5.361911   4.243412   3.181982   6.066937
    18  C    6.536789   4.409418   3.006383   3.247307   5.801567
    19  C    6.929761   5.140671   4.978834   4.973353   7.085291
    20  H    7.580896   5.486771   4.053228   4.106952   6.856501
    21  H    6.301493   4.412508   2.493194   2.589451   5.297370
    22  H    6.601532   4.069731   3.028402   3.809819   5.825051
    23  H    7.899388   6.098770   5.644400   5.516267   7.937025
    24  H    7.076332   4.931748   5.071892   5.428467   7.200584
    25  H    6.858927   5.443053   5.559706   5.404921   7.318081
    26  H    7.237967   6.288983   5.036436   4.025178   7.070617
    27  H    6.033505   5.645356   4.885692   3.766591   6.295912
    28  H    5.865375   5.341957   3.885987   2.495660   5.560640
    29  H    3.737057   2.547447   4.325425   4.895708   4.663856
    30  H    3.277829   2.346697   4.669998   5.561487   4.215407
    31  H    2.521660   3.033913   4.857924   5.178711   4.094673
    32  H    2.445268   3.192854   5.166785   5.975888   3.353305
    33  H    2.414306   3.793487   5.089182   5.769755   2.571040
    34  H    3.864421   2.275419   4.130081   5.554956   3.505944
    35  H    3.787246   2.977958   3.906708   5.205363   2.665992
    36  H    4.269314   3.811647   5.404429   6.678655   3.918427
    37  C    2.809585   3.525745   3.493846   2.705081   3.431966
    38  C    3.324753   4.223166   4.760909   4.132311   4.571221
    39  C    3.439902   5.097078   5.854958   5.214571   5.071523
    40  H    3.807539   4.305362   3.706238   2.453816   4.113974
    41  H    2.259534   3.843049   3.796493   2.976346   2.919203
    42  H    4.166574   4.410184   5.005601   4.492149   5.312787
    43  H    4.320908   5.837678   6.777400   6.194797   6.065292
    44  H    3.101089   5.356694   6.031510   5.336726   4.766888
                   11         12         13         14         15
    11  O    0.000000
    12  C    4.621541   0.000000
    13  C    4.938258   1.523512   0.000000
    14  C    5.599214   3.085245   3.747124   0.000000
    15  O    4.824395   4.968431   5.308951   2.872165   0.000000
    16  Si   5.510260   6.557489   6.776529   4.508331   1.672662
    17  C    5.613137   7.509005   7.971317   5.644972   2.979925
    18  C    5.435594   7.059784   6.914076   5.585335   2.936238
    19  C    7.358612   7.720848   7.896024   5.151547   2.894559
    20  H    6.323836   8.152710   7.990526   6.572838   3.855912
    21  H    4.597099   6.848961   6.703002   5.817866   3.268804
    22  H    5.735585   6.801405   6.456987   5.391370   3.113682
    23  H    7.975549   8.725642   8.856435   6.232393   3.831319
    24  H    7.675691   7.576987   7.591312   5.000340   3.119042
    25  H    7.746117   7.811283   8.160740   5.023515   3.135458
    26  H    6.450304   8.547361   8.931954   6.633072   3.891527
    27  H    6.054145   7.580530   8.219920   5.528210   3.210912
    28  H    4.790094   7.281154   7.763839   5.845442   3.289228
    29  H    6.178612   4.135561   4.623471   1.093887   2.471284
    30  H    6.165673   2.857612   3.275265   1.095596   3.745503
    31  H    5.892515   3.276927   4.287555   1.092806   3.497221
    32  H    5.592114   1.095302   2.151333   2.786788   5.202737
    33  H    4.663712   1.097711   2.126826   4.065901   5.855775
    34  H    5.360854   2.177020   1.093658   3.318315   4.819727
    35  H    4.266147   2.177013   1.094218   4.400787   5.418328
    36  H    5.848068   2.157580   1.094947   4.552286   6.352401
    37  C    3.974447   4.580916   5.517241   3.279411   2.481363
    38  C    5.432612   5.106767   6.180933   3.164062   3.006636
    39  C    6.100606   5.323210   6.604616   3.738613   4.290146
    40  H    4.076191   5.571708   6.422035   4.268387   2.778398
    41  H    3.489961   4.233341   5.319060   3.685341   3.422896
    42  H    6.147008   5.713669   6.639618   3.251373   2.752759
    43  H    7.178643   6.047850   7.327588   4.208243   4.949264
    44  H    5.780456   5.098785   6.490781   4.182516   4.908644
                   16         17         18         19         20
    16  Si   0.000000
    17  C    1.873644   0.000000
    18  C    1.881750   3.048000   0.000000
    19  C    1.892617   3.028929   3.035134   0.000000
    20  H    2.484564   3.275968   1.094148   3.160012   0.000000
    21  H    2.494045   3.231823   1.093265   3.997729   1.769440
    22  H    2.485702   4.002491   1.093897   3.296610   1.773420
    23  H    2.495274   3.203436   3.220094   1.093794   2.960708
    24  H    2.493074   3.987042   3.238883   1.093799   3.435773
    25  H    2.492455   3.245369   3.993975   1.093835   4.177036
    26  H    2.476633   1.094426   3.248271   3.176343   3.098793
    27  H    2.483839   1.093835   4.007773   3.267197   4.276226
    28  H    2.488668   1.093430   3.253894   3.995988   3.584702
    29  H    3.936947   5.199021   5.147735   4.252441   6.044667
    30  H    5.345291   6.633850   6.222812   5.867842   7.218946
    31  H    5.094758   5.947021   6.368116   5.720168   7.331916
    32  H    6.858230   7.862525   7.549981   7.803864   8.628099
    33  H    7.409469   8.198408   7.883153   8.675834   8.974764
    34  H    6.247745   7.630688   6.361177   7.188012   7.412186
    35  H    6.739224   7.859159   6.639145   8.032020   7.699274
    36  H    7.833650   9.056655   7.946411   8.876613   9.012420
    37  C    3.506335   3.491171   4.811548   4.874484   5.676731
    38  C    4.032479   4.020217   5.667706   4.877079   6.452368
    39  C    5.369992   5.241968   6.997274   6.115889   7.788848
    40  H    3.259101   2.710369   4.546951   4.717848   5.275001
    41  H    4.496931   4.380334   5.607233   5.952399   6.506270
    42  H    3.574857   3.704516   5.362644   4.047343   6.054733
    43  H    5.960365   5.849225   7.691552   6.408983   8.428980
    44  H    6.050610   5.842344   7.539874   7.001608   8.378676
                   21         22         23         24         25
    21  H    0.000000
    22  H    1.774475   0.000000
    23  H    4.198387   3.602556   0.000000
    24  H    4.273256   3.125687   1.776470   0.000000
    25  H    4.868315   4.293601   1.776535   1.775949   0.000000
    26  H    3.514421   4.262217   2.964472   4.182375   3.482979
    27  H    4.246830   4.870604   3.544814   4.275158   3.105797
    28  H    3.058271   4.248801   4.198424   4.865513   4.272043
    29  H    5.572159   4.949130   5.345617   4.048500   4.070060
    30  H    6.469035   5.856821   6.949298   5.538930   5.794060
    31  H    6.560608   6.300061   6.792612   5.701516   5.413715
    32  H    7.475856   7.259953   8.856804   7.607701   7.774927
    33  H    7.562683   7.686127   9.662782   8.593792   8.751018
    34  H    6.298130   5.791688   8.149420   6.773527   7.486330
    35  H    6.279195   6.213405   8.919941   7.780661   8.406641
    36  H    7.746867   7.430303   9.848961   8.509921   9.120387
    37  C    4.692752   5.265338   5.693680   5.383915   4.745832
    38  C    5.785135   6.070887   5.752255   5.382024   4.423509
    39  C    7.071885   7.378100   6.988417   6.592187   5.550065
    40  H    4.370856   5.206330   5.370730   5.407729   4.630368
    41  H    5.320920   6.036908   6.760826   6.431142   5.841556
    42  H    5.678692   5.744798   4.928235   4.560714   3.457793
    43  H    7.879118   8.045541   7.269915   6.860117   5.689906
    44  H    7.470486   7.928504   7.867294   7.475410   6.518687
                   26         27         28         29         30
    26  H    0.000000
    27  H    1.768901   0.000000
    28  H    1.766657   1.776439   0.000000
    29  H    6.103037   5.063653   5.593044   0.000000
    30  H    7.592021   6.574086   6.836652   1.754535   0.000000
    31  H    6.971966   5.646063   6.119466   1.775707   1.757723
    32  H    8.908817   7.819304   7.759504   3.841460   2.344050
    33  H    9.250679   8.248918   7.860012   5.141020   3.886230
    34  H    8.543933   7.908380   7.555016   4.017456   2.730360
    35  H    8.781015   8.222295   7.535586   5.220782   4.113049
    36  H   10.018150   9.283985   8.856420   5.437561   3.901017
    37  C    4.581961   3.254714   3.291716   3.483207   4.322743
    38  C    5.043054   3.419882   4.149984   3.178932   4.227067
    39  C    6.234355   4.532665   5.305512   3.944049   4.665625
    40  H    3.760996   2.474895   2.371351   4.311637   5.325016
    41  H    5.452224   4.167902   3.973274   4.158420   4.620952
    42  H    4.633692   3.034283   4.118912   2.893677   4.297523
    43  H    6.768348   5.026688   6.059279   4.269511   5.046730
    44  H    6.861639   5.207252   5.715930   4.620868   5.027025
                   31         32         33         34         35
    31  H    0.000000
    32  H    2.807555   0.000000
    33  H    4.073840   1.758427   0.000000
    34  H    4.070590   2.494141   3.053095   0.000000
    35  H    4.989116   3.072748   2.512722   1.775770   0.000000
    36  H    5.004810   2.491203   2.416204   1.764366   1.769239
    37  C    3.186726   4.865514   5.112375   5.492090   5.613203
    38  C    2.725433   5.069092   5.686073   6.065675   6.508924
    39  C    2.936893   5.136224   5.731053   6.626069   7.031209
    40  H    4.229005   5.929087   6.061038   6.382044   6.396382
    41  H    3.444239   4.612031   4.546098   5.511804   5.362510
    42  H    2.979723   5.594729   6.424004   6.350231   7.011008
    43  H    3.320770   5.693586   6.482010   7.281907   7.856625
    44  H    3.336394   4.990068   5.303795   6.691046   6.866247
                   36         37         38         39         40
    36  H    0.000000
    37  C    6.525750   0.000000
    38  C    7.100732   1.504267   0.000000
    39  C    7.407061   2.513458   1.339358   0.000000
    40  H    7.460921   1.095100   2.092218   3.105092   0.000000
    41  H    6.272576   1.096491   2.138234   2.625728   1.736373
    42  H    7.565893   2.221494   1.088711   2.094519   2.579889
    43  H    8.066497   3.498680   2.110817   1.086206   4.019932
    44  H    7.241651   2.778052   2.124730   1.085616   3.384818
                   41         42         43         44
    41  H    0.000000
    42  H    3.099936   0.000000
    43  H    3.708636   2.418193   0.000000
    44  H    2.434004   3.076959   1.855336   0.000000
 Stoichiometry    C14H26O3Si
 Framework group  C1[X(C14H26O3Si)]
 Deg. of freedom   126
 Full point group                 C1      NOp   1
 Largest Abelian subgroup         C1      NOp   1
 Largest concise Abelian subgroup C1      NOp   1
                         Standard orientation:                         
 ---------------------------------------------------------------------
 Center     Atomic      Atomic             Coordinates (Angstroms)
 Number     Number       Type             X           Y           Z
 ---------------------------------------------------------------------
      1          6           0        2.477046    0.243288    0.058781
      2          6           0        1.150187    0.325337    0.824056
      3          6           0       -0.051284    0.086735   -0.145929
      4          6           0        0.169702   -1.326140   -0.706696
      5          6           0        1.508728   -1.531035   -1.350569
      6          1           0        2.568808    1.110462   -0.606569
      7          1           0        1.109055   -0.504933    1.544436
      8          1           0        0.073052   -2.081011    0.083475
      9          1           0       -0.592314   -1.557758   -1.460169
     10          8           0        2.571544   -0.919256   -0.794547
     11          8           0        1.648376   -2.305653   -2.292577
     12          6           0        3.738517    0.249288    0.941961
     13          6           0        3.829747   -0.919241    1.915257
     14          6           0        1.062951    1.596773    1.679771
     15          8           0       -1.223116    0.162308    0.697152
     16         14           0       -2.763076   -0.431608    0.425881
     17          6           0       -3.419562   -0.106696   -1.298648
     18          6           0       -2.849503   -2.281560    0.759337
     19          6           0       -3.949180    0.407101    1.639027
     20          1           0       -3.888809   -2.623335    0.745442
     21          1           0       -2.298779   -2.845011    0.001410
     22          1           0       -2.424727   -2.514105    1.740203
     23          1           0       -4.966234    0.028156    1.503428
     24          1           0       -3.638792    0.212107    2.669577
     25          1           0       -3.955276    1.488738    1.476243
     26          1           0       -4.458590   -0.440875   -1.379349
     27          1           0       -3.391428    0.961566   -1.532101
     28          1           0       -2.837935   -0.644206   -2.052559
     29          1           0        0.059955    1.751971    2.087816
     30          1           0        1.740616    1.525242    2.537666
     31          1           0        1.353243    2.489174    1.119792
     32          1           0        3.813916    1.190867    1.496423
     33          1           0        4.618176    0.199366    0.287225
     34          1           0        3.048130   -0.867549    2.678468
     35          1           0        3.746675   -1.879547    1.397353
     36          1           0        4.794904   -0.899235    2.431960
     37          6           0       -0.146320    1.107075   -1.328949
     38          6           0       -0.412729    2.539685   -0.955485
     39          6           0        0.307251    3.578273   -1.399158
     40          1           0       -0.964588    0.808477   -1.992667
     41          1           0        0.754335    1.050592   -1.951783
     42          1           0       -1.257729    2.729524   -0.295766
     43          1           0        0.058041    4.592263   -1.099889
     44          1           0        1.151621    3.449083   -2.069165
 ---------------------------------------------------------------------
 Rotational constants (GHZ):      0.4959155      0.2621392      0.2391610
 Standard basis: 6-311G(d) (5D, 7F)
 There are   428 symmetry adapted cartesian basis functions of A   symmetry.
 There are   410 symmetry adapted basis functions of A   symmetry.
   410 basis functions,   720 primitive gaussians,   428 cartesian basis functions
    74 alpha electrons       74 beta electrons
       nuclear repulsion energy      1629.8504703635 Hartrees.
 NAtoms=   44 NActive=   44 NUniq=   44 SFac= 1.00D+00 NAtFMM=   60 NAOKFM=F Big=F
 Integral buffers will be    131072 words long.
 Raffenetti 2 integral format.
 Two-electron integral symmetry is turned on.
 ------------------------------------------------------------------------------
 Polarizable Continuum Model (PCM)
 =================================
 Model                : PCM (using non-symmetric T matrix).
 Atomic radii         : UFF (Universal Force Field).
 Polarization charges : Total charges.
 Charge compensation  : None.
 Solution method      : On-the-fly selection.
 Cavity type          : Scaled VdW (van der Waals Surface) (Alpha=1.100).
 Cavity algorithm     : GePol (No added spheres)
                        Default sphere list used, NSphG=   44.
                        Lebedev-Laikov grids with approx.  5.0 points / Ang**2.
                        Smoothing algorithm: Karplus/York (Gamma=1.0000).
                        Polarization charges: spherical gaussians, with
                                              point-specific exponents (IZeta= 3).
                        Self-potential: point-specific (ISelfS= 7).
                        Self-field    : sphere-specific E.n sum rule (ISelfD= 2).
 Solvent              : Chloroform, Eps=   4.711300 Eps(inf)=   2.090627
 ------------------------------------------------------------------------------
 One-electron integrals computed using PRISM.
 NBasis=   410 RedAO= T EigKep=  1.21D-03  NBF=   410
 NBsUse=   410 1.00D-06 EigRej= -1.00D+00 NBFU=   410
 ExpMin= 6.54D-02 ExpMax= 6.94D+04 ExpMxC= 2.33D+03 IAcc=2 IRadAn=         4 AccDes= 0.00D+00
 Harris functional with IExCor=  908 and IRadAn=       4 diagonalized for initial guess.
 HarFok:  IExCor=  908 AccDes= 0.00D+00 IRadAn=         4 IDoV= 1 UseB2=F ITyADJ=14
 ICtDFT=  3500011 ScaDFX=  1.000000  1.000000  1.000000  1.000000
 FoFCou: FMM=F IPFlag=           0 FMFlag=      100000 FMFlg1=           0
         NFxFlg=           0 DoJE=T BraDBF=F KetDBF=T FulRan=T
         wScrn=  0.000000 ICntrl=     500 IOpCl=  0 I1Cent=   200000004 NGrid=           0
         NMat0=    1 NMatS0=      1 NMatT0=    0 NMatD0=    1 NMtDS0=    0 NMtDT0=    0
 Petite list used in FoFCou.
 Requested convergence on RMS density matrix=1.00D-08 within 128 cycles.
 Requested convergence on MAX density matrix=1.00D-06.
 Requested convergence on             energy=1.00D-06.
 No special actions if energy rises.
 Inv3:  Mode=1 IEnd=    24111675.
 Iteration    1 A*A^-1 deviation from unit magnitude is 6.99D-15 for    969.
 Iteration    1 A*A^-1 deviation from orthogonality  is 5.33D-15 for   2014    202.
 Iteration    1 A^-1*A deviation from unit magnitude is 7.99D-15 for    759.
 Iteration    1 A^-1*A deviation from orthogonality  is 1.67D-12 for   2102   2071.
 Error on total polarization charges =  0.01121
 SCF Done:  E(RmPW1PW91) =  -1064.37634384     A.U. after   13 cycles
            NFock= 13  Conv=0.37D-08     -V/T= 2.0036
 DoSCS=F DFT=T ScalE2(SS,OS)=  1.000000  1.000000
 Range of M.O.s used for correlation:     1   410
 NBasis=   410 NAE=    74 NBE=    74 NFC=     0 NFV=     0
 NROrb=    410 NOA=    74 NOB=    74 NVA=   336 NVB=   336
 NEqPCM:  Using equilibrium solvation (IEInf=0, Eps=   4.7113, EpsInf=   2.0906)
          Differentiating once with respect to magnetic field using GIAOs.
          Electric field/nuclear overlap derivatives assumed to be zero.
 FoFJK:  IHMeth= 1 ICntrl=    6127 DoSepK=F KAlg= 0 I1Cent=   0 FoldK=F
 IRaf=         1 NMat=   1 IRICut=       1 DoRegI=T DoRafI=F ISym2E= 0.
          There are     3 degrees of freedom in the 1st order CPHF.  IDoFFX=0 NUNeed=     3.
      3 vectors produced by pass  0 Test12= 8.29D-13 3.33D-08 XBig12= 3.57D+01 1.02D+00.
 AX will form     3 AO Fock derivatives at one time.
      3 vectors produced by pass  1 Test12= 8.29D-13 3.33D-08 XBig12= 8.30D-02 1.04D-01.
      3 vectors produced by pass  2 Test12= 8.29D-13 3.33D-08 XBig12= 6.57D-04 1.06D-02.
      3 vectors produced by pass  3 Test12= 8.29D-13 3.33D-08 XBig12= 4.36D-06 9.60D-04.
      3 vectors produced by pass  4 Test12= 8.29D-13 3.33D-08 XBig12= 2.80D-08 6.91D-05.
      3 vectors produced by pass  5 Test12= 8.29D-13 3.33D-08 XBig12= 6.32D-11 1.44D-06.
      1 vectors produced by pass  6 Test12= 8.29D-13 3.33D-08 XBig12= 1.88D-13 1.14D-07.
 InvSVY:  IOpt=1 It=  1 EMax= 8.88D-16
 Solved reduced A of dimension    19 with     3 vectors.
 Calculating GIAO nuclear magnetic shielding tensors.
 SCF GIAO Magnetic shielding tensor (ppm):
      1  C    Isotropic =   105.3180   Anisotropy =    61.0401
   XX=    94.5166   YX=   -12.3835   ZX=    -6.0250
   XY=    -5.6235   YY=   123.4519   ZY=    31.7460
   XZ=    -0.5075   YZ=    30.4676   ZZ=    97.9856
   Eigenvalues:    76.7837    93.1590   146.0114
      2  C    Isotropic =   141.8171   Anisotropy =    24.5789
   XX=   151.6968   YX=     1.7893   ZX=    10.1522
   XY=     4.7016   YY=   138.5678   ZY=     4.9822
   XZ=    13.4585   YZ=    -6.0354   ZZ=   135.1866
   Eigenvalues:   128.6374   138.6108   158.2030
      3  C    Isotropic =   105.8971   Anisotropy =    57.4475
   XX=   130.7769   YX=     1.2786   ZX=   -26.0803
   XY=     5.7076   YY=    83.6357   ZY=    -3.4415
   XZ=   -19.8528   YZ=    -4.1903   ZZ=   103.2787
   Eigenvalues:    82.8920    90.6039   144.1954
      4  C    Isotropic =   138.1200   Anisotropy =    27.6258
   XX=   138.7749   YX=    -9.2679   ZX=    -6.5180
   XY=    -4.5497   YY=   141.8969   ZY=     6.3886
   XZ=    -9.0384   YZ=    18.0501   ZZ=   133.6882
   Eigenvalues:   124.4040   133.4188   156.5372
      5  C    Isotropic =     9.3766   Anisotropy =    95.2167
   XX=   -73.4112   YX=   -33.1400   ZX=    -4.7116
   XY=   -40.9945   YY=    49.0308   ZY=   -19.5662
   XZ=   -17.1623   YZ=   -19.5487   ZZ=    52.5101
   Eigenvalues:   -85.5874    40.8627    72.8544
      6  H    Isotropic =    27.7646   Anisotropy =     3.1288
   XX=    28.0080   YX=     0.1410   ZX=     0.7376
   XY=     0.2814   YY=    28.5606   ZY=    -2.2586
   XZ=     0.9593   YZ=    -1.6567   ZZ=    26.7253
   Eigenvalues:    25.2316    28.2117    29.8505
      7  H    Isotropic =    29.8382   Anisotropy =     5.0761
   XX=    30.6397   YX=    -0.4885   ZX=     2.4734
   XY=     0.0752   YY=    29.7841   ZY=    -1.9268
   XZ=     2.5770   YZ=    -2.4390   ZZ=    29.0907
   Eigenvalues:    26.3580    29.9343    33.2222
      8  H    Isotropic =    29.4535   Anisotropy =     4.7919
   XX=    30.7805   YX=     0.9095   ZX=    -1.2333
   XY=     1.2927   YY=    31.2451   ZY=    -1.6506
   XZ=    -1.4081   YZ=    -0.8195   ZZ=    26.3349
   Eigenvalues:    25.8126    29.8998    32.6481
      9  H    Isotropic =    29.4395   Anisotropy =     3.9472
   XX=    31.1483   YX=     0.1793   ZX=     0.6588
   XY=    -0.5970   YY=    28.7027   ZY=     3.6570
   XZ=    -0.0770   YZ=     3.3048   ZZ=    28.4674
   Eigenvalues:    25.0815    31.1660    32.0710
     10  O    Isotropic =   103.4057   Anisotropy =   175.4596
   XX=   187.7343   YX=    26.2595   ZX=    37.3889
   XY=    42.0562   YY=    69.0411   ZY=  -134.6855
   XZ=    62.6941   YZ=  -174.2914   ZZ=    53.4416
   Eigenvalues:  -105.6461   195.4844   220.3787
     11  O    Isotropic =  -126.4066   Anisotropy =   582.5665
   XX=  -248.6369   YX=  -119.7156   ZX=   -22.1205
   XY=  -115.0820   YY=   -12.6684   ZY=  -291.3995
   XZ=   -13.4580   YZ=  -329.7215   ZZ=  -117.9144
   Eigenvalues:  -427.3344  -213.8564   261.9711
     12  C    Isotropic =   160.5061   Anisotropy =    22.1735
   XX=   167.0762   YX=     0.8277   ZX=    10.4536
   XY=    -3.2520   YY=   155.3789   ZY=    -4.5577
   XZ=    12.4503   YZ=     3.4463   ZZ=   159.0632
   Eigenvalues:   150.9231   155.3068   175.2885
     13  C    Isotropic =   181.1297   Anisotropy =    11.6208
   XX=   179.8576   YX=     0.1559   ZX=     1.3255
   XY=     0.4762   YY=   182.6760   ZY=    -7.0040
   XZ=     2.2168   YZ=    -6.9040   ZZ=   180.8554
   Eigenvalues:   174.3197   180.1925   188.8769
     14  C    Isotropic =   175.3812   Anisotropy =    13.9606
   XX=   171.0538   YX=     0.6991   ZX=     4.1942
   XY=    -3.6771   YY=   183.4153   ZY=     3.5760
   XZ=     2.0070   YZ=     4.4949   ZZ=   171.6744
   Eigenvalues:   167.3135   174.1418   184.6883
     15  O    Isotropic =   246.3914   Anisotropy =    21.4513
   XX=   243.0824   YX=    -4.2807   ZX=    -0.1586
   XY=    12.8730   YY=   238.4910   ZY=   -14.2255
   XZ=     7.6104   YZ=    -1.5521   ZZ=   257.6008
   Eigenvalues:   232.8617   245.6203   260.6922
     16  Si   Isotropic =   334.2270   Anisotropy =    53.9581
   XX=   363.6870   YX=    19.0355   ZX=    12.5082
   XY=    12.2599   YY=   323.4836   ZY=    11.1831
   XZ=    -1.9005   YZ=     6.1838   ZZ=   315.5105
   Eigenvalues:   309.5550   322.9271   370.1991
     17  C    Isotropic =   185.1962   Anisotropy =     6.9795
   XX=   187.5947   YX=     2.7705   ZX=     2.1227
   XY=     4.4561   YY=   179.0504   ZY=    -3.1772
   XZ=    -0.2037   YZ=    -3.0545   ZZ=   188.9436
   Eigenvalues:   176.8505   188.8889   189.8492
     18  C    Isotropic =   184.3544   Anisotropy =    11.6472
   XX=   186.5991   YX=     2.2466   ZX=     0.3423
   XY=     0.1468   YY=   191.3728   ZY=    -2.9414
   XZ=     0.9495   YZ=    -3.0851   ZZ=   175.0913
   Eigenvalues:   174.4920   186.4520   192.1192
     19  C    Isotropic =   186.2080   Anisotropy =    13.1755
   XX=   189.1021   YX=    -0.3001   ZX=    -4.5888
   XY=     1.7440   YY=   184.2369   ZY=     8.9225
   XZ=    -3.0599   YZ=     9.5703   ZZ=   185.2850
   Eigenvalues:   174.7923   188.8400   194.9917
     20  H    Isotropic =    32.2860   Anisotropy =    10.2477
   XX=    36.5632   YX=     4.3157   ZX=    -0.6813
   XY=     4.0079   YY=    32.1638   ZY=    -0.4514
   XZ=    -0.5472   YZ=    -0.2929   ZZ=    28.1310
   Eigenvalues:    28.0841    29.6561    39.1178
     21  H    Isotropic =    31.9869   Anisotropy =     6.6003
   XX=    31.7730   YX=    -0.4116   ZX=    -3.1779
   XY=    -1.2284   YY=    33.5931   ZY=     2.9650
   XZ=    -3.1772   YZ=     2.0844   ZZ=    30.5946
   Eigenvalues:    27.5722    32.0014    36.3871
     22  H    Isotropic =    31.9795   Anisotropy =     7.7764
   XX=    30.2690   YX=    -0.0204   ZX=     1.8688
   XY=    -0.4450   YY=    31.0588   ZY=    -3.9290
   XZ=     1.6692   YZ=    -3.1068   ZZ=    34.6106
   Eigenvalues:    28.5214    30.2533    37.1637
     23  H    Isotropic =    32.3256   Anisotropy =     9.7295
   XX=    38.3901   YX=     1.5648   ZX=    -1.1587
   XY=     2.0645   YY=    29.3514   ZY=     0.5716
   XZ=    -0.7635   YZ=     0.7091   ZZ=    29.2352
   Eigenvalues:    28.2701    29.8947    38.8119
     24  H    Isotropic =    31.9131   Anisotropy =     8.6284
   XX=    29.8539   YX=    -0.8535   ZX=    -0.2370
   XY=    -0.3836   YY=    28.2201   ZY=     0.3717
   XZ=     0.1896   YZ=    -0.3879   ZZ=    37.6653
   Eigenvalues:    28.0123    30.0616    37.6654
     25  H    Isotropic =    31.9271   Anisotropy =     8.4249
   XX=    29.9138   YX=    -1.7409   ZX=    -1.5095
   XY=    -1.3716   YY=    37.1254   ZY=     0.1539
   XZ=    -1.3550   YZ=     1.1174   ZZ=    28.7422
   Eigenvalues:    27.7670    30.4707    37.5437
     26  H    Isotropic =    32.1482   Anisotropy =    10.4826
   XX=    37.9042   YX=     2.2093   ZX=     2.6766
   XY=     2.5476   YY=    28.5741   ZY=     0.4349
   XZ=     2.2054   YZ=     0.3204   ZZ=    29.9663
   Eigenvalues:    27.9737    29.3343    39.1366
     27  H    Isotropic =    31.8859   Anisotropy =     7.0835
   XX=    30.6888   YX=    -0.1981   ZX=     1.0075
   XY=    -0.3308   YY=    35.1828   ZY=    -2.7138
   XZ=     1.2073   YZ=    -3.3032   ZZ=    29.7862
   Eigenvalues:    28.1185    30.9310    36.6083
     28  H    Isotropic =    31.9407   Anisotropy =     6.5990
   XX=    32.3482   YX=    -1.1411   ZX=    -0.9676
   XY=    -1.1066   YY=    29.2177   ZY=     2.4539
   XZ=    -1.8901   YZ=     3.2840   ZZ=    34.2563
   Eigenvalues:    27.8725    31.6096    36.3400
     29  H    Isotropic =    30.4372   Anisotropy =     6.4818
   XX=    33.4180   YX=    -0.2224   ZX=    -1.0549
   XY=    -1.0159   YY=    27.9717   ZY=     3.9086
   XZ=    -1.9372   YZ=     3.7834   ZZ=    29.9220
   Eigenvalues:    24.9564    31.5968    34.7584
     30  H    Isotropic =    31.4490   Anisotropy =     9.6911
   XX=    31.0603   YX=    -1.0974   ZX=     4.2846
   XY=    -0.9592   YY=    28.5206   ZY=     2.8882
   XZ=     4.2752   YZ=     2.5610   ZZ=    34.7660
   Eigenvalues:    25.9041    30.5331    37.9097
     31  H    Isotropic =    31.1979   Anisotropy =     8.2324
   XX=    27.7384   YX=     1.1714   ZX=     1.6569
   XY=     1.3633   YY=    36.0762   ZY=    -2.0610
   XZ=     1.8081   YZ=    -1.7937   ZZ=    29.7792
   Eigenvalues:    26.3042    30.6034    36.6862
     32  H    Isotropic =    30.2846   Anisotropy =     6.8021
   XX=    30.7087   YX=     1.2112   ZX=     2.1791
   XY=     1.4112   YY=    32.7392   ZY=     2.5470
   XZ=     2.4026   YZ=     2.3786   ZZ=    27.4058
   Eigenvalues:    25.8136    30.2208    34.8193
     33  H    Isotropic =    30.0703   Anisotropy =     9.4879
   XX=    34.8980   YX=     0.8190   ZX=    -3.2342
   XY=     1.0517   YY=    25.8666   ZY=    -2.2087
   XZ=    -2.3900   YZ=    -2.4262   ZZ=    29.4463
   Eigenvalues:    24.7099    29.1055    36.3956
     34  H    Isotropic =    31.2504   Anisotropy =     6.7114
   XX=    32.1338   YX=    -1.6202   ZX=    -1.7373
   XY=    -0.9876   YY=    27.4886   ZY=    -3.0371
   XZ=    -2.0638   YZ=    -2.6232   ZZ=    34.1288
   Eigenvalues:    25.8642    32.1622    35.7247
     35  H    Isotropic =    31.1045   Anisotropy =     7.5908
   XX=    28.4275   YX=    -1.8769   ZX=     2.2216
   XY=    -1.8801   YY=    35.6988   ZY=     0.9324
   XZ=     1.9142   YZ=     0.5814   ZZ=    29.1871
   Eigenvalues:    26.3056    30.8428    36.1650
     36  H    Isotropic =    31.2108   Anisotropy =    11.9843
   XX=    35.1356   YX=    -1.1972   ZX=     5.1355
   XY=    -1.5864   YY=    27.8264   ZY=    -2.2539
   XZ=     5.6094   YZ=    -1.9593   ZZ=    30.6702
   Eigenvalues:    26.2470    28.1850    39.2003
     37  C    Isotropic =   143.6661   Anisotropy =    32.7280
   XX=   127.0119   YX=    -3.1116   ZX=     0.0931
   XY=    -3.0378   YY=   163.4086   ZY=    -7.7831
   XZ=    -1.0580   YZ=    -5.7965   ZZ=   140.5778
   Eigenvalues:   126.6674   138.8461   165.4848
     38  C    Isotropic =    42.0792   Anisotropy =   185.5911
   XX=    35.1128   YX=    40.4681   ZX=   101.7214
   XY=    43.3977   YY=     5.8903   ZY=   -49.1077
   XZ=   101.1145   YZ=   -49.0898   ZZ=    85.2346
   Eigenvalues:   -87.4866    47.9176   165.8067
     39  C    Isotropic =    66.4266   Anisotropy =   139.8359
   XX=    67.4802   YX=    40.5855   ZX=    75.9082
   XY=    45.5124   YY=    35.4645   ZY=   -49.0591
   XZ=    73.5429   YZ=   -54.4743   ZZ=    96.3351
   Eigenvalues:   -47.4611    87.0904   159.6505
     40  H    Isotropic =    29.5252   Anisotropy =     5.8303
   XX=    30.9285   YX=     2.6313   ZX=     1.8967
   XY=     1.9839   YY=    28.4493   ZY=    -1.0000
   XZ=     3.2519   YZ=     0.3911   ZZ=    29.1979
   Eigenvalues:    26.0551    29.1086    33.4121
     41  H    Isotropic =    29.6962   Anisotropy =     5.0468
   XX=    29.1697   YX=     0.6000   ZX=    -1.5040
   XY=    -0.9054   YY=    29.1895   ZY=    -1.7440
   XZ=    -1.7439   YZ=    -3.4398   ZZ=    30.7293
   Eigenvalues:    26.7143    29.3136    33.0607
     42  H    Isotropic =    25.4847   Anisotropy =     7.3601
   XX=    24.2665   YX=     0.7179   ZX=     1.2188
   XY=     1.7736   YY=    29.5327   ZY=    -2.5764
   XZ=     1.5620   YZ=    -2.2284   ZZ=    22.6551
   Eigenvalues:    20.9971    25.0656    30.3915
     43  H    Isotropic =    26.8665   Anisotropy =     7.1344
   XX=    25.3577   YX=     2.8129   ZX=     0.4624
   XY=     0.9868   YY=    30.1851   ZY=    -1.4732
   XZ=     0.4362   YZ=    -3.5443   ZZ=    25.0567
   Eigenvalues:    23.2961    25.6806    31.6227
     44  H    Isotropic =    26.7757   Anisotropy =     7.2392
   XX=    25.6905   YX=     1.2489   ZX=     0.2660
   XY=     3.7613   YY=    28.6819   ZY=    -4.3920
   XZ=     0.4544   YZ=    -2.3796   ZZ=    25.9546
   Eigenvalues:    22.5898    26.1354    31.6018
 End of Minotr F.D. properties file   721 does not exist.
 End of Minotr F.D. properties file   722 does not exist.
 End of Minotr F.D. properties file   788 does not exist.

 **********************************************************************

            Population analysis using the SCF density.

 **********************************************************************

 Orbital symmetries:
       Occupied  (A) (A) (A) (A) (A) (A) (A) (A) (A) (A) (A) (A)
                 (A) (A) (A) (A) (A) (A) (A) (A) (A) (A) (A) (A)
                 (A) (A) (A) (A) (A) (A) (A) (A) (A) (A) (A) (A)
                 (A) (A) (A) (A) (A) (A) (A) (A) (A) (A) (A) (A)
                 (A) (A) (A) (A) (A) (A) (A) (A) (A) (A) (A) (A)
                 (A) (A) (A) (A) (A) (A) (A) (A) (A) (A) (A) (A)
                 (A) (A)
       Virtual   (A) (A) (A) (A) (A) (A) (A) (A) (A) (A) (A) (A)
                 (A) (A) (A) (A) (A) (A) (A) (A) (A) (A) (A) (A)
                 (A) (A) (A) (A) (A) (A) (A) (A) (A) (A) (A) (A)
                 (A) (A) (A) (A) (A) (A) (A) (A) (A) (A) (A) (A)
                 (A) (A) (A) (A) (A) (A) (A) (A) (A) (A) (A) (A)
                 (A) (A) (A) (A) (A) (A) (A) (A) (A) (A) (A) (A)
                 (A) (A) (A) (A) (A) (A) (A) (A) (A) (A) (A) (A)
                 (A) (A) (A) (A) (A) (A) (A) (A) (A) (A) (A) (A)
                 (A) (A) (A) (A) (A) (A) (A) (A) (A) (A) (A) (A)
                 (A) (A) (A) (A) (A) (A) (A) (A) (A) (A) (A) (A)
                 (A) (A) (A) (A) (A) (A) (A) (A) (A) (A) (A) (A)
                 (A) (A) (A) (A) (A) (A) (A) (A) (A) (A) (A) (A)
                 (A) (A) (A) (A) (A) (A) (A) (A) (A) (A) (A) (A)
                 (A) (A) (A) (A) (A) (A) (A) (A) (A) (A) (A) (A)
                 (A) (A) (A) (A) (A) (A) (A) (A) (A) (A) (A) (A)
                 (A) (A) (A) (A) (A) (A) (A) (A) (A) (A) (A) (A)
                 (A) (A) (A) (A) (A) (A) (A) (A) (A) (A) (A) (A)
                 (A) (A) (A) (A) (A) (A) (A) (A) (A) (A) (A) (A)
                 (A) (A) (A) (A) (A) (A) (A) (A) (A) (A) (A) (A)
                 (A) (A) (A) (A) (A) (A) (A) (A) (A) (A) (A) (A)
                 (A) (A) (A) (A) (A) (A) (A) (A) (A) (A) (A) (A)
                 (A) (A) (A) (A) (A) (A) (A) (A) (A) (A) (A) (A)
                 (A) (A) (A) (A) (A) (A) (A) (A) (A) (A) (A) (A)
                 (A) (A) (A) (A) (A) (A) (A) (A) (A) (A) (A) (A)
                 (A) (A) (A) (A) (A) (A) (A) (A) (A) (A) (A) (A)
                 (A) (A) (A) (A) (A) (A) (A) (A) (A) (A) (A) (A)
                 (A) (A) (A) (A) (A) (A) (A) (A) (A) (A) (A) (A)
                 (A) (A) (A) (A) (A) (A) (A) (A) (A) (A) (A) (A)
 The electronic state is 1-A.
 Alpha  occ. eigenvalues --  -66.27052 -19.26463 -19.21475 -19.20060 -10.37517
 Alpha  occ. eigenvalues --  -10.32303 -10.30711 -10.25428 -10.25243 -10.24729
 Alpha  occ. eigenvalues --  -10.24399 -10.23828 -10.22839 -10.22165 -10.22123
 Alpha  occ. eigenvalues --  -10.20886 -10.20622 -10.20517  -5.32883  -3.66732
 Alpha  occ. eigenvalues --   -3.66497  -3.66463  -1.13642  -1.04976  -1.04238
 Alpha  occ. eigenvalues --   -0.86057  -0.83364  -0.81017  -0.77708  -0.74006
 Alpha  occ. eigenvalues --   -0.73162  -0.72113  -0.70303  -0.69986  -0.66964
 Alpha  occ. eigenvalues --   -0.63116  -0.62589  -0.58854  -0.56008  -0.53603
 Alpha  occ. eigenvalues --   -0.52495  -0.51118  -0.49360  -0.48620  -0.47374
 Alpha  occ. eigenvalues --   -0.46666  -0.45352  -0.44936  -0.44387  -0.43880
 Alpha  occ. eigenvalues --   -0.42842  -0.42612  -0.42555  -0.41787  -0.41208
 Alpha  occ. eigenvalues --   -0.40827  -0.40497  -0.40323  -0.39670  -0.38903
 Alpha  occ. eigenvalues --   -0.37833  -0.37639  -0.37382  -0.36621  -0.36420
 Alpha  occ. eigenvalues --   -0.35560  -0.34516  -0.33501  -0.31837  -0.31296
 Alpha  occ. eigenvalues --   -0.30363  -0.29752  -0.28429  -0.26958
 Alpha virt. eigenvalues --   -0.00368   0.00750   0.03874   0.05496   0.05694
 Alpha virt. eigenvalues --    0.06208   0.07389   0.08240   0.08547   0.09072
 Alpha virt. eigenvalues --    0.09644   0.09987   0.10420   0.10811   0.11495
 Alpha virt. eigenvalues --    0.12176   0.12883   0.13008   0.13324   0.13903
 Alpha virt. eigenvalues --    0.14451   0.14745   0.14871   0.14975   0.15750
 Alpha virt. eigenvalues --    0.15864   0.16919   0.17031   0.17365   0.18093
 Alpha virt. eigenvalues --    0.18352   0.18843   0.19732   0.20385   0.20965
 Alpha virt. eigenvalues --    0.22043   0.22937   0.23669   0.24044   0.24278
 Alpha virt. eigenvalues --    0.25048   0.26078   0.26641   0.27224   0.28396
 Alpha virt. eigenvalues --    0.28901   0.29684   0.30549   0.32058   0.32508
 Alpha virt. eigenvalues --    0.32859   0.33316   0.33712   0.34653   0.35685
 Alpha virt. eigenvalues --    0.36730   0.38079   0.38375   0.39937   0.40943
 Alpha virt. eigenvalues --    0.41707   0.42322   0.43180   0.44017   0.44861
 Alpha virt. eigenvalues --    0.45202   0.45607   0.47067   0.47327   0.48846
 Alpha virt. eigenvalues --    0.49526   0.50993   0.51326   0.52282   0.52645
 Alpha virt. eigenvalues --    0.52933   0.53896   0.54645   0.55713   0.56335
 Alpha virt. eigenvalues --    0.57061   0.57502   0.58041   0.58519   0.58740
 Alpha virt. eigenvalues --    0.59038   0.59596   0.60145   0.60277   0.61197
 Alpha virt. eigenvalues --    0.61756   0.62006   0.62167   0.62683   0.63288
 Alpha virt. eigenvalues --    0.63720   0.64176   0.64469   0.65641   0.65817
 Alpha virt. eigenvalues --    0.66475   0.66817   0.67313   0.67467   0.68155
 Alpha virt. eigenvalues --    0.68575   0.69335   0.69729   0.70082   0.70826
 Alpha virt. eigenvalues --    0.71265   0.72841   0.73515   0.74692   0.74933
 Alpha virt. eigenvalues --    0.75697   0.77190   0.78364   0.79674   0.80840
 Alpha virt. eigenvalues --    0.82069   0.83576   0.86514   0.87827   0.88453
 Alpha virt. eigenvalues --    0.89518   0.91271   0.91916   0.92475   0.94714
 Alpha virt. eigenvalues --    0.96816   0.97269   0.98865   0.99512   1.00640
 Alpha virt. eigenvalues --    1.03675   1.04331   1.05556   1.08766   1.10816
 Alpha virt. eigenvalues --    1.12069   1.13236   1.15579   1.16533   1.18356
 Alpha virt. eigenvalues --    1.19644   1.21456   1.24743   1.27150   1.28179
 Alpha virt. eigenvalues --    1.28611   1.30794   1.31358   1.32219   1.33075
 Alpha virt. eigenvalues --    1.34360   1.37649   1.38244   1.39925   1.42016
 Alpha virt. eigenvalues --    1.42561   1.43723   1.44374   1.47460   1.49065
 Alpha virt. eigenvalues --    1.49725   1.50816   1.50922   1.52906   1.53398
 Alpha virt. eigenvalues --    1.54749   1.55151   1.56270   1.56579   1.58264
 Alpha virt. eigenvalues --    1.58821   1.59398   1.59820   1.60548   1.61132
 Alpha virt. eigenvalues --    1.61613   1.62329   1.62675   1.63835   1.64909
 Alpha virt. eigenvalues --    1.65197   1.65380   1.67088   1.67358   1.68211
 Alpha virt. eigenvalues --    1.69702   1.71193   1.72838   1.73834   1.74186
 Alpha virt. eigenvalues --    1.75490   1.76566   1.79294   1.80544   1.81252
 Alpha virt. eigenvalues --    1.81627   1.82427   1.84422   1.86939   1.88210
 Alpha virt. eigenvalues --    1.89840   1.92088   1.93750   1.95945   1.96351
 Alpha virt. eigenvalues --    1.98957   2.03442   2.07399   2.08511   2.10900
 Alpha virt. eigenvalues --    2.14572   2.16469   2.19999   2.21197   2.26378
 Alpha virt. eigenvalues --    2.28399   2.30552   2.34744   2.36561   2.40479
 Alpha virt. eigenvalues --    2.41775   2.41893   2.42510   2.43123   2.43440
 Alpha virt. eigenvalues --    2.44363   2.45525   2.46381   2.47052   2.47884
 Alpha virt. eigenvalues --    2.48136   2.48832   2.49444   2.51111   2.51762
 Alpha virt. eigenvalues --    2.52664   2.54172   2.55406   2.57222   2.58382
 Alpha virt. eigenvalues --    2.61837   2.64333   2.68063   2.73392   2.79732
 Alpha virt. eigenvalues --    2.83460   2.87332   2.88737   2.90106   2.91786
 Alpha virt. eigenvalues --    2.92147   2.92728   2.94052   2.95801   2.97511
 Alpha virt. eigenvalues --    2.98732   3.01959   3.02209   3.05226   3.06711
 Alpha virt. eigenvalues --    3.09005   3.10422   3.11554   3.12896   3.14488
 Alpha virt. eigenvalues --    3.16215   3.16818   3.18097   3.19030   3.22339
 Alpha virt. eigenvalues --    3.22803   3.23339   3.23855   3.25165   3.25407
 Alpha virt. eigenvalues --    3.26647   3.27412   3.28102   3.30391   3.32752
 Alpha virt. eigenvalues --    3.33705   3.34716   3.36384   3.39407   3.40802
 Alpha virt. eigenvalues --    3.42488   3.50381   3.56668   3.61200   3.65515
 Alpha virt. eigenvalues --    3.78344   3.88357   3.89925   3.98343   4.04268
 Alpha virt. eigenvalues --    4.08767   4.11378   4.18989   4.20991   4.25456
 Alpha virt. eigenvalues --    4.93856   4.99627   5.01728   5.08600   5.14266
 Alpha virt. eigenvalues --    5.23354   5.50654   5.54018   5.77538   5.85975
 Alpha virt. eigenvalues --   11.53112  11.53576  11.58992  23.41354  23.48673
 Alpha virt. eigenvalues --   23.54690  23.55235  23.57890  23.60214  23.71922
 Alpha virt. eigenvalues --   23.75669  23.77422  23.78072  23.82094  23.87970
 Alpha virt. eigenvalues --   23.88790  24.26807  49.98356  50.05210  50.11731
 Alpha virt. eigenvalues --  141.29387
          Condensed to atoms (all electrons):
               1          2          3          4          5          6
     1  C    5.197455   0.240690  -0.045833  -0.007176  -0.049195   0.398735
     2  C    0.240690   5.599784   0.265498  -0.088712  -0.017080  -0.040493
     3  C   -0.045833   0.265498   5.219720   0.247205  -0.012023  -0.018999
     4  C   -0.007176  -0.088712   0.247205   5.885559   0.232625   0.003574
     5  C   -0.049195  -0.017080  -0.012023   0.232625   4.387436  -0.002234
     6  H    0.398735  -0.040493  -0.018999   0.003574  -0.002234   0.473739
     7  H   -0.039671   0.404892  -0.060010  -0.004062   0.000003   0.006030
     8  H    0.001841  -0.008148  -0.030820   0.370037  -0.022678  -0.000070
     9  H   -0.001154   0.008759  -0.032062   0.351440  -0.025044   0.000258
    10  O    0.218456  -0.032466   0.002431  -0.111859   0.349867  -0.032236
    11  O    0.001386  -0.000198   0.003304  -0.105767   0.665996   0.000099
    12  C    0.339914  -0.058957   0.010808  -0.002215   0.002604  -0.054783
    13  C   -0.076506  -0.007980  -0.001086   0.000264  -0.000091   0.008515
    14  C   -0.053011   0.282161  -0.051435   0.007010   0.000309  -0.000401
    15  O    0.003808  -0.059324   0.222881  -0.022917   0.001804  -0.000052
    16  Si   0.000463   0.001972  -0.049836  -0.004787   0.000693  -0.000178
    17  C    0.000009  -0.000155  -0.000108  -0.002548   0.000060   0.000001
    18  C   -0.000007  -0.000128   0.000217  -0.000685   0.000147   0.000001
    19  C    0.000000   0.000010   0.002238  -0.000120   0.000001   0.000000
    20  H    0.000000   0.000002  -0.000047   0.000143   0.000001   0.000000
    21  H   -0.000004   0.000005  -0.000011   0.001320   0.000085   0.000000
    22  H   -0.000008   0.000136   0.000546  -0.000168  -0.000038   0.000000
    23  H    0.000000   0.000000  -0.000078  -0.000003   0.000000   0.000000
    24  H   -0.000001   0.000049  -0.000157  -0.000040   0.000000   0.000000
    25  H    0.000000  -0.000008  -0.000097  -0.000018   0.000000   0.000000
    26  H    0.000000   0.000004  -0.000080   0.000046   0.000001   0.000000
    27  H    0.000005  -0.000099   0.000193   0.000132   0.000008  -0.000001
    28  H    0.000007  -0.000064   0.000490   0.000967  -0.000064  -0.000002
    29  H    0.005823  -0.035378  -0.007749   0.000542  -0.000088  -0.000192
    30  H   -0.007778  -0.032575   0.006643  -0.000363  -0.000007  -0.000263
    31  H   -0.002782  -0.046009  -0.005512  -0.000068  -0.000002   0.005083
    32  H   -0.033383  -0.006854  -0.000279   0.000100  -0.000044  -0.000335
    33  H   -0.046259   0.008909  -0.000066   0.000231  -0.000217  -0.007213
    34  H   -0.008734   0.004636   0.000297   0.000035  -0.000016  -0.000344
    35  H   -0.008629  -0.000426  -0.000463   0.000773  -0.000241   0.000540
    36  H    0.008152  -0.000089   0.000006  -0.000016   0.000020  -0.000202
    37  C    0.003250  -0.087584   0.290559  -0.107574   0.000914   0.005649
    38  C   -0.001358  -0.003832  -0.053528   0.007928  -0.000320   0.000128
    39  C   -0.000581   0.001936  -0.000854   0.000000  -0.000044   0.002028
    40  H   -0.000551   0.007652  -0.042953  -0.004423  -0.000265   0.000507
    41  H    0.000605  -0.005039  -0.019847  -0.006406   0.005008  -0.001613
    42  H    0.000059  -0.000352  -0.002686  -0.000173  -0.000007  -0.000008
    43  H    0.000021  -0.000041  -0.000258   0.000014   0.000000   0.000004
    44  H    0.000160  -0.000101   0.000101  -0.000040  -0.000021   0.000789
               7          8          9         10         11         12
     1  C   -0.039671   0.001841  -0.001154   0.218456   0.001386   0.339914
     2  C    0.404892  -0.008148   0.008759  -0.032466  -0.000198  -0.058957
     3  C   -0.060010  -0.030820  -0.032062   0.002431   0.003304   0.010808
     4  C   -0.004062   0.370037   0.351440  -0.111859  -0.105767  -0.002215
     5  C    0.000003  -0.022678  -0.025044   0.349867   0.665996   0.002604
     6  H    0.006030  -0.000070   0.000258  -0.032236   0.000099  -0.054783
     7  H    0.473696   0.003062   0.000399   0.000983  -0.000098  -0.013475
     8  H    0.003062   0.400207  -0.014770   0.000704   0.000770  -0.000142
     9  H    0.000399  -0.014770   0.428672   0.005720   0.015762   0.000034
    10  O    0.000983   0.000704   0.005720   8.025418  -0.069636  -0.057142
    11  O   -0.000098   0.000770   0.015762  -0.069636   7.875010  -0.000140
    12  C   -0.013475  -0.000142   0.000034  -0.057142  -0.000140   5.334395
    13  C    0.005903   0.000152   0.000017   0.001360  -0.000008   0.284577
    14  C   -0.041532   0.000072  -0.000111   0.003472   0.000005  -0.006650
    15  O    0.004523  -0.001381  -0.002145  -0.000024  -0.000019  -0.000067
    16  Si   0.000611  -0.005475  -0.001705  -0.000507  -0.001276   0.000022
    17  C    0.000048   0.000270   0.002826   0.000000   0.000009   0.000000
    18  C    0.000034  -0.001246  -0.000263  -0.000001   0.000011   0.000000
    19  C   -0.000020  -0.000067  -0.000032   0.000000   0.000000   0.000000
    20  H   -0.000001   0.000255   0.000022   0.000000   0.000000   0.000000
    21  H   -0.000044  -0.000355   0.000392  -0.000002  -0.000024   0.000000
    22  H    0.000072   0.000326   0.000090   0.000001   0.000002   0.000000
    23  H   -0.000001   0.000000  -0.000005   0.000000   0.000000   0.000000
    24  H   -0.000015  -0.000022  -0.000010   0.000000   0.000000   0.000000
    25  H    0.000002  -0.000006  -0.000013   0.000000   0.000000   0.000000
    26  H    0.000000   0.000001   0.000016   0.000000   0.000000   0.000000
    27  H    0.000010   0.000017  -0.000264   0.000000   0.000000   0.000000
    28  H    0.000000  -0.000074   0.003054  -0.000002  -0.000078   0.000000
    29  H   -0.001928   0.000062  -0.000040  -0.000108   0.000000   0.000091
    30  H   -0.009670  -0.000036   0.000015  -0.000022   0.000000   0.001938
    31  H    0.007387  -0.000023   0.000030   0.000039   0.000001  -0.002360
    32  H    0.000274   0.000002  -0.000005   0.003074   0.000006   0.388275
    33  H   -0.000220   0.000005  -0.000012   0.003243  -0.000029   0.404766
    34  H   -0.000893  -0.000039   0.000000   0.000030   0.000001  -0.036796
    35  H    0.000532   0.000084  -0.000007   0.010584  -0.000130  -0.043433
    36  H    0.000163  -0.000004   0.000000  -0.000165   0.000000  -0.035952
    37  C    0.009093   0.006763  -0.006068  -0.004170   0.000207  -0.000794
    38  C   -0.000511  -0.000215   0.000114   0.000231  -0.000003   0.000038
    39  C   -0.000075   0.000002  -0.000004  -0.000006   0.000000   0.000021
    40  H   -0.000136  -0.000059   0.002959  -0.000126   0.000120   0.000006
    41  H   -0.000306   0.000113  -0.000193   0.001220   0.000095   0.000549
    42  H   -0.000046   0.000016  -0.000012   0.000000   0.000000   0.000008
    43  H   -0.000002  -0.000001   0.000000   0.000000   0.000000  -0.000001
    44  H    0.000007   0.000002   0.000002  -0.000020   0.000000   0.000001
              13         14         15         16         17         18
     1  C   -0.076506  -0.053011   0.003808   0.000463   0.000009  -0.000007
     2  C   -0.007980   0.282161  -0.059324   0.001972  -0.000155  -0.000128
     3  C   -0.001086  -0.051435   0.222881  -0.049836  -0.000108   0.000217
     4  C    0.000264   0.007010  -0.022917  -0.004787  -0.002548  -0.000685
     5  C   -0.000091   0.000309   0.001804   0.000693   0.000060   0.000147
     6  H    0.008515  -0.000401  -0.000052  -0.000178   0.000001   0.000001
     7  H    0.005903  -0.041532   0.004523   0.000611   0.000048   0.000034
     8  H    0.000152   0.000072  -0.001381  -0.005475   0.000270  -0.001246
     9  H    0.000017  -0.000111  -0.002145  -0.001705   0.002826  -0.000263
    10  O    0.001360   0.003472  -0.000024  -0.000507   0.000000  -0.000001
    11  O   -0.000008   0.000005  -0.000019  -0.001276   0.000009   0.000011
    12  C    0.284577  -0.006650  -0.000067   0.000022   0.000000   0.000000
    13  C    5.382242  -0.000966  -0.000004  -0.000025   0.000000   0.000000
    14  C   -0.000966   5.420838  -0.008723  -0.000305  -0.000018   0.000003
    15  O   -0.000004  -0.008723   8.254716   0.352030  -0.021882  -0.025308
    16  Si  -0.000025  -0.000305   0.352030  11.539287   0.312484   0.321745
    17  C    0.000000  -0.000018  -0.021882   0.312484   5.805927  -0.058868
    18  C    0.000000   0.000003  -0.025308   0.321745  -0.058868   5.771598
    19  C    0.000000  -0.000010  -0.021836   0.333193  -0.050395  -0.054090
    20  H    0.000000   0.000000   0.000953  -0.012400   0.000764   0.364803
    21  H    0.000000   0.000000  -0.001233  -0.029024  -0.001788   0.369939
    22  H    0.000000  -0.000003  -0.002137  -0.024983   0.002374   0.369793
    23  H    0.000000   0.000000   0.000915  -0.014099  -0.000164   0.000613
    24  H    0.000000   0.000003  -0.001301  -0.026613   0.002589  -0.000692
    25  H    0.000000  -0.000001  -0.001144  -0.029191  -0.000469   0.002563
    26  H    0.000000   0.000000   0.000735  -0.009912   0.366572   0.000058
    27  H    0.000000   0.000001  -0.002135  -0.029006   0.369408   0.002386
    28  H    0.000000  -0.000003  -0.000972  -0.029094   0.365740  -0.001547
    29  H   -0.000130   0.386930   0.010451   0.000759   0.000033   0.000009
    30  H    0.000203   0.386008  -0.000075  -0.000010   0.000000   0.000001
    31  H    0.000361   0.386244  -0.000158  -0.000155   0.000001   0.000000
    32  H   -0.038104   0.003075   0.000000   0.000001   0.000000   0.000000
    33  H   -0.047323  -0.000445   0.000004   0.000004   0.000000   0.000000
    34  H    0.384213   0.000289  -0.000033  -0.000020   0.000000   0.000000
    35  H    0.386412   0.000198   0.000002  -0.000002   0.000000   0.000000
    36  H    0.391816  -0.000034   0.000000   0.000000   0.000000   0.000000
    37  C    0.000019  -0.002687  -0.061140  -0.016001  -0.004329  -0.000435
    38  C   -0.000005  -0.016628   0.003357   0.000150   0.000745   0.000030
    39  C   -0.000001  -0.004627   0.000661   0.000465   0.000001   0.000000
    40  H    0.000001  -0.000416  -0.002017  -0.003346  -0.002265  -0.000109
    41  H   -0.000015   0.000533   0.003226   0.001716  -0.000030   0.000012
    42  H    0.000000  -0.000245   0.003205   0.002660  -0.000040   0.000017
    43  H    0.000000   0.000097   0.000018   0.000014  -0.000001   0.000000
    44  H    0.000000   0.000104  -0.000005   0.000002  -0.000001   0.000000
              19         20         21         22         23         24
     1  C    0.000000   0.000000  -0.000004  -0.000008   0.000000  -0.000001
     2  C    0.000010   0.000002   0.000005   0.000136   0.000000   0.000049
     3  C    0.002238  -0.000047  -0.000011   0.000546  -0.000078  -0.000157
     4  C   -0.000120   0.000143   0.001320  -0.000168  -0.000003  -0.000040
     5  C    0.000001   0.000001   0.000085  -0.000038   0.000000   0.000000
     6  H    0.000000   0.000000   0.000000   0.000000   0.000000   0.000000
     7  H   -0.000020  -0.000001  -0.000044   0.000072  -0.000001  -0.000015
     8  H   -0.000067   0.000255  -0.000355   0.000326   0.000000  -0.000022
     9  H   -0.000032   0.000022   0.000392   0.000090  -0.000005  -0.000010
    10  O    0.000000   0.000000  -0.000002   0.000001   0.000000   0.000000
    11  O    0.000000   0.000000  -0.000024   0.000002   0.000000   0.000000
    12  C    0.000000   0.000000   0.000000   0.000000   0.000000   0.000000
    13  C    0.000000   0.000000   0.000000   0.000000   0.000000   0.000000
    14  C   -0.000010   0.000000   0.000000  -0.000003   0.000000   0.000003
    15  O   -0.021836   0.000953  -0.001233  -0.002137   0.000915  -0.001301
    16  Si   0.333193  -0.012400  -0.029024  -0.024983  -0.014099  -0.026613
    17  C   -0.050395   0.000764  -0.001788   0.002374  -0.000164   0.002589
    18  C   -0.054090   0.364803   0.369939   0.369793   0.000613  -0.000692
    19  C    5.726616  -0.000613   0.002793  -0.000596   0.364027   0.369168
    20  H   -0.000613   0.449611  -0.022160  -0.020311   0.000814  -0.000115
    21  H    0.002793  -0.022160   0.455363  -0.018989  -0.000068  -0.000083
    22  H   -0.000596  -0.020311  -0.018989   0.451572  -0.000012   0.001102
    23  H    0.364027   0.000814  -0.000068  -0.000012   0.452592  -0.020424
    24  H    0.369168  -0.000115  -0.000083   0.001102  -0.020424   0.456827
    25  H    0.369079  -0.000016  -0.000116  -0.000100  -0.020467  -0.017912
    26  H   -0.000987   0.000388   0.000039  -0.000032   0.000615  -0.000045
    27  H   -0.000410  -0.000038  -0.000042  -0.000103  -0.000095  -0.000073
    28  H    0.003067   0.000026   0.001145  -0.000029  -0.000054  -0.000098
    29  H    0.000073  -0.000001   0.000000  -0.000009  -0.000003   0.000058
    30  H   -0.000002   0.000000   0.000000   0.000001   0.000000   0.000003
    31  H   -0.000001   0.000000   0.000000   0.000000   0.000000  -0.000002
    32  H    0.000000   0.000000   0.000000   0.000000   0.000000   0.000000
    33  H    0.000000   0.000000   0.000000   0.000000   0.000000   0.000000
    34  H    0.000000   0.000000   0.000000   0.000000   0.000000   0.000000
    35  H    0.000000   0.000000   0.000000   0.000000   0.000000   0.000000
    36  H    0.000000   0.000000   0.000000   0.000000   0.000000   0.000000
    37  C   -0.000257   0.000011  -0.000089  -0.000043   0.000006  -0.000020
    38  C   -0.000125  -0.000001   0.000004   0.000003  -0.000003  -0.000003
    39  C   -0.000001   0.000000   0.000000   0.000000   0.000000   0.000000
    40  H   -0.000015   0.000005  -0.000056  -0.000001   0.000001  -0.000004
    41  H    0.000000   0.000000   0.000008   0.000003   0.000000   0.000001
    42  H    0.000314   0.000000   0.000001   0.000001  -0.000015  -0.000018
    43  H   -0.000001   0.000000   0.000000   0.000000   0.000000   0.000000
    44  H    0.000000   0.000000   0.000000   0.000000   0.000000   0.000000
              25         26         27         28         29         30
     1  C    0.000000   0.000000   0.000005   0.000007   0.005823  -0.007778
     2  C   -0.000008   0.000004  -0.000099  -0.000064  -0.035378  -0.032575
     3  C   -0.000097  -0.000080   0.000193   0.000490  -0.007749   0.006643
     4  C   -0.000018   0.000046   0.000132   0.000967   0.000542  -0.000363
     5  C    0.000000   0.000001   0.000008  -0.000064  -0.000088  -0.000007
     6  H    0.000000   0.000000  -0.000001  -0.000002  -0.000192  -0.000263
     7  H    0.000002   0.000000   0.000010   0.000000  -0.001928  -0.009670
     8  H   -0.000006   0.000001   0.000017  -0.000074   0.000062  -0.000036
     9  H   -0.000013   0.000016  -0.000264   0.003054  -0.000040   0.000015
    10  O    0.000000   0.000000   0.000000  -0.000002  -0.000108  -0.000022
    11  O    0.000000   0.000000   0.000000  -0.000078   0.000000   0.000000
    12  C    0.000000   0.000000   0.000000   0.000000   0.000091   0.001938
    13  C    0.000000   0.000000   0.000000   0.000000  -0.000130   0.000203
    14  C   -0.000001   0.000000   0.000001  -0.000003   0.386930   0.386008
    15  O   -0.001144   0.000735  -0.002135  -0.000972   0.010451  -0.000075
    16  Si  -0.029191  -0.009912  -0.029006  -0.029094   0.000759  -0.000010
    17  C   -0.000469   0.366572   0.369408   0.365740   0.000033   0.000000
    18  C    0.002563   0.000058   0.002386  -0.001547   0.000009   0.000001
    19  C    0.369079  -0.000987  -0.000410   0.003067   0.000073  -0.000002
    20  H   -0.000016   0.000388  -0.000038   0.000026  -0.000001   0.000000
    21  H   -0.000116   0.000039  -0.000042   0.001145   0.000000   0.000000
    22  H   -0.000100  -0.000032  -0.000103  -0.000029  -0.000009   0.000001
    23  H   -0.020467   0.000615  -0.000095  -0.000054  -0.000003   0.000000
    24  H   -0.017912  -0.000045  -0.000073  -0.000098   0.000058   0.000003
    25  H    0.459332  -0.000093   0.001170  -0.000076   0.000055   0.000000
    26  H   -0.000093   0.433605  -0.020464  -0.019957   0.000000   0.000000
    27  H    0.001170  -0.020464   0.448535  -0.019303  -0.000001   0.000000
    28  H   -0.000076  -0.019957  -0.019303   0.449399   0.000003   0.000000
    29  H    0.000055   0.000000  -0.000001   0.000003   0.432192  -0.026670
    30  H    0.000000   0.000000   0.000000   0.000000  -0.026670   0.471255
    31  H   -0.000003   0.000000  -0.000001  -0.000001  -0.023361  -0.027626
    32  H    0.000000   0.000000   0.000000   0.000000   0.000322  -0.001496
    33  H    0.000000   0.000000   0.000000   0.000000   0.000028   0.000235
    34  H    0.000000   0.000000   0.000000   0.000000  -0.000049   0.002674
    35  H    0.000000   0.000000   0.000000   0.000000   0.000022  -0.000134
    36  H    0.000000   0.000000   0.000000   0.000000  -0.000004  -0.000056
    37  C   -0.000004   0.000412  -0.000670  -0.001247   0.000174  -0.000481
    38  C    0.000009  -0.000069   0.001635   0.000198   0.000446   0.000627
    39  C   -0.000004  -0.000002   0.000237  -0.000013   0.000282   0.000250
    40  H   -0.000021   0.000629  -0.001621   0.001234  -0.000106   0.000026
    41  H    0.000000  -0.000010  -0.000037  -0.000089  -0.000044  -0.000007
    42  H    0.000614   0.000007   0.000410  -0.000009   0.000116   0.000035
    43  H   -0.000002   0.000000  -0.000005   0.000000   0.000013  -0.000006
    44  H    0.000000   0.000000   0.000001   0.000001  -0.000018   0.000003
              31         32         33         34         35         36
     1  C   -0.002782  -0.033383  -0.046259  -0.008734  -0.008629   0.008152
     2  C   -0.046009  -0.006854   0.008909   0.004636  -0.000426  -0.000089
     3  C   -0.005512  -0.000279  -0.000066   0.000297  -0.000463   0.000006
     4  C   -0.000068   0.000100   0.000231   0.000035   0.000773  -0.000016
     5  C   -0.000002  -0.000044  -0.000217  -0.000016  -0.000241   0.000020
     6  H    0.005083  -0.000335  -0.007213  -0.000344   0.000540  -0.000202
     7  H    0.007387   0.000274  -0.000220  -0.000893   0.000532   0.000163
     8  H   -0.000023   0.000002   0.000005  -0.000039   0.000084  -0.000004
     9  H    0.000030  -0.000005  -0.000012   0.000000  -0.000007   0.000000
    10  O    0.000039   0.003074   0.003243   0.000030   0.010584  -0.000165
    11  O    0.000001   0.000006  -0.000029   0.000001  -0.000130   0.000000
    12  C   -0.002360   0.388275   0.404766  -0.036796  -0.043433  -0.035952
    13  C    0.000361  -0.038104  -0.047323   0.384213   0.386412   0.391816
    14  C    0.386244   0.003075  -0.000445   0.000289   0.000198  -0.000034
    15  O   -0.000158   0.000000   0.000004  -0.000033   0.000002   0.000000
    16  Si  -0.000155   0.000001   0.000004  -0.000020  -0.000002   0.000000
    17  C    0.000001   0.000000   0.000000   0.000000   0.000000   0.000000
    18  C    0.000000   0.000000   0.000000   0.000000   0.000000   0.000000
    19  C   -0.000001   0.000000   0.000000   0.000000   0.000000   0.000000
    20  H    0.000000   0.000000   0.000000   0.000000   0.000000   0.000000
    21  H    0.000000   0.000000   0.000000   0.000000   0.000000   0.000000
    22  H    0.000000   0.000000   0.000000   0.000000   0.000000   0.000000
    23  H    0.000000   0.000000   0.000000   0.000000   0.000000   0.000000
    24  H   -0.000002   0.000000   0.000000   0.000000   0.000000   0.000000
    25  H   -0.000003   0.000000   0.000000   0.000000   0.000000   0.000000
    26  H    0.000000   0.000000   0.000000   0.000000   0.000000   0.000000
    27  H   -0.000001   0.000000   0.000000   0.000000   0.000000   0.000000
    28  H   -0.000001   0.000000   0.000000   0.000000   0.000000   0.000000
    29  H   -0.023361   0.000322   0.000028  -0.000049   0.000022  -0.000004
    30  H   -0.027626  -0.001496   0.000235   0.002674  -0.000134  -0.000056
    31  H    0.459175   0.000508  -0.000232  -0.000152   0.000003   0.000018
    32  H    0.000508   0.467803  -0.025727  -0.005906   0.007105  -0.003861
    33  H   -0.000232  -0.025727   0.472823   0.006914  -0.003647  -0.006322
    34  H   -0.000152  -0.005906   0.006914   0.480973  -0.027612  -0.027447
    35  H    0.000003   0.007105  -0.003647  -0.027612   0.468888  -0.026100
    36  H    0.000018  -0.003861  -0.006322  -0.027447  -0.026100   0.466904
    37  C    0.001666   0.000013  -0.000026  -0.000028   0.000015   0.000001
    38  C    0.001326  -0.000003   0.000006   0.000003  -0.000001   0.000000
    39  C    0.001720   0.000007  -0.000001   0.000000   0.000000   0.000000
    40  H    0.000195   0.000000  -0.000002   0.000000   0.000000   0.000000
    41  H   -0.000436  -0.000019  -0.000018   0.000001  -0.000004   0.000001
    42  H   -0.000478   0.000000   0.000000   0.000000   0.000000   0.000000
    43  H   -0.000040   0.000000   0.000000   0.000000   0.000000   0.000000
    44  H   -0.000037   0.000004  -0.000003   0.000000   0.000000   0.000000
              37         38         39         40         41         42
     1  C    0.003250  -0.001358  -0.000581  -0.000551   0.000605   0.000059
     2  C   -0.087584  -0.003832   0.001936   0.007652  -0.005039  -0.000352
     3  C    0.290559  -0.053528  -0.000854  -0.042953  -0.019847  -0.002686
     4  C   -0.107574   0.007928   0.000000  -0.004423  -0.006406  -0.000173
     5  C    0.000914  -0.000320  -0.000044  -0.000265   0.005008  -0.000007
     6  H    0.005649   0.000128   0.002028   0.000507  -0.001613  -0.000008
     7  H    0.009093  -0.000511  -0.000075  -0.000136  -0.000306  -0.000046
     8  H    0.006763  -0.000215   0.000002  -0.000059   0.000113   0.000016
     9  H   -0.006068   0.000114  -0.000004   0.002959  -0.000193  -0.000012
    10  O   -0.004170   0.000231  -0.000006  -0.000126   0.001220   0.000000
    11  O    0.000207  -0.000003   0.000000   0.000120   0.000095   0.000000
    12  C   -0.000794   0.000038   0.000021   0.000006   0.000549   0.000008
    13  C    0.000019  -0.000005  -0.000001   0.000001  -0.000015   0.000000
    14  C   -0.002687  -0.016628  -0.004627  -0.000416   0.000533  -0.000245
    15  O   -0.061140   0.003357   0.000661  -0.002017   0.003226   0.003205
    16  Si  -0.016001   0.000150   0.000465  -0.003346   0.001716   0.002660
    17  C   -0.004329   0.000745   0.000001  -0.002265  -0.000030  -0.000040
    18  C   -0.000435   0.000030   0.000000  -0.000109   0.000012   0.000017
    19  C   -0.000257  -0.000125  -0.000001  -0.000015   0.000000   0.000314
    20  H    0.000011  -0.000001   0.000000   0.000005   0.000000   0.000000
    21  H   -0.000089   0.000004   0.000000  -0.000056   0.000008   0.000001
    22  H   -0.000043   0.000003   0.000000  -0.000001   0.000003   0.000001
    23  H    0.000006  -0.000003   0.000000   0.000001   0.000000  -0.000015
    24  H   -0.000020  -0.000003   0.000000  -0.000004   0.000001  -0.000018
    25  H   -0.000004   0.000009  -0.000004  -0.000021   0.000000   0.000614
    26  H    0.000412  -0.000069  -0.000002   0.000629  -0.000010   0.000007
    27  H   -0.000670   0.001635   0.000237  -0.001621  -0.000037   0.000410
    28  H   -0.001247   0.000198  -0.000013   0.001234  -0.000089  -0.000009
    29  H    0.000174   0.000446   0.000282  -0.000106  -0.000044   0.000116
    30  H   -0.000481   0.000627   0.000250   0.000026  -0.000007   0.000035
    31  H    0.001666   0.001326   0.001720   0.000195  -0.000436  -0.000478
    32  H    0.000013  -0.000003   0.000007   0.000000  -0.000019   0.000000
    33  H   -0.000026   0.000006  -0.000001  -0.000002  -0.000018   0.000000
    34  H   -0.000028   0.000003   0.000000   0.000000   0.000001   0.000000
    35  H    0.000015  -0.000001   0.000000   0.000000  -0.000004   0.000000
    36  H    0.000001   0.000000   0.000000   0.000000   0.000001   0.000000
    37  C    5.484372   0.322494  -0.060869   0.392849   0.381631  -0.044811
    38  C    0.322494   5.062318   0.623356  -0.042852  -0.044095   0.395926
    39  C   -0.060869   0.623356   5.151694  -0.002822   0.002131  -0.038548
    40  H    0.392849  -0.042852  -0.002822   0.453516  -0.026903  -0.000999
    41  H    0.381631  -0.044095   0.002131  -0.026903   0.445669   0.004472
    42  H   -0.044811   0.395926  -0.038548  -0.000999   0.004472   0.454228
    43  H    0.006486  -0.039857   0.393383  -0.000418   0.000153  -0.007738
    44  H   -0.009068  -0.040507   0.388716   0.000203   0.004424   0.005761
              43         44
     1  C    0.000021   0.000160
     2  C   -0.000041  -0.000101
     3  C   -0.000258   0.000101
     4  C    0.000014  -0.000040
     5  C    0.000000  -0.000021
     6  H    0.000004   0.000789
     7  H   -0.000002   0.000007
     8  H   -0.000001   0.000002
     9  H    0.000000   0.000002
    10  O    0.000000  -0.000020
    11  O    0.000000   0.000000
    12  C   -0.000001   0.000001
    13  C    0.000000   0.000000
    14  C    0.000097   0.000104
    15  O    0.000018  -0.000005
    16  Si   0.000014   0.000002
    17  C   -0.000001  -0.000001
    18  C    0.000000   0.000000
    19  C   -0.000001   0.000000
    20  H    0.000000   0.000000
    21  H    0.000000   0.000000
    22  H    0.000000   0.000000
    23  H    0.000000   0.000000
    24  H    0.000000   0.000000
    25  H   -0.000002   0.000000
    26  H    0.000000   0.000000
    27  H   -0.000005   0.000001
    28  H    0.000000   0.000001
    29  H    0.000013  -0.000018
    30  H   -0.000006   0.000003
    31  H   -0.000040  -0.000037
    32  H    0.000000   0.000004
    33  H    0.000000  -0.000003
    34  H    0.000000   0.000000
    35  H    0.000000   0.000000
    36  H    0.000000   0.000000
    37  C    0.006486  -0.009068
    38  C   -0.039857  -0.040507
    39  C    0.393383   0.388716
    40  H   -0.000418   0.000203
    41  H    0.000153   0.004424
    42  H   -0.007738   0.005761
    43  H    0.455361  -0.032953
    44  H   -0.032953   0.459779
 Mulliken charges:
               1
     1  C   -0.038221
     2  C   -0.295005
     3  C    0.163739
     4  C   -0.639805
     5  C    0.482139
     6  H    0.253939
     7  H    0.254996
     8  H    0.300866
     9  H    0.263338
    10  O   -0.318339
    11  O   -0.385377
    12  C   -0.455143
    13  C   -0.673811
    14  C   -0.689099
    15  O   -0.627256
    16  Si   1.419680
    17  C   -1.086802
    18  C   -1.060601
    19  C   -1.041003
    20  H    0.237901
    21  H    0.242995
    22  H    0.241536
    23  H    0.235906
    24  H    0.237848
    25  H    0.236937
    26  H    0.248521
    27  H    0.250220
    28  H    0.247444
    29  H    0.257392
    30  H    0.237360
    31  H    0.245681
    32  H    0.245445
    33  H    0.240594
    34  H    0.228003
    35  H    0.235671
    36  H    0.233169
    37  C   -0.498192
    38  C   -0.177155
    39  C   -0.458441
    40  H    0.272581
    41  H    0.253540
    42  H    0.228336
    43  H    0.225760
    44  H    0.222714
 Sum of Mulliken charges =   0.00000
 Mulliken charges with hydrogens summed into heavy atoms:
               1
     1  C    0.215718
     2  C   -0.040009
     3  C    0.163739
     4  C   -0.075601
     5  C    0.482139
    10  O   -0.318339
    11  O   -0.385377
    12  C    0.030896
    13  C    0.023032
    14  C    0.051333
    15  O   -0.627256
    16  Si   1.419680
    17  C   -0.340617
    18  C   -0.338169
    19  C   -0.330312
    37  C    0.027929
    38  C    0.051181
    39  C   -0.009967
 Electronic spatial extent (au):  <R**2>=           5473.0267
 Charge=              0.0000 electrons
 Dipole moment (field-independent basis, Debye):
    X=             -1.6731    Y=              2.8971    Z=              2.8473  Tot=              4.3931
 Quadrupole moment (field-independent basis, Debye-Ang):
   XX=           -115.9247   YY=           -124.7547   ZZ=           -127.6369
   XY=             10.1454   XZ=              9.2174   YZ=             -9.2050
 Traceless Quadrupole moment (field-independent basis, Debye-Ang):
   XX=              6.8474   YY=             -1.9826   ZZ=             -4.8648
   XY=             10.1454   XZ=              9.2174   YZ=             -9.2050
 Octapole moment (field-independent basis, Debye-Ang**2):
  XXX=              0.2981  YYY=             21.8564  ZZZ=             20.2418  XYY=             -9.2022
  XXY=             11.1645  XXZ=             17.2672  XZZ=             -2.1792  YZZ=             15.9219
  YYZ=             19.8350  XYZ=            -20.8624
 Hexadecapole moment (field-independent basis, Debye-Ang**3):
 XXXX=          -4170.3320 YYYY=          -1808.9436 ZZZZ=          -1354.5436 XXXY=             68.5221
 XXXZ=             58.9643 YYYX=              0.1612 YYYZ=            -27.9448 ZZZX=             13.5500
 ZZZY=            -27.9902 XXYY=          -1054.8395 XXZZ=           -980.0306 YYZZ=           -591.6876
 XXYZ=            -30.6743 YYXZ=             21.6037 ZZXY=             59.3815
 N-N= 1.629850470363D+03 E-N=-5.754625476073D+03  KE= 1.060531173246D+03
 1\1\GINC-SWANNODE-0-1\SP\RmPW1PW91\6-311G(d)\C14H26O3Si1\ROOT\08-Mar-2
 018\0\\#mPW1PW91/6-311g(d) nmr=(giao) scrf=(solvent=chloroform)\\P_ng_
 2ginp004\\0,1\C,0,-0.401189,-0.268004,1.416076\C,0,-1.023724,0.867398,
 0.593735\C,0,-1.946122,1.748336,1.496212\C,0,-1.015936,2.307379,2.5832
 89\C,0,-0.25788,1.260227,3.343795\H,0,-1.180087,-0.990486,1.688912\H,0
 ,-0.219789,1.539574,0.259287\H,0,-0.275185,2.991691,2.15138\H,0,-1.592
 889,2.886256,3.314085\O,0,0.173481,0.18113,2.66373\O,0,0.043444,1.4249
 37,4.522349\C,0,0.69105,-1.074146,0.689095\C,0,1.901809,-0.252103,0.26
 5542\C,0,-1.669043,0.348108,-0.698669\O,0,-2.440058,2.782803,0.615534\
 Si,0,-3.08384,4.279063,0.995732\C,0,-4.320287,4.248792,2.40315\C,0,-1.
 730641,5.51735,1.41583\C,0,-3.991077,4.943431,-0.526613\H,0,-2.147637,
 6.525888,1.494089\H,0,-1.255453,5.273661,2.36979\H,0,-0.961874,5.52314
 9,0.637644\H,0,-4.410427,5.932431,-0.320678\H,0,-3.302911,5.02565,-1.3
 72819\H,0,-4.806561,4.269876,-0.805512\H,0,-4.765598,5.239166,2.539625
 \H,0,-5.129525,3.542439,2.196571\H,0,-3.842465,3.966421,3.345245\H,0,-
 2.263835,1.116539,-1.200989\H,0,-0.897017,0.036665,-1.410926\H,0,-2.30
 4668,-0.52249,-0.519043\H,0,0.273312,-1.583382,-0.186039\H,0,1.049492,
 -1.859142,1.367527\H,0,1.641171,0.47746,-0.506399\H,0,2.340504,0.28161
 1,1.114075\H,0,2.671531,-0.91002,-0.15109\C,0,-3.128591,0.975586,2.170
 221\C,0,-4.166004,0.402437,1.243887\C,0,-4.594265,-0.865842,1.287943\H
 ,0,-3.662853,1.656163,2.841506\H,0,-2.741348,0.184602,2.823428\H,0,-4.
 5987,1.077998,0.507895\H,0,-5.35439,-1.217386,0.596228\H,0,-4.207878,-
 1.57918,2.009341\\Version=EM64L-G09RevD.01\State=1-A\HF=-1064.3763438\
 RMSD=3.673e-09\Dipole=-0.8191598,0.0559626,-1.5209117\Quadrupole=0.542
 048,8.8980424,-9.4400904,-0.6796309,-8.4733059,3.8377148\PG=C01 [X(C14
 H26O3Si1)]\\@


 THERE IS NO CURE FOR BIRTH AND DEATH SAVE TO ENJOY THE INTERVAL.

                               -- GEORGE SANTAYANA
 Job cpu time:       0 days  1 hours 14 minutes 16.2 seconds.
 File lengths (MBytes):  RWF=    232 Int=      0 D2E=      0 Chk=     11 Scr=      1
 Normal termination of Gaussian 09 at Thu Mar  8 13:15:32 2018.
