 Entering Gaussian System, Link 0=/usr/local/shared/gaussian/em64t/09-D01/g09/g09
 Initial command:
 /usr/local/shared/gaussian/em64t/09-D01/g09/l1.exe "/scratch/ah809/P_ng_2ginp006/Gau-12622.inp" -scrdir="/scratch/ah809/P_ng_2ginp006/"
 Entering Link 1 = /usr/local/shared/gaussian/em64t/09-D01/g09/l1.exe PID=     12645.
  
 Copyright (c) 1988,1990,1992,1993,1995,1998,2003,2009,2013,
            Gaussian, Inc.  All Rights Reserved.
  
 This is part of the Gaussian(R) 09 program.  It is based on
 the Gaussian(R) 03 system (copyright 2003, Gaussian, Inc.),
 the Gaussian(R) 98 system (copyright 1998, Gaussian, Inc.),
 the Gaussian(R) 94 system (copyright 1995, Gaussian, Inc.),
 the Gaussian 92(TM) system (copyright 1992, Gaussian, Inc.),
 the Gaussian 90(TM) system (copyright 1990, Gaussian, Inc.),
 the Gaussian 88(TM) system (copyright 1988, Gaussian, Inc.),
 the Gaussian 86(TM) system (copyright 1986, Carnegie Mellon
 University), and the Gaussian 82(TM) system (copyright 1983,
 Carnegie Mellon University). Gaussian is a federally registered
 trademark of Gaussian, Inc.
  
 This software contains proprietary and confidential information,
 including trade secrets, belonging to Gaussian, Inc.
  
 This software is provided under written license and may be
 used, copied, transmitted, or stored only in accord with that
 written license.
  
 The following legend is applicable only to US Government
 contracts under FAR:
  
                    RESTRICTED RIGHTS LEGEND
  
 Use, reproduction and disclosure by the US Government is
 subject to restrictions as set forth in subparagraphs (a)
 and (c) of the Commercial Computer Software - Restricted
 Rights clause in FAR 52.227-19.
  
 Gaussian, Inc.
 340 Quinnipiac St., Bldg. 40, Wallingford CT 06492
  
  
 ---------------------------------------------------------------
 Warning -- This program may not be used in any manner that
 competes with the business of Gaussian, Inc. or will provide
 assistance to any competitor of Gaussian, Inc.  The licensee
 of this program is prohibited from giving any competitor of
 Gaussian, Inc. access to this program.  By using this program,
 the user acknowledges that Gaussian, Inc. is engaged in the
 business of creating and licensing software in the field of
 computational chemistry and represents and warrants to the
 licensee that it is not a competitor of Gaussian, Inc. and that
 it will not use this program in any manner prohibited above.
 ---------------------------------------------------------------
  

 Cite this work as:
 Gaussian 09, Revision D.01,
 M. J. Frisch, G. W. Trucks, H. B. Schlegel, G. E. Scuseria, 
 M. A. Robb, J. R. Cheeseman, G. Scalmani, V. Barone, B. Mennucci, 
 G. A. Petersson, H. Nakatsuji, M. Caricato, X. Li, H. P. Hratchian, 
 A. F. Izmaylov, J. Bloino, G. Zheng, J. L. Sonnenberg, M. Hada, 
 M. Ehara, K. Toyota, R. Fukuda, J. Hasegawa, M. Ishida, T. Nakajima, 
 Y. Honda, O. Kitao, H. Nakai, T. Vreven, J. A. Montgomery, Jr., 
 J. E. Peralta, F. Ogliaro, M. Bearpark, J. J. Heyd, E. Brothers, 
 K. N. Kudin, V. N. Staroverov, T. Keith, R. Kobayashi, J. Normand, 
 K. Raghavachari, A. Rendell, J. C. Burant, S. S. Iyengar, J. Tomasi, 
 M. Cossi, N. Rega, J. M. Millam, M. Klene, J. E. Knox, J. B. Cross, 
 V. Bakken, C. Adamo, J. Jaramillo, R. Gomperts, R. E. Stratmann, 
 O. Yazyev, A. J. Austin, R. Cammi, C. Pomelli, J. W. Ochterski, 
 R. L. Martin, K. Morokuma, V. G. Zakrzewski, G. A. Voth, 
 P. Salvador, J. J. Dannenberg, S. Dapprich, A. D. Daniels, 
 O. Farkas, J. B. Foresman, J. V. Ortiz, J. Cioslowski, 
 and D. J. Fox, Gaussian, Inc., Wallingford CT, 2013.
 
 ******************************************
 Gaussian 09:  EM64L-G09RevD.01 24-Apr-2013
                 8-Mar-2018 
 ******************************************
 %mem=6000MB
 %chk=P_ng_2ginp006.chk
 --------------------------------------------------------
 #mPW1PW91/6-311g(d) nmr=(giao) scrf=(solvent=chloroform)
 --------------------------------------------------------
 1/38=1/1;
 2/12=2,17=6,18=5,40=1/2;
 3/5=4,6=6,7=1,11=2,16=1,25=1,30=1,70=2201,72=7,74=-7/1,2,8,3;
 4//1;
 5/5=2,38=5,53=7/2;
 8/6=1,10=90,11=11/1;
 10/13=100,45=16/2;
 6/7=2,8=2,9=2,10=2,28=1/1;
 99/9=1/99;
 -------------
 P_ng_2ginp006
 -------------
 Symbolic Z-matrix:
 Charge =  0 Multiplicity = 1
 C                    -0.1066    0.05418   1.31138 
 C                    -1.03417   0.94311   0.46697 
 C                    -2.35684   1.21089   1.26973 
 C                    -2.11562   1.14856   2.79444 
 C                    -0.70301   1.46316   3.18679 
 H                    -0.62038  -0.86612   1.61682 
 H                    -0.5281    1.9054    0.34446 
 H                    -2.79576   1.80684   3.34133 
 H                    -2.28677   0.13658   3.18619 
 O                     0.25115   0.78108   2.50968 
 O                    -0.42349   2.22474   4.10468 
 C                     1.21081  -0.36298   0.63743 
 C                     2.11267   0.7998    0.23899 
 C                    -1.2615    0.42474  -0.95726 
 O                    -2.9684    2.42541   0.78415 
 Si                   -2.61872   4.01818   1.15676 
 C                    -3.24081   4.50804   2.86078 
 C                    -0.80324   4.46315   1.01925 
 C                    -3.53899   5.12064  -0.08675 
 H                    -0.42856   4.26225   0.01124 
 H                    -0.65694   5.52816   1.22454 
 H                    -0.19663   3.9003    1.73265 
 H                    -3.20376   4.90157  -1.10454 
 H                    -4.61596   4.93986  -0.02608 
 H                    -3.3475    6.17616   0.12642 
 H                    -3.23698   5.597     2.96868 
 H                    -4.26428   4.15329   3.01344 
 H                    -2.60793   4.0938    3.64968 
 H                    -1.99738   1.03967  -1.48587 
 H                    -0.33868   0.46689  -1.54427 
 H                    -1.60389  -0.61487  -0.96171 
 H                     1.0091   -0.98846  -0.2389 
 H                     1.77573  -0.98538   1.34336 
 H                     2.37019   1.42019   1.10292 
 H                     3.04615   0.41773  -0.187 
 H                     1.64225   1.43773  -0.51424 
 C                    -3.43241   0.10756   0.9395 
 C                    -4.71603   0.22844   1.72748 
 C                    -5.21367  -0.73182   2.51684 
 H                    -2.99951  -0.8899    1.08682 
 H                    -3.7288    0.1809   -0.11444 
 H                    -5.26463   1.16312   1.61876 
 H                    -6.14877  -0.58062   3.04855 
 H                    -4.71242  -1.68525   2.64969 
 
                          Input orientation:                          
 ---------------------------------------------------------------------
 Center     Atomic      Atomic             Coordinates (Angstroms)
 Number     Number       Type             X           Y           Z
 ---------------------------------------------------------------------
      1          6           0       -0.106604    0.054183    1.311380
      2          6           0       -1.034171    0.943107    0.466974
      3          6           0       -2.356841    1.210887    1.269733
      4          6           0       -2.115623    1.148560    2.794437
      5          6           0       -0.703013    1.463156    3.186789
      6          1           0       -0.620381   -0.866121    1.616824
      7          1           0       -0.528095    1.905401    0.344457
      8          1           0       -2.795756    1.806844    3.341331
      9          1           0       -2.286769    0.136576    3.186189
     10          8           0        0.251150    0.781082    2.509678
     11          8           0       -0.423490    2.224741    4.104683
     12          6           0        1.210814   -0.362984    0.637426
     13          6           0        2.112665    0.799803    0.238986
     14          6           0       -1.261496    0.424742   -0.957261
     15          8           0       -2.968397    2.425413    0.784154
     16         14           0       -2.618718    4.018182    1.156756
     17          6           0       -3.240814    4.508039    2.860782
     18          6           0       -0.803236    4.463154    1.019253
     19          6           0       -3.538987    5.120639   -0.086754
     20          1           0       -0.428564    4.262253    0.011242
     21          1           0       -0.656938    5.528158    1.224539
     22          1           0       -0.196625    3.900297    1.732652
     23          1           0       -3.203763    4.901567   -1.104541
     24          1           0       -4.615963    4.939864   -0.026075
     25          1           0       -3.347503    6.176156    0.126422
     26          1           0       -3.236976    5.597001    2.968675
     27          1           0       -4.264282    4.153290    3.013438
     28          1           0       -2.607927    4.093800    3.649683
     29          1           0       -1.997375    1.039675   -1.485865
     30          1           0       -0.338682    0.466888   -1.544269
     31          1           0       -1.603890   -0.614874   -0.961708
     32          1           0        1.009101   -0.988456   -0.238899
     33          1           0        1.775729   -0.985377    1.343360
     34          1           0        2.370185    1.420191    1.102917
     35          1           0        3.046150    0.417730   -0.186997
     36          1           0        1.642250    1.437725   -0.514235
     37          6           0       -3.432413    0.107560    0.939496
     38          6           0       -4.716031    0.228441    1.727482
     39          6           0       -5.213667   -0.731823    2.516842
     40          1           0       -2.999512   -0.889895    1.086815
     41          1           0       -3.728798    0.180898   -0.114435
     42          1           0       -5.264628    1.163116    1.618758
     43          1           0       -6.148771   -0.580624    3.048551
     44          1           0       -4.712421   -1.685245    2.649689
 ---------------------------------------------------------------------
                    Distance matrix (angstroms):
                    1          2          3          4          5
     1  C    0.000000
     2  C    1.537396   0.000000
     3  C    2.530467   1.570218   0.000000
     4  C    2.726404   2.574652   1.544925   0.000000
     5  C    2.420345   2.788819   2.544384   1.499459   0.000000
     6  H    1.097371   2.183273   2.729419   2.771545   2.810187
     7  H    2.130634   1.094136   2.163977   3.015867   2.881845
     8  H    3.797902   3.480108   2.199848   1.093166   2.126400
     9  H    2.876598   3.100584   2.198149   1.098577   2.065938
    10  O    1.446474   2.418872   2.919557   2.412000   1.354301
    11  O    3.551659   3.904926   3.578084   2.395459   1.225020
    12  C    1.537476   2.602861   3.950322   4.242952   3.673795
    13  C    2.575099   3.158337   4.605205   4.952815   4.130087
    14  C    2.572513   1.532587   2.603326   3.915186   4.308521
    15  O    3.753739   2.457451   1.443905   2.529588   3.439558
    16  Si   4.695521   3.527418   2.821746   3.342130   3.784061
    17  C    5.662221   4.827870   3.766173   3.543523   3.977188
    18  C    4.473216   3.570585   3.612986   3.982483   3.702465
    19  C    6.277341   4.902295   4.303915   5.109270   5.668864
    20  H    4.416092   3.404582   3.822681   4.504157   4.241977
    21  H    5.502255   4.662500   4.640101   4.875779   4.514066
    22  H    3.870164   3.323913   3.480482   3.518806   2.882811
    23  H    6.239086   4.779769   4.469404   5.520067   6.040855
    24  H    6.781813   5.389471   4.548409   5.346118   6.141756
    25  H    7.027525   5.731691   5.190613   5.823449   6.210599
    26  H    6.577894   5.724473   4.785294   4.590906   4.853578
    27  H    6.081609   5.217602   3.916194   3.700419   4.466487
    28  H    5.295544   4.746916   3.746784   3.106163   3.280740
    29  H    3.517213   2.179603   2.784214   4.283319   4.867074
    30  H    2.894636   2.180731   3.541907   4.737781   4.848525
    31  H    2.802933   2.189296   2.979877   4.180932   4.726501
    32  H    2.176065   2.898992   4.294490   4.850965   4.547205
    33  H    2.150555   3.518898   4.680505   4.669254   3.941790
    34  H    2.836180   3.495951   4.734597   4.801822   3.713343
    35  H    3.509581   4.165659   5.651856   6.005578   5.150881
    36  H    2.881935   2.893207   4.384829   5.015230   4.381607
    37  C    3.346962   2.583211   1.575831   2.501684   3.786501
    38  C    4.631449   3.956731   2.596250   2.957555   4.445043
    39  C    5.305944   4.947276   3.672990   3.634663   5.060905
    40  H    3.051332   2.758018   2.204489   2.802237   3.901365
    41  H    3.894778   2.860072   2.204329   3.464136   4.658073
    42  H    5.284830   4.389963   2.929049   3.361349   4.832916
    43  H    6.318902   5.928358   4.555484   4.395558   5.818284
    44  H    5.101983   5.020160   3.980027   3.846396   5.126037
                    6          7          8          9         10
     6  H    0.000000
     7  H    3.051027   0.000000
     8  H    3.853689   3.759422   0.000000
     9  H    2.499031   3.781153   1.752978   0.000000
    10  O    2.066406   2.561152   3.320764   2.704457   0.000000
    11  O    3.972611   3.775211   2.526854   2.945483   2.254624
    12  C    2.136736   2.873187   5.298288   4.356471   2.394821
    13  C    3.484721   2.864801   5.893324   5.336749   2.936261
    14  C    2.950130   2.103497   4.768863   4.278131   3.799308
    15  O    4.128040   2.533539   2.636586   3.387206   4.005838
    16  Si   5.297304   3.081295   3.113475   4.392682   4.532699
    17  C    6.107020   4.523766   2.779471   4.486177   5.119306
    18  C    5.365790   2.659540   4.051933   5.061201   4.109836
    19  C    6.874717   4.425965   4.825494   6.092708   6.319680
    20  H    5.377258   2.382371   4.766773   5.527606   4.338519
    21  H    6.406405   3.730350   4.785763   5.964359   5.001094
    22  H    4.786619   2.452869   3.704845   4.543904   3.245578
    23  H    6.880837   4.270340   5.432270   6.477375   6.478997
    24  H    7.236937   5.104500   4.946553   6.230197   6.885804
    25  H    7.697542   5.122104   5.452610   6.853018   6.909199
    26  H    7.102536   5.277544   3.833906   5.546751   5.964124
    27  H    6.357911   5.112295   2.787452   4.480446   5.658152
    28  H    5.716963   4.476529   2.315282   3.997198   4.521950
    29  H    3.892923   2.501668   4.952553   4.767329   4.592069
    30  H    3.442205   2.381697   5.630434   5.126537   4.108662
    31  H    2.771145   3.035653   5.079509   4.270369   4.176169
    32  H    2.472627   3.328316   5.925258   4.884638   3.355656
    33  H    2.414611   3.829100   5.717242   4.599857   2.608643
    34  H    3.799317   3.034916   5.643310   5.260695   2.622546
    35  H    4.283164   3.907792   6.964668   6.316443   3.900783
    36  H    3.868930   2.380435   5.890461   5.551875   3.392696
    37  C    3.051942   3.467184   3.010267   2.522097   4.060510
    38  C    4.240832   4.718449   2.963667   2.835062   5.058669
    39  C    4.682557   5.799034   3.601514   3.125520   5.670375
    40  H    2.437568   3.804297   3.520903   2.443157   3.922181
    41  H    3.708876   3.664559   3.931487   3.602156   4.804808
    42  H    5.068218   4.960804   3.078469   3.518276   5.600312
    43  H    5.717906   6.714495   4.126552   3.930443   6.565334
    44  H    4.299135   5.976238   4.043100   3.080690   5.544313
                   11         12         13         14         15
    11  O    0.000000
    12  C    4.624840   0.000000
    13  C    4.837990   1.524521   0.000000
    14  C    5.437419   3.045629   3.599533   0.000000
    15  O    4.188405   5.026181   5.362556   3.154159   0.000000
    16  Si   4.089710   5.842057   5.795365   4.384510   1.672729
    17  C    3.833804   6.963273   7.020297   5.930301   2.953629
    18  C    3.830741   5.243453   4.746729   4.519445   2.982546
    19  C    5.971657   7.290759   7.121580   5.291143   2.889342
    20  H    4.572498   4.946967   4.300962   4.044535   3.228332
    21  H    4.388883   6.207959   5.567707   5.583063   3.894073
    22  H    2.912986   4.621252   4.144505   4.522064   3.279886
    23  H    6.483157   7.087908   6.847915   4.882218   3.123124
    24  H    6.481658   7.906438   7.904733   5.701393   3.113424
    25  H    6.323772   7.987473   7.663633   6.213257   3.826801
    26  H    4.536337   7.793522   7.686545   6.787323   3.860471
    27  H    4.434163   7.484573   7.720681   6.219746   3.103963
    28  H    2.910699   6.596923   6.690834   6.041423   3.335373
    29  H    5.927539   4.094911   4.463752   1.095026   2.831279
    30  H    5.916747   2.801681   3.049579   1.094505   4.021539
    31  H    5.926641   3.247035   4.154005   1.094557   3.762082
    32  H    5.589603   1.095376   2.155017   2.769257   5.340565
    33  H    4.771407   1.097654   2.126037   4.062761   5.869662
    34  H    4.178818   2.177277   1.094338   4.292361   5.441740
    35  H    5.807083   2.158158   1.094913   4.375976   6.414725
    36  H    5.120652   2.180599   1.093424   3.107112   4.890747
    37  C    4.853296   4.676774   5.631856   2.900202   2.368942
    38  C    5.297377   6.055204   7.012358   4.379520   2.961550
    39  C    5.848787   6.703895   7.823659   5.387642   4.244006
    40  H    5.044242   4.266899   5.450527   2.987845   3.329240
    41  H    5.736141   5.026019   5.884780   2.618663   2.534466
    42  H    5.544681   6.724830   7.514002   4.817275   2.750024
    43  H    6.462533   7.747540   8.834623   6.398652   4.927325
    44  H    5.983304   6.393926   7.653022   5.419503   4.839354
                   16         17         18         19         20
    16  Si   0.000000
    17  C    1.879007   0.000000
    18  C    1.874268   3.055328   0.000000
    19  C    1.899638   3.025253   3.023222   0.000000
    20  H    2.483656   4.011114   1.093996   3.228182   0.000000
    21  H    2.476530   3.224027   1.094431   3.192455   1.768265
    22  H    2.492406   3.302895   1.092576   3.996355   1.774277
    23  H    2.497221   3.984975   3.235002   1.093736   3.058664
    24  H    2.497514   3.226678   3.982066   1.093727   4.242035
    25  H    2.499914   3.204797   3.194498   1.093721   3.492348
    26  H    2.481524   1.094301   3.317973   3.107053   4.291287
    27  H    2.484633   1.093909   4.006448   3.327613   4.872144
    28  H    2.494097   1.092934   3.211307   3.985252   4.244556
    29  H    4.030014   5.698160   4.407016   4.581304   3.884264
    30  H    5.010568   6.645129   4.770492   5.832984   4.102742
    31  H    5.194514   6.598120   5.509231   6.116065   5.110224
    32  H    6.338403   7.607973   5.881119   7.617696   5.449715
    33  H    6.661951   7.592489   6.036770   8.220393   5.845602
    34  H    5.625087   6.641401   4.397411   7.072973   4.135465
    35  H    6.845411   8.096018   5.712991   8.092678   5.185874
    36  H    5.254219   6.682955   4.181532   6.371170   3.541519
    37  C    4.000283   4.805441   5.088235   5.118155   5.210205
    38  C    4.368820   4.666433   5.808988   5.348877   6.131842
    39  C    5.580873   5.609510   6.977282   6.620769   7.356360
    40  H    4.923324   5.687080   5.786478   6.147749   5.857581
    41  H    4.192011   5.273916   5.308661   4.943464   5.250219
    42  H    3.919909   4.102067   5.581548   4.642047   5.964585
    43  H    6.098293   5.863954   7.624467   7.010386   8.086994
    44  H    6.256318   6.369219   7.466114   7.428669   7.790094
                   21         22         23         24         25
    21  H    0.000000
    22  H    1.766352   0.000000
    23  H    3.507641   4.253832   0.000000
    24  H    4.193329   4.868713   1.777319   0.000000
    25  H    2.977399   4.205656   1.777782   1.777826   0.000000
    26  H    3.115019   3.694630   4.132290   3.361839   2.902764
    27  H    4.254803   4.272031   4.317681   3.159275   3.642435
    28  H    3.427107   3.086556   4.859028   4.273082   4.158912
    29  H    5.411981   4.667409   4.063864   4.919295   5.550293
    30  H    5.777892   4.748335   5.297964   6.372406   6.666330
    31  H    6.588872   5.443045   5.745530   6.387731   7.095231
    32  H    6.883574   5.407467   7.293143   8.175061   8.393159
    33  H    6.954001   5.283137   8.089726   8.822560   8.889094
    34  H    5.104278   3.624363   6.932658   7.903732   7.500980
    35  H    6.466975   5.131171   7.746489   8.898515   8.610256
    36  H    5.004123   3.807128   5.985859   7.188081   6.910919
    37  C    6.096507   5.048195   5.216596   5.067966   6.123411
    38  C    6.694489   5.823022   5.669693   5.028169   6.309641
    39  C    7.849916   6.873296   6.992082   6.244334   7.544326
    40  H    6.833595   5.587416   6.195546   6.151222   7.139505
    41  H    6.310496   5.451780   4.851875   4.841759   6.012197
    42  H    6.359230   5.761058   5.063550   4.170140   5.570728
    43  H    8.414539   7.565599   7.481689   6.502201   7.876548
    44  H    8.397093   7.240970   7.730225   7.145704   8.368483
                   26         27         28         29         30
    26  H    0.000000
    27  H    1.772474   0.000000
    28  H    1.766094   1.775347   0.000000
    29  H    6.492207   5.922600   6.006189   0.000000
    30  H    7.421916   7.054969   6.729123   1.755779   0.000000
    31  H    7.530091   6.753877   6.666680   1.779636   1.763615
    32  H    8.466755   8.051324   7.350734   3.834989   2.374560
    33  H    8.431878   8.104122   7.094618   5.132413   3.862410
    34  H    7.236508   7.425367   6.198048   5.091381   3.905681
    35  H    8.732742   8.811334   7.759007   5.245095   3.647148
    36  H    7.296375   7.396343   6.515900   3.788057   2.434663
    37  C    5.855743   4.621815   4.890297   2.968257   3.983639
    38  C    5.705226   4.154780   4.804161   4.286583   5.470137
    39  C    6.645711   5.001227   5.599986   5.431796   6.457167
    40  H    6.758521   5.544839   5.617726   3.368412   3.980387
    41  H    6.251530   5.084312   5.543982   2.369840   3.690407
    42  H    5.058951   3.447748   4.446530   4.508754   5.895288
    43  H    6.829933   5.095338   5.894843   6.357703   7.479867
    44  H    7.437056   5.866995   6.231071   5.647962   6.430440
                   31         32         33         34         35
    31  H    0.000000
    32  H    2.736739   0.000000
    33  H    4.107607   1.758201   0.000000
    34  H    4.919089   3.074833   2.489568   0.000000
    35  H    4.825901   2.475807   2.434065   1.767975   0.000000
    36  H    3.866629   2.522507   3.056125   1.773521   1.765902
    37  C    2.734956   4.724078   5.336887   5.951458   6.583082
    38  C    4.198612   6.174514   6.615425   7.212822   7.997032
    39  C    5.014427   6.810493   7.091756   8.009067   8.766801
    40  H    2.493961   4.223294   4.783080   5.845546   6.315260
    41  H    2.422057   4.881656   5.812502   6.341560   6.779475
    42  H    4.818823   6.887658   7.366036   7.656536   8.537294
    43  H    6.061295   7.887255   8.115984   8.964450   9.798574
    44  H    4.883733   6.447113   6.655254   7.886669   8.524360
                   36         37         38         39         40
    36  H    0.000000
    37  C    5.443793   0.000000
    38  C    6.849482   1.511029   0.000000
    39  C    7.803715   2.522984   1.338969   0.000000
    40  H    5.433887   1.097280   2.146524   2.640539   0.000000
    41  H    5.530607   1.097266   2.090346   3.156187   1.766765
    42  H    7.233950   2.220947   1.089218   2.097605   3.102993
    43  H    8.801544   3.507180   2.110107   1.086276   3.723156
    44  H    7.755334   2.788787   2.124305   1.085315   2.451370
                   41         42         43         44
    41  H    0.000000
    42  H    2.515449   0.000000
    43  H    4.054709   2.422116   0.000000
    44  H    3.477123   3.079109   1.855365   0.000000
 Stoichiometry    C14H26O3Si
 Framework group  C1[X(C14H26O3Si)]
 Deg. of freedom   126
 Full point group                 C1      NOp   1
 Largest Abelian subgroup         C1      NOp   1
 Largest concise Abelian subgroup C1      NOp   1
                         Standard orientation:                         
 ---------------------------------------------------------------------
 Center     Atomic      Atomic             Coordinates (Angstroms)
 Number     Number       Type             X           Y           Z
 ---------------------------------------------------------------------
      1          6           0       -2.355463    0.341721    0.071550
      2          6           0       -1.161156    0.079819   -0.860452
      3          6           0        0.111055    0.789122   -0.273977
      4          6           0        0.027561    0.920220    1.263109
      5          6           0       -0.841872   -0.120596    1.902771
      6          1           0       -2.496294    1.418160    0.231764
      7          1           0       -0.971144   -0.997485   -0.839378
      8          1           0        1.016761    0.897472    1.727843
      9          1           0       -0.429025    1.874387    1.559700
     10          8           0       -2.071633   -0.264211    1.353960
     11          8           0       -0.501902   -0.748361    2.898264
     12          6           0       -3.704010   -0.228204   -0.397958
     13          6           0       -3.724227   -1.742768   -0.570730
     14          6           0       -1.438710    0.409939   -2.331101
     15          8           0        1.294381    0.135117   -0.780807
     16         14           0        2.043265   -1.267242   -0.260631
     17          6           0        2.991539   -1.020158    1.342614
     18          6           0        0.890807   -2.732686   -0.067776
     19          6           0        3.326667   -1.760393   -1.571472
     20          1           0        0.379699   -2.952450   -1.009742
     21          1           0        1.455647   -3.624072    0.222338
     22          1           0        0.136330   -2.551774    0.701483
     23          1           0        2.834137   -1.943568   -2.530700
     24          1           0        4.059888   -0.959313   -1.701459
     25          1           0        3.851151   -2.670464   -1.266654
     26          1           0        3.673121   -1.858818    1.514636
     27          1           0        3.583936   -0.101451    1.301633
     28          1           0        2.315715   -0.960170    2.199450
     29          1           0       -0.533870    0.293972   -2.936823
     30          1           0       -2.187033   -0.268210   -2.753080
     31          1           0       -1.816118    1.429924   -2.454584
     32          1           0       -4.016428    0.252227   -1.331462
     33          1           0       -4.463559    0.023383    0.353464
     34          1           0       -3.459622   -2.254779    0.359540
     35          1           0       -4.728490   -2.071190   -0.857836
     36          1           0       -3.033161   -2.070660   -1.352070
     37          6           0        0.235105    2.253102   -0.843730
     38          6           0        1.384507    3.051606   -0.274104
     39          6           0        1.251774    4.221941    0.362713
     40          1           0       -0.706275    2.794501   -0.686527
     41          1           0        0.412614    2.217103   -1.925945
     42          1           0        2.380811    2.635004   -0.416294
     43          1           0        2.124233    4.747887    0.739794
     44          1           0        0.283033    4.685426    0.519659
 ---------------------------------------------------------------------
 Rotational constants (GHZ):      0.4167875      0.3202271      0.2644288
 Standard basis: 6-311G(d) (5D, 7F)
 There are   428 symmetry adapted cartesian basis functions of A   symmetry.
 There are   410 symmetry adapted basis functions of A   symmetry.
   410 basis functions,   720 primitive gaussians,   428 cartesian basis functions
    74 alpha electrons       74 beta electrons
       nuclear repulsion energy      1649.8370572851 Hartrees.
 NAtoms=   44 NActive=   44 NUniq=   44 SFac= 1.00D+00 NAtFMM=   60 NAOKFM=F Big=F
 Integral buffers will be    131072 words long.
 Raffenetti 2 integral format.
 Two-electron integral symmetry is turned on.
 ------------------------------------------------------------------------------
 Polarizable Continuum Model (PCM)
 =================================
 Model                : PCM (using non-symmetric T matrix).
 Atomic radii         : UFF (Universal Force Field).
 Polarization charges : Total charges.
 Charge compensation  : None.
 Solution method      : On-the-fly selection.
 Cavity type          : Scaled VdW (van der Waals Surface) (Alpha=1.100).
 Cavity algorithm     : GePol (No added spheres)
                        Default sphere list used, NSphG=   44.
                        Lebedev-Laikov grids with approx.  5.0 points / Ang**2.
                        Smoothing algorithm: Karplus/York (Gamma=1.0000).
                        Polarization charges: spherical gaussians, with
                                              point-specific exponents (IZeta= 3).
                        Self-potential: point-specific (ISelfS= 7).
                        Self-field    : sphere-specific E.n sum rule (ISelfD= 2).
 Solvent              : Chloroform, Eps=   4.711300 Eps(inf)=   2.090627
 ------------------------------------------------------------------------------
 One-electron integrals computed using PRISM.
 NBasis=   410 RedAO= T EigKep=  6.34D-04  NBF=   410
 NBsUse=   410 1.00D-06 EigRej= -1.00D+00 NBFU=   410
 ExpMin= 6.54D-02 ExpMax= 6.94D+04 ExpMxC= 2.33D+03 IAcc=2 IRadAn=         4 AccDes= 0.00D+00
 Harris functional with IExCor=  908 and IRadAn=       4 diagonalized for initial guess.
 HarFok:  IExCor=  908 AccDes= 0.00D+00 IRadAn=         4 IDoV= 1 UseB2=F ITyADJ=14
 ICtDFT=  3500011 ScaDFX=  1.000000  1.000000  1.000000  1.000000
 FoFCou: FMM=F IPFlag=           0 FMFlag=      100000 FMFlg1=           0
         NFxFlg=           0 DoJE=T BraDBF=F KetDBF=T FulRan=T
         wScrn=  0.000000 ICntrl=     500 IOpCl=  0 I1Cent=   200000004 NGrid=           0
         NMat0=    1 NMatS0=      1 NMatT0=    0 NMatD0=    1 NMtDS0=    0 NMtDT0=    0
 Petite list used in FoFCou.
 Requested convergence on RMS density matrix=1.00D-08 within 128 cycles.
 Requested convergence on MAX density matrix=1.00D-06.
 Requested convergence on             energy=1.00D-06.
 No special actions if energy rises.
 Inv3:  Mode=1 IEnd=    24026700.
 Iteration    1 A*A^-1 deviation from unit magnitude is 7.99D-15 for   2281.
 Iteration    1 A*A^-1 deviation from orthogonality  is 7.99D-15 for   2006     18.
 Iteration    1 A^-1*A deviation from unit magnitude is 7.55D-15 for   1020.
 Iteration    1 A^-1*A deviation from orthogonality  is 9.67D-12 for   2726   2651.
 Error on total polarization charges =  0.01124
 SCF Done:  E(RmPW1PW91) =  -1064.37593318     A.U. after   13 cycles
            NFock= 13  Conv=0.35D-08     -V/T= 2.0037
 DoSCS=F DFT=T ScalE2(SS,OS)=  1.000000  1.000000
 Range of M.O.s used for correlation:     1   410
 NBasis=   410 NAE=    74 NBE=    74 NFC=     0 NFV=     0
 NROrb=    410 NOA=    74 NOB=    74 NVA=   336 NVB=   336
 NEqPCM:  Using equilibrium solvation (IEInf=0, Eps=   4.7113, EpsInf=   2.0906)
          Differentiating once with respect to magnetic field using GIAOs.
          Electric field/nuclear overlap derivatives assumed to be zero.
 FoFJK:  IHMeth= 1 ICntrl=    6127 DoSepK=F KAlg= 0 I1Cent=   0 FoldK=F
 IRaf=         1 NMat=   1 IRICut=       1 DoRegI=T DoRafI=F ISym2E= 0.
          There are     3 degrees of freedom in the 1st order CPHF.  IDoFFX=0 NUNeed=     3.
      3 vectors produced by pass  0 Test12= 8.29D-13 3.33D-08 XBig12= 3.44D+01 1.10D+00.
 AX will form     3 AO Fock derivatives at one time.
      3 vectors produced by pass  1 Test12= 8.29D-13 3.33D-08 XBig12= 6.11D-02 9.42D-02.
      3 vectors produced by pass  2 Test12= 8.29D-13 3.33D-08 XBig12= 3.91D-04 6.55D-03.
      3 vectors produced by pass  3 Test12= 8.29D-13 3.33D-08 XBig12= 1.80D-06 3.63D-04.
      3 vectors produced by pass  4 Test12= 8.29D-13 3.33D-08 XBig12= 7.22D-09 3.33D-05.
      3 vectors produced by pass  5 Test12= 8.29D-13 3.33D-08 XBig12= 2.27D-11 8.75D-07.
      2 vectors produced by pass  6 Test12= 8.29D-13 3.33D-08 XBig12= 8.03D-14 5.47D-08.
 InvSVY:  IOpt=1 It=  1 EMax= 8.88D-16
 Solved reduced A of dimension    20 with     3 vectors.
 Calculating GIAO nuclear magnetic shielding tensors.
 SCF GIAO Magnetic shielding tensor (ppm):
      1  C    Isotropic =   108.0712   Anisotropy =    54.6848
   XX=   101.5624   YX=     3.5076   ZX=     3.3054
   XY=    -0.9370   YY=    86.9901   ZY=   -21.8664
   XZ=     9.5588   YZ=   -21.1541   ZZ=   135.6613
   Eigenvalues:    78.3147   101.3712   144.5278
      2  C    Isotropic =   141.8710   Anisotropy =    21.7200
   XX=   156.1588   YX=    -0.6844   ZX=    -5.4440
   XY=    -3.2253   YY=   135.7673   ZY=    -7.6061
   XZ=     5.6817   YZ=     2.0290   ZZ=   133.6870
   Eigenvalues:   131.7077   137.5543   156.3510
      3  C    Isotropic =   104.0909   Anisotropy =    59.1709
   XX=   129.7438   YX=   -25.9112   ZX=    -8.0072
   XY=   -20.6726   YY=    97.3188   ZY=     7.3328
   XZ=    -5.5332   YZ=     8.7415   ZZ=    85.2100
   Eigenvalues:    80.3563    88.3782   143.5382
      4  C    Isotropic =   143.0225   Anisotropy =    22.9739
   XX=   144.5595   YX=     5.7963   ZX=    -5.4853
   XY=     4.3705   YY=   135.2187   ZY=   -12.3357
   XZ=    -6.5067   YZ=    -6.6336   ZZ=   149.2892
   Eigenvalues:   130.1603   140.5688   158.3384
      5  C    Isotropic =     5.0718   Anisotropy =   105.2802
   XX=   -69.7944   YX=   -54.9810   ZX=   -19.8945
   XY=   -45.0011   YY=    40.3292   ZY=    14.9168
   XZ=   -30.8606   YZ=    10.6099   ZZ=    44.6807
   Eigenvalues:   -91.8264    31.7832    75.2586
      6  H    Isotropic =    27.9956   Anisotropy =     2.8764
   XX=    29.4198   YX=    -0.4205   ZX=     0.3517
   XY=    -0.4055   YY=    29.4956   ZY=     1.2500
   XZ=     0.0612   YZ=     0.2655   ZZ=    25.0714
   Eigenvalues:    24.9287    29.1448    29.9132
      7  H    Isotropic =    29.9738   Anisotropy =     6.5709
   XX=    31.6773   YX=    -2.1343   ZX=     1.4476
   XY=    -1.9755   YY=    32.2765   ZY=    -0.5926
   XZ=     1.6480   YZ=    -0.9049   ZZ=    25.9677
   Eigenvalues:    25.5670    30.0001    34.3544
      8  H    Isotropic =    29.3754   Anisotropy =     4.9676
   XX=    30.3446   YX=    -1.6196   ZX=     2.7980
   XY=    -0.9056   YY=    28.0773   ZY=    -0.0915
   XZ=     1.5665   YZ=    -1.4201   ZZ=    29.7042
   Eigenvalues:    27.4585    27.9805    32.6871
      9  H    Isotropic =    29.5152   Anisotropy =     5.4283
   XX=    27.0549   YX=    -0.2855   ZX=    -1.9083
   XY=     0.0827   YY=    32.0022   ZY=     1.6780
   XZ=    -1.3244   YZ=     2.0810   ZZ=    29.4886
   Eigenvalues:    26.1397    29.2719    33.1341
     10  O    Isotropic =    87.1977   Anisotropy =   193.5865
   XX=   182.7408   YX=    18.2648   ZX=   -68.9640
   XY=   -13.2690   YY=    98.1743   ZY=   148.9429
   XZ=   -25.7467   YZ=   140.1427   ZZ=   -19.3221
   Eigenvalues:  -122.0627   167.4003   216.2553
     11  O    Isotropic =  -116.8477   Anisotropy =   586.4241
   XX=  -262.7164   YX=   -87.6688   ZX=  -223.8973
   XY=   -97.6302   YY=    39.0232   ZY=   227.3577
   XZ=  -201.7417   YZ=   225.9030   ZZ=  -126.8499
   Eigenvalues:  -428.2664  -196.3784   274.1017
     12  C    Isotropic =   161.4388   Anisotropy =    20.6290
   XX=   169.3296   YX=     4.5199   ZX=     7.3029
   XY=    10.2989   YY=   160.3401   ZY=     3.8105
   XZ=     5.3667   YZ=    -2.4868   ZZ=   154.6467
   Eigenvalues:   151.6613   157.4636   175.1915
     13  C    Isotropic =   180.6991   Anisotropy =    11.9315
   XX=   179.8377   YX=     0.6774   ZX=    -0.4114
   XY=     0.8952   YY=   188.1192   ZY=     2.2656
   XZ=     0.8688   YZ=     2.8827   ZZ=   174.1402
   Eigenvalues:   173.6800   179.7638   188.6534
     14  C    Isotropic =   176.3864   Anisotropy =    12.7102
   XX=   174.5850   YX=     2.2640   ZX=     3.2804
   XY=     3.4809   YY=   171.9513   ZY=    -5.0073
   XZ=     1.8937   YZ=    -5.2019   ZZ=   182.6227
   Eigenvalues:   167.9006   176.3986   184.8599
     15  O    Isotropic =   243.0866   Anisotropy =    23.2135
   XX=   239.2597   YX=    13.9063   ZX=   -11.1031
   XY=     0.1789   YY=   241.1842   ZY=    17.4693
   XZ=    -3.3821   YZ=     8.2203   ZZ=   248.8158
   Eigenvalues:   224.7203   245.9772   258.5622
     16  Si   Isotropic =   334.2849   Anisotropy =    53.7041
   XX=   327.0668   YX=   -27.4510   ZX=     8.9226
   XY=   -18.0468   YY=   352.9613   ZY=   -17.1373
   XZ=     1.3382   YZ=    -8.2763   ZZ=   322.8265
   Eigenvalues:   313.2177   319.5494   370.0876
     17  C    Isotropic =   185.6055   Anisotropy =    10.7541
   XX=   182.2554   YX=    -2.6103   ZX=     8.0883
   XY=    -4.4881   YY=   186.9557   ZY=     2.0516
   XZ=     6.3573   YZ=     4.7940   ZZ=   187.6053
   Eigenvalues:   175.2051   188.8364   192.7749
     18  C    Isotropic =   185.5893   Anisotropy =     7.9576
   XX=   190.4020   YX=    -1.3331   ZX=     1.6962
   XY=     2.1480   YY=   187.6607   ZY=    -1.3937
   XZ=     3.2033   YZ=    -2.5867   ZZ=   178.7053
   Eigenvalues:   177.7947   188.0790   190.8944
     19  C    Isotropic =   185.6149   Anisotropy =    14.0562
   XX=   184.0426   YX=    -4.9952   ZX=    -7.9044
   XY=    -6.7729   YY=   182.2785   ZY=    -2.6762
   XZ=    -6.0469   YZ=    -4.0572   ZZ=   190.5236
   Eigenvalues:   174.0297   187.8294   194.9857
     20  H    Isotropic =    32.1083   Anisotropy =     6.9584
   XX=    32.1637   YX=     0.3740   ZX=     3.5578
   XY=     0.7002   YY=    31.4916   ZY=     2.9259
   XZ=     2.9716   YZ=     2.3417   ZZ=    32.6697
   Eigenvalues:    28.3420    31.2358    36.7473
     21  H    Isotropic =    32.2414   Anisotropy =    10.5468
   XX=    30.9704   YX=    -3.6937   ZX=     0.9323
   XY=    -3.0843   YY=    37.2754   ZY=    -2.0428
   XZ=     0.8020   YZ=    -2.3755   ZZ=    28.4784
   Eigenvalues:    27.9526    29.4989    39.2726
     22  H    Isotropic =    31.9770   Anisotropy =     7.7999
   XX=    33.6847   YX=    -2.1811   ZX=    -4.5590
   XY=    -1.1674   YY=    31.2515   ZY=     0.4062
   XZ=    -3.8198   YZ=     0.4445   ZZ=    30.9949
   Eigenvalues:    27.8088    30.9453    37.1770
     23  H    Isotropic =    32.0892   Anisotropy =     8.4099
   XX=    30.7653   YX=    -0.4209   ZX=     0.4895
   XY=    -0.6317   YY=    28.4426   ZY=     2.1034
   XZ=     1.4650   YZ=     2.3310   ZZ=    37.0595
   Eigenvalues:    27.7208    30.8509    37.6958
     24  H    Isotropic =    31.9719   Anisotropy =     8.9370
   XX=    34.7234   YX=     3.5657   ZX=    -2.6745
   XY=     3.1905   YY=    31.6794   ZY=    -0.3454
   XZ=    -3.2540   YZ=    -1.2271   ZZ=    29.5130
   Eigenvalues:    27.9711    30.0147    37.9299
     25  H    Isotropic =    32.3778   Anisotropy =     9.5605
   XX=    32.8740   YX=    -4.7040   ZX=    -0.4484
   XY=    -5.0531   YY=    34.6857   ZY=    -0.3984
   XZ=    -0.1784   YZ=    -0.8988   ZZ=    29.5737
   Eigenvalues:    28.4369    29.9450    38.7515
     26  H    Isotropic =    32.3131   Anisotropy =    10.3169
   XX=    33.6493   YX=    -4.5841   ZX=     2.6737
   XY=    -5.2638   YY=    32.7900   ZY=    -1.7539
   XZ=     2.5098   YZ=    -1.4257   ZZ=    30.4999
   Eigenvalues:    28.0614    29.6867    39.1910
     27  H    Isotropic =    32.0095   Anisotropy =     8.1385
   XX=    33.2392   YX=     3.6659   ZX=     1.6688
   XY=     3.3387   YY=    33.8127   ZY=     0.3500
   XZ=     2.0075   YZ=     1.2078   ZZ=    28.9766
   Eigenvalues:    28.2222    30.3711    37.4351
     28  H    Isotropic =    31.6732   Anisotropy =     7.1143
   XX=    32.5008   YX=    -1.0911   ZX=    -1.3489
   XY=    -1.9735   YY=    27.4271   ZY=     0.3301
   XZ=    -2.9199   YZ=     0.3224   ZZ=    35.0917
   Eigenvalues:    26.9911    31.6123    36.4161
     29  H    Isotropic =    30.7307   Anisotropy =     7.7281
   XX=    31.8497   YX=    -0.4876   ZX=    -2.1078
   XY=    -0.1125   YY=    25.8843   ZY=     0.4713
   XZ=    -2.6106   YZ=     0.5109   ZZ=    34.4581
   Eigenvalues:    25.8512    30.4582    35.8828
     30  H    Isotropic =    31.1717   Anisotropy =     8.8180
   XX=    31.5157   YX=     4.0837   ZX=     2.8275
   XY=     3.8907   YY=    28.7830   ZY=     1.4066
   XZ=     2.7611   YZ=     1.7988   ZZ=    33.2165
   Eigenvalues:    25.9177    30.5471    37.0504
     31  H    Isotropic =    31.3623   Anisotropy =     8.5816
   XX=    29.6438   YX=    -1.8501   ZX=     2.8782
   XY=    -1.6257   YY=    33.7564   ZY=    -3.1984
   XZ=     2.5853   YZ=    -3.4639   ZZ=    30.6867
   Eigenvalues:    27.2363    29.7672    37.0834
     32  H    Isotropic =    30.4121   Anisotropy =     7.3656
   XX=    32.1116   YX=    -0.8510   ZX=     2.8584
   XY=    -1.0954   YY=    29.0429   ZY=    -3.2582
   XZ=     2.7809   YZ=    -3.1677   ZZ=    30.0819
   Eigenvalues:    26.0668    29.8471    35.3225
     33  H    Isotropic =    30.1085   Anisotropy =     9.8378
   XX=    34.1307   YX=    -1.4799   ZX=    -4.0458
   XY=    -1.6497   YY=    28.8480   ZY=     2.6779
   XZ=    -3.4826   YZ=     2.7947   ZZ=    27.3467
   Eigenvalues:    24.6981    28.9602    36.6670
     34  H    Isotropic =    30.8071   Anisotropy =     7.4579
   XX=    28.5960   YX=     1.8058   ZX=     1.4608
   XY=     1.3949   YY=    32.6239   ZY=    -4.0513
   XZ=     1.4543   YZ=    -3.5215   ZZ=    31.2016
   Eigenvalues:    26.1637    30.4787    35.7791
     35  H    Isotropic =    31.2097   Anisotropy =    11.9709
   XX=    35.7192   YX=     4.3731   ZX=     2.1852
   XY=     4.9122   YY=    31.0508   ZY=     1.5931
   XZ=     2.4048   YZ=     1.4037   ZZ=    26.8589
   Eigenvalues:    26.2477    28.1910    39.1902
     36  H    Isotropic =    31.3003   Anisotropy =     5.9620
   XX=    31.6548   YX=     0.8067   ZX=    -2.7145
   XY=     0.2132   YY=    31.9066   ZY=     3.8351
   XZ=    -2.6498   YZ=     3.1555   ZZ=    30.3394
   Eigenvalues:    26.3921    32.2338    35.2749
     37  C    Isotropic =   137.2669   Anisotropy =    18.6855
   XX=   130.1820   YX=     4.6538   ZX=    -1.2194
   XY=    -4.2593   YY=   148.5885   ZY=    -8.0661
   XZ=     6.7428   YZ=    -0.5868   ZZ=   133.0301
   Eigenvalues:   128.1811   133.8957   149.7239
     38  C    Isotropic =    42.8851   Anisotropy =   181.5528
   XX=   -81.5794   YX=    10.7338   ZX=   -13.6296
   XY=     7.5321   YY=    76.5166   ZY=   -49.3928
   XZ=   -17.3426   YZ=   -50.3405   ZZ=   133.7181
   Eigenvalues:   -82.8961    47.6311   163.9203
     39  C    Isotropic =    65.0116   Anisotropy =   139.3687
   XX=   -47.7439   YX=     0.0090   ZX=   -21.1043
   XY=     0.5150   YY=   105.4132   ZY=   -29.0242
   XZ=   -23.5381   YZ=   -32.6388   ZZ=   137.3654
   Eigenvalues:   -50.4731    87.5838   157.9241
     40  H    Isotropic =    30.1322   Anisotropy =     6.6444
   XX=    30.2504   YX=    -1.1481   ZX=     1.1747
   XY=    -0.4376   YY=    34.4098   ZY=     0.1756
   XZ=     1.7524   YZ=    -0.0915   ZZ=    25.7363
   Eigenvalues:    25.2955    30.5392    34.5618
     41  H    Isotropic =    29.4021   Anisotropy =     3.7786
   XX=    27.1983   YX=     2.8428   ZX=     0.4090
   XY=     2.9436   YY=    29.5076   ZY=    -1.8654
   XZ=     0.9470   YZ=     0.1238   ZZ=    31.5003
   Eigenvalues:    25.0661    31.2190    31.9211
     42  H    Isotropic =    25.5830   Anisotropy =     7.3998
   XX=    23.9462   YX=     3.4216   ZX=     0.3262
   XY=     1.9873   YY=    29.3321   ZY=     0.9203
   XZ=    -0.5138   YZ=     0.5693   ZZ=    23.4706
   Eigenvalues:    22.6432    23.5896    30.5162
     43  H    Isotropic =    26.7098   Anisotropy =     7.0784
   XX=    23.7228   YX=     0.5038   ZX=    -0.2156
   XY=     2.7124   YY=    30.4185   ZY=     2.0531
   XZ=     0.8567   YZ=     1.6400   ZZ=    25.9880
   Eigenvalues:    23.3522    25.3484    31.4287
     44  H    Isotropic =    26.7858   Anisotropy =     7.4559
   XX=    22.9486   YX=     0.8663   ZX=     0.3411
   XY=    -1.0786   YY=    31.3165   ZY=     1.4103
   XZ=    -1.0961   YZ=     1.7288   ZZ=    26.0924
   Eigenvalues:    22.9031    25.6979    31.7564
 End of Minotr F.D. properties file   721 does not exist.
 End of Minotr F.D. properties file   722 does not exist.
 End of Minotr F.D. properties file   788 does not exist.

 **********************************************************************

            Population analysis using the SCF density.

 **********************************************************************

 Orbital symmetries:
       Occupied  (A) (A) (A) (A) (A) (A) (A) (A) (A) (A) (A) (A)
                 (A) (A) (A) (A) (A) (A) (A) (A) (A) (A) (A) (A)
                 (A) (A) (A) (A) (A) (A) (A) (A) (A) (A) (A) (A)
                 (A) (A) (A) (A) (A) (A) (A) (A) (A) (A) (A) (A)
                 (A) (A) (A) (A) (A) (A) (A) (A) (A) (A) (A) (A)
                 (A) (A) (A) (A) (A) (A) (A) (A) (A) (A) (A) (A)
                 (A) (A)
       Virtual   (A) (A) (A) (A) (A) (A) (A) (A) (A) (A) (A) (A)
                 (A) (A) (A) (A) (A) (A) (A) (A) (A) (A) (A) (A)
                 (A) (A) (A) (A) (A) (A) (A) (A) (A) (A) (A) (A)
                 (A) (A) (A) (A) (A) (A) (A) (A) (A) (A) (A) (A)
                 (A) (A) (A) (A) (A) (A) (A) (A) (A) (A) (A) (A)
                 (A) (A) (A) (A) (A) (A) (A) (A) (A) (A) (A) (A)
                 (A) (A) (A) (A) (A) (A) (A) (A) (A) (A) (A) (A)
                 (A) (A) (A) (A) (A) (A) (A) (A) (A) (A) (A) (A)
                 (A) (A) (A) (A) (A) (A) (A) (A) (A) (A) (A) (A)
                 (A) (A) (A) (A) (A) (A) (A) (A) (A) (A) (A) (A)
                 (A) (A) (A) (A) (A) (A) (A) (A) (A) (A) (A) (A)
                 (A) (A) (A) (A) (A) (A) (A) (A) (A) (A) (A) (A)
                 (A) (A) (A) (A) (A) (A) (A) (A) (A) (A) (A) (A)
                 (A) (A) (A) (A) (A) (A) (A) (A) (A) (A) (A) (A)
                 (A) (A) (A) (A) (A) (A) (A) (A) (A) (A) (A) (A)
                 (A) (A) (A) (A) (A) (A) (A) (A) (A) (A) (A) (A)
                 (A) (A) (A) (A) (A) (A) (A) (A) (A) (A) (A) (A)
                 (A) (A) (A) (A) (A) (A) (A) (A) (A) (A) (A) (A)
                 (A) (A) (A) (A) (A) (A) (A) (A) (A) (A) (A) (A)
                 (A) (A) (A) (A) (A) (A) (A) (A) (A) (A) (A) (A)
                 (A) (A) (A) (A) (A) (A) (A) (A) (A) (A) (A) (A)
                 (A) (A) (A) (A) (A) (A) (A) (A) (A) (A) (A) (A)
                 (A) (A) (A) (A) (A) (A) (A) (A) (A) (A) (A) (A)
                 (A) (A) (A) (A) (A) (A) (A) (A) (A) (A) (A) (A)
                 (A) (A) (A) (A) (A) (A) (A) (A) (A) (A) (A) (A)
                 (A) (A) (A) (A) (A) (A) (A) (A) (A) (A) (A) (A)
                 (A) (A) (A) (A) (A) (A) (A) (A) (A) (A) (A) (A)
                 (A) (A) (A) (A) (A) (A) (A) (A) (A) (A) (A) (A)
 The electronic state is 1-A.
 Alpha  occ. eigenvalues --  -66.26859 -19.26527 -19.21497 -19.20281 -10.37264
 Alpha  occ. eigenvalues --  -10.32568 -10.30940 -10.25649 -10.25508 -10.24209
 Alpha  occ. eigenvalues --  -10.24180 -10.24106 -10.23098 -10.22846 -10.22183
 Alpha  occ. eigenvalues --  -10.20551 -10.20392 -10.20215  -5.32689  -3.66538
 Alpha  occ. eigenvalues --   -3.66307  -3.66264  -1.13676  -1.05247  -1.04265
 Alpha  occ. eigenvalues --   -0.86070  -0.83439  -0.80506  -0.77992  -0.73992
 Alpha  occ. eigenvalues --   -0.72739  -0.72274  -0.70134  -0.69688  -0.67254
 Alpha  occ. eigenvalues --   -0.63045  -0.62359  -0.58377  -0.56073  -0.54603
 Alpha  occ. eigenvalues --   -0.52619  -0.51688  -0.49055  -0.48691  -0.46698
 Alpha  occ. eigenvalues --   -0.46057  -0.45706  -0.45056  -0.44452  -0.43104
 Alpha  occ. eigenvalues --   -0.42951  -0.42612  -0.42221  -0.42086  -0.41298
 Alpha  occ. eigenvalues --   -0.41115  -0.40272  -0.39781  -0.39304  -0.38827
 Alpha  occ. eigenvalues --   -0.38457  -0.37993  -0.37799  -0.36576  -0.36252
 Alpha  occ. eigenvalues --   -0.35698  -0.35106  -0.33450  -0.32418  -0.31370
 Alpha  occ. eigenvalues --   -0.30041  -0.28817  -0.28683  -0.27192
 Alpha virt. eigenvalues --   -0.00192   0.01133   0.03915   0.05063   0.05620
 Alpha virt. eigenvalues --    0.06713   0.07381   0.08085   0.08566   0.08765
 Alpha virt. eigenvalues --    0.10060   0.10463   0.10621   0.10814   0.11324
 Alpha virt. eigenvalues --    0.11984   0.12474   0.12693   0.13190   0.13406
 Alpha virt. eigenvalues --    0.14085   0.14300   0.14898   0.15211   0.15993
 Alpha virt. eigenvalues --    0.16206   0.16585   0.17218   0.17386   0.17910
 Alpha virt. eigenvalues --    0.18502   0.19370   0.19558   0.20152   0.20493
 Alpha virt. eigenvalues --    0.20904   0.22065   0.23768   0.24027   0.24658
 Alpha virt. eigenvalues --    0.25767   0.26089   0.26406   0.27248   0.27779
 Alpha virt. eigenvalues --    0.29691   0.31171   0.31616   0.31954   0.32530
 Alpha virt. eigenvalues --    0.33055   0.33786   0.34832   0.35002   0.35598
 Alpha virt. eigenvalues --    0.36817   0.38174   0.38889   0.39680   0.40326
 Alpha virt. eigenvalues --    0.41922   0.42900   0.43309   0.44876   0.45115
 Alpha virt. eigenvalues --    0.45183   0.45955   0.46307   0.47577   0.47913
 Alpha virt. eigenvalues --    0.49219   0.50092   0.51226   0.52077   0.52794
 Alpha virt. eigenvalues --    0.53273   0.53998   0.55088   0.55673   0.55979
 Alpha virt. eigenvalues --    0.57016   0.57559   0.57886   0.58190   0.58479
 Alpha virt. eigenvalues --    0.58999   0.59256   0.59633   0.60815   0.60969
 Alpha virt. eigenvalues --    0.61323   0.62085   0.62674   0.62769   0.62997
 Alpha virt. eigenvalues --    0.63728   0.63813   0.64140   0.65254   0.65767
 Alpha virt. eigenvalues --    0.65906   0.67009   0.67315   0.67717   0.67919
 Alpha virt. eigenvalues --    0.68890   0.69082   0.70047   0.70712   0.71164
 Alpha virt. eigenvalues --    0.71672   0.72519   0.73127   0.73724   0.74608
 Alpha virt. eigenvalues --    0.76183   0.76854   0.78739   0.81151   0.81523
 Alpha virt. eigenvalues --    0.83012   0.83651   0.85260   0.88102   0.89677
 Alpha virt. eigenvalues --    0.90436   0.90830   0.93279   0.94484   0.94698
 Alpha virt. eigenvalues --    0.95789   0.96505   0.98183   0.98683   1.01246
 Alpha virt. eigenvalues --    1.02354   1.02883   1.05365   1.07211   1.10915
 Alpha virt. eigenvalues --    1.13908   1.14732   1.15864   1.19051   1.19712
 Alpha virt. eigenvalues --    1.21608   1.22835   1.26677   1.27436   1.28144
 Alpha virt. eigenvalues --    1.28626   1.30545   1.31344   1.33845   1.34826
 Alpha virt. eigenvalues --    1.36589   1.37746   1.38141   1.41141   1.41665
 Alpha virt. eigenvalues --    1.43110   1.43949   1.45734   1.47690   1.48366
 Alpha virt. eigenvalues --    1.49183   1.51208   1.51835   1.52891   1.53681
 Alpha virt. eigenvalues --    1.54930   1.55359   1.55662   1.57575   1.58489
 Alpha virt. eigenvalues --    1.58591   1.59273   1.60067   1.60628   1.60834
 Alpha virt. eigenvalues --    1.61393   1.62465   1.62701   1.63822   1.64613
 Alpha virt. eigenvalues --    1.65585   1.66708   1.67950   1.69168   1.69826
 Alpha virt. eigenvalues --    1.70960   1.72356   1.72463   1.74105   1.74812
 Alpha virt. eigenvalues --    1.76376   1.77894   1.78908   1.80058   1.80666
 Alpha virt. eigenvalues --    1.81498   1.83046   1.84537   1.85555   1.87360
 Alpha virt. eigenvalues --    1.89362   1.91471   1.94324   1.95517   1.97270
 Alpha virt. eigenvalues --    2.00395   2.01913   2.02594   2.08088   2.11895
 Alpha virt. eigenvalues --    2.15540   2.15848   2.18550   2.21733   2.23921
 Alpha virt. eigenvalues --    2.27593   2.30508   2.35084   2.37678   2.40322
 Alpha virt. eigenvalues --    2.41247   2.41691   2.42569   2.42903   2.44183
 Alpha virt. eigenvalues --    2.44759   2.45154   2.45946   2.47270   2.47581
 Alpha virt. eigenvalues --    2.48691   2.49813   2.50160   2.51177   2.52317
 Alpha virt. eigenvalues --    2.53262   2.53881   2.55556   2.56820   2.58743
 Alpha virt. eigenvalues --    2.60774   2.66195   2.68516   2.72713   2.80246
 Alpha virt. eigenvalues --    2.81611   2.87586   2.88697   2.90496   2.91312
 Alpha virt. eigenvalues --    2.91626   2.92419   2.92993   2.95151   2.97016
 Alpha virt. eigenvalues --    2.99120   3.01416   3.01701   3.03948   3.07248
 Alpha virt. eigenvalues --    3.09901   3.10944   3.11451   3.12930   3.14794
 Alpha virt. eigenvalues --    3.15530   3.17383   3.18580   3.21094   3.22173
 Alpha virt. eigenvalues --    3.22784   3.23119   3.23687   3.24334   3.25673
 Alpha virt. eigenvalues --    3.27435   3.28140   3.29297   3.30751   3.32373
 Alpha virt. eigenvalues --    3.33746   3.34383   3.35556   3.39688   3.40448
 Alpha virt. eigenvalues --    3.45209   3.51840   3.55655   3.59046   3.61747
 Alpha virt. eigenvalues --    3.75670   3.87633   3.92977   3.94930   4.04832
 Alpha virt. eigenvalues --    4.08413   4.09970   4.17467   4.23821   4.25230
 Alpha virt. eigenvalues --    4.96623   5.01573   5.02235   5.09187   5.15102
 Alpha virt. eigenvalues --    5.25760   5.50641   5.52349   5.76997   5.85437
 Alpha virt. eigenvalues --   11.51923  11.54687  11.60333  23.42254  23.49653
 Alpha virt. eigenvalues --   23.54593  23.55656  23.57910  23.61670  23.72742
 Alpha virt. eigenvalues --   23.74609  23.77826  23.80573  23.81577  23.84887
 Alpha virt. eigenvalues --   23.90956  24.27192  49.99267  50.05413  50.11745
 Alpha virt. eigenvalues --  141.28856
          Condensed to atoms (all electrons):
               1          2          3          4          5          6
     1  C    5.231451   0.275744  -0.066621  -0.024492  -0.068165   0.394419
     2  C    0.275744   5.488476   0.360208  -0.057024  -0.013684  -0.050613
     3  C   -0.066621   0.360208   5.123130   0.213720  -0.030927  -0.010804
     4  C   -0.024492  -0.057024   0.213720   5.909254   0.252799   0.003891
     5  C   -0.068165  -0.013684  -0.030927   0.252799   4.424948  -0.006003
     6  H    0.394419  -0.050613  -0.010804   0.003891  -0.006003   0.478903
     7  H   -0.047130   0.401179  -0.051483  -0.000757  -0.000295   0.007811
     8  H    0.000415   0.004284  -0.023669   0.375713  -0.026383  -0.000143
     9  H   -0.000684   0.002310  -0.031804   0.363241  -0.029483   0.000694
    10  O    0.198722  -0.031060   0.000027  -0.103082   0.338376  -0.028089
    11  O    0.003571  -0.001728   0.004609  -0.099744   0.639401  -0.000220
    12  C    0.337431  -0.049214   0.006743  -0.000952   0.002967  -0.048049
    13  C   -0.081535  -0.005786  -0.000212  -0.000045  -0.000111   0.007978
    14  C   -0.056753   0.275952  -0.053963   0.006172   0.000155   0.002624
    15  O    0.004312  -0.048768   0.223184  -0.034457   0.001205   0.000093
    16  Si   0.003248  -0.010391  -0.043835  -0.025777   0.001108  -0.000236
    17  C    0.000041  -0.000335  -0.001793   0.002694  -0.000709   0.000000
    18  C    0.000118  -0.001383   0.000325  -0.000463   0.000540  -0.000016
    19  C   -0.000001  -0.000264   0.002402  -0.000210  -0.000014   0.000000
    20  H    0.000043  -0.000529   0.000325   0.000127   0.000010  -0.000017
    21  H   -0.000022   0.000352  -0.000088   0.000046   0.000011   0.000001
    22  H   -0.000632  -0.000146   0.000032   0.001547   0.005125  -0.000010
    23  H   -0.000001   0.000022  -0.000036  -0.000027   0.000002   0.000000
    24  H    0.000001  -0.000018  -0.000097  -0.000044   0.000003   0.000000
    25  H    0.000000   0.000003  -0.000060  -0.000002   0.000002   0.000000
    26  H    0.000000   0.000002  -0.000048   0.000298  -0.000034   0.000000
    27  H    0.000005  -0.000051   0.000374  -0.000064   0.000106   0.000000
    28  H    0.000001  -0.000007   0.000499  -0.004382   0.000902  -0.000001
    29  H    0.006263  -0.037497  -0.004443   0.000709  -0.000088  -0.000348
    30  H   -0.007720  -0.030134   0.006734  -0.000233  -0.000011  -0.000496
    31  H   -0.003310  -0.040109  -0.009254  -0.000133   0.000003   0.002556
    32  H   -0.034495  -0.008050  -0.000231   0.000080  -0.000041   0.000035
    33  H   -0.044579   0.008500  -0.000126   0.000090  -0.000213  -0.007440
    34  H   -0.008966  -0.000428  -0.000239   0.000435   0.000388   0.000483
    35  H    0.008479  -0.000288   0.000003  -0.000001   0.000012  -0.000173
    36  H   -0.008526   0.006134   0.000437  -0.000014  -0.000055  -0.000472
    37  C   -0.000750  -0.078305   0.301410  -0.084550   0.004494   0.004896
    38  C   -0.000369   0.007659  -0.050756  -0.024559   0.000525  -0.000159
    39  C   -0.000029  -0.000073  -0.003109   0.001977   0.000034  -0.000047
    40  H    0.000916  -0.001507  -0.041301   0.000683  -0.000433   0.004631
    41  H    0.000635  -0.011085  -0.035896   0.007399  -0.000153  -0.000064
    42  H   -0.000017   0.000041  -0.001938  -0.000290  -0.000019   0.000004
    43  H   -0.000001   0.000017  -0.000341   0.000094   0.000000  -0.000004
    44  H   -0.000006  -0.000049   0.000101  -0.000074  -0.000005   0.000010
               7          8          9         10         11         12
     1  C   -0.047130   0.000415  -0.000684   0.198722   0.003571   0.337431
     2  C    0.401179   0.004284   0.002310  -0.031060  -0.001728  -0.049214
     3  C   -0.051483  -0.023669  -0.031804   0.000027   0.004609   0.006743
     4  C   -0.000757   0.375713   0.363241  -0.103082  -0.099744  -0.000952
     5  C   -0.000295  -0.026383  -0.029483   0.338376   0.639401   0.002967
     6  H    0.007811  -0.000143   0.000694  -0.028089  -0.000220  -0.048049
     7  H    0.461793  -0.000239  -0.000304   0.004147  -0.001088  -0.010563
     8  H   -0.000239   0.387298  -0.015727   0.003646   0.002099   0.000075
     9  H   -0.000304  -0.015727   0.410017   0.000248   0.001456   0.000153
    10  O    0.004147   0.003646   0.000248   8.035707  -0.065306  -0.051673
    11  O   -0.001088   0.002099   0.001456  -0.065306   7.885634  -0.000087
    12  C   -0.010563   0.000075   0.000153  -0.051673  -0.000087   5.314138
    13  C    0.003742   0.000003  -0.000006  -0.001007  -0.000036   0.293102
    14  C   -0.042992  -0.000058  -0.000259   0.004732  -0.000010  -0.008214
    15  O   -0.003290  -0.003722   0.002627  -0.000040   0.000011  -0.000083
    16  Si  -0.003075  -0.005555   0.002917  -0.002365   0.007474  -0.000029
    17  C   -0.000190  -0.002175   0.000023  -0.000007  -0.003577   0.000000
    18  C   -0.006667   0.000274  -0.000020  -0.000058  -0.002403  -0.000056
    19  C   -0.000418  -0.000127   0.000009   0.000000   0.000001   0.000000
    20  H   -0.002198  -0.000011   0.000008  -0.000097   0.000084   0.000024
    21  H    0.001064   0.000014  -0.000001   0.000001  -0.000004   0.000001
    22  H   -0.003297  -0.000108   0.000068  -0.000443   0.004668  -0.000021
    23  H   -0.000059  -0.000009   0.000001   0.000000   0.000000   0.000000
    24  H   -0.000011  -0.000025   0.000001   0.000000   0.000000   0.000000
    25  H    0.000007   0.000006   0.000000   0.000000   0.000001   0.000000
    26  H    0.000001   0.000456  -0.000009   0.000000  -0.000031   0.000000
    27  H   -0.000003   0.000060  -0.000058  -0.000002  -0.000063   0.000000
    28  H   -0.000063   0.001868   0.000242   0.000209   0.013179   0.000002
    29  H   -0.004873  -0.000018  -0.000032  -0.000150   0.000000   0.000268
    30  H   -0.009200   0.000012   0.000021   0.000049   0.000000   0.001364
    31  H    0.007769  -0.000007  -0.000048   0.000029  -0.000001  -0.001961
    32  H    0.000425  -0.000004  -0.000009   0.003061   0.000005   0.389395
    33  H   -0.000539  -0.000008  -0.000025   0.002381  -0.000016   0.403472
    34  H    0.000217  -0.000011  -0.000008   0.011189   0.000089  -0.041019
    35  H    0.000283   0.000000   0.000000  -0.000071  -0.000001  -0.036782
    36  H   -0.002937   0.000000   0.000001  -0.000525   0.000004  -0.035650
    37  C    0.006387  -0.003764  -0.009821  -0.000407  -0.000106  -0.000543
    38  C   -0.000183   0.001973   0.001185  -0.000026  -0.000020   0.000009
    39  C   -0.000005   0.001055   0.004463   0.000000   0.000001   0.000000
    40  H    0.000372   0.000291  -0.001619  -0.000129   0.000006   0.000020
    41  H   -0.000283  -0.000073   0.001113  -0.000021   0.000005  -0.000011
    42  H    0.000014   0.000133   0.000004   0.000001   0.000000   0.000001
    43  H   -0.000001   0.000046   0.000044   0.000000   0.000000   0.000000
    44  H    0.000001  -0.000016   0.000407   0.000002   0.000000   0.000000
              13         14         15         16         17         18
     1  C   -0.081535  -0.056753   0.004312   0.003248   0.000041   0.000118
     2  C   -0.005786   0.275952  -0.048768  -0.010391  -0.000335  -0.001383
     3  C   -0.000212  -0.053963   0.223184  -0.043835  -0.001793   0.000325
     4  C   -0.000045   0.006172  -0.034457  -0.025777   0.002694  -0.000463
     5  C   -0.000111   0.000155   0.001205   0.001108  -0.000709   0.000540
     6  H    0.007978   0.002624   0.000093  -0.000236   0.000000  -0.000016
     7  H    0.003742  -0.042992  -0.003290  -0.003075  -0.000190  -0.006667
     8  H    0.000003  -0.000058  -0.003722  -0.005555  -0.002175   0.000274
     9  H   -0.000006  -0.000259   0.002627   0.002917   0.000023  -0.000020
    10  O   -0.001007   0.004732  -0.000040  -0.002365  -0.000007  -0.000058
    11  O   -0.000036  -0.000010   0.000011   0.007474  -0.003577  -0.002403
    12  C    0.293102  -0.008214  -0.000083  -0.000029   0.000000  -0.000056
    13  C    5.382203  -0.002198  -0.000001  -0.000216   0.000000   0.000081
    14  C   -0.002198   5.434105  -0.001449  -0.001308   0.000005   0.000597
    15  O   -0.000001  -0.001449   8.248391   0.357354  -0.024641  -0.023127
    16  Si  -0.000216  -0.001308   0.357354  11.541956   0.316351   0.320161
    17  C    0.000000   0.000005  -0.024641   0.316351   5.807885  -0.056713
    18  C    0.000081   0.000597  -0.023127   0.320161  -0.056713   5.817048
    19  C    0.000000   0.000003  -0.022159   0.333510  -0.054932  -0.053362
    20  H    0.000171   0.000185  -0.001894  -0.027249   0.002529   0.367865
    21  H   -0.000003  -0.000016   0.000735  -0.009558   0.000109   0.366785
    22  H    0.000190   0.000145  -0.000959  -0.025341  -0.001700   0.359534
    23  H    0.000000  -0.000001  -0.001361  -0.028212   0.002669  -0.000748
    24  H    0.000000  -0.000006  -0.001270  -0.026857  -0.000506   0.002590
    25  H    0.000000  -0.000002   0.000909  -0.014049   0.000460  -0.000250
    26  H    0.000000   0.000000   0.000856  -0.011659   0.365283   0.000780
    27  H    0.000000   0.000001  -0.002183  -0.025622   0.368005   0.002313
    28  H    0.000000  -0.000001  -0.001130  -0.027308   0.358414  -0.001839
    29  H   -0.000163   0.387313   0.006713   0.002099   0.000025  -0.000036
    30  H    0.000420   0.389446  -0.000217  -0.000220  -0.000001   0.000048
    31  H    0.000382   0.387554   0.000034  -0.000138   0.000000  -0.000008
    32  H   -0.037535   0.002952  -0.000003  -0.000025   0.000000  -0.000003
    33  H   -0.046560  -0.000393   0.000004   0.000038   0.000000  -0.000002
    34  H    0.385354   0.000335   0.000004  -0.000051   0.000000   0.000093
    35  H    0.391585   0.000069   0.000000  -0.000004   0.000000   0.000000
    36  H    0.382416  -0.000287   0.000002  -0.000024   0.000001   0.000330
    37  C    0.000007  -0.021481  -0.078160   0.000835   0.000066  -0.000267
    38  C    0.000000   0.000071   0.007343   0.000688  -0.000165   0.000024
    39  C    0.000000  -0.000029   0.000843   0.000441  -0.000024   0.000001
    40  H    0.000009  -0.001281   0.003863  -0.000069   0.000008   0.000012
    41  H   -0.000001   0.002027   0.001731   0.000252   0.000011   0.000002
    42  H    0.000000  -0.000075   0.004172   0.001029   0.000230   0.000017
    43  H    0.000000   0.000000   0.000011   0.000004   0.000001   0.000000
    44  H    0.000000  -0.000013   0.000002   0.000002   0.000000   0.000000
              19         20         21         22         23         24
     1  C   -0.000001   0.000043  -0.000022  -0.000632  -0.000001   0.000001
     2  C   -0.000264  -0.000529   0.000352  -0.000146   0.000022  -0.000018
     3  C    0.002402   0.000325  -0.000088   0.000032  -0.000036  -0.000097
     4  C   -0.000210   0.000127   0.000046   0.001547  -0.000027  -0.000044
     5  C   -0.000014   0.000010   0.000011   0.005125   0.000002   0.000003
     6  H    0.000000  -0.000017   0.000001  -0.000010   0.000000   0.000000
     7  H   -0.000418  -0.002198   0.001064  -0.003297  -0.000059  -0.000011
     8  H   -0.000127  -0.000011   0.000014  -0.000108  -0.000009  -0.000025
     9  H    0.000009   0.000008  -0.000001   0.000068   0.000001   0.000001
    10  O    0.000000  -0.000097   0.000001  -0.000443   0.000000   0.000000
    11  O    0.000001   0.000084  -0.000004   0.004668   0.000000   0.000000
    12  C    0.000000   0.000024   0.000001  -0.000021   0.000000   0.000000
    13  C    0.000000   0.000171  -0.000003   0.000190   0.000000   0.000000
    14  C    0.000003   0.000185  -0.000016   0.000145  -0.000001  -0.000006
    15  O   -0.022159  -0.001894   0.000735  -0.000959  -0.001361  -0.001270
    16  Si   0.333510  -0.027249  -0.009558  -0.025341  -0.028212  -0.026857
    17  C   -0.054932   0.002529   0.000109  -0.001700   0.002669  -0.000506
    18  C   -0.053362   0.367865   0.366785   0.359534  -0.000748   0.002590
    19  C    5.726700  -0.000608  -0.000817   0.003153   0.368671   0.369940
    20  H   -0.000608   0.456975  -0.021231  -0.018653   0.001433  -0.000044
    21  H   -0.000817  -0.021231   0.431068  -0.018383  -0.000030  -0.000074
    22  H    0.003153  -0.018653  -0.018383   0.435470  -0.000069  -0.000090
    23  H    0.368671   0.001433  -0.000030  -0.000069   0.461714  -0.018339
    24  H    0.369940  -0.000044  -0.000074  -0.000090  -0.018339   0.459266
    25  H    0.365345  -0.000064   0.000548  -0.000056  -0.020467  -0.020856
    26  H   -0.001369  -0.000051   0.000208   0.000031   0.000051  -0.000028
    27  H   -0.000326  -0.000094  -0.000024  -0.000067  -0.000109   0.000904
    28  H    0.002827   0.000004  -0.000038   0.000947  -0.000104  -0.000029
    29  H   -0.000002   0.000094  -0.000003   0.000001   0.000087   0.000002
    30  H    0.000001   0.000084  -0.000002   0.000011   0.000000   0.000000
    31  H    0.000000  -0.000013   0.000001  -0.000006  -0.000001   0.000000
    32  H    0.000000  -0.000001   0.000000   0.000005   0.000000   0.000000
    33  H    0.000000   0.000001   0.000000  -0.000003   0.000000   0.000000
    34  H    0.000000  -0.000022   0.000004   0.000461   0.000000   0.000000
    35  H    0.000000  -0.000006   0.000000   0.000001   0.000000   0.000000
    36  H    0.000001   0.000598  -0.000013   0.000008   0.000000   0.000000
    37  C   -0.000015  -0.000083   0.000006  -0.000073  -0.000008   0.000051
    38  C   -0.000029   0.000006   0.000000   0.000010   0.000003  -0.000017
    39  C   -0.000001   0.000000   0.000000   0.000000   0.000000  -0.000001
    40  H    0.000001   0.000000   0.000000   0.000000  -0.000001  -0.000001
    41  H   -0.000053   0.000001   0.000000  -0.000006  -0.000009  -0.000004
    42  H    0.000026   0.000001   0.000000   0.000001  -0.000006   0.000063
    43  H    0.000000   0.000000   0.000000   0.000000   0.000000   0.000000
    44  H    0.000000   0.000000   0.000000   0.000000   0.000000   0.000000
              25         26         27         28         29         30
     1  C    0.000000   0.000000   0.000005   0.000001   0.006263  -0.007720
     2  C    0.000003   0.000002  -0.000051  -0.000007  -0.037497  -0.030134
     3  C   -0.000060  -0.000048   0.000374   0.000499  -0.004443   0.006734
     4  C   -0.000002   0.000298  -0.000064  -0.004382   0.000709  -0.000233
     5  C    0.000002  -0.000034   0.000106   0.000902  -0.000088  -0.000011
     6  H    0.000000   0.000000   0.000000  -0.000001  -0.000348  -0.000496
     7  H    0.000007   0.000001  -0.000003  -0.000063  -0.004873  -0.009200
     8  H    0.000006   0.000456   0.000060   0.001868  -0.000018   0.000012
     9  H    0.000000  -0.000009  -0.000058   0.000242  -0.000032   0.000021
    10  O    0.000000   0.000000  -0.000002   0.000209  -0.000150   0.000049
    11  O    0.000001  -0.000031  -0.000063   0.013179   0.000000   0.000000
    12  C    0.000000   0.000000   0.000000   0.000002   0.000268   0.001364
    13  C    0.000000   0.000000   0.000000   0.000000  -0.000163   0.000420
    14  C   -0.000002   0.000000   0.000001  -0.000001   0.387313   0.389446
    15  O    0.000909   0.000856  -0.002183  -0.001130   0.006713  -0.000217
    16  Si  -0.014049  -0.011659  -0.025622  -0.027308   0.002099  -0.000220
    17  C    0.000460   0.365283   0.368005   0.358414   0.000025  -0.000001
    18  C   -0.000250   0.000780   0.002313  -0.001839  -0.000036   0.000048
    19  C    0.365345  -0.001369  -0.000326   0.002827  -0.000002   0.000001
    20  H   -0.000064  -0.000051  -0.000094   0.000004   0.000094   0.000084
    21  H    0.000548   0.000208  -0.000024  -0.000038  -0.000003  -0.000002
    22  H   -0.000056   0.000031  -0.000067   0.000947   0.000001   0.000011
    23  H   -0.020467   0.000051  -0.000109  -0.000104   0.000087   0.000000
    24  H   -0.020856  -0.000028   0.000904  -0.000029   0.000002   0.000000
    25  H    0.453445   0.000949  -0.000061  -0.000052  -0.000002   0.000000
    26  H    0.000949   0.445084  -0.020033  -0.021818   0.000000   0.000000
    27  H   -0.000061  -0.020033   0.454037  -0.019152   0.000002   0.000000
    28  H   -0.000052  -0.021818  -0.019152   0.449637   0.000003   0.000000
    29  H   -0.000002   0.000000   0.000002   0.000003   0.438250  -0.025065
    30  H    0.000000   0.000000   0.000000   0.000000  -0.025065   0.452478
    31  H    0.000000   0.000000   0.000000   0.000000  -0.023150  -0.027354
    32  H    0.000000   0.000000   0.000000   0.000000   0.000301  -0.001690
    33  H    0.000000   0.000000   0.000000   0.000000   0.000032   0.000263
    34  H    0.000000   0.000000   0.000000  -0.000002   0.000022  -0.000117
    35  H    0.000000   0.000000   0.000000   0.000000  -0.000006  -0.000020
    36  H    0.000000   0.000000   0.000000   0.000000   0.000049   0.004283
    37  C    0.000001   0.000001   0.000110  -0.000051  -0.004257   0.000443
    38  C    0.000000   0.000001   0.000296  -0.000095  -0.000292   0.000011
    39  C    0.000000   0.000000   0.000021  -0.000011  -0.000007   0.000001
    40  H    0.000000   0.000000   0.000002   0.000000   0.000249  -0.000140
    41  H    0.000001   0.000000   0.000004   0.000008   0.001545   0.000392
    42  H   -0.000003  -0.000002   0.000485  -0.000003   0.000018   0.000000
    43  H    0.000000   0.000000  -0.000002   0.000000   0.000000   0.000000
    44  H    0.000000   0.000000   0.000001   0.000000   0.000001   0.000000
              31         32         33         34         35         36
     1  C   -0.003310  -0.034495  -0.044579  -0.008966   0.008479  -0.008526
     2  C   -0.040109  -0.008050   0.008500  -0.000428  -0.000288   0.006134
     3  C   -0.009254  -0.000231  -0.000126  -0.000239   0.000003   0.000437
     4  C   -0.000133   0.000080   0.000090   0.000435  -0.000001  -0.000014
     5  C    0.000003  -0.000041  -0.000213   0.000388   0.000012  -0.000055
     6  H    0.002556   0.000035  -0.007440   0.000483  -0.000173  -0.000472
     7  H    0.007769   0.000425  -0.000539   0.000217   0.000283  -0.002937
     8  H   -0.000007  -0.000004  -0.000008  -0.000011   0.000000   0.000000
     9  H   -0.000048  -0.000009  -0.000025  -0.000008   0.000000   0.000001
    10  O    0.000029   0.003061   0.002381   0.011189  -0.000071  -0.000525
    11  O   -0.000001   0.000005  -0.000016   0.000089  -0.000001   0.000004
    12  C   -0.001961   0.389395   0.403472  -0.041019  -0.036782  -0.035650
    13  C    0.000382  -0.037535  -0.046560   0.385354   0.391585   0.382416
    14  C    0.387554   0.002952  -0.000393   0.000335   0.000069  -0.000287
    15  O    0.000034  -0.000003   0.000004   0.000004   0.000000   0.000002
    16  Si  -0.000138  -0.000025   0.000038  -0.000051  -0.000004  -0.000024
    17  C    0.000000   0.000000   0.000000   0.000000   0.000000   0.000001
    18  C   -0.000008  -0.000003  -0.000002   0.000093   0.000000   0.000330
    19  C    0.000000   0.000000   0.000000   0.000000   0.000000   0.000001
    20  H   -0.000013  -0.000001   0.000001  -0.000022  -0.000006   0.000598
    21  H    0.000001   0.000000   0.000000   0.000004   0.000000  -0.000013
    22  H   -0.000006   0.000005  -0.000003   0.000461   0.000001   0.000008
    23  H   -0.000001   0.000000   0.000000   0.000000   0.000000   0.000000
    24  H    0.000000   0.000000   0.000000   0.000000   0.000000   0.000000
    25  H    0.000000   0.000000   0.000000   0.000000   0.000000   0.000000
    26  H    0.000000   0.000000   0.000000   0.000000   0.000000   0.000000
    27  H    0.000000   0.000000   0.000000   0.000000   0.000000   0.000000
    28  H    0.000000   0.000000   0.000000  -0.000002   0.000000   0.000000
    29  H   -0.023150   0.000301   0.000032   0.000022  -0.000006   0.000049
    30  H   -0.027354  -0.001690   0.000263  -0.000117  -0.000020   0.004283
    31  H    0.465072   0.000626  -0.000156  -0.000009   0.000008  -0.000184
    32  H    0.000626   0.469239  -0.026183   0.006941  -0.004331  -0.005589
    33  H   -0.000156  -0.026183   0.472151  -0.003976  -0.005586   0.006997
    34  H   -0.000009   0.006941  -0.003976   0.459245  -0.025557  -0.026963
    35  H    0.000008  -0.004331  -0.005586  -0.025557   0.466715  -0.027273
    36  H   -0.000184  -0.005589   0.006997  -0.026963  -0.027273   0.480509
    37  C    0.002782   0.000006   0.000007   0.000006   0.000001  -0.000011
    38  C    0.000345  -0.000001  -0.000001   0.000000   0.000000   0.000000
    39  C   -0.000013   0.000000   0.000000   0.000000   0.000000   0.000000
    40  H    0.000660   0.000020  -0.000026   0.000001   0.000000  -0.000003
    41  H   -0.002250  -0.000009   0.000002   0.000000   0.000000   0.000002
    42  H   -0.000004   0.000000   0.000000   0.000000   0.000000   0.000000
    43  H    0.000000   0.000000   0.000000   0.000000   0.000000   0.000000
    44  H   -0.000007   0.000000   0.000000   0.000000   0.000000   0.000000
              37         38         39         40         41         42
     1  C   -0.000750  -0.000369  -0.000029   0.000916   0.000635  -0.000017
     2  C   -0.078305   0.007659  -0.000073  -0.001507  -0.011085   0.000041
     3  C    0.301410  -0.050756  -0.003109  -0.041301  -0.035896  -0.001938
     4  C   -0.084550  -0.024559   0.001977   0.000683   0.007399  -0.000290
     5  C    0.004494   0.000525   0.000034  -0.000433  -0.000153  -0.000019
     6  H    0.004896  -0.000159  -0.000047   0.004631  -0.000064   0.000004
     7  H    0.006387  -0.000183  -0.000005   0.000372  -0.000283   0.000014
     8  H   -0.003764   0.001973   0.001055   0.000291  -0.000073   0.000133
     9  H   -0.009821   0.001185   0.004463  -0.001619   0.001113   0.000004
    10  O   -0.000407  -0.000026   0.000000  -0.000129  -0.000021   0.000001
    11  O   -0.000106  -0.000020   0.000001   0.000006   0.000005   0.000000
    12  C   -0.000543   0.000009   0.000000   0.000020  -0.000011   0.000001
    13  C    0.000007   0.000000   0.000000   0.000009  -0.000001   0.000000
    14  C   -0.021481   0.000071  -0.000029  -0.001281   0.002027  -0.000075
    15  O   -0.078160   0.007343   0.000843   0.003863   0.001731   0.004172
    16  Si   0.000835   0.000688   0.000441  -0.000069   0.000252   0.001029
    17  C    0.000066  -0.000165  -0.000024   0.000008   0.000011   0.000230
    18  C   -0.000267   0.000024   0.000001   0.000012   0.000002   0.000017
    19  C   -0.000015  -0.000029  -0.000001   0.000001  -0.000053   0.000026
    20  H   -0.000083   0.000006   0.000000   0.000000   0.000001   0.000001
    21  H    0.000006   0.000000   0.000000   0.000000   0.000000   0.000000
    22  H   -0.000073   0.000010   0.000000   0.000000  -0.000006   0.000001
    23  H   -0.000008   0.000003   0.000000  -0.000001  -0.000009  -0.000006
    24  H    0.000051  -0.000017  -0.000001  -0.000001  -0.000004   0.000063
    25  H    0.000001   0.000000   0.000000   0.000000   0.000001  -0.000003
    26  H    0.000001   0.000001   0.000000   0.000000   0.000000  -0.000002
    27  H    0.000110   0.000296   0.000021   0.000002   0.000004   0.000485
    28  H   -0.000051  -0.000095  -0.000011   0.000000   0.000008  -0.000003
    29  H   -0.004257  -0.000292  -0.000007   0.000249   0.001545   0.000018
    30  H    0.000443   0.000011   0.000001  -0.000140   0.000392   0.000000
    31  H    0.002782   0.000345  -0.000013   0.000660  -0.002250  -0.000004
    32  H    0.000006  -0.000001   0.000000   0.000020  -0.000009   0.000000
    33  H    0.000007  -0.000001   0.000000  -0.000026   0.000002   0.000000
    34  H    0.000006   0.000000   0.000000   0.000001   0.000000   0.000000
    35  H    0.000001   0.000000   0.000000   0.000000   0.000000   0.000000
    36  H   -0.000011   0.000000   0.000000  -0.000003   0.000002   0.000000
    37  C    5.476145   0.332540  -0.066445   0.385191   0.390341  -0.046517
    38  C    0.332540   5.063188   0.614615  -0.046255  -0.044440   0.398444
    39  C   -0.066445   0.614615   5.156532   0.001594   0.001237  -0.040739
    40  H    0.385191  -0.046255   0.001594   0.464828  -0.021604   0.005216
    41  H    0.390341  -0.044440   0.001237  -0.021604   0.449150  -0.001889
    42  H   -0.046517   0.398444  -0.040739   0.005216  -0.001889   0.459767
    43  H    0.006498  -0.039433   0.391980   0.000166  -0.000382  -0.007841
    44  H   -0.008966  -0.038993   0.387033   0.004727   0.000218   0.005837
              43         44
     1  C   -0.000001  -0.000006
     2  C    0.000017  -0.000049
     3  C   -0.000341   0.000101
     4  C    0.000094  -0.000074
     5  C    0.000000  -0.000005
     6  H   -0.000004   0.000010
     7  H   -0.000001   0.000001
     8  H    0.000046  -0.000016
     9  H    0.000044   0.000407
    10  O    0.000000   0.000002
    11  O    0.000000   0.000000
    12  C    0.000000   0.000000
    13  C    0.000000   0.000000
    14  C    0.000000  -0.000013
    15  O    0.000011   0.000002
    16  Si   0.000004   0.000002
    17  C    0.000001   0.000000
    18  C    0.000000   0.000000
    19  C    0.000000   0.000000
    20  H    0.000000   0.000000
    21  H    0.000000   0.000000
    22  H    0.000000   0.000000
    23  H    0.000000   0.000000
    24  H    0.000000   0.000000
    25  H    0.000000   0.000000
    26  H    0.000000   0.000000
    27  H   -0.000002   0.000001
    28  H    0.000000   0.000000
    29  H    0.000000   0.000001
    30  H    0.000000   0.000000
    31  H    0.000000  -0.000007
    32  H    0.000000   0.000000
    33  H    0.000000   0.000000
    34  H    0.000000   0.000000
    35  H    0.000000   0.000000
    36  H    0.000000   0.000000
    37  C    0.006498  -0.008966
    38  C   -0.039433  -0.038993
    39  C    0.391980   0.387033
    40  H    0.000166   0.004727
    41  H   -0.000382   0.000218
    42  H   -0.007841   0.005837
    43  H    0.456353  -0.033576
    44  H   -0.033576   0.463786
 Mulliken charges:
               1
     1  C   -0.011008
     2  C   -0.352359
     3  C    0.218813
     4  C   -0.679592
     5  C    0.503710
     6  H    0.244375
     7  H    0.296931
     8  H    0.302132
     9  H    0.298663
    10  O   -0.317965
    11  O   -0.387859
    12  C   -0.464255
    13  C   -0.672231
    14  C   -0.703655
    15  O   -0.615481
    16  Si   1.399708
    17  C   -1.077340
    18  C   -1.092122
    19  C   -1.037884
    20  H    0.242298
    21  H    0.249353
    22  H    0.258657
    23  H    0.234943
    24  H    0.235498
    25  H    0.234248
    26  H    0.241080
    27  H    0.241190
    28  H    0.247339
    29  H    0.256391
    30  H    0.246559
    31  H    0.240296
    32  H    0.245111
    33  H    0.241893
    34  H    0.242101
    35  H    0.232945
    36  H    0.226757
    37  C   -0.507645
    38  C   -0.183142
    39  C   -0.451296
    40  H    0.240904
    41  H    0.262158
    42  H    0.223838
    43  H    0.226366
    44  H    0.219579
 Sum of Mulliken charges =   0.00000
 Mulliken charges with hydrogens summed into heavy atoms:
               1
     1  C    0.233367
     2  C   -0.055428
     3  C    0.218813
     4  C   -0.078798
     5  C    0.503710
    10  O   -0.317965
    11  O   -0.387859
    12  C    0.022749
    13  C    0.029572
    14  C    0.039591
    15  O   -0.615481
    16  Si   1.399708
    17  C   -0.347731
    18  C   -0.341814
    19  C   -0.333195
    37  C   -0.004583
    38  C    0.040695
    39  C   -0.005351
 Electronic spatial extent (au):  <R**2>=           5127.2662
 Charge=              0.0000 electrons
 Dipole moment (field-independent basis, Debye):
    X=             -1.4673    Y=              2.1478    Z=             -3.8136  Tot=              4.6163
 Quadrupole moment (field-independent basis, Debye-Ang):
   XX=           -112.7498   YY=           -116.4959   ZZ=           -132.8902
   XY=             -4.8526   XZ=              7.0411   YZ=              7.5042
 Traceless Quadrupole moment (field-independent basis, Debye-Ang):
   XX=              7.9622   YY=              4.2161   ZZ=            -12.1782
   XY=             -4.8526   XZ=              7.0411   YZ=              7.5042
 Octapole moment (field-independent basis, Debye-Ang**2):
  XXX=            -27.0420  YYY=              0.0598  ZZZ=            -36.7031  XYY=              0.3629
  XXY=              3.6532  XXZ=             -1.4419  XZZ=             -4.1141  YZZ=             13.3366
  YYZ=             11.1780  XYZ=             -4.8522
 Hexadecapole moment (field-independent basis, Debye-Ang**3):
 XXXX=          -3219.1088 YYYY=          -2354.9104 ZZZZ=          -1425.2650 XXXY=             25.2044
 XXXZ=             28.9575 YYYX=            -42.3210 YYYZ=             43.9235 ZZZX=              9.2602
 ZZZY=             37.7256 XXYY=           -909.3871 XXZZ=           -803.4836 YYZZ=           -630.7896
 XXYZ=             -0.6336 YYXZ=             19.8942 ZZXY=             -4.5506
 N-N= 1.649837057285D+03 E-N=-5.794863729470D+03  KE= 1.060502451627D+03
 1\1\GINC-SWANNODE-0-0\SP\RmPW1PW91\6-311G(d)\C14H26O3Si1\ROOT\08-Mar-2
 018\0\\#mPW1PW91/6-311g(d) nmr=(giao) scrf=(solvent=chloroform)\\P_ng_
 2ginp006\\0,1\C,0,-0.106604,0.054183,1.31138\C,0,-1.034171,0.943107,0.
 466974\C,0,-2.356841,1.210887,1.269733\C,0,-2.115623,1.14856,2.794437\
 C,0,-0.703013,1.463156,3.186789\H,0,-0.620381,-0.866121,1.616824\H,0,-
 0.528095,1.905401,0.344457\H,0,-2.795756,1.806844,3.341331\H,0,-2.2867
 69,0.136576,3.186189\O,0,0.25115,0.781082,2.509678\O,0,-0.42349,2.2247
 41,4.104683\C,0,1.210814,-0.362984,0.637426\C,0,2.112665,0.799803,0.23
 8986\C,0,-1.261496,0.424742,-0.957261\O,0,-2.968397,2.425413,0.784154\
 Si,0,-2.618718,4.018182,1.156756\C,0,-3.240814,4.508039,2.860782\C,0,-
 0.803236,4.463154,1.019253\C,0,-3.538987,5.120639,-0.086754\H,0,-0.428
 564,4.262253,0.011242\H,0,-0.656938,5.528158,1.224539\H,0,-0.196625,3.
 900297,1.732652\H,0,-3.203763,4.901567,-1.104541\H,0,-4.615963,4.93986
 4,-0.026075\H,0,-3.347503,6.176156,0.126422\H,0,-3.236976,5.597001,2.9
 68675\H,0,-4.264282,4.15329,3.013438\H,0,-2.607927,4.0938,3.649683\H,0
 ,-1.997375,1.039675,-1.485865\H,0,-0.338682,0.466888,-1.544269\H,0,-1.
 60389,-0.614874,-0.961708\H,0,1.009101,-0.988456,-0.238899\H,0,1.77572
 9,-0.985377,1.34336\H,0,2.370185,1.420191,1.102917\H,0,3.04615,0.41773
 ,-0.186997\H,0,1.64225,1.437725,-0.514235\C,0,-3.432413,0.10756,0.9394
 96\C,0,-4.716031,0.228441,1.727482\C,0,-5.213667,-0.731823,2.516842\H,
 0,-2.999512,-0.889895,1.086815\H,0,-3.728798,0.180898,-0.114435\H,0,-5
 .264628,1.163116,1.618758\H,0,-6.148771,-0.580624,3.048551\H,0,-4.7124
 21,-1.685245,2.649689\\Version=EM64L-G09RevD.01\State=1-A\HF=-1064.375
 9332\RMSD=3.510e-09\Dipole=-0.3096189,-1.1088739,-1.404664\Quadrupole=
 -1.3817247,7.5229044,-6.1411796,-2.9505797,-8.6845911,-1.6535432\PG=C0
 1 [X(C14H26O3Si1)]\\@


 BLACK HOLES SUCK.
 Job cpu time:       0 days  1 hours 20 minutes  2.9 seconds.
 File lengths (MBytes):  RWF=    232 Int=      0 D2E=      0 Chk=     11 Scr=      1
 Normal termination of Gaussian 09 at Thu Mar  8 13:21:11 2018.
