 Entering Gaussian System, Link 0=/usr/local/shared/gaussian/em64t/09-D01/g09/g09
 Initial command:
 /usr/local/shared/gaussian/em64t/09-D01/g09/l1.exe "/scratch/ah809/P_ng_4ginp002/Gau-30466.inp" -scrdir="/scratch/ah809/P_ng_4ginp002/"
 Entering Link 1 = /usr/local/shared/gaussian/em64t/09-D01/g09/l1.exe PID=     30479.
  
 Copyright (c) 1988,1990,1992,1993,1995,1998,2003,2009,2013,
            Gaussian, Inc.  All Rights Reserved.
  
 This is part of the Gaussian(R) 09 program.  It is based on
 the Gaussian(R) 03 system (copyright 2003, Gaussian, Inc.),
 the Gaussian(R) 98 system (copyright 1998, Gaussian, Inc.),
 the Gaussian(R) 94 system (copyright 1995, Gaussian, Inc.),
 the Gaussian 92(TM) system (copyright 1992, Gaussian, Inc.),
 the Gaussian 90(TM) system (copyright 1990, Gaussian, Inc.),
 the Gaussian 88(TM) system (copyright 1988, Gaussian, Inc.),
 the Gaussian 86(TM) system (copyright 1986, Carnegie Mellon
 University), and the Gaussian 82(TM) system (copyright 1983,
 Carnegie Mellon University). Gaussian is a federally registered
 trademark of Gaussian, Inc.
  
 This software contains proprietary and confidential information,
 including trade secrets, belonging to Gaussian, Inc.
  
 This software is provided under written license and may be
 used, copied, transmitted, or stored only in accord with that
 written license.
  
 The following legend is applicable only to US Government
 contracts under FAR:
  
                    RESTRICTED RIGHTS LEGEND
  
 Use, reproduction and disclosure by the US Government is
 subject to restrictions as set forth in subparagraphs (a)
 and (c) of the Commercial Computer Software - Restricted
 Rights clause in FAR 52.227-19.
  
 Gaussian, Inc.
 340 Quinnipiac St., Bldg. 40, Wallingford CT 06492
  
  
 ---------------------------------------------------------------
 Warning -- This program may not be used in any manner that
 competes with the business of Gaussian, Inc. or will provide
 assistance to any competitor of Gaussian, Inc.  The licensee
 of this program is prohibited from giving any competitor of
 Gaussian, Inc. access to this program.  By using this program,
 the user acknowledges that Gaussian, Inc. is engaged in the
 business of creating and licensing software in the field of
 computational chemistry and represents and warrants to the
 licensee that it is not a competitor of Gaussian, Inc. and that
 it will not use this program in any manner prohibited above.
 ---------------------------------------------------------------
  

 Cite this work as:
 Gaussian 09, Revision D.01,
 M. J. Frisch, G. W. Trucks, H. B. Schlegel, G. E. Scuseria, 
 M. A. Robb, J. R. Cheeseman, G. Scalmani, V. Barone, B. Mennucci, 
 G. A. Petersson, H. Nakatsuji, M. Caricato, X. Li, H. P. Hratchian, 
 A. F. Izmaylov, J. Bloino, G. Zheng, J. L. Sonnenberg, M. Hada, 
 M. Ehara, K. Toyota, R. Fukuda, J. Hasegawa, M. Ishida, T. Nakajima, 
 Y. Honda, O. Kitao, H. Nakai, T. Vreven, J. A. Montgomery, Jr., 
 J. E. Peralta, F. Ogliaro, M. Bearpark, J. J. Heyd, E. Brothers, 
 K. N. Kudin, V. N. Staroverov, T. Keith, R. Kobayashi, J. Normand, 
 K. Raghavachari, A. Rendell, J. C. Burant, S. S. Iyengar, J. Tomasi, 
 M. Cossi, N. Rega, J. M. Millam, M. Klene, J. E. Knox, J. B. Cross, 
 V. Bakken, C. Adamo, J. Jaramillo, R. Gomperts, R. E. Stratmann, 
 O. Yazyev, A. J. Austin, R. Cammi, C. Pomelli, J. W. Ochterski, 
 R. L. Martin, K. Morokuma, V. G. Zakrzewski, G. A. Voth, 
 P. Salvador, J. J. Dannenberg, S. Dapprich, A. D. Daniels, 
 O. Farkas, J. B. Foresman, J. V. Ortiz, J. Cioslowski, 
 and D. J. Fox, Gaussian, Inc., Wallingford CT, 2013.
 
 ******************************************
 Gaussian 09:  EM64L-G09RevD.01 24-Apr-2013
                 8-Mar-2018 
 ******************************************
 %mem=6000MB
 %chk=P_ng_4ginp002.chk
 --------------------------------------------------------
 #mPW1PW91/6-311g(d) nmr=(giao) scrf=(solvent=chloroform)
 --------------------------------------------------------
 1/38=1/1;
 2/12=2,17=6,18=5,40=1/2;
 3/5=4,6=6,7=1,11=2,16=1,25=1,30=1,70=2201,72=7,74=-7/1,2,8,3;
 4//1;
 5/5=2,38=5,53=7/2;
 8/6=1,10=90,11=11/1;
 10/13=100,45=16/2;
 6/7=2,8=2,9=2,10=2,28=1/1;
 99/9=1/99;
 -------------
 P_ng_4ginp002
 -------------
 Symbolic Z-matrix:
 Charge =  0 Multiplicity = 1
 C                     0.10752   2.09922  -0.45839 
 C                    -0.12928   1.34698   0.85828 
 C                    -1.25168   2.07522   1.67011 
 C                    -0.78726   3.51755   1.90401 
 C                    -0.29167   4.22436   0.6717 
 H                    -0.79795   2.07197  -1.07444 
 H                    -0.46238   0.32463   0.64011 
 H                    -1.61176   4.11421   2.31255 
 H                     0.02251   3.56007   2.64077 
 O                     0.39784   3.4953   -0.2313 
 O                    -0.40277   5.44067   0.54917 
 C                     1.23892   1.55338  -1.34421 
 C                     1.03035   0.11306  -1.7831 
 C                     1.17207   1.18798   1.67355 
 O                    -1.39285   1.30486   2.88556 
 Si                   -2.06037   1.75885   4.35123 
 C                    -2.34979   0.19903   5.38393 
 C                    -0.88692   2.85634   5.33028 
 C                    -3.71031   2.63502   4.2039 
 H                    -1.24572   2.97762   6.35681 
 H                     0.11245   2.41293   5.36599 
 H                    -0.80961   3.85018   4.88136 
 H                    -4.12031   2.84379   5.1969 
 H                    -3.60817   3.58833   3.67822 
 H                    -4.43356   2.01555   3.66558 
 H                    -2.7707    0.45892   6.35947 
 H                    -3.04561  -0.4712    4.87103 
 H                    -1.40672  -0.33229   5.54117 
 H                     1.8808    0.53644   1.1525 
 H                     1.67222   2.14574   1.84566 
 H                     0.98591   0.72212   2.64601 
 H                     2.20871   1.66033  -0.84442 
 H                     1.31397   2.18538  -2.2391 
 H                     1.8169   -0.18305  -2.4846 
 H                     1.06596  -0.57715  -0.93559 
 H                     0.06589  -0.00732  -2.28658 
 C                    -2.61896   2.08083   0.90232 
 C                    -3.12047   0.71601   0.50567 
 C                    -3.43098   0.36029  -0.74734 
 H                    -2.56346   2.72911   0.01984 
 H                    -3.39411   2.52801   1.53184 
 H                    -3.23933  -0.01317   1.30585 
 H                    -3.79332  -0.64053  -0.96434 
 H                    -3.34182   1.0499   -1.58099 
 
                          Input orientation:                          
 ---------------------------------------------------------------------
 Center     Atomic      Atomic             Coordinates (Angstroms)
 Number     Number       Type             X           Y           Z
 ---------------------------------------------------------------------
      1          6           0        0.107521    2.099216   -0.458388
      2          6           0       -0.129283    1.346979    0.858276
      3          6           0       -1.251680    2.075215    1.670107
      4          6           0       -0.787259    3.517545    1.904012
      5          6           0       -0.291673    4.224363    0.671695
      6          1           0       -0.797950    2.071969   -1.074438
      7          1           0       -0.462381    0.324630    0.640111
      8          1           0       -1.611763    4.114206    2.312549
      9          1           0        0.022506    3.560074    2.640766
     10          8           0        0.397837    3.495303   -0.231300
     11          8           0       -0.402767    5.440666    0.549169
     12          6           0        1.238919    1.553376   -1.344214
     13          6           0        1.030354    0.113059   -1.783098
     14          6           0        1.172065    1.187978    1.673550
     15          8           0       -1.392850    1.304855    2.885555
     16         14           0       -2.060374    1.758847    4.351234
     17          6           0       -2.349790    0.199032    5.383926
     18          6           0       -0.886915    2.856344    5.330282
     19          6           0       -3.710310    2.635020    4.203902
     20          1           0       -1.245719    2.977619    6.356808
     21          1           0        0.112450    2.412931    5.365994
     22          1           0       -0.809612    3.850183    4.881361
     23          1           0       -4.120315    2.843791    5.196898
     24          1           0       -3.608165    3.588325    3.678218
     25          1           0       -4.433564    2.015553    3.665579
     26          1           0       -2.770704    0.458916    6.359465
     27          1           0       -3.045610   -0.471200    4.871026
     28          1           0       -1.406723   -0.332291    5.541170
     29          1           0        1.880796    0.536443    1.152500
     30          1           0        1.672219    2.145735    1.845658
     31          1           0        0.985912    0.722121    2.646006
     32          1           0        2.208709    1.660328   -0.844420
     33          1           0        1.313965    2.185383   -2.239102
     34          1           0        1.816897   -0.183049   -2.484600
     35          1           0        1.065961   -0.577145   -0.935590
     36          1           0        0.065893   -0.007322   -2.286583
     37          6           0       -2.618959    2.080828    0.902320
     38          6           0       -3.120473    0.716013    0.505673
     39          6           0       -3.430978    0.360292   -0.747342
     40          1           0       -2.563461    2.729105    0.019837
     41          1           0       -3.394108    2.528005    1.531844
     42          1           0       -3.239325   -0.013165    1.305848
     43          1           0       -3.793323   -0.640527   -0.964339
     44          1           0       -3.341817    1.049902   -1.580990
 ---------------------------------------------------------------------
                    Distance matrix (angstroms):
                    1          2          3          4          5
     1  C    0.000000
     2  C    1.534777   0.000000
     3  C    2.525568   1.564983   0.000000
     4  C    2.897106   2.497569   1.533204   0.000000
     5  C    2.439814   2.887996   2.556810   1.504594   0.000000
     6  H    1.095508   2.169818   2.781800   3.310735   2.817463
     7  H    2.163480   1.097154   2.179090   3.449304   3.903595
     8  H    3.833303   3.459798   2.167920   1.096683   2.108832
     9  H    3.427257   2.845716   2.184155   1.095598   2.101720
    10  O    1.443922   2.465832   2.890139   2.442234   1.349945
    11  O    3.527159   4.114440   3.647385   2.383659   1.227496
    12  C    1.537105   2.601065   3.944811   4.302828   3.679779
    13  C    2.559550   3.137543   4.580651   5.337511   4.967553
    14  C    2.551229   1.543846   2.581035   3.052695   3.516515
    15  O    3.750210   2.389192   1.445924   2.495228   3.825872
    16  Si   5.286595   4.012419   2.818247   3.271504   4.769285
    17  C    6.616775   5.170101   4.303296   5.056069   6.530257
    18  C    5.922064   4.780275   3.760332   3.490909   4.891648
    19  C    6.049782   5.067151   3.574683   3.822639   5.166196
    20  H    7.003552   5.842882   4.772791   4.508780   5.897888
    21  H    5.832827   4.638341   3.954046   3.743657   5.047875
    22  H    5.693851   4.786866   3.695685   2.995956   4.257882
    23  H    7.100088   6.082140   4.610643   4.733530   6.086209
    24  H    5.756325   5.007826   3.446017   3.333216   4.521376
    25  H    6.134782   5.182159   3.756309   4.319102   5.567535
    26  H    7.580098   6.166753   5.187479   5.756764   7.257749
    27  H    6.704620   5.283266   4.466352   5.460166   6.875090
    28  H    6.648297   5.136273   4.561277   5.332344   6.761525
    29  H    2.860371   2.187225   3.528192   4.070658   4.307151
    30  H    2.785511   2.204165   2.930013   2.816789   3.091238
    31  H    3.507880   2.197746   2.791068   3.392504   4.218510
    32  H    2.180971   2.909221   4.297589   4.469783   3.889060
    33  H    2.152644   3.518471   4.677241   4.832721   3.899776
    34  H    3.498033   4.159738   5.637155   6.303645   5.816661
    35  H    2.882575   2.889432   4.381339   5.316413   5.242234
    36  H    2.789540   3.429630   4.661368   5.541989   5.175560
    37  C    3.047221   2.595951   1.568114   2.534298   3.172411
    38  C    3.641787   3.077282   2.587610   3.904846   4.509789
    39  C    3.953268   3.801677   3.678907   4.897670   5.176866
    40  H    2.785607   2.922067   2.207200   2.706778   2.796737
    41  H    4.050468   3.536608   2.194113   2.813070   3.639037
    42  H    4.333135   3.423839   2.905985   4.340085   5.200716
    43  H    4.793617   4.549428   4.558016   5.878216   6.213318
    44  H    3.776139   4.044583   3.998696   4.975969   4.945217
                    6          7          8          9         10
     6  H    0.000000
     7  H    2.470927   0.000000
     8  H    4.037908   4.298722   0.000000
     9  H    4.085382   3.834819   1.756594   0.000000
    10  O    2.041242   3.398897   3.300409   2.897211   0.000000
    11  O    3.760371   5.117191   2.516084   2.844690   2.243777
    12  C    2.119093   2.888215   5.296806   4.624561   2.391041
    13  C    2.771682   2.853938   6.305893   5.698091   3.774616
    14  C    3.494830   2.117730   4.089111   2.807816   3.090571
    15  O    4.077243   2.620808   2.875537   2.673793   4.209443
    16  Si   5.579397   4.287539   3.147253   3.241683   5.482490
    17  C    6.901200   5.107041   5.030569   4.944625   7.067221
    18  C    6.453185   5.346729   3.348781   2.925026   5.743697
    19  C    6.054729   5.346733   3.188904   4.151269   6.106388
    20  H    7.499608   6.350795   4.216853   3.969460   6.809731
    21  H    6.513390   5.198596   3.897534   2.958191   5.708124
    22  H    6.215603   5.526146   2.704062   2.407665   5.265280
    23  H    7.138871   6.363251   4.028183   4.920349   7.092496
    24  H    5.725765   5.456900   2.475323   3.776093   5.598307
    25  H    5.973996   5.270955   3.767970   4.826215   6.381047
    26  H    7.858538   6.169068   5.575107   5.589984   7.918174
    27  H    6.846037   5.020663   5.443131   5.535211   7.322855
    28  H    7.065220   5.034253   5.498852   5.060192   7.157396
    29  H    3.806937   2.407880   5.132647   3.848444   3.587328
    30  H    3.825459   3.053897   3.857124   2.313894   2.785523
    31  H    4.341193   2.505827   4.285481   2.997024   4.039215
    32  H    3.043412   3.335063   5.530278   4.531560   2.649964
    33  H    2.414434   3.861046   5.744368   5.231707   2.566408
    34  H    3.729757   3.900854   7.296215   6.595467   4.541075
    35  H    3.242105   2.373154   6.303125   5.567378   4.186555
    36  H    2.557141   2.992458   6.399495   6.083335   4.074648
    37  C    2.687699   2.793531   2.671669   3.491089   3.519502
    38  C    3.119212   2.690113   4.133851   4.746117   4.543797
    39  C    3.157478   3.277021   5.173427   5.800382   4.975381
    40  H    2.178599   3.252811   2.842668   3.774520   3.069107
    41  H    3.706847   3.774264   2.510436   3.737396   4.292224
    42  H    3.996731   2.875540   4.549461   5.018923   5.282151
    43  H    4.042526   3.821121   6.172899   6.723272   5.933655
    44  H    2.787916   3.708161   5.248113   5.953390   4.667618
                   11         12         13         14         15
    11  O    0.000000
    12  C    4.625047   0.000000
    13  C    5.989716   1.520076   0.000000
    14  C    4.672225   3.040540   3.622699   0.000000
    15  O    4.852205   4.987877   5.393386   2.839261   0.000000
    16  Si   5.546093   6.585262   7.063374   4.236100   1.673294
    17  C    7.391921   7.744737   7.924582   5.210409   2.894898
    18  C    5.456387   7.125012   7.861406   4.516031   2.939350
    19  C    5.671734   7.513083   8.042285   5.686317   2.979597
    20  H    6.364420   8.216303   8.924365   5.566094   3.856084
    21  H    5.712655   6.858182   7.565810   4.032051   3.105855
    22  H    4.632823   6.944752   7.859172   4.615672   3.286655
    23  H    6.493482   8.554105   9.094319   6.570006   3.892261
    24  H    4.847339   7.270493   7.963624   5.712351   3.278745
    25  H    6.139278   7.582130   7.947450   6.006341   3.218613
    26  H    8.011523   8.753376   8.992719   6.167233   3.831729
    27  H    7.785450   7.815709   7.825101   5.546666   3.134977
    28  H    7.697729   7.613388   7.731920   4.890792   3.119732
    29  H    5.443351   2.771234   3.085489   1.094665   3.782948
    30  H    4.104025   3.273213   4.208519   1.094109   3.344116
    31  H    5.346945   4.083730   4.471006   1.094233   2.460787
    32  H    4.801339   1.096232   2.159555   2.763678   5.197144
    33  H    4.617195   1.098130   2.140771   4.040272   5.862106
    34  H    6.764380   2.156319   1.094731   4.425577   6.430777
    35  H    6.369907   2.176237   1.093581   3.151909   4.918214
    36  H    6.159684   2.167909   1.094611   4.281940   5.531795
    37  C    4.040388   4.495369   4.939744   3.970370   2.457376
    38  C    5.450703   4.809112   4.778220   4.473541   2.999209
    39  C    6.054850   4.856711   4.586654   5.266288   4.271312
    40  H    3.507329   4.207264   4.796851   4.366233   3.407515
    41  H    4.289215   5.539544   6.032965   4.760850   2.708074
    42  H    6.193779   5.434294   5.271402   4.586754   2.764439
    43  H    7.125131   5.502815   4.950365   5.912442   4.936443
    44  H    5.696876   4.614400   4.475981   5.566527   4.879908
                   16         17         18         19         20
    16  Si   0.000000
    17  C    1.892944   0.000000
    18  C    1.881500   3.033840   0.000000
    19  C    1.873946   3.029440   3.047831   0.000000
    20  H    2.484229   3.144204   1.094168   3.290378   0.000000
    21  H    2.485705   3.311238   1.093902   4.001659   1.773473
    22  H    2.493818   3.994449   1.093262   3.217083   1.768757
    23  H    2.477016   3.188179   3.236174   1.094409   3.102677
    24  H    2.489096   3.997531   3.266545   1.093420   3.623390
    25  H    2.483556   3.254931   4.007104   1.093905   4.281430
    26  H    2.495472   1.093794   3.218002   3.203863   2.944393
    27  H    2.492786   1.093820   3.992922   3.245841   4.164314
    28  H    2.493204   1.093803   3.237602   3.987447   3.412725
    29  H    5.221014   5.993052   5.522321   6.706381   6.543643
    30  H    4.512188   5.699610   4.381408   5.896807   5.436623
    31  H    3.641766   4.347038   3.907394   5.304783   4.882366
    32  H    6.725295   7.855418   7.010013   7.840304   8.094814
    33  H    7.416241   8.687879   7.911361   8.182775   9.003849
    34  H    8.095234   8.911844   8.810272   9.122916   9.876231
    35  H    6.571251   7.225378   7.407005   7.716550   8.435596
    36  H    7.190339   8.044552   8.192988   7.960407   9.237879
    37  C    3.508660   4.868100   4.817494   3.521167   5.695741
    38  C    4.123063   4.965740   5.731200   4.208015   6.547163
    39  C    5.461684   6.227955   7.045569   5.455935   7.880019
    40  H    4.467158   5.934676   5.570262   4.339414   6.477299
    41  H    3.212384   4.620958   4.563108   2.692829   5.300755
    42  H    3.715418   4.179356   5.473937   3.953913   6.199311
    43  H    6.084030   6.564230   7.765151   6.119380   8.554558
    44  H    6.110318   7.086477   7.553506   6.009439   8.433170
                   21         22         23         24         25
    21  H    0.000000
    22  H    1.775038   0.000000
    23  H    4.257996   3.474643   0.000000
    24  H    4.251249   3.057453   1.767206   0.000000
    25  H    4.869863   4.239932   1.768910   1.776247   0.000000
    26  H    3.621842   4.187047   2.976683   4.205190   3.527782
    27  H    4.305409   4.865608   3.500050   4.268372   3.092484
    28  H    3.142422   4.276094   4.191611   4.867049   4.265206
    29  H    4.939816   5.667766   7.595679   6.769190   6.955176
    30  H    3.859668   4.275526   6.728413   5.772504   6.372570
    31  H    3.319655   4.243288   6.089506   5.512362   5.664205
    32  H    6.597723   6.833030   8.829193   7.616262   8.036546
    33  H    7.702785   7.614600   9.233580   7.823700   8.241856
    34  H    8.442516   8.799028  10.169447   9.035203   9.040288
    35  H    7.039865   7.546915   8.729701   7.777263   7.624803
    36  H    8.026315   8.186958   9.036353   7.874404   7.730806
    37  C    5.243594   4.715625   4.612980   3.310088   3.306456
    38  C    6.078984   5.857452   5.247353   4.307326   3.660330
    39  C    7.358131   7.122724   6.478961   5.480618   4.818603
    40  H    5.986807   5.288404   5.407301   3.900438   4.159072
    41  H    5.197105   4.432498   3.749629   2.403543   2.428148
    42  H    5.796993   5.797694   4.906996   4.328385   3.333202
    43  H    8.040633   7.952435   7.085777   6.282580   5.375947
    44  H    7.877207   7.484358   7.054351   5.845836   5.445262
                   26         27         28         29         30
    26  H    0.000000
    27  H    1.776553   0.000000
    28  H    1.776530   1.776046   0.000000
    29  H    6.982474   6.253979   5.551838   0.000000
    30  H    6.554340   6.185395   5.410851   1.764594   0.000000
    31  H    5.288782   4.756879   3.901085   1.750958   1.771511
    32  H    8.839338   8.050938   7.603791   2.314808   2.785671
    33  H    9.674738   8.753128   8.618205   3.813563   4.100632
    34  H    9.983771   8.822258   8.650259   3.708133   4.918872
    35  H    8.307301   7.115689   6.937041   2.502829   3.939158
    36  H    9.111411   7.818440   7.971695   3.926429   4.928626
    37  C    5.695091   4.737669   5.367643   4.763980   4.394122
    38  C    5.869865   4.524532   5.421449   5.046120   5.177795
    39  C    7.138095   5.692622   6.642489   5.644056   5.996172
    40  H    6.737031   5.831677   6.418357   5.083514   4.649186
    41  H    5.289205   4.501868   5.310903   5.651091   5.090410
    42  H    5.097206   3.599697   4.625821   5.151818   5.392171
    43  H    7.476137   5.885510   6.936319   6.169432   6.747702
    44  H    7.982873   6.635511   7.508676   5.917034   6.171169
                   31         32         33         34         35
    31  H    0.000000
    32  H    3.815565   0.000000
    33  H    5.110091   1.738214   0.000000
    34  H    5.275698   2.498349   2.433656   0.000000
    35  H    3.810817   2.514055   3.064671   1.765970   0.000000
    36  H    5.070400   3.074500   2.523469   1.770905   1.774829
    37  C    4.228667   5.151145   5.034616   6.022722   4.901160
    38  C    4.630708   5.578052   5.418217   5.841889   4.612562
    39  C    5.581635   5.788401   5.298187   5.554591   4.597465
    40  H    4.850031   4.966169   4.520273   5.825837   5.001683
    41  H    4.866945   6.147443   6.041802   7.115912   5.968451
    42  H    4.493250   6.091412   6.175171   6.321530   4.886472
    43  H    6.142678   6.429051   5.974544   5.830527   4.859782
    44  H    6.058397   5.632361   4.837224   5.380428   4.742608
                   36         37         38         39         40
    36  H    0.000000
    37  C    4.662392   0.000000
    38  C    4.298004   1.507171   0.000000
    39  C    3.838295   2.518135   1.339029   0.000000
    40  H    4.440845   1.096412   2.144490   2.636745   0.000000
    41  H    5.742811   1.094131   2.100290   3.145636   1.736831
    42  H    4.881604   2.220922   1.089085   2.095660   3.103331
    43  H    4.128296   3.502759   2.110418   1.086287   3.719621
    44  H    3.637042   2.784270   2.124768   1.085578   2.447081
                   41         42         43         44
    41  H    0.000000
    42  H    2.555891   0.000000
    43  H    4.053381   2.419555   0.000000
    44  H    3.446340   3.078059   1.855173   0.000000
 Stoichiometry    C14H26O3Si
 Framework group  C1[X(C14H26O3Si)]
 Deg. of freedom   126
 Full point group                 C1      NOp   1
 Largest Abelian subgroup         C1      NOp   1
 Largest concise Abelian subgroup C1      NOp   1
                         Standard orientation:                         
 ---------------------------------------------------------------------
 Center     Atomic      Atomic             Coordinates (Angstroms)
 Number     Number       Type             X           Y           Z
 ---------------------------------------------------------------------
      1          6           0       -2.429849   -0.164703    0.073844
      2          6           0       -1.138710    0.262313    0.785291
      3          6           0        0.076861    0.022536   -0.170777
      4          6           0        0.085067   -1.465744   -0.539111
      5          6           0       -1.241605   -2.004744   -1.000873
      6          1           0       -2.594712    0.459255   -0.811387
      7          1           0       -1.190079    1.331800    1.024683
      8          1           0        0.808483   -1.647969   -1.342962
      9          1           0        0.400094   -2.083609    0.309025
     10          8           0       -2.352573   -1.525789   -0.401954
     11          8           0       -1.306158   -2.931307   -1.803408
     12          6           0       -3.716349   -0.063313    0.908906
     13          6           0       -4.019891    1.344676    1.394768
     14          6           0       -0.964695   -0.452739    2.142450
     15          8           0        1.235451    0.441165    0.586269
     16         14           0        2.844952    0.044482    0.358099
     17          6           0        3.903951    1.237898    1.376685
     18          6           0        3.219856   -1.691115    0.980344
     19          6           0        3.422749    0.176543   -1.419648
     20          1           0        4.300510   -1.859728    1.011344
     21          1           0        2.821459   -1.830810    1.989495
     22          1           0        2.779923   -2.448278    0.325834
     23          1           0        4.495113   -0.031157   -1.487668
     24          1           0        2.902914   -0.540846   -2.060501
     25          1           0        3.250316    1.183205   -1.811473
     26          1           0        4.965193    0.997347    1.265847
     27          1           0        3.742694    2.266937    1.042743
     28          1           0        3.639625    1.170212    2.435909
     29          1           0       -1.739548   -0.139865    2.849559
     30          1           0       -1.026869   -1.540974    2.047825
     31          1           0       -0.006379   -0.206354    2.609644
     32          1           0       -3.684246   -0.757739    1.756530
     33          1           0       -4.557010   -0.410994    0.293848
     34          1           0       -4.991684    1.366465    1.898334
     35          1           0       -3.269634    1.696823    2.108229
     36          1           0       -4.057601    2.048495    0.557278
     37          6           0       -0.025612    0.886710   -1.475262
     38          6           0       -0.164737    2.368266   -1.236095
     39          6           0       -1.160438    3.121221   -1.720487
     40          1           0       -0.846672    0.532287   -2.109584
     41          1           0        0.876090    0.750907   -2.079924
     42          1           0        0.609552    2.841491   -0.633898
     43          1           0       -1.198166    4.187148   -1.514585
     44          1           0       -1.952042    2.703819   -2.334995
 ---------------------------------------------------------------------
 Rotational constants (GHZ):      0.5110535      0.2619440      0.2358705
 Standard basis: 6-311G(d) (5D, 7F)
 There are   428 symmetry adapted cartesian basis functions of A   symmetry.
 There are   410 symmetry adapted basis functions of A   symmetry.
   410 basis functions,   720 primitive gaussians,   428 cartesian basis functions
    74 alpha electrons       74 beta electrons
       nuclear repulsion energy      1631.1773164508 Hartrees.
 NAtoms=   44 NActive=   44 NUniq=   44 SFac= 1.00D+00 NAtFMM=   60 NAOKFM=F Big=F
 Integral buffers will be    131072 words long.
 Raffenetti 2 integral format.
 Two-electron integral symmetry is turned on.
 ------------------------------------------------------------------------------
 Polarizable Continuum Model (PCM)
 =================================
 Model                : PCM (using non-symmetric T matrix).
 Atomic radii         : UFF (Universal Force Field).
 Polarization charges : Total charges.
 Charge compensation  : None.
 Solution method      : On-the-fly selection.
 Cavity type          : Scaled VdW (van der Waals Surface) (Alpha=1.100).
 Cavity algorithm     : GePol (No added spheres)
                        Default sphere list used, NSphG=   44.
                        Lebedev-Laikov grids with approx.  5.0 points / Ang**2.
                        Smoothing algorithm: Karplus/York (Gamma=1.0000).
                        Polarization charges: spherical gaussians, with
                                              point-specific exponents (IZeta= 3).
                        Self-potential: point-specific (ISelfS= 7).
                        Self-field    : sphere-specific E.n sum rule (ISelfD= 2).
 Solvent              : Chloroform, Eps=   4.711300 Eps(inf)=   2.090627
 ------------------------------------------------------------------------------
 One-electron integrals computed using PRISM.
 NBasis=   410 RedAO= T EigKep=  1.14D-03  NBF=   410
 NBsUse=   410 1.00D-06 EigRej= -1.00D+00 NBFU=   410
 ExpMin= 6.54D-02 ExpMax= 6.94D+04 ExpMxC= 2.33D+03 IAcc=2 IRadAn=         4 AccDes= 0.00D+00
 Harris functional with IExCor=  908 and IRadAn=       4 diagonalized for initial guess.
 HarFok:  IExCor=  908 AccDes= 0.00D+00 IRadAn=         4 IDoV= 1 UseB2=F ITyADJ=14
 ICtDFT=  3500011 ScaDFX=  1.000000  1.000000  1.000000  1.000000
 FoFCou: FMM=F IPFlag=           0 FMFlag=      100000 FMFlg1=           0
         NFxFlg=           0 DoJE=T BraDBF=F KetDBF=T FulRan=T
         wScrn=  0.000000 ICntrl=     500 IOpCl=  0 I1Cent=   200000004 NGrid=           0
         NMat0=    1 NMatS0=      1 NMatT0=    0 NMatD0=    1 NMtDS0=    0 NMtDT0=    0
 Petite list used in FoFCou.
 Requested convergence on RMS density matrix=1.00D-08 within 128 cycles.
 Requested convergence on MAX density matrix=1.00D-06.
 Requested convergence on             energy=1.00D-06.
 No special actions if energy rises.
 Inv3:  Mode=1 IEnd=    24607488.
 Iteration    1 A*A^-1 deviation from unit magnitude is 7.88D-15 for   2250.
 Iteration    1 A*A^-1 deviation from orthogonality  is 8.44D-15 for   2644   1135.
 Iteration    1 A^-1*A deviation from unit magnitude is 7.55D-15 for   1893.
 Iteration    1 A^-1*A deviation from orthogonality  is 7.82D-12 for   2497   2474.
 Error on total polarization charges =  0.01114
 SCF Done:  E(RmPW1PW91) =  -1064.37728671     A.U. after   13 cycles
            NFock= 13  Conv=0.31D-08     -V/T= 2.0036
 DoSCS=F DFT=T ScalE2(SS,OS)=  1.000000  1.000000
 Range of M.O.s used for correlation:     1   410
 NBasis=   410 NAE=    74 NBE=    74 NFC=     0 NFV=     0
 NROrb=    410 NOA=    74 NOB=    74 NVA=   336 NVB=   336
 NEqPCM:  Using equilibrium solvation (IEInf=0, Eps=   4.7113, EpsInf=   2.0906)
          Differentiating once with respect to magnetic field using GIAOs.
          Electric field/nuclear overlap derivatives assumed to be zero.
 FoFJK:  IHMeth= 1 ICntrl=    6127 DoSepK=F KAlg= 0 I1Cent=   0 FoldK=F
 IRaf=         1 NMat=   1 IRICut=       1 DoRegI=T DoRafI=F ISym2E= 0.
          There are     3 degrees of freedom in the 1st order CPHF.  IDoFFX=0 NUNeed=     3.
      3 vectors produced by pass  0 Test12= 8.29D-13 3.33D-08 XBig12= 3.72D+01 1.03D+00.
 AX will form     3 AO Fock derivatives at one time.
      3 vectors produced by pass  1 Test12= 8.29D-13 3.33D-08 XBig12= 7.75D-02 1.04D-01.
      3 vectors produced by pass  2 Test12= 8.29D-13 3.33D-08 XBig12= 8.11D-04 1.20D-02.
      3 vectors produced by pass  3 Test12= 8.29D-13 3.33D-08 XBig12= 5.76D-06 9.12D-04.
      3 vectors produced by pass  4 Test12= 8.29D-13 3.33D-08 XBig12= 3.26D-08 4.05D-05.
      3 vectors produced by pass  5 Test12= 8.29D-13 3.33D-08 XBig12= 7.13D-11 1.43D-06.
      2 vectors produced by pass  6 Test12= 8.29D-13 3.33D-08 XBig12= 1.86D-13 8.82D-08.
 InvSVY:  IOpt=1 It=  1 EMax= 8.32D-17
 Solved reduced A of dimension    20 with     3 vectors.
 Calculating GIAO nuclear magnetic shielding tensors.
 SCF GIAO Magnetic shielding tensor (ppm):
      1  C    Isotropic =   107.0781   Anisotropy =    60.2608
   XX=    98.4774   YX=   -13.3149   ZX=    -6.9533
   XY=    -2.8038   YY=   138.3821   ZY=    20.4109
   XZ=    -6.9484   YZ=    20.4898   ZZ=    84.3747
   Eigenvalues:    76.7098    97.2725   147.2519
      2  C    Isotropic =   148.2168   Anisotropy =    21.3484
   XX=   162.2584   YX=    -1.0587   ZX=     2.1101
   XY=    -1.1160   YY=   136.1194   ZY=    -5.0900
   XZ=    -5.6132   YZ=   -12.2583   ZZ=   146.2726
   Eigenvalues:   131.0398   151.1615   162.4491
      3  C    Isotropic =   104.8539   Anisotropy =    56.6145
   XX=   131.2957   YX=    10.6041   ZX=    22.0604
   XY=     5.2287   YY=    83.2508   ZY=     2.4914
   XZ=    18.8979   YZ=     3.1316   ZZ=   100.0153
   Eigenvalues:    81.9571    90.0078   142.5969
      4  C    Isotropic =   144.1062   Anisotropy =    34.9877
   XX=   152.7865   YX=    12.7088   ZX=     5.4552
   XY=    11.5131   YY=   148.1551   ZY=     3.2249
   XZ=    11.2569   YZ=    16.9980   ZZ=   131.3770
   Eigenvalues:   126.3134   138.5739   167.4314
      5  C    Isotropic =     8.6934   Anisotropy =    95.5556
   XX=   -79.9630   YX=     9.3661   ZX=    19.3934
   XY=    16.2522   YY=    51.8381   ZY=   -20.5388
   XZ=    32.5872   YZ=   -16.5753   ZZ=    54.2051
   Eigenvalues:   -86.6934    40.3764    72.3971
      6  H    Isotropic =    27.9814   Anisotropy =     2.9392
   XX=    29.0129   YX=    -0.5354   ZX=     0.2752
   XY=    -1.0842   YY=    27.4415   ZY=    -2.2836
   XZ=    -0.5091   YZ=    -2.1002   ZZ=    27.4897
   Eigenvalues:    25.1596    28.8437    29.9408
      7  H    Isotropic =    29.8901   Anisotropy =     4.3832
   XX=    29.2355   YX=    -1.0304   ZX=    -2.4048
   XY=    -0.4262   YY=    32.5133   ZY=    -0.7483
   XZ=    -1.9853   YZ=    -1.6069   ZZ=    27.9214
   Eigenvalues:    25.9951    30.8629    32.8122
      8  H    Isotropic =    29.5442   Anisotropy =     3.7633
   XX=    30.9762   YX=     0.1374   ZX=    -2.0539
   XY=     1.4051   YY=    29.5943   ZY=     2.9347
   XZ=    -0.8137   YZ=     3.1036   ZZ=    28.0619
   Eigenvalues:    25.2614    31.3180    32.0530
      9  H    Isotropic =    29.2440   Anisotropy =     4.6534
   XX=    30.4987   YX=    -1.3385   ZX=     1.3195
   XY=    -1.8137   YY=    30.1873   ZY=    -1.2824
   XZ=     1.1387   YZ=    -0.4422   ZZ=    27.0461
   Eigenvalues:    26.6123    28.7735    32.3463
     10  O    Isotropic =   113.7023   Anisotropy =   186.0154
   XX=   204.6297   YX=   -34.0420   ZX=   -36.9294
   XY=   -52.2329   YY=     1.2578   ZY=  -115.2873
   XZ=   -53.1268   YZ=  -174.4846   ZZ=   135.2194
   Eigenvalues:  -103.3307   206.7251   237.7126
     11  O    Isotropic =  -136.1475   Anisotropy =   601.3695
   XX=  -285.6507   YX=    49.6378   ZX=    83.9500
   XY=    50.2424   YY=   -81.8901   ZY=  -298.2942
   XZ=    90.3068   YZ=  -349.5215   ZZ=   -40.9016
   Eigenvalues:  -444.4774  -228.7306   264.7655
     12  C    Isotropic =   159.7907   Anisotropy =    26.1630
   XX=   167.1098   YX=    -3.7344   ZX=   -14.2611
   XY=    -0.4145   YY=   161.1499   ZY=     6.2448
   XZ=   -13.3968   YZ=     9.3646   ZZ=   151.1123
   Eigenvalues:   141.3921   160.7472   177.2327
     13  C    Isotropic =   178.3586   Anisotropy =    15.0939
   XX=   176.0162   YX=    -3.0828   ZX=    -2.9575
   XY=    -5.0784   YY=   185.6234   ZY=     3.9843
   XZ=    -2.8199   YZ=     3.2434   ZZ=   173.4362
   Eigenvalues:   171.4939   175.1608   188.4212
     14  C    Isotropic =   179.7346   Anisotropy =    15.0571
   XX=   177.8275   YX=    -2.3521   ZX=    -1.3141
   XY=    -1.8875   YY=   177.9868   ZY=    -9.1342
   XZ=    -1.2666   YZ=    -8.2044   ZZ=   183.3896
   Eigenvalues:   170.7446   178.6866   189.7727
     15  O    Isotropic =   245.1130   Anisotropy =    19.4605
   XX=   238.7108   YX=    13.1003   ZX=    -4.3808
   XY=     7.7974   YY=   251.3306   ZY=     6.0028
   XZ=   -13.7613   YZ=     9.9707   ZZ=   245.2977
   Eigenvalues:   225.6319   251.6206   258.0867
     16  Si   Isotropic =   334.1910   Anisotropy =    54.5314
   XX=   367.6991   YX=   -14.7342   ZX=   -11.7986
   XY=    -5.2711   YY=   320.5116   ZY=     6.6777
   XZ=     0.3934   YZ=     4.8530   ZZ=   314.3623
   Eigenvalues:   310.9016   321.1262   370.5453
     17  C    Isotropic =   186.3125   Anisotropy =    13.2671
   XX=   189.2402   YX=     1.5759   ZX=     3.0077
   XY=    -0.4521   YY=   187.7098   ZY=     9.0841
   XZ=     1.3637   YZ=     9.6224   ZZ=   181.9875
   Eigenvalues:   174.9246   188.8556   195.1573
     18  C    Isotropic =   184.6615   Anisotropy =    11.1041
   XX=   187.7602   YX=    -2.8002   ZX=     0.3532
   XY=    -0.4067   YY=   189.6932   ZY=    -5.2378
   XZ=    -0.6228   YZ=    -5.3592   ZZ=   176.5313
   Eigenvalues:   174.6299   187.2905   192.0643
     19  C    Isotropic =   185.2159   Anisotropy =     6.7839
   XX=   188.1549   YX=    -1.3204   ZX=    -1.6454
   XY=    -3.2245   YY=   177.9848   ZY=    -1.9860
   XZ=     1.1919   YZ=    -1.2593   ZZ=   189.5079
   Eigenvalues:   177.2817   188.6274   189.7385
     20  H    Isotropic =    32.2762   Anisotropy =    10.4271
   XX=    37.9047   YX=    -3.2425   ZX=     1.3729
   XY=    -2.9334   YY=    30.6980   ZY=    -0.7425
   XZ=     1.1302   YZ=    -0.6173   ZZ=    28.2258
   Eigenvalues:    28.0186    29.5823    39.2275
     21  H    Isotropic =    31.9489   Anisotropy =     7.3967
   XX=    30.7221   YX=    -0.5290   ZX=    -1.3713
   XY=    -0.0886   YY=    29.7329   ZY=    -3.4111
   XZ=    -1.4142   YZ=    -2.5138   ZZ=    35.3918
   Eigenvalues:    28.1761    30.7906    36.8801
     22  H    Isotropic =    32.0264   Anisotropy =     6.3439
   XX=    31.6726   YX=     0.2813   ZX=     2.3899
   XY=     1.1912   YY=    34.5783   ZY=     2.8987
   XZ=     2.3642   YZ=     2.0291   ZZ=    29.8282
   Eigenvalues:    27.7709    32.0526    36.2556
     23  H    Isotropic =    32.1520   Anisotropy =    10.4973
   XX=    38.2831   YX=    -1.2736   ZX=    -2.7822
   XY=    -1.5079   YY=    28.1717   ZY=     0.3296
   XZ=    -2.1623   YZ=     0.3119   ZZ=    30.0012
   Eigenvalues:    27.9838    29.3220    39.1502
     24  H    Isotropic =    31.9428   Anisotropy =     6.4892
   XX=    32.1106   YX=     1.8221   ZX=     0.2405
   XY=     1.9179   YY=    30.4647   ZY=     3.0125
   XZ=     1.2155   YZ=     3.9053   ZZ=    33.2531
   Eigenvalues:    27.8000    31.7594    36.2689
     25  H    Isotropic =    31.8791   Anisotropy =     7.2778
   XX=    30.5495   YX=    -0.3177   ZX=    -0.6720
   XY=    -0.1877   YY=    34.1025   ZY=    -3.5789
   XZ=    -0.5550   YZ=    -4.1872   ZZ=    30.9853
   Eigenvalues:    28.1813    30.7250    36.7310
     26  H    Isotropic =    32.3392   Anisotropy =     9.7811
   XX=    38.8022   YX=     0.1039   ZX=     0.9090
   XY=    -0.4035   YY=    29.2627   ZY=     0.7454
   XZ=     0.5915   YZ=     0.8016   ZZ=    28.9525
   Eigenvalues:    28.2751    29.8825    38.8599
     27  H    Isotropic =    32.0121   Anisotropy =     8.5915
   XX=    29.6399   YX=     0.8870   ZX=     1.3130
   XY=     0.5721   YY=    37.6442   ZY=    -1.1067
   XZ=     1.0980   YZ=    -0.1352   ZZ=    28.7521
   Eigenvalues:    27.8237    30.4728    37.7397
     28  H    Isotropic =    31.9596   Anisotropy =     8.5779
   XX=    29.7303   YX=     1.2558   ZX=     0.0924
   XY=     0.8678   YY=    28.7242   ZY=     1.9428
   XZ=    -0.1820   YZ=     1.0589   ZZ=    37.4244
   Eigenvalues:    27.8731    30.3276    37.6782
     29  H    Isotropic =    31.1564   Anisotropy =     9.6952
   XX=    32.3517   YX=    -2.1913   ZX=    -3.2276
   XY=    -2.0092   YY=    25.9046   ZY=     0.1873
   XZ=    -3.5402   YZ=     0.3014   ZZ=    35.2129
   Eigenvalues:    25.2188    30.6306    37.6199
     30  H    Isotropic =    31.4331   Anisotropy =     7.5541
   XX=    28.6049   YX=    -0.0655   ZX=    -0.4437
   XY=    -0.1984   YY=    35.0811   ZY=    -2.9132
   XZ=    -0.4701   YZ=    -2.7867   ZZ=    30.6132
   Eigenvalues:    28.3527    29.4774    36.4692
     31  H    Isotropic =    30.7110   Anisotropy =     8.1315
   XX=    34.3637   YX=     1.7201   ZX=     2.1015
   XY=     1.1123   YY=    24.5318   ZY=    -0.3587
   XZ=     2.2856   YZ=    -0.4604   ZZ=    33.2374
   Eigenvalues:    24.2724    31.7285    36.1320
     32  H    Isotropic =    30.3174   Anisotropy =     5.8745
   XX=    30.9671   YX=     0.7321   ZX=    -2.2523
   XY=     0.4342   YY=    30.3317   ZY=    -3.5632
   XZ=    -1.6394   YZ=    -2.9514   ZZ=    29.6534
   Eigenvalues:    26.4449    30.2736    34.2337
     33  H    Isotropic =    30.1727   Anisotropy =     9.2436
   XX=    34.7579   YX=     1.7974   ZX=     2.4000
   XY=     2.1154   YY=    28.3302   ZY=     3.6137
   XZ=     1.9040   YZ=     2.5882   ZZ=    27.4301
   Eigenvalues:    24.7329    29.4502    36.3351
     34  H    Isotropic =    30.9850   Anisotropy =    11.9982
   XX=    35.5518   YX=    -2.1246   ZX=    -4.7455
   XY=    -2.8916   YY=    28.6990   ZY=     1.9837
   XZ=    -5.0096   YZ=     1.5259   ZZ=    28.7042
   Eigenvalues:    26.0821    27.8890    38.9838
     35  H    Isotropic =    31.3144   Anisotropy =     5.8844
   XX=    32.1958   YX=    -0.7628   ZX=     1.3591
   XY=    -0.2598   YY=    30.6415   ZY=     4.5964
   XZ=     1.5283   YZ=     3.7738   ZZ=    31.1057
   Eigenvalues:    26.3604    32.3453    35.2373
     36  H    Isotropic =    31.3788   Anisotropy =     8.4112
   XX=    29.7412   YX=    -2.6995   ZX=    -0.4004
   XY=    -3.0245   YY=    34.0402   ZY=    -3.9820
   XZ=    -0.4737   YZ=    -3.2890   ZZ=    30.3551
   Eigenvalues:    26.7251    30.4251    36.9863
     37  C    Isotropic =   141.3982   Anisotropy =    35.4659
   XX=   124.0730   YX=    -5.2246   ZX=     1.3413
   XY=    -8.1776   YY=   159.6211   ZY=    -9.8876
   XZ=     3.1055   YZ=    -9.9394   ZZ=   140.5005
   Eigenvalues:   122.8405   136.3119   165.0421
     38  C    Isotropic =    44.8397   Anisotropy =   180.3397
   XX=    53.8826   YX=   -33.9063   ZX=   -77.3211
   XY=   -35.8129   YY=   -21.8879   ZY=   -63.7879
   XZ=   -77.0609   YZ=   -64.0018   ZZ=   102.5244
   Eigenvalues:   -81.2002    50.6531   165.0662
     39  C    Isotropic =    64.5993   Anisotropy =   141.9005
   XX=    84.3161   YX=   -35.5796   ZX=   -57.2961
   XY=   -37.2803   YY=     0.6017   ZY=   -59.8785
   XZ=   -54.6405   YZ=   -63.7385   ZZ=   108.8802
   Eigenvalues:   -51.9149    86.5132   159.1996
     40  H    Isotropic =    29.8277   Anisotropy =     5.3117
   XX=    29.1179   YX=    -0.4228   ZX=     2.2112
   XY=     0.7295   YY=    28.5036   ZY=    -0.9855
   XZ=     2.0570   YZ=    -2.0793   ZZ=    31.8615
   Eigenvalues:    27.2096    28.9046    33.3688
     41  H    Isotropic =    29.4584   Anisotropy =     6.4625
   XX=    32.3009   YX=    -2.2930   ZX=    -1.4353
   XY=    -2.0204   YY=    27.0954   ZY=    -1.4825
   XZ=    -2.9914   YZ=    -0.5333   ZZ=    28.9787
   Eigenvalues:    25.4090    29.1994    33.7667
     42  H    Isotropic =    25.7094   Anisotropy =     7.0836
   XX=    25.7187   YX=    -1.3532   ZX=    -0.0293
   XY=    -2.6575   YY=    28.5582   ZY=    -3.0506
   XZ=     0.0167   YZ=    -2.5169   ZZ=    22.8511
   Eigenvalues:    21.5628    25.1336    30.4317
     43  H    Isotropic =    26.7009   Anisotropy =     6.8991
   XX=    26.5673   YX=    -3.7639   ZX=    -0.1323
   XY=    -1.8467   YY=    28.3309   ZY=    -1.9316
   XZ=     0.3464   YZ=    -3.5850   ZZ=    25.2045
   Eigenvalues:    22.9589    25.8436    31.3003
     44  H    Isotropic =    26.7701   Anisotropy =     7.2374
   XX=    27.3647   YX=    -1.7645   ZX=     0.9269
   XY=    -3.9848   YY=    26.2405   ZY=    -4.3523
   XZ=     0.2659   YZ=    -2.9231   ZZ=    26.7050
   Eigenvalues:    22.1871    26.5281    31.5950
 End of Minotr F.D. properties file   721 does not exist.
 End of Minotr F.D. properties file   722 does not exist.
 End of Minotr F.D. properties file   788 does not exist.

 **********************************************************************

            Population analysis using the SCF density.

 **********************************************************************

 Orbital symmetries:
       Occupied  (A) (A) (A) (A) (A) (A) (A) (A) (A) (A) (A) (A)
                 (A) (A) (A) (A) (A) (A) (A) (A) (A) (A) (A) (A)
                 (A) (A) (A) (A) (A) (A) (A) (A) (A) (A) (A) (A)
                 (A) (A) (A) (A) (A) (A) (A) (A) (A) (A) (A) (A)
                 (A) (A) (A) (A) (A) (A) (A) (A) (A) (A) (A) (A)
                 (A) (A) (A) (A) (A) (A) (A) (A) (A) (A) (A) (A)
                 (A) (A)
       Virtual   (A) (A) (A) (A) (A) (A) (A) (A) (A) (A) (A) (A)
                 (A) (A) (A) (A) (A) (A) (A) (A) (A) (A) (A) (A)
                 (A) (A) (A) (A) (A) (A) (A) (A) (A) (A) (A) (A)
                 (A) (A) (A) (A) (A) (A) (A) (A) (A) (A) (A) (A)
                 (A) (A) (A) (A) (A) (A) (A) (A) (A) (A) (A) (A)
                 (A) (A) (A) (A) (A) (A) (A) (A) (A) (A) (A) (A)
                 (A) (A) (A) (A) (A) (A) (A) (A) (A) (A) (A) (A)
                 (A) (A) (A) (A) (A) (A) (A) (A) (A) (A) (A) (A)
                 (A) (A) (A) (A) (A) (A) (A) (A) (A) (A) (A) (A)
                 (A) (A) (A) (A) (A) (A) (A) (A) (A) (A) (A) (A)
                 (A) (A) (A) (A) (A) (A) (A) (A) (A) (A) (A) (A)
                 (A) (A) (A) (A) (A) (A) (A) (A) (A) (A) (A) (A)
                 (A) (A) (A) (A) (A) (A) (A) (A) (A) (A) (A) (A)
                 (A) (A) (A) (A) (A) (A) (A) (A) (A) (A) (A) (A)
                 (A) (A) (A) (A) (A) (A) (A) (A) (A) (A) (A) (A)
                 (A) (A) (A) (A) (A) (A) (A) (A) (A) (A) (A) (A)
                 (A) (A) (A) (A) (A) (A) (A) (A) (A) (A) (A) (A)
                 (A) (A) (A) (A) (A) (A) (A) (A) (A) (A) (A) (A)
                 (A) (A) (A) (A) (A) (A) (A) (A) (A) (A) (A) (A)
                 (A) (A) (A) (A) (A) (A) (A) (A) (A) (A) (A) (A)
                 (A) (A) (A) (A) (A) (A) (A) (A) (A) (A) (A) (A)
                 (A) (A) (A) (A) (A) (A) (A) (A) (A) (A) (A) (A)
                 (A) (A) (A) (A) (A) (A) (A) (A) (A) (A) (A) (A)
                 (A) (A) (A) (A) (A) (A) (A) (A) (A) (A) (A) (A)
                 (A) (A) (A) (A) (A) (A) (A) (A) (A) (A) (A) (A)
                 (A) (A) (A) (A) (A) (A) (A) (A) (A) (A) (A) (A)
                 (A) (A) (A) (A) (A) (A) (A) (A) (A) (A) (A) (A)
                 (A) (A) (A) (A) (A) (A) (A) (A) (A) (A) (A) (A)
 The electronic state is 1-A.
 Alpha  occ. eigenvalues --  -66.27040 -19.26264 -19.21387 -19.20300 -10.37601
 Alpha  occ. eigenvalues --  -10.32292 -10.30537 -10.25521 -10.25146 -10.24647
 Alpha  occ. eigenvalues --  -10.24446 -10.23726 -10.23053 -10.22577 -10.22324
 Alpha  occ. eigenvalues --  -10.20882 -10.20619 -10.20547  -5.32870  -3.66717
 Alpha  occ. eigenvalues --   -3.66484  -3.66451  -1.13585  -1.05076  -1.04164
 Alpha  occ. eigenvalues --   -0.86011  -0.83291  -0.81075  -0.77556  -0.74072
 Alpha  occ. eigenvalues --   -0.73481  -0.71858  -0.70318  -0.69994  -0.66970
 Alpha  occ. eigenvalues --   -0.63316  -0.62142  -0.58721  -0.54994  -0.53511
 Alpha  occ. eigenvalues --   -0.53274  -0.51480  -0.51052  -0.47940  -0.47332
 Alpha  occ. eigenvalues --   -0.46959  -0.45448  -0.45034  -0.44491  -0.43796
 Alpha  occ. eigenvalues --   -0.42821  -0.42785  -0.42408  -0.41422  -0.41073
 Alpha  occ. eigenvalues --   -0.40593  -0.40358  -0.39717  -0.39377  -0.38968
 Alpha  occ. eigenvalues --   -0.38645  -0.37894  -0.37375  -0.37129  -0.36573
 Alpha  occ. eigenvalues --   -0.35345  -0.34500  -0.33302  -0.31938  -0.31254
 Alpha  occ. eigenvalues --   -0.30335  -0.29680  -0.28586  -0.27344
 Alpha virt. eigenvalues --   -0.00730   0.00704   0.03797   0.05314   0.06013
 Alpha virt. eigenvalues --    0.06483   0.07071   0.07928   0.08362   0.08987
 Alpha virt. eigenvalues --    0.09544   0.09898   0.10756   0.10839   0.11530
 Alpha virt. eigenvalues --    0.12001   0.12429   0.13446   0.13688   0.13792
 Alpha virt. eigenvalues --    0.14448   0.14806   0.14988   0.15499   0.15897
 Alpha virt. eigenvalues --    0.16455   0.16796   0.17005   0.17768   0.18085
 Alpha virt. eigenvalues --    0.18308   0.19250   0.19817   0.20429   0.21010
 Alpha virt. eigenvalues --    0.21840   0.22247   0.23408   0.24540   0.24617
 Alpha virt. eigenvalues --    0.25279   0.26240   0.26347   0.27658   0.27686
 Alpha virt. eigenvalues --    0.29610   0.29891   0.30977   0.31587   0.32264
 Alpha virt. eigenvalues --    0.32816   0.33246   0.34666   0.35456   0.36107
 Alpha virt. eigenvalues --    0.36963   0.37809   0.38539   0.39876   0.40528
 Alpha virt. eigenvalues --    0.40711   0.42224   0.43515   0.43723   0.44671
 Alpha virt. eigenvalues --    0.44918   0.46435   0.46947   0.47289   0.47416
 Alpha virt. eigenvalues --    0.48908   0.50360   0.50801   0.51703   0.52325
 Alpha virt. eigenvalues --    0.53151   0.53255   0.54855   0.56078   0.56219
 Alpha virt. eigenvalues --    0.56520   0.57339   0.57574   0.58422   0.59081
 Alpha virt. eigenvalues --    0.59667   0.60125   0.60253   0.60708   0.61063
 Alpha virt. eigenvalues --    0.61291   0.61888   0.62190   0.62772   0.63382
 Alpha virt. eigenvalues --    0.63631   0.64259   0.65078   0.65613   0.66127
 Alpha virt. eigenvalues --    0.66366   0.67127   0.67371   0.67596   0.68198
 Alpha virt. eigenvalues --    0.68935   0.69046   0.69842   0.70340   0.70987
 Alpha virt. eigenvalues --    0.71920   0.72467   0.73091   0.74132   0.75160
 Alpha virt. eigenvalues --    0.75481   0.76436   0.78692   0.79761   0.81063
 Alpha virt. eigenvalues --    0.82789   0.83426   0.85676   0.86536   0.88436
 Alpha virt. eigenvalues --    0.89769   0.90836   0.91366   0.93219   0.94550
 Alpha virt. eigenvalues --    0.96161   0.96531   0.98898   1.00667   1.00689
 Alpha virt. eigenvalues --    1.01995   1.03670   1.06077   1.06809   1.08039
 Alpha virt. eigenvalues --    1.11404   1.12537   1.15219   1.17207   1.18425
 Alpha virt. eigenvalues --    1.18964   1.21370   1.25666   1.26400   1.27815
 Alpha virt. eigenvalues --    1.28652   1.29832   1.30451   1.32430   1.33274
 Alpha virt. eigenvalues --    1.34050   1.35009   1.36623   1.39522   1.41258
 Alpha virt. eigenvalues --    1.41911   1.45068   1.45619   1.47220   1.49366
 Alpha virt. eigenvalues --    1.49860   1.51824   1.52591   1.53585   1.54066
 Alpha virt. eigenvalues --    1.54752   1.55667   1.56206   1.57335   1.57761
 Alpha virt. eigenvalues --    1.58984   1.59327   1.59688   1.59963   1.60919
 Alpha virt. eigenvalues --    1.61646   1.62236   1.62863   1.63354   1.64520
 Alpha virt. eigenvalues --    1.64826   1.65640   1.66833   1.68693   1.69822
 Alpha virt. eigenvalues --    1.70168   1.71414   1.72295   1.73142   1.73572
 Alpha virt. eigenvalues --    1.74978   1.76836   1.77806   1.80063   1.80880
 Alpha virt. eigenvalues --    1.81236   1.81521   1.83895   1.85122   1.87393
 Alpha virt. eigenvalues --    1.90314   1.92124   1.93632   1.95704   1.96739
 Alpha virt. eigenvalues --    2.00760   2.03825   2.07137   2.10405   2.12606
 Alpha virt. eigenvalues --    2.13246   2.15755   2.19589   2.21148   2.24009
 Alpha virt. eigenvalues --    2.28036   2.29655   2.33971   2.36691   2.41301
 Alpha virt. eigenvalues --    2.41753   2.41947   2.42171   2.42630   2.43181
 Alpha virt. eigenvalues --    2.44458   2.44948   2.46192   2.46388   2.48238
 Alpha virt. eigenvalues --    2.48604   2.48836   2.50090   2.50781   2.52457
 Alpha virt. eigenvalues --    2.53181   2.54195   2.55971   2.58574   2.59226
 Alpha virt. eigenvalues --    2.62452   2.64620   2.66422   2.72287   2.80738
 Alpha virt. eigenvalues --    2.82736   2.86668   2.88320   2.90055   2.90641
 Alpha virt. eigenvalues --    2.92833   2.93303   2.95151   2.96436   2.96698
 Alpha virt. eigenvalues --    2.99987   3.00954   3.02007   3.05316   3.07351
 Alpha virt. eigenvalues --    3.09190   3.10841   3.11760   3.13575   3.14912
 Alpha virt. eigenvalues --    3.15816   3.17274   3.18546   3.19420   3.20985
 Alpha virt. eigenvalues --    3.22265   3.22783   3.23279   3.23700   3.25797
 Alpha virt. eigenvalues --    3.27419   3.27905   3.28353   3.30700   3.32968
 Alpha virt. eigenvalues --    3.34248   3.34879   3.37432   3.39921   3.40796
 Alpha virt. eigenvalues --    3.44067   3.51206   3.56259   3.59386   3.63224
 Alpha virt. eigenvalues --    3.77334   3.89357   3.90592   3.98901   4.01066
 Alpha virt. eigenvalues --    4.07978   4.10821   4.19845   4.21025   4.24482
 Alpha virt. eigenvalues --    4.94624   4.99363   5.02022   5.09366   5.13319
 Alpha virt. eigenvalues --    5.23695   5.50276   5.53487   5.77126   5.85162
 Alpha virt. eigenvalues --   11.52457  11.54537  11.59088  23.41724  23.48931
 Alpha virt. eigenvalues --   23.54666  23.55287  23.57435  23.60942  23.70072
 Alpha virt. eigenvalues --   23.76131  23.77835  23.77962  23.80617  23.86036
 Alpha virt. eigenvalues --   23.88728  24.27071  49.98229  50.05733  50.11560
 Alpha virt. eigenvalues --  141.28985
          Condensed to atoms (all electrons):
               1          2          3          4          5          6
     1  C    5.234961   0.232036  -0.052878  -0.005404  -0.054412   0.398644
     2  C    0.232036   5.622402   0.285036  -0.076794  -0.017947  -0.052355
     3  C   -0.052878   0.285036   5.202860   0.223846  -0.012678  -0.017101
     4  C   -0.005404  -0.076794   0.223846   5.893128   0.233146   0.003172
     5  C   -0.054412  -0.017947  -0.012678   0.233146   4.407641  -0.002811
     6  H    0.398644  -0.052355  -0.017101   0.003172  -0.002811   0.476651
     7  H   -0.023190   0.387706  -0.039319   0.008206   0.000179  -0.000741
     8  H   -0.001088   0.007677  -0.031652   0.352204  -0.025087   0.000159
     9  H    0.002165  -0.008545  -0.028480   0.371688  -0.021414  -0.000270
    10  O    0.215921  -0.040586   0.000419  -0.107242   0.345684  -0.033298
    11  O    0.000937  -0.000265   0.003624  -0.104621   0.664124   0.000361
    12  C    0.343708  -0.053236   0.008990  -0.001755   0.003666  -0.049527
    13  C   -0.075250   0.002533  -0.000511   0.000119  -0.000151   0.001697
    14  C   -0.083228   0.290811  -0.078742  -0.007952   0.000501   0.007640
    15  O    0.003573  -0.061490   0.222698  -0.024224   0.001618  -0.000034
    16  Si   0.000287   0.001908  -0.048842  -0.009323   0.000898  -0.000131
    17  C   -0.000001  -0.000021   0.002306  -0.000139   0.000001   0.000000
    18  C    0.000000  -0.000070  -0.000932   0.000666   0.000138   0.000001
    19  C    0.000008  -0.000251  -0.000128  -0.002101   0.000072   0.000002
    20  H    0.000000   0.000001  -0.000035   0.000155  -0.000001   0.000000
    21  H   -0.000002   0.000086   0.000570  -0.000190  -0.000038   0.000000
    22  H   -0.000001   0.000015  -0.000127   0.001430   0.000081   0.000001
    23  H    0.000000   0.000007  -0.000075   0.000051   0.000000   0.000000
    24  H    0.000007  -0.000087   0.000352   0.001284  -0.000051  -0.000002
    25  H    0.000003  -0.000094   0.000098   0.000176   0.000004  -0.000001
    26  H    0.000000   0.000001  -0.000078  -0.000002   0.000000   0.000000
    27  H    0.000000  -0.000010  -0.000081  -0.000020   0.000000   0.000000
    28  H   -0.000001   0.000045  -0.000154  -0.000042   0.000000   0.000000
    29  H   -0.007149  -0.033108   0.007328  -0.000584   0.000004  -0.000311
    30  H   -0.006326  -0.039949  -0.011456   0.006948  -0.001704   0.000588
    31  H    0.006411  -0.033745  -0.006221  -0.000034  -0.000099  -0.000137
    32  H   -0.038942  -0.013037  -0.000468   0.000132  -0.000066   0.007470
    33  H   -0.046937   0.009332  -0.000132   0.000270  -0.000243  -0.007956
    34  H    0.007789  -0.000125   0.000009  -0.000001   0.000005  -0.000293
    35  H   -0.009728   0.004800   0.000180  -0.000009  -0.000003  -0.000490
    36  H   -0.002122  -0.002873  -0.000220   0.000002  -0.000003   0.005352
    37  C    0.002021  -0.093388   0.324263  -0.105437   0.002281   0.004006
    38  C   -0.002349  -0.014364  -0.060064   0.008602  -0.000202  -0.000087
    39  C   -0.000836   0.000036  -0.003028  -0.000050  -0.000043   0.003182
    40  H   -0.000377  -0.002411  -0.025608  -0.005847   0.004407  -0.000955
    41  H   -0.000401   0.007464  -0.039830  -0.004592  -0.000063   0.000664
    42  H    0.000124  -0.000867  -0.001709  -0.000037  -0.000004   0.000014
    43  H    0.000047   0.000008  -0.000329   0.000017   0.000000   0.000011
    44  H    0.000047  -0.000173   0.000259  -0.000061  -0.000022   0.001255
               7          8          9         10         11         12
     1  C   -0.023190  -0.001088   0.002165   0.215921   0.000937   0.343708
     2  C    0.387706   0.007677  -0.008545  -0.040586  -0.000265  -0.053236
     3  C   -0.039319  -0.031652  -0.028480   0.000419   0.003624   0.008990
     4  C    0.008206   0.352204   0.371688  -0.107242  -0.104621  -0.001755
     5  C    0.000179  -0.025087  -0.021414   0.345684   0.664124   0.003666
     6  H   -0.000741   0.000159  -0.000270  -0.033298   0.000361  -0.049527
     7  H    0.440433  -0.000035  -0.000147   0.003019   0.000022  -0.007586
     8  H   -0.000035   0.427308  -0.016547   0.005687   0.014979   0.000048
     9  H   -0.000147  -0.016547   0.394686  -0.000620   0.001274   0.000011
    10  O    0.003019   0.005687  -0.000620   8.026760  -0.069758  -0.047613
    11  O    0.000022   0.014979   0.001274  -0.069758   7.869927  -0.000156
    12  C   -0.007586   0.000048   0.000011  -0.047613  -0.000156   5.318075
    13  C    0.001868  -0.000002  -0.000010   0.003751   0.000001   0.285208
    14  C   -0.038619   0.000111   0.000316  -0.000094  -0.000003  -0.008699
    15  O    0.003668  -0.001490  -0.001451  -0.000027  -0.000016  -0.000059
    16  Si  -0.000364  -0.001271  -0.006207  -0.000471  -0.001083   0.000030
    17  C   -0.000036  -0.000015  -0.000071   0.000000   0.000000   0.000000
    18  C    0.000034  -0.000457  -0.001874  -0.000001   0.000008   0.000000
    19  C    0.000007   0.002520   0.000220   0.000000   0.000007   0.000000
    20  H   -0.000001   0.000007   0.000356   0.000000   0.000000   0.000000
    21  H    0.000003   0.000060   0.000123   0.000001   0.000002   0.000000
    22  H    0.000004   0.000252   0.000098   0.000000  -0.000011   0.000000
    23  H    0.000000   0.000034   0.000000   0.000000   0.000000   0.000000
    24  H    0.000001   0.003177  -0.000133  -0.000003  -0.000078   0.000000
    25  H   -0.000009  -0.000232   0.000012   0.000000   0.000000   0.000000
    26  H    0.000000  -0.000004   0.000001   0.000000   0.000000   0.000000
    27  H   -0.000018  -0.000009  -0.000007   0.000000   0.000000   0.000000
    28  H   -0.000008  -0.000008  -0.000019   0.000000   0.000000   0.000000
    29  H   -0.006309   0.000014   0.000198  -0.000086   0.000001   0.001983
    30  H    0.006597   0.000477  -0.000205   0.009249  -0.000241  -0.003606
    31  H   -0.002175  -0.000122   0.000363  -0.000132   0.000002   0.000101
    32  H    0.000178   0.000001  -0.000065   0.002977  -0.000014   0.390586
    33  H   -0.000299  -0.000011   0.000013   0.004129  -0.000030   0.403281
    34  H    0.000232   0.000000   0.000000  -0.000121   0.000000  -0.033572
    35  H   -0.000140   0.000000   0.000000  -0.000048   0.000000  -0.034739
    36  H    0.000247   0.000000  -0.000001  -0.000028   0.000000  -0.043434
    37  C   -0.009816  -0.006604   0.005545  -0.003077  -0.000025  -0.000505
    38  C    0.008391   0.000164  -0.000187   0.000284  -0.000002  -0.000115
    39  C    0.002436  -0.000004   0.000001  -0.000018   0.000000  -0.000108
    40  H   -0.000101   0.000003   0.000169   0.000004   0.000425   0.000520
    41  H    0.000214   0.002567  -0.000189  -0.000105   0.000035   0.000001
    42  H   -0.000074  -0.000011   0.000020   0.000003   0.000000   0.000016
    43  H    0.000146   0.000001  -0.000001   0.000000   0.000000  -0.000009
    44  H   -0.000067   0.000001   0.000002  -0.000018   0.000000   0.000054
              13         14         15         16         17         18
     1  C   -0.075250  -0.083228   0.003573   0.000287  -0.000001   0.000000
     2  C    0.002533   0.290811  -0.061490   0.001908  -0.000021  -0.000070
     3  C   -0.000511  -0.078742   0.222698  -0.048842   0.002306  -0.000932
     4  C    0.000119  -0.007952  -0.024224  -0.009323  -0.000139   0.000666
     5  C   -0.000151   0.000501   0.001618   0.000898   0.000001   0.000138
     6  H    0.001697   0.007640  -0.000034  -0.000131   0.000000   0.000001
     7  H    0.001868  -0.038619   0.003668  -0.000364  -0.000036   0.000034
     8  H   -0.000002   0.000111  -0.001490  -0.001271  -0.000015  -0.000457
     9  H   -0.000010   0.000316  -0.001451  -0.006207  -0.000071  -0.001874
    10  O    0.003751  -0.000094  -0.000027  -0.000471   0.000000  -0.000001
    11  O    0.000001  -0.000003  -0.000016  -0.001083   0.000000   0.000008
    12  C    0.285208  -0.008699  -0.000059   0.000030   0.000000   0.000000
    13  C    5.369096  -0.002706  -0.000002  -0.000007   0.000000   0.000000
    14  C   -0.002706   5.433925  -0.005965  -0.000876  -0.000029   0.000094
    15  O   -0.000002  -0.005965   8.262053   0.349838  -0.021537  -0.024361
    16  Si  -0.000007  -0.000876   0.349838  11.529663   0.336491   0.318199
    17  C    0.000000  -0.000029  -0.021537   0.336491   5.723952  -0.053778
    18  C    0.000000   0.000094  -0.024361   0.318199  -0.053778   5.779106
    19  C    0.000000  -0.000001  -0.021801   0.316142  -0.051096  -0.058509
    20  H    0.000000   0.000002   0.000892  -0.011726  -0.000974   0.364673
    21  H    0.000000   0.000261  -0.002206  -0.025823  -0.000396   0.369964
    22  H    0.000000   0.000005  -0.001164  -0.029680   0.002782   0.370567
    23  H    0.000000   0.000000   0.000758  -0.009914  -0.000974   0.000234
    24  H    0.000000   0.000002  -0.001039  -0.028575   0.003036  -0.001408
    25  H    0.000000   0.000003  -0.001848  -0.027164  -0.000478   0.002462
    26  H    0.000000  -0.000002   0.000901  -0.014330   0.364083   0.000633
    27  H    0.000000  -0.000001  -0.001309  -0.028314   0.368721   0.002581
    28  H    0.000000   0.000000  -0.001186  -0.026882   0.369434  -0.000537
    29  H   -0.000678   0.388298   0.000265   0.000248  -0.000001  -0.000006
    30  H    0.000616   0.385218   0.000170  -0.000900   0.000001   0.000149
    31  H   -0.000050   0.386512   0.006653   0.001261   0.000026   0.000275
    32  H   -0.036599   0.005409  -0.000002  -0.000005   0.000000   0.000000
    33  H   -0.038151  -0.000415   0.000004   0.000002   0.000000   0.000000
    34  H    0.389675  -0.000087   0.000000   0.000000   0.000000   0.000000
    35  H    0.383997   0.000107  -0.000020  -0.000007   0.000000   0.000000
    36  H    0.384795   0.000518   0.000000   0.000000   0.000000   0.000000
    37  C    0.000046   0.008080  -0.059414  -0.013672  -0.000253  -0.000420
    38  C   -0.000035  -0.000122   0.002499  -0.000448  -0.000036   0.000021
    39  C   -0.000019  -0.000009   0.000535   0.000395   0.000000   0.000000
    40  H   -0.000036  -0.000258   0.003608   0.001962   0.000000   0.000018
    41  H    0.000000  -0.000135  -0.003151  -0.004520  -0.000037  -0.000120
    42  H   -0.000001  -0.000065   0.004490   0.002210   0.000146   0.000021
    43  H    0.000021  -0.000002   0.000015   0.000010   0.000000   0.000000
    44  H    0.000061   0.000004  -0.000010  -0.000005   0.000000   0.000000
              19         20         21         22         23         24
     1  C    0.000008   0.000000  -0.000002  -0.000001   0.000000   0.000007
     2  C   -0.000251   0.000001   0.000086   0.000015   0.000007  -0.000087
     3  C   -0.000128  -0.000035   0.000570  -0.000127  -0.000075   0.000352
     4  C   -0.002101   0.000155  -0.000190   0.001430   0.000051   0.001284
     5  C    0.000072  -0.000001  -0.000038   0.000081   0.000000  -0.000051
     6  H    0.000002   0.000000   0.000000   0.000001   0.000000  -0.000002
     7  H    0.000007  -0.000001   0.000003   0.000004   0.000000   0.000001
     8  H    0.002520   0.000007   0.000060   0.000252   0.000034   0.003177
     9  H    0.000220   0.000356   0.000123   0.000098   0.000000  -0.000133
    10  O    0.000000   0.000000   0.000001   0.000000   0.000000  -0.000003
    11  O    0.000007   0.000000   0.000002  -0.000011   0.000000  -0.000078
    12  C    0.000000   0.000000   0.000000   0.000000   0.000000   0.000000
    13  C    0.000000   0.000000   0.000000   0.000000   0.000000   0.000000
    14  C   -0.000001   0.000002   0.000261   0.000005   0.000000   0.000002
    15  O   -0.021801   0.000892  -0.002206  -0.001164   0.000758  -0.001039
    16  Si   0.316142  -0.011726  -0.025823  -0.029680  -0.009914  -0.028575
    17  C   -0.051096  -0.000974  -0.000396   0.002782  -0.000974   0.003036
    18  C   -0.058509   0.364673   0.369964   0.370567   0.000234  -0.001408
    19  C    5.801929   0.000853   0.002300  -0.001540   0.366080   0.365005
    20  H    0.000853   0.447404  -0.020024  -0.022429   0.000317  -0.000009
    21  H    0.002300  -0.020024   0.450379  -0.019020  -0.000029  -0.000046
    22  H   -0.001540  -0.022429  -0.019020   0.456079   0.000064   0.001229
    23  H    0.366080   0.000317  -0.000029   0.000064   0.434653  -0.019843
    24  H    0.365005  -0.000009  -0.000046   0.001229  -0.019843   0.450371
    25  H    0.369806  -0.000049  -0.000104  -0.000026  -0.020655  -0.019677
    26  H   -0.000133   0.000831  -0.000029  -0.000078   0.000635  -0.000054
    27  H   -0.000549   0.000006  -0.000104  -0.000116  -0.000079  -0.000081
    28  H    0.002609  -0.000086   0.001070  -0.000085  -0.000060  -0.000098
    29  H    0.000000   0.000000  -0.000010  -0.000002   0.000000   0.000000
    30  H    0.000004  -0.000005   0.000097  -0.000002   0.000000  -0.000003
    31  H    0.000040   0.000006   0.000573  -0.000008   0.000000   0.000004
    32  H    0.000000   0.000000   0.000000   0.000000   0.000000   0.000000
    33  H    0.000000   0.000000   0.000000   0.000000   0.000000   0.000000
    34  H    0.000000   0.000000   0.000000   0.000000   0.000000   0.000000
    35  H    0.000000   0.000000   0.000000   0.000000   0.000000   0.000000
    36  H    0.000000   0.000000   0.000000   0.000000   0.000000   0.000000
    37  C   -0.003254   0.000011  -0.000054  -0.000043   0.000390  -0.000853
    38  C    0.000781   0.000000   0.000003   0.000002  -0.000051   0.000167
    39  C    0.000010   0.000000   0.000000   0.000000  -0.000001  -0.000009
    40  H   -0.000061   0.000000   0.000004   0.000009  -0.000010  -0.000128
    41  H   -0.002510   0.000004  -0.000004  -0.000047   0.000707   0.000688
    42  H   -0.000050   0.000000   0.000001   0.000001   0.000002   0.000000
    43  H    0.000000   0.000000   0.000000   0.000000   0.000000   0.000000
    44  H   -0.000001   0.000000   0.000000   0.000000   0.000000   0.000001
              25         26         27         28         29         30
     1  C    0.000003   0.000000   0.000000  -0.000001  -0.007149  -0.006326
     2  C   -0.000094   0.000001  -0.000010   0.000045  -0.033108  -0.039949
     3  C    0.000098  -0.000078  -0.000081  -0.000154   0.007328  -0.011456
     4  C    0.000176  -0.000002  -0.000020  -0.000042  -0.000584   0.006948
     5  C    0.000004   0.000000   0.000000   0.000000   0.000004  -0.001704
     6  H   -0.000001   0.000000   0.000000   0.000000  -0.000311   0.000588
     7  H   -0.000009   0.000000  -0.000018  -0.000008  -0.006309   0.006597
     8  H   -0.000232  -0.000004  -0.000009  -0.000008   0.000014   0.000477
     9  H    0.000012   0.000001  -0.000007  -0.000019   0.000198  -0.000205
    10  O    0.000000   0.000000   0.000000   0.000000  -0.000086   0.009249
    11  O    0.000000   0.000000   0.000000   0.000000   0.000001  -0.000241
    12  C    0.000000   0.000000   0.000000   0.000000   0.001983  -0.003606
    13  C    0.000000   0.000000   0.000000   0.000000  -0.000678   0.000616
    14  C    0.000003  -0.000002  -0.000001   0.000000   0.388298   0.385218
    15  O   -0.001848   0.000901  -0.001309  -0.001186   0.000265   0.000170
    16  Si  -0.027164  -0.014330  -0.028314  -0.026882   0.000248  -0.000900
    17  C   -0.000478   0.364083   0.368721   0.369434  -0.000001   0.000001
    18  C    0.002462   0.000633   0.002581  -0.000537  -0.000006   0.000149
    19  C    0.369806  -0.000133  -0.000549   0.002609   0.000000   0.000004
    20  H   -0.000049   0.000831   0.000006  -0.000086   0.000000  -0.000005
    21  H   -0.000104  -0.000029  -0.000104   0.001070  -0.000010   0.000097
    22  H   -0.000026  -0.000078  -0.000116  -0.000085  -0.000002  -0.000002
    23  H   -0.020655   0.000635  -0.000079  -0.000060   0.000000   0.000000
    24  H   -0.019677  -0.000054  -0.000081  -0.000098   0.000000  -0.000003
    25  H    0.449688  -0.000104   0.001273  -0.000073   0.000000   0.000000
    26  H   -0.000104   0.452967  -0.020403  -0.020553   0.000000   0.000000
    27  H    0.001273  -0.020403   0.458721  -0.018126   0.000001  -0.000001
    28  H   -0.000073  -0.020553  -0.018126   0.457189   0.000000  -0.000005
    29  H    0.000000   0.000000   0.000001   0.000000   0.458932  -0.026941
    30  H    0.000000   0.000000  -0.000001  -0.000005  -0.026941   0.475228
    31  H    0.000001  -0.000007  -0.000016   0.000124  -0.026609  -0.023786
    32  H    0.000000   0.000000   0.000000   0.000000  -0.001748   0.001389
    33  H    0.000000   0.000000   0.000000   0.000000   0.000289  -0.000240
    34  H    0.000000   0.000000   0.000000   0.000000   0.000007   0.000005
    35  H    0.000000   0.000000   0.000000   0.000000   0.003453  -0.000099
    36  H    0.000000   0.000000   0.000000   0.000000  -0.000077  -0.000007
    37  C   -0.000497   0.000006  -0.000002  -0.000016  -0.000117  -0.000063
    38  C    0.000844  -0.000004   0.000019  -0.000005  -0.000031  -0.000047
    39  C    0.000088   0.000000  -0.000003   0.000000   0.000000  -0.000004
    40  H   -0.000040   0.000000  -0.000001   0.000001  -0.000008  -0.000008
    41  H   -0.000601   0.000004  -0.000021  -0.000007   0.000010   0.000014
    42  H    0.000203  -0.000008   0.000408  -0.000011   0.000005  -0.000005
    43  H   -0.000002   0.000000  -0.000001   0.000000  -0.000001   0.000000
    44  H    0.000001   0.000000   0.000000   0.000000   0.000001   0.000000
              31         32         33         34         35         36
     1  C    0.006411  -0.038942  -0.046937   0.007789  -0.009728  -0.002122
     2  C   -0.033745  -0.013037   0.009332  -0.000125   0.004800  -0.002873
     3  C   -0.006221  -0.000468  -0.000132   0.000009   0.000180  -0.000220
     4  C   -0.000034   0.000132   0.000270  -0.000001  -0.000009   0.000002
     5  C   -0.000099  -0.000066  -0.000243   0.000005  -0.000003  -0.000003
     6  H   -0.000137   0.007470  -0.007956  -0.000293  -0.000490   0.005352
     7  H   -0.002175   0.000178  -0.000299   0.000232  -0.000140   0.000247
     8  H   -0.000122   0.000001  -0.000011   0.000000   0.000000   0.000000
     9  H    0.000363  -0.000065   0.000013   0.000000   0.000000  -0.000001
    10  O   -0.000132   0.002977   0.004129  -0.000121  -0.000048  -0.000028
    11  O    0.000002  -0.000014  -0.000030   0.000000   0.000000   0.000000
    12  C    0.000101   0.390586   0.403281  -0.033572  -0.034739  -0.043434
    13  C   -0.000050  -0.036599  -0.038151   0.389675   0.383997   0.384795
    14  C    0.386512   0.005409  -0.000415  -0.000087   0.000107   0.000518
    15  O    0.006653  -0.000002   0.000004   0.000000  -0.000020   0.000000
    16  Si   0.001261  -0.000005   0.000002   0.000000  -0.000007   0.000000
    17  C    0.000026   0.000000   0.000000   0.000000   0.000000   0.000000
    18  C    0.000275   0.000000   0.000000   0.000000   0.000000   0.000000
    19  C    0.000040   0.000000   0.000000   0.000000   0.000000   0.000000
    20  H    0.000006   0.000000   0.000000   0.000000   0.000000   0.000000
    21  H    0.000573   0.000000   0.000000   0.000000   0.000000   0.000000
    22  H   -0.000008   0.000000   0.000000   0.000000   0.000000   0.000000
    23  H    0.000000   0.000000   0.000000   0.000000   0.000000   0.000000
    24  H    0.000004   0.000000   0.000000   0.000000   0.000000   0.000000
    25  H    0.000001   0.000000   0.000000   0.000000   0.000000   0.000000
    26  H   -0.000007   0.000000   0.000000   0.000000   0.000000   0.000000
    27  H   -0.000016   0.000000   0.000000   0.000000   0.000000   0.000000
    28  H    0.000124   0.000000   0.000000   0.000000   0.000000   0.000000
    29  H   -0.026609  -0.001748   0.000289   0.000007   0.003453  -0.000077
    30  H   -0.023786   0.001389  -0.000240   0.000005  -0.000099  -0.000007
    31  H    0.429176   0.000177   0.000018  -0.000004  -0.000051   0.000008
    32  H    0.000177   0.478506  -0.033338  -0.004257  -0.006093   0.007045
    33  H    0.000018  -0.033338   0.474728  -0.006237   0.006520  -0.004869
    34  H   -0.000004  -0.004257  -0.006237   0.462288  -0.026678  -0.025224
    35  H   -0.000051  -0.006093   0.006520  -0.026678   0.473885  -0.027084
    36  H    0.000008   0.007045  -0.004869  -0.025224  -0.027084   0.475439
    37  C    0.000256  -0.000006   0.000009  -0.000001   0.000016  -0.000066
    38  C    0.000009  -0.000017  -0.000007   0.000003   0.000011   0.000402
    39  C    0.000001  -0.000003  -0.000003   0.000003   0.000041   0.001136
    40  H   -0.000022  -0.000023  -0.000012   0.000002   0.000010  -0.000069
    41  H   -0.000031   0.000002  -0.000003   0.000000   0.000001   0.000006
    42  H    0.000004  -0.000001   0.000000   0.000000   0.000001  -0.000001
    43  H    0.000000   0.000000   0.000000  -0.000001   0.000002   0.000030
    44  H   -0.000001   0.000001  -0.000005  -0.000002   0.000004   0.000085
              37         38         39         40         41         42
     1  C    0.002021  -0.002349  -0.000836  -0.000377  -0.000401   0.000124
     2  C   -0.093388  -0.014364   0.000036  -0.002411   0.007464  -0.000867
     3  C    0.324263  -0.060064  -0.003028  -0.025608  -0.039830  -0.001709
     4  C   -0.105437   0.008602  -0.000050  -0.005847  -0.004592  -0.000037
     5  C    0.002281  -0.000202  -0.000043   0.004407  -0.000063  -0.000004
     6  H    0.004006  -0.000087   0.003182  -0.000955   0.000664   0.000014
     7  H   -0.009816   0.008391   0.002436  -0.000101   0.000214  -0.000074
     8  H   -0.006604   0.000164  -0.000004   0.000003   0.002567  -0.000011
     9  H    0.005545  -0.000187   0.000001   0.000169  -0.000189   0.000020
    10  O   -0.003077   0.000284  -0.000018   0.000004  -0.000105   0.000003
    11  O   -0.000025  -0.000002   0.000000   0.000425   0.000035   0.000000
    12  C   -0.000505  -0.000115  -0.000108   0.000520   0.000001   0.000016
    13  C    0.000046  -0.000035  -0.000019  -0.000036   0.000000  -0.000001
    14  C    0.008080  -0.000122  -0.000009  -0.000258  -0.000135  -0.000065
    15  O   -0.059414   0.002499   0.000535   0.003608  -0.003151   0.004490
    16  Si  -0.013672  -0.000448   0.000395   0.001962  -0.004520   0.002210
    17  C   -0.000253  -0.000036   0.000000   0.000000  -0.000037   0.000146
    18  C   -0.000420   0.000021   0.000000   0.000018  -0.000120   0.000021
    19  C   -0.003254   0.000781   0.000010  -0.000061  -0.002510  -0.000050
    20  H    0.000011   0.000000   0.000000   0.000000   0.000004   0.000000
    21  H   -0.000054   0.000003   0.000000   0.000004  -0.000004   0.000001
    22  H   -0.000043   0.000002   0.000000   0.000009  -0.000047   0.000001
    23  H    0.000390  -0.000051  -0.000001  -0.000010   0.000707   0.000002
    24  H   -0.000853   0.000167  -0.000009  -0.000128   0.000688   0.000000
    25  H   -0.000497   0.000844   0.000088  -0.000040  -0.000601   0.000203
    26  H    0.000006  -0.000004   0.000000   0.000000   0.000004  -0.000008
    27  H   -0.000002   0.000019  -0.000003  -0.000001  -0.000021   0.000408
    28  H   -0.000016  -0.000005   0.000000   0.000001  -0.000007  -0.000011
    29  H   -0.000117  -0.000031   0.000000  -0.000008   0.000010   0.000005
    30  H   -0.000063  -0.000047  -0.000004  -0.000008   0.000014  -0.000005
    31  H    0.000256   0.000009   0.000001  -0.000022  -0.000031   0.000004
    32  H   -0.000006  -0.000017  -0.000003  -0.000023   0.000002  -0.000001
    33  H    0.000009  -0.000007  -0.000003  -0.000012  -0.000003   0.000000
    34  H   -0.000001   0.000003   0.000003   0.000002   0.000000   0.000000
    35  H    0.000016   0.000011   0.000041   0.000010   0.000001   0.000001
    36  H   -0.000066   0.000402   0.001136  -0.000069   0.000006  -0.000001
    37  C    5.457301   0.325948  -0.058398   0.383393   0.395883  -0.044789
    38  C    0.325948   5.057780   0.620010  -0.044798  -0.042087   0.397621
    39  C   -0.058398   0.620010   5.146502   0.001597  -0.000897  -0.039860
    40  H    0.383393  -0.044798   0.001597   0.452813  -0.026821   0.004632
    41  H    0.395883  -0.042087  -0.000897  -0.026821   0.444354  -0.001733
    42  H   -0.044789   0.397621  -0.039860   0.004632  -0.001733   0.456230
    43  H    0.006406  -0.039534   0.392570   0.000153  -0.000381  -0.007772
    44  H   -0.008968  -0.039687   0.387325   0.004230   0.000134   0.005681
              43         44
     1  C    0.000047   0.000047
     2  C    0.000008  -0.000173
     3  C   -0.000329   0.000259
     4  C    0.000017  -0.000061
     5  C    0.000000  -0.000022
     6  H    0.000011   0.001255
     7  H    0.000146  -0.000067
     8  H    0.000001   0.000001
     9  H   -0.000001   0.000002
    10  O    0.000000  -0.000018
    11  O    0.000000   0.000000
    12  C   -0.000009   0.000054
    13  C    0.000021   0.000061
    14  C   -0.000002   0.000004
    15  O    0.000015  -0.000010
    16  Si   0.000010  -0.000005
    17  C    0.000000   0.000000
    18  C    0.000000   0.000000
    19  C    0.000000  -0.000001
    20  H    0.000000   0.000000
    21  H    0.000000   0.000000
    22  H    0.000000   0.000000
    23  H    0.000000   0.000000
    24  H    0.000000   0.000001
    25  H   -0.000002   0.000001
    26  H    0.000000   0.000000
    27  H   -0.000001   0.000000
    28  H    0.000000   0.000000
    29  H   -0.000001   0.000001
    30  H    0.000000   0.000000
    31  H    0.000000  -0.000001
    32  H    0.000000   0.000001
    33  H    0.000000  -0.000005
    34  H   -0.000001  -0.000002
    35  H    0.000002   0.000004
    36  H    0.000030   0.000085
    37  C    0.006406  -0.008968
    38  C   -0.039534  -0.039687
    39  C    0.392570   0.387325
    40  H    0.000153   0.004230
    41  H   -0.000381   0.000134
    42  H   -0.007772   0.005681
    43  H    0.453837  -0.032843
    44  H   -0.032843   0.459131
 Mulliken charges:
               1
     1  C   -0.038066
     2  C   -0.306112
     3  C    0.178040
     4  C   -0.648776
     5  C    0.472590
     6  H    0.255634
     7  H    0.265462
     8  H    0.267198
     9  H    0.309184
    10  O   -0.314542
    11  O   -0.379426
    12  C   -0.471559
    13  C   -0.669275
    14  C   -0.679805
    15  O   -0.630430
    16  Si   1.430997
    17  C   -1.041105
    18  C   -1.067371
    19  C   -1.086411
    20  H    0.239821
    21  H    0.242579
    22  H    0.241764
    23  H    0.247761
    24  H    0.246858
    25  H    0.246990
    26  H    0.235727
    27  H    0.237542
    28  H    0.237491
    29  H    0.242738
    30  H    0.228852
    31  H    0.261250
    32  H    0.240810
    33  H    0.240294
    34  H    0.236585
    35  H    0.232160
    36  H    0.231011
    37  C   -0.506122
    38  C   -0.179281
    39  C   -0.452575
    40  H    0.249635
    41  H    0.275533
    42  H    0.225165
    43  H    0.227603
    44  H    0.223585
 Sum of Mulliken charges =   0.00000
 Mulliken charges with hydrogens summed into heavy atoms:
               1
     1  C    0.217568
     2  C   -0.040651
     3  C    0.178040
     4  C   -0.072394
     5  C    0.472590
    10  O   -0.314542
    11  O   -0.379426
    12  C    0.009545
    13  C    0.030482
    14  C    0.053035
    15  O   -0.630430
    16  Si   1.430997
    17  C   -0.330346
    18  C   -0.343206
    19  C   -0.344802
    37  C    0.019045
    38  C    0.045884
    39  C   -0.001387
 Electronic spatial extent (au):  <R**2>=           5472.6003
 Charge=              0.0000 electrons
 Dipole moment (field-independent basis, Debye):
    X=              1.3300    Y=              3.6780    Z=              1.9694  Tot=              4.3789
 Quadrupole moment (field-independent basis, Debye-Ang):
   XX=           -112.9529   YY=           -131.8190   ZZ=           -123.1205
   XY=            -10.7899   XZ=             -5.6915   YZ=             -9.3439
 Traceless Quadrupole moment (field-independent basis, Debye-Ang):
   XX=              9.6779   YY=             -9.1882   ZZ=             -0.4897
   XY=            -10.7899   XZ=             -5.6915   YZ=             -9.3439
 Octapole moment (field-independent basis, Debye-Ang**2):
  XXX=             -5.6455  YYY=             39.6320  ZZZ=             13.8806  XYY=             16.8857
  XXY=             13.2687  XXZ=              6.7440  XZZ=             -6.7654  YZZ=              8.0963
  YYZ=             26.4160  XYZ=             15.8816
 Hexadecapole moment (field-independent basis, Debye-Ang**3):
 XXXX=          -4235.5616 YYYY=          -1819.0932 ZZZZ=          -1273.8670 XXXY=            -44.4583
 XXXZ=            -36.1599 YYYX=            -41.4462 YYYZ=            -73.4506 ZZZX=              6.5654
 ZZZY=              4.9133 XXYY=          -1094.6384 XXZZ=           -953.8751 YYZZ=           -575.3972
 XXYZ=            -28.3471 YYXZ=            -39.2470 ZZXY=            -30.8702
 N-N= 1.631177316451D+03 E-N=-5.757286322810D+03  KE= 1.060515144406D+03
 1\1\GINC-SWANNODE-0-12\SP\RmPW1PW91\6-311G(d)\C14H26O3Si1\ROOT\08-Mar-
 2018\0\\#mPW1PW91/6-311g(d) nmr=(giao) scrf=(solvent=chloroform)\\P_ng
 _4ginp002\\0,1\C,0,0.107521,2.099216,-0.458388\C,0,-0.129283,1.346979,
 0.858276\C,0,-1.25168,2.075215,1.670107\C,0,-0.787259,3.517545,1.90401
 2\C,0,-0.291673,4.224363,0.671695\H,0,-0.79795,2.071969,-1.074438\H,0,
 -0.462381,0.32463,0.640111\H,0,-1.611763,4.114206,2.312549\H,0,0.02250
 6,3.560074,2.640766\O,0,0.397837,3.495303,-0.2313\O,0,-0.402767,5.4406
 66,0.549169\C,0,1.238919,1.553376,-1.344214\C,0,1.030354,0.113059,-1.7
 83098\C,0,1.172065,1.187978,1.67355\O,0,-1.39285,1.304855,2.885555\Si,
 0,-2.060374,1.758847,4.351234\C,0,-2.34979,0.199032,5.383926\C,0,-0.88
 6915,2.856344,5.330282\C,0,-3.71031,2.63502,4.203902\H,0,-1.245719,2.9
 77619,6.356808\H,0,0.11245,2.412931,5.365994\H,0,-0.809612,3.850183,4.
 881361\H,0,-4.120315,2.843791,5.196898\H,0,-3.608165,3.588325,3.678218
 \H,0,-4.433564,2.015553,3.665579\H,0,-2.770704,0.458916,6.359465\H,0,-
 3.04561,-0.4712,4.871026\H,0,-1.406723,-0.332291,5.54117\H,0,1.880796,
 0.536443,1.1525\H,0,1.672219,2.145735,1.845658\H,0,0.985912,0.722121,2
 .646006\H,0,2.208709,1.660328,-0.84442\H,0,1.313965,2.185383,-2.239102
 \H,0,1.816897,-0.183049,-2.4846\H,0,1.065961,-0.577145,-0.93559\H,0,0.
 065893,-0.007322,-2.286583\C,0,-2.618959,2.080828,0.90232\C,0,-3.12047
 3,0.716013,0.505673\C,0,-3.430978,0.360292,-0.747342\H,0,-2.563461,2.7
 29105,0.019837\H,0,-3.394108,2.528005,1.531844\H,0,-3.239325,-0.013165
 ,1.305848\H,0,-3.793323,-0.640527,-0.964339\H,0,-3.341817,1.049902,-1.
 58099\\Version=EM64L-G09RevD.01\State=1-A\HF=-1064.3772867\RMSD=3.142e
 -09\Dipole=-0.3680315,-1.6345426,0.4010418\Quadrupole=3.9211546,-11.28
 27957,7.3616411,-4.1721797,-0.647021,7.9713332\PG=C01 [X(C14H26O3Si1)]
 \\@


 MARY HAD A LITTLE LAMB
      HIS FEET WERE BLACK AS SOOT,
           AND EVERYWHERE THAT MARY WENT
                HIS SOOTY FOOT HE PUT.

                    -- NONAME
 Job cpu time:       0 days  1 hours 10 minutes 47.1 seconds.
 File lengths (MBytes):  RWF=    235 Int=      0 D2E=      0 Chk=     11 Scr=      1
 Normal termination of Gaussian 09 at Thu Mar  8 13:56:58 2018.
