 Entering Gaussian System, Link 0=/usr/local/shared/gaussian/em64t/09-D01/g09/g09
 Initial command:
 /usr/local/shared/gaussian/em64t/09-D01/g09/l1.exe "/scratch/ah809/P_ng_2ginp005/Gau-12490.inp" -scrdir="/scratch/ah809/P_ng_2ginp005/"
 Entering Link 1 = /usr/local/shared/gaussian/em64t/09-D01/g09/l1.exe PID=     12565.
  
 Copyright (c) 1988,1990,1992,1993,1995,1998,2003,2009,2013,
            Gaussian, Inc.  All Rights Reserved.
  
 This is part of the Gaussian(R) 09 program.  It is based on
 the Gaussian(R) 03 system (copyright 2003, Gaussian, Inc.),
 the Gaussian(R) 98 system (copyright 1998, Gaussian, Inc.),
 the Gaussian(R) 94 system (copyright 1995, Gaussian, Inc.),
 the Gaussian 92(TM) system (copyright 1992, Gaussian, Inc.),
 the Gaussian 90(TM) system (copyright 1990, Gaussian, Inc.),
 the Gaussian 88(TM) system (copyright 1988, Gaussian, Inc.),
 the Gaussian 86(TM) system (copyright 1986, Carnegie Mellon
 University), and the Gaussian 82(TM) system (copyright 1983,
 Carnegie Mellon University). Gaussian is a federally registered
 trademark of Gaussian, Inc.
  
 This software contains proprietary and confidential information,
 including trade secrets, belonging to Gaussian, Inc.
  
 This software is provided under written license and may be
 used, copied, transmitted, or stored only in accord with that
 written license.
  
 The following legend is applicable only to US Government
 contracts under FAR:
  
                    RESTRICTED RIGHTS LEGEND
  
 Use, reproduction and disclosure by the US Government is
 subject to restrictions as set forth in subparagraphs (a)
 and (c) of the Commercial Computer Software - Restricted
 Rights clause in FAR 52.227-19.
  
 Gaussian, Inc.
 340 Quinnipiac St., Bldg. 40, Wallingford CT 06492
  
  
 ---------------------------------------------------------------
 Warning -- This program may not be used in any manner that
 competes with the business of Gaussian, Inc. or will provide
 assistance to any competitor of Gaussian, Inc.  The licensee
 of this program is prohibited from giving any competitor of
 Gaussian, Inc. access to this program.  By using this program,
 the user acknowledges that Gaussian, Inc. is engaged in the
 business of creating and licensing software in the field of
 computational chemistry and represents and warrants to the
 licensee that it is not a competitor of Gaussian, Inc. and that
 it will not use this program in any manner prohibited above.
 ---------------------------------------------------------------
  

 Cite this work as:
 Gaussian 09, Revision D.01,
 M. J. Frisch, G. W. Trucks, H. B. Schlegel, G. E. Scuseria, 
 M. A. Robb, J. R. Cheeseman, G. Scalmani, V. Barone, B. Mennucci, 
 G. A. Petersson, H. Nakatsuji, M. Caricato, X. Li, H. P. Hratchian, 
 A. F. Izmaylov, J. Bloino, G. Zheng, J. L. Sonnenberg, M. Hada, 
 M. Ehara, K. Toyota, R. Fukuda, J. Hasegawa, M. Ishida, T. Nakajima, 
 Y. Honda, O. Kitao, H. Nakai, T. Vreven, J. A. Montgomery, Jr., 
 J. E. Peralta, F. Ogliaro, M. Bearpark, J. J. Heyd, E. Brothers, 
 K. N. Kudin, V. N. Staroverov, T. Keith, R. Kobayashi, J. Normand, 
 K. Raghavachari, A. Rendell, J. C. Burant, S. S. Iyengar, J. Tomasi, 
 M. Cossi, N. Rega, J. M. Millam, M. Klene, J. E. Knox, J. B. Cross, 
 V. Bakken, C. Adamo, J. Jaramillo, R. Gomperts, R. E. Stratmann, 
 O. Yazyev, A. J. Austin, R. Cammi, C. Pomelli, J. W. Ochterski, 
 R. L. Martin, K. Morokuma, V. G. Zakrzewski, G. A. Voth, 
 P. Salvador, J. J. Dannenberg, S. Dapprich, A. D. Daniels, 
 O. Farkas, J. B. Foresman, J. V. Ortiz, J. Cioslowski, 
 and D. J. Fox, Gaussian, Inc., Wallingford CT, 2013.
 
 ******************************************
 Gaussian 09:  EM64L-G09RevD.01 24-Apr-2013
                 8-Mar-2018 
 ******************************************
 %mem=6000MB
 %chk=P_ng_2ginp005.chk
 --------------------------------------------------------
 #mPW1PW91/6-311g(d) nmr=(giao) scrf=(solvent=chloroform)
 --------------------------------------------------------
 1/38=1/1;
 2/12=2,17=6,18=5,40=1/2;
 3/5=4,6=6,7=1,11=2,16=1,25=1,30=1,70=2201,72=7,74=-7/1,2,8,3;
 4//1;
 5/5=2,38=5,53=7/2;
 8/6=1,10=90,11=11/1;
 10/13=100,45=16/2;
 6/7=2,8=2,9=2,10=2,28=1/1;
 99/9=1/99;
 -------------
 P_ng_2ginp005
 -------------
 Symbolic Z-matrix:
 Charge =  0 Multiplicity = 1
 C                    -0.0393    0.26154   1.13711 
 C                    -1.04469   1.12766   0.35935 
 C                    -2.3471    1.29039   1.21924 
 C                    -2.03944   1.19684   2.73073 
 C                    -0.63212   1.58542   3.07472 
 H                    -0.48372  -0.69453   1.44069 
 H                    -0.58851   2.11831   0.25846 
 H                    -2.73383   1.79615   3.32531 
 H                    -2.13337   0.1651    3.09608 
 O                     0.33131   0.99161   2.33006 
 O                    -0.35918   2.3305    4.00803 
 C                     1.25668  -0.02859   0.36521 
 C                     2.25791  -0.83081   1.18873 
 C                    -1.29656   0.66329  -1.07866 
 O                    -3.05074   2.47798   0.79726 
 Si                   -2.7863    4.07742   1.20841 
 C                    -3.36623   4.47454   2.95102 
 C                    -1.00976   4.64109   1.01394 
 C                    -3.82476   5.15636   0.03956 
 H                    -0.92237   5.70742   1.2444 
 H                    -0.34087   4.09935   1.68686 
 H                    -0.66427   4.4914   -0.0132 
 H                    -4.88485   4.90542   0.13691 
 H                    -3.69094   6.21494   0.2798 
 H                    -3.51922   4.9903   -0.99742 
 H                    -4.35783   4.04988   3.13277 
 H                    -2.67573   4.07862   3.70002 
 H                    -3.42693   5.55773   3.09422 
 H                    -2.09266   1.25056  -1.54814 
 H                    -0.40175   0.80099  -1.69481 
 H                    -1.56839  -0.39603  -1.12249 
 H                     1.73327   0.91431   0.07101 
 H                     1.0378   -0.59265  -0.54751 
 H                     3.14527  -1.05416   0.58782 
 H                     2.58506  -0.27658   2.07382 
 H                     1.82271  -1.7801    1.51684 
 C                    -3.36414   0.1318    0.89343 
 C                    -4.61988   0.14676   1.73356 
 C                    -5.02457  -0.86691   2.50914 
 H                    -2.86465  -0.84037   0.99027 
 H                    -3.70618   0.21868  -0.14555 
 H                    -5.22949   1.04765   1.677 
 H                    -5.94507  -0.79173   3.08101 
 H                    -4.46007  -1.79025   2.59098 
 
                          Input orientation:                          
 ---------------------------------------------------------------------
 Center     Atomic      Atomic             Coordinates (Angstroms)
 Number     Number       Type             X           Y           Z
 ---------------------------------------------------------------------
      1          6           0       -0.039298    0.261544    1.137111
      2          6           0       -1.044694    1.127662    0.359345
      3          6           0       -2.347095    1.290385    1.219244
      4          6           0       -2.039440    1.196844    2.730733
      5          6           0       -0.632116    1.585419    3.074721
      6          1           0       -0.483721   -0.694534    1.440694
      7          1           0       -0.588513    2.118315    0.258464
      8          1           0       -2.733828    1.796151    3.325305
      9          1           0       -2.133371    0.165103    3.096079
     10          8           0        0.331305    0.991611    2.330057
     11          8           0       -0.359184    2.330502    4.008026
     12          6           0        1.256683   -0.028594    0.365209
     13          6           0        2.257908   -0.830807    1.188734
     14          6           0       -1.296557    0.663285   -1.078658
     15          8           0       -3.050743    2.477979    0.797263
     16         14           0       -2.786296    4.077418    1.208413
     17          6           0       -3.366225    4.474535    2.951020
     18          6           0       -1.009760    4.641094    1.013938
     19          6           0       -3.824762    5.156355    0.039558
     20          1           0       -0.922369    5.707416    1.244397
     21          1           0       -0.340874    4.099349    1.686860
     22          1           0       -0.664274    4.491399   -0.013197
     23          1           0       -4.884854    4.905424    0.136910
     24          1           0       -3.690943    6.214939    0.279804
     25          1           0       -3.519220    4.990304   -0.997422
     26          1           0       -4.357825    4.049877    3.132769
     27          1           0       -2.675725    4.078619    3.700020
     28          1           0       -3.426929    5.557728    3.094218
     29          1           0       -2.092658    1.250555   -1.548138
     30          1           0       -0.401748    0.800992   -1.694805
     31          1           0       -1.568388   -0.396034   -1.122486
     32          1           0        1.733265    0.914307    0.071009
     33          1           0        1.037795   -0.592652   -0.547509
     34          1           0        3.145269   -1.054161    0.587824
     35          1           0        2.585062   -0.276575    2.073823
     36          1           0        1.822710   -1.780096    1.516835
     37          6           0       -3.364140    0.131798    0.893430
     38          6           0       -4.619884    0.146763    1.733555
     39          6           0       -5.024574   -0.866909    2.509137
     40          1           0       -2.864646   -0.840371    0.990265
     41          1           0       -3.706179    0.218679   -0.145550
     42          1           0       -5.229486    1.047646    1.677004
     43          1           0       -5.945066   -0.791734    3.081015
     44          1           0       -4.460074   -1.790246    2.590977
 ---------------------------------------------------------------------
                    Distance matrix (angstroms):
                    1          2          3          4          5
     1  C    0.000000
     2  C    1.538149   0.000000
     3  C    2.528080   1.569125   0.000000
     4  C    2.723047   2.572506   1.545316   0.000000
     5  C    2.420415   2.784426   2.543815   1.499960   0.000000
     6  H    1.097160   2.191895   2.731503   2.767991   2.808959
     7  H    2.126325   1.095295   2.168220   3.011048   2.866563
     8  H    3.795221   3.478070   2.200194   1.093096   2.127062
     9  H    2.869146   3.098621   2.198738   1.098540   2.066766
    10  O    1.446881   2.407403   2.914961   2.413109   1.354737
    11  O    3.553177   3.902515   3.579237   2.395813   1.225030
    12  C    1.536092   2.575519   3.931450   4.238140   3.676147
    13  C    2.544219   3.928189   5.070152   4.995631   4.212758
    14  C    2.579094   1.531970   2.603313   3.917655   4.306085
    15  O    3.754581   2.457511   1.443457   2.530286   3.439947
    16  Si   4.702337   3.529186   2.821448   3.342598   3.785982
    17  C    5.666392   4.827820   3.765167   3.542900   3.979654
    18  C    4.487474   3.574062   3.613567   3.983778   3.704941
    19  C    6.284388   4.905243   4.303590   5.109552   5.670695
    20  H    5.518047   4.666093   4.641189   4.878760   4.519424
    21  H    3.888691   3.329952   3.483370   3.521269   2.886317
    22  H    4.427807   3.405618   3.820640   4.502702   4.240400
    23  H    6.785679   5.391455   4.547546   5.345827   6.143203
    24  H    7.036505   5.734924   5.190347   5.823727   6.212925
    25  H    6.247180   4.783733   4.469551   5.520800   6.042430
    26  H    6.081430   5.216134   3.914002   3.698153   4.467419
    27  H    5.299935   4.746422   3.746531   3.106284   3.283806
    28  H    6.584518   5.725387   4.784536   4.590703   4.857015
    29  H    3.522072   2.179868   2.779339   4.279539   4.859644
    30  H    2.905533   2.177068   3.537734   4.735411   4.839088
    31  H    2.806475   2.189002   2.988995   4.196004   4.734903
    32  H    2.169021   2.801020   4.255492   4.624636   3.881714
    33  H    2.174333   2.849320   4.257314   4.839271   4.544573
    34  H    3.489164   4.729518   6.005135   6.044856   5.236476
    35  H    2.838004   4.252816   5.245173   4.897807   3.849552
    36  H    2.789186   4.244625   5.186876   5.025129   4.447457
    37  C    3.336284   2.580082   1.575709   2.502965   3.786159
    38  C    4.620680   3.953808   2.595757   2.959007   4.446431
    39  C    5.292338   4.943619   3.672415   3.635823   5.062360
    40  H    3.036177   2.753804   2.204634   2.803647   3.900462
    41  H    3.884980   2.857389   2.204161   3.465232   4.657036
    42  H    5.277072   4.388065   2.928591   3.362885   4.835145
    43  H    6.306049   5.924965   4.554866   4.396709   5.820510
    44  H    5.085944   5.015894   3.979525   3.847299   5.126635
                    6          7          8          9         10
     6  H    0.000000
     7  H    3.052993   0.000000
     8  H    3.849448   3.756552   0.000000
     9  H    2.490104   3.775405   1.753115   0.000000
    10  O    2.073239   2.531210   3.321572   2.710080   0.000000
    11  O    3.969578   3.762556   2.527958   2.944204   2.254991
    12  C    2.151546   2.832907   5.293018   4.357480   2.399535
    13  C    2.756553   4.202956   6.031855   4.890106   2.887148
    14  C    2.975149   2.099127   4.769069   4.286825   3.791711
    15  O    4.131397   2.546024   2.637484   3.387554   3.999624
    16  Si   5.303521   3.093661   3.112582   4.392699   4.527662
    17  C    6.108125   4.529604   2.777365   4.484660   5.117429
    18  C    5.378454   2.666947   4.050744   5.062836   4.104796
    19  C    6.881761   4.444200   4.824649   6.092267   6.313824
    20  H    6.419962   3.737000   4.786393   5.967620   4.998917
    21  H    4.802324   2.454819   3.703438   4.547223   3.244004
    22  H    5.388905   2.389784   4.763718   5.526543   4.327879
    23  H    7.240812   5.122626   4.945741   6.228803   6.880127
    24  H    7.705502   5.138857   5.451315   6.852587   6.903997
    25  H    6.890286   4.291225   5.431889   6.477646   6.472110
    26  H    6.354623   5.118620   2.784550   4.476719   5.655553
    27  H    5.717729   4.477003   2.313752   3.996811   4.522018
    28  H    7.105448   5.284663   3.831873   5.545602   5.963027
    29  H    3.912182   2.505847   4.945626   4.769551   4.580725
    30  H    3.474863   2.363362   5.624095   5.133755   4.095512
    31  H    2.799196   3.031358   5.093797   4.293061   4.177852
    32  H    3.062586   2.622104   5.596696   4.966209   2.659843
    33  H    2.505662   3.262486   5.910178   4.889399   3.359971
    34  H    3.745169   4.910622   7.083916   5.970091   3.890881
    35  H    3.161166   4.370653   5.844056   4.848061   2.598725
    36  H    2.550268   4.753431   6.068125   4.682776   3.250843
    37  C    3.046167   3.471820   3.013533   2.523403   4.057030
    38  C    4.231004   4.723861   2.968393   2.835411   5.058049
    39  C    4.668043   5.801356   3.606319   3.125477   5.672002
    40  H    2.427542   3.803963   3.524312   2.445443   3.919860
    41  H    3.705990   3.673103   3.934554   3.603436   4.798680
    42  H    5.060960   4.969630   3.083093   3.518321   5.599287
    43  H    5.703191   6.717726   4.131450   3.929985   6.567883
    44  H    4.281953   5.975487   4.047395   3.080919   5.546541
                   11         12         13         14         15
    11  O    0.000000
    12  C    4.631034   0.000000
    13  C    4.979102   1.524530   0.000000
    14  C    5.434394   3.013716   4.472985   0.000000
    15  O    4.192283   5.002349   6.267622   3.144736   0.000000
    16  Si   4.096391   5.823745   7.038114   4.371078   1.672478
    17  C    3.841411   6.952400   7.929891   5.920089   2.953715
    18  C    3.837531   5.231023   6.375728   4.503796   2.981883
    19  C    5.978663   7.267106   8.611945   5.275406   2.889104
    20  H    4.399815   6.198633   7.270875   5.565955   3.893478
    21  H    2.918384   4.619401   5.595376   4.513087   3.280795
    22  H    4.575237   4.925810   6.189480   4.023611   3.225824
    23  H    6.488255   7.881315   9.221157   5.687638   3.113281
    24  H    6.331596   7.966681   9.265933   6.196722   3.826551
    25  H    6.489598   7.060832   8.487627   4.865175   3.122842
    26  H    4.439758   7.471012   8.447974   6.210997   3.103855
    27  H    2.918414   6.591964   7.399308   6.033438   3.335968
    28  H    4.545447   7.784003   8.761371   6.775467   3.860359
    29  H    5.919643   4.063890   5.545265   1.095023   2.815209
    30  H    5.904532   2.771690   4.248686   1.095118   4.004980
    31  H    5.934503   3.213919   4.491248   1.094518   3.760687
    32  H    4.678040   1.096698   2.137752   3.250318   5.085199
    33  H    5.590105   1.095047   2.135400   2.703460   5.287091
    34  H    5.952723   2.160579   1.094710   5.045454   7.135155
    35  H    4.382531   2.178405   1.094342   5.088068   6.401521
    36  H    5.278609   2.171264   1.094622   4.736721   6.511492
    37  C    4.854356   4.653681   5.711500   2.906288   2.368973
    38  C    5.300519   6.036320   6.968249   4.384044   2.961995
    39  C    5.851151   6.689797   7.401305   5.395542   4.244384
    40  H    5.043675   4.246767   5.126406   3.000054   3.329163
    41  H    5.737104   4.995199   6.200973   2.621954   2.534350
    42  H    5.549705   6.704438   7.734860   4.817607   2.750767
    43  H    6.466049   7.734544   8.418494   6.405357   4.927845
    44  H    5.983802   6.382693   6.929509   5.430826   4.839563
                   16         17         18         19         20
    16  Si   0.000000
    17  C    1.879015   0.000000
    18  C    1.873935   3.054989   0.000000
    19  C    1.899668   3.025185   3.023102   0.000000
    20  H    2.476371   3.225677   1.094436   3.190484   0.000000
    21  H    2.491883   3.300244   1.092575   3.996041   1.766293
    22  H    2.483282   4.010911   1.093972   3.230114   1.768291
    23  H    2.497530   3.226626   3.981884   1.093727   4.191778
    24  H    2.499939   3.204660   3.194477   1.093721   2.975403
    25  H    2.497248   3.984924   3.234951   1.093735   3.504802
    26  H    2.484675   1.093909   4.006061   3.328123   4.256259
    27  H    2.494060   1.092950   3.210429   3.985070   3.428895
    28  H    2.481530   1.094302   3.318206   3.106496   3.117221
    29  H    4.008848   5.679652   4.385505   4.558096   5.388083
    30  H    4.984948   6.623197   4.738497   5.804673   5.743079
    31  H    5.189235   6.599099   5.499912   6.104965   6.578114
    32  H    5.632530   6.853793   4.722525   6.991969   5.603849
    33  H    6.286214   7.570435   5.832898   7.552496   6.836960
    34  H    7.867763   8.862885   7.062703   9.351601   7.918061
    35  H    6.968334   7.665529   6.183007   8.645277   6.985569
    36  H    7.459794   8.252414   7.036155   9.065905   7.979506
    37  C    4.000129   4.805522   5.088357   5.117367   6.096962
    38  C    4.368966   4.667279   5.809463   5.347696   6.695652
    39  C    5.581052   5.610384   6.977997   6.619523   7.851713
    40  H    4.923249   5.687211   5.786849   6.147063   6.834511
    41  H    4.191571   5.274147   5.307810   4.942567   6.309341
    42  H    3.920239   4.103465   5.581990   4.640686   6.360178
    43  H    6.098615   5.865229   7.625331   7.008988   8.416626
    44  H    6.256396   6.369742   7.466850   7.427559   8.399022
                   21         22         23         24         25
    21  H    0.000000
    22  H    1.774397   0.000000
    23  H    4.868250   4.243494   0.000000
    24  H    4.204580   3.495306   1.777828   0.000000
    25  H    4.254533   3.060771   1.777321   1.777787   0.000000
    26  H    4.269543   4.871793   3.159888   3.643025   4.318118
    27  H    3.082981   4.243148   4.273127   4.158414   4.858870
    28  H    3.692054   4.292476   3.361059   2.902164   4.131828
    29  H    4.652912   3.859973   4.898348   5.526391   4.040308
    30  H    4.724248   4.063967   6.348211   6.635413   5.268331
    31  H    5.441294   5.092636   6.378909   7.083546   5.730098
    32  H    4.130075   4.307072   7.728703   7.586984   6.733788
    33  H    5.376617   5.387959   8.110181   8.329988   7.220679
    34  H    6.318207   6.754782  10.010137   9.983411   9.135862
    35  H    5.278215   6.135749   9.295396   9.205786   8.627562
    36  H    6.267207   6.917929   9.570360   9.790363   8.983096
    37  C    5.050854   5.207434   5.066794   6.122740   5.215789
    38  C    5.825379   6.129752   5.026364   6.308651   5.668297
    39  C    6.875820   7.354308   6.242340   7.543280   6.990636
    40  H    5.590662   5.854600   6.150091   7.138972   6.194848
    41  H    5.453678   5.246603   4.840933   6.011347   4.850675
    42  H    5.762943   5.963000   4.168107   5.569578   5.061829
    43  H    7.567914   8.085320   6.499955   7.875362   7.479996
    44  H    7.243795   7.787739   7.143870   8.367561   7.729015
                   26         27         28         29         30
    26  H    0.000000
    27  H    1.775404   0.000000
    28  H    1.772475   1.766088   0.000000
    29  H    5.905766   5.990081   6.471745   0.000000
    30  H    7.036424   6.709541   7.396824   1.755789   0.000000
    31  H    6.756795   6.671228   7.528748   1.779689   1.766768
    32  H    7.503836   6.528536   7.571575   4.168019   2.772944
    33  H    8.013129   7.324787   8.427521   3.768077   2.308856
    34  H    9.424668   8.361529   9.653646   6.108185   4.607962
    35  H    8.248832   7.020549   8.439451   6.109975   4.927955
    36  H    8.648632   7.702386   9.159176   5.823144   4.682399
    37  C    4.620973   4.891652   5.855606   2.971454   3.990307
    38  C    4.154609   4.806894   5.705531   4.286576   5.474883
    39  C    5.000825   5.602994   6.646108   5.435188   6.467267
    40  H    5.543864   5.619157   6.758584   3.378080   3.996191
    41  H    5.084299   5.545212   6.251362   2.373915   3.695747
    42  H    3.448541   4.449841   5.059501   4.503599   5.893809
    43  H    5.095411   5.898483   6.830582   6.359328   7.488231
    44  H    5.866092   6.233575   7.437295   5.655387   6.446119
                   31         32         33         34         35
    31  H    0.000000
    32  H    3.747311   0.000000
    33  H    2.676088   1.771205   0.000000
    34  H    5.057356   2.477038   2.437913   0.000000
    35  H    5.242309   2.480932   3.060281   1.768238   0.000000
    36  H    4.514553   3.059121   2.507515   1.771780   1.775385
    37  C    2.750863   5.222282   4.688088   6.623617   6.078906
    38  C    4.214644   6.611784   6.144861   7.940562   7.225389
    39  C    5.035437   7.401729   6.794897   8.394810   7.644904
    40  H    2.518221   5.006467   4.201804   6.027167   5.584916
    41  H    2.429491   5.488019   4.829609   7.007161   6.689589
    42  H    4.829596   7.146811   6.849660   8.702898   7.935880
    43  H    6.081226   8.421845   7.871859   9.429690   8.604819
    44  H    4.908715   7.212648   6.442894   7.899094   7.224444
                   36         37         38         39         40
    36  H    0.000000
    37  C    5.563037   0.000000
    38  C    6.728058   1.510936   0.000000
    39  C    6.978816   2.522888   1.338967   0.000000
    40  H    4.809539   1.097262   2.146573   2.640637   0.000000
    41  H    6.109602   1.097278   2.090709   3.156585   1.766307
    42  H    7.599687   2.220874   1.089221   2.097607   3.103013
    43  H    7.985103   3.507081   2.110102   1.086279   3.723250
    44  H    6.373952   2.788726   2.124315   1.085315   2.451516
                   41         42         43         44
    41  H    0.000000
    42  H    2.515821   0.000000
    43  H    4.055154   2.422111   0.000000
    44  H    3.477458   3.079119   1.855361   0.000000
 Stoichiometry    C14H26O3Si
 Framework group  C1[X(C14H26O3Si)]
 Deg. of freedom   126
 Full point group                 C1      NOp   1
 Largest Abelian subgroup         C1      NOp   1
 Largest concise Abelian subgroup C1      NOp   1
                         Standard orientation:                         
 ---------------------------------------------------------------------
 Center     Atomic      Atomic             Coordinates (Angstroms)
 Number     Number       Type             X           Y           Z
 ---------------------------------------------------------------------
      1          6           0       -2.293456   -0.118885   -0.185683
      2          6           0       -1.001066   -0.107222   -1.019644
      3          6           0        0.085726    0.732600   -0.260870
      4          6           0       -0.139337    0.695348    1.267514
      5          6           0       -0.871564   -0.529507    1.729526
      6          1           0       -2.621765    0.898752    0.060057
      7          1           0       -0.649079   -1.143568   -1.061641
      8          1           0        0.800086    0.782697    1.819522
      9          1           0       -0.770227    1.530738    1.600518
     10          8           0       -2.007315   -0.816624    1.049124
     11          8           0       -0.515164   -1.189236    2.698254
     12          6           0       -3.460150   -0.856071   -0.860191
     13          6           0       -4.703478   -0.907762    0.020522
     14          6           0       -1.199075    0.299626   -2.483270
     15          8           0        1.397292    0.329655   -0.709196
     16         14           0        2.329393   -0.978004   -0.241864
     17          6           0        3.093159   -0.742211    1.458654
     18          6           0        1.430077   -2.621513   -0.283569
     19          6           0        3.776894   -1.124906   -1.463297
     20          1           0        2.113840   -3.435201   -0.022472
     21          1           0        0.600425   -2.643162    0.427015
     22          1           0        1.035603   -2.823931   -1.283665
     23          1           0        4.371848   -0.207190   -1.455076
     24          1           0        4.422221   -1.964271   -1.188988
     25          1           0        3.399516   -1.288719   -2.476711
     26          1           0        3.522011    0.259759    1.552352
     27          1           0        2.351862   -0.878636    2.250113
     28          1           0        3.891843   -1.472321    1.621571
     29          1           0       -0.237917    0.390367   -3.000005
     30          1           0       -1.774238   -0.459299   -3.024107
     31          1           0       -1.737386    1.248416   -2.572642
     32          1           0       -3.163765   -1.885666   -1.094364
     33          1           0       -3.729502   -0.362777   -1.799999
     34          1           0       -5.522340   -1.399808   -0.514029
     35          1           0       -4.520126   -1.470437    0.941046
     36          1           0       -5.032747    0.100360    0.291577
     37          6           0        0.004730    2.246032   -0.691939
     38          6           0        0.954886    3.159017    0.047377
     39          6           0        0.577299    4.224292    0.765325
     40          1           0       -1.023858    2.610955   -0.578701
     41          1           0        0.269210    2.345200   -1.752238
     42          1           0        2.015224    2.924198   -0.035978
     43          1           0        1.316401    4.844067    1.264933
     44          1           0       -0.465010    4.508155    0.869834
 ---------------------------------------------------------------------
 Rotational constants (GHZ):      0.4444952      0.2927839      0.2509601
 Standard basis: 6-311G(d) (5D, 7F)
 There are   428 symmetry adapted cartesian basis functions of A   symmetry.
 There are   410 symmetry adapted basis functions of A   symmetry.
   410 basis functions,   720 primitive gaussians,   428 cartesian basis functions
    74 alpha electrons       74 beta electrons
       nuclear repulsion energy      1639.3985208203 Hartrees.
 NAtoms=   44 NActive=   44 NUniq=   44 SFac= 1.00D+00 NAtFMM=   60 NAOKFM=F Big=F
 Integral buffers will be    131072 words long.
 Raffenetti 2 integral format.
 Two-electron integral symmetry is turned on.
 ------------------------------------------------------------------------------
 Polarizable Continuum Model (PCM)
 =================================
 Model                : PCM (using non-symmetric T matrix).
 Atomic radii         : UFF (Universal Force Field).
 Polarization charges : Total charges.
 Charge compensation  : None.
 Solution method      : On-the-fly selection.
 Cavity type          : Scaled VdW (van der Waals Surface) (Alpha=1.100).
 Cavity algorithm     : GePol (No added spheres)
                        Default sphere list used, NSphG=   44.
                        Lebedev-Laikov grids with approx.  5.0 points / Ang**2.
                        Smoothing algorithm: Karplus/York (Gamma=1.0000).
                        Polarization charges: spherical gaussians, with
                                              point-specific exponents (IZeta= 3).
                        Self-potential: point-specific (ISelfS= 7).
                        Self-field    : sphere-specific E.n sum rule (ISelfD= 2).
 Solvent              : Chloroform, Eps=   4.711300 Eps(inf)=   2.090627
 ------------------------------------------------------------------------------
 One-electron integrals computed using PRISM.
 NBasis=   410 RedAO= T EigKep=  6.18D-04  NBF=   410
 NBsUse=   410 1.00D-06 EigRej= -1.00D+00 NBFU=   410
 ExpMin= 6.54D-02 ExpMax= 6.94D+04 ExpMxC= 2.33D+03 IAcc=2 IRadAn=         4 AccDes= 0.00D+00
 Harris functional with IExCor=  908 and IRadAn=       4 diagonalized for initial guess.
 HarFok:  IExCor=  908 AccDes= 0.00D+00 IRadAn=         4 IDoV= 1 UseB2=F ITyADJ=14
 ICtDFT=  3500011 ScaDFX=  1.000000  1.000000  1.000000  1.000000
 FoFCou: FMM=F IPFlag=           0 FMFlag=      100000 FMFlg1=           0
         NFxFlg=           0 DoJE=T BraDBF=F KetDBF=T FulRan=T
         wScrn=  0.000000 ICntrl=     500 IOpCl=  0 I1Cent=   200000004 NGrid=           0
         NMat0=    1 NMatS0=      1 NMatT0=    0 NMatD0=    1 NMtDS0=    0 NMtDT0=    0
 Petite list used in FoFCou.
 Requested convergence on RMS density matrix=1.00D-08 within 128 cycles.
 Requested convergence on MAX density matrix=1.00D-06.
 Requested convergence on             energy=1.00D-06.
 No special actions if energy rises.
 Inv3:  Mode=1 IEnd=    24350403.
 Iteration    1 A*A^-1 deviation from unit magnitude is 7.44D-15 for   2047.
 Iteration    1 A*A^-1 deviation from orthogonality  is 6.22D-15 for   2010      7.
 Iteration    1 A^-1*A deviation from unit magnitude is 7.77D-15 for    730.
 Iteration    1 A^-1*A deviation from orthogonality  is 3.98D-11 for   2812   2474.
 Error on total polarization charges =  0.01152
 SCF Done:  E(RmPW1PW91) =  -1064.37670968     A.U. after   13 cycles
            NFock= 13  Conv=0.36D-08     -V/T= 2.0036
 DoSCS=F DFT=T ScalE2(SS,OS)=  1.000000  1.000000
 Range of M.O.s used for correlation:     1   410
 NBasis=   410 NAE=    74 NBE=    74 NFC=     0 NFV=     0
 NROrb=    410 NOA=    74 NOB=    74 NVA=   336 NVB=   336
 NEqPCM:  Using equilibrium solvation (IEInf=0, Eps=   4.7113, EpsInf=   2.0906)
          Differentiating once with respect to magnetic field using GIAOs.
          Electric field/nuclear overlap derivatives assumed to be zero.
 FoFJK:  IHMeth= 1 ICntrl=    6127 DoSepK=F KAlg= 0 I1Cent=   0 FoldK=F
 IRaf=         1 NMat=   1 IRICut=       1 DoRegI=T DoRafI=F ISym2E= 0.
          There are     3 degrees of freedom in the 1st order CPHF.  IDoFFX=0 NUNeed=     3.
      3 vectors produced by pass  0 Test12= 8.29D-13 3.33D-08 XBig12= 3.32D+01 1.12D+00.
 AX will form     3 AO Fock derivatives at one time.
      3 vectors produced by pass  1 Test12= 8.29D-13 3.33D-08 XBig12= 6.48D-02 9.35D-02.
      3 vectors produced by pass  2 Test12= 8.29D-13 3.33D-08 XBig12= 4.16D-04 6.29D-03.
      3 vectors produced by pass  3 Test12= 8.29D-13 3.33D-08 XBig12= 1.77D-06 3.80D-04.
      3 vectors produced by pass  4 Test12= 8.29D-13 3.33D-08 XBig12= 7.41D-09 3.41D-05.
      3 vectors produced by pass  5 Test12= 8.29D-13 3.33D-08 XBig12= 2.53D-11 8.47D-07.
      2 vectors produced by pass  6 Test12= 8.29D-13 3.33D-08 XBig12= 8.19D-14 5.31D-08.
 InvSVY:  IOpt=1 It=  1 EMax= 8.88D-16
 Solved reduced A of dimension    20 with     3 vectors.
 Calculating GIAO nuclear magnetic shielding tensors.
 SCF GIAO Magnetic shielding tensor (ppm):
      1  C    Isotropic =   105.4224   Anisotropy =    43.7529
   XX=   102.9798   YX=     8.8475   ZX=     1.8536
   XY=    -1.2650   YY=    90.5736   ZY=   -21.4370
   XZ=    14.0171   YZ=   -21.9696   ZZ=   122.7138
   Eigenvalues:    77.6854   103.9907   134.5910
      2  C    Isotropic =   137.4276   Anisotropy =    28.8050
   XX=   156.5583   YX=     2.2996   ZX=    -3.5937
   XY=    -0.0729   YY=   134.1723   ZY=    -5.5677
   XZ=     2.1671   YZ=     2.8363   ZZ=   121.5522
   Eigenvalues:   121.3961   134.2557   156.6309
      3  C    Isotropic =   104.2032   Anisotropy =    59.0719
   XX=   137.5873   YX=   -19.1716   ZX=    -7.1079
   XY=   -13.8682   YY=    89.0520   ZY=     5.1275
   XZ=    -4.4875   YZ=     6.2651   ZZ=    85.9702
   Eigenvalues:    80.7637    88.2614   143.5844
      4  C    Isotropic =   143.0765   Anisotropy =    23.2784
   XX=   143.5172   YX=     7.8734   ZX=    -3.2149
   XY=     7.3990   YY=   139.1067   ZY=   -13.6249
   XZ=    -5.1046   YZ=    -8.1903   ZZ=   146.6056
   Eigenvalues:   130.0098   140.6243   158.5954
      5  C    Isotropic =     4.9460   Anisotropy =   105.1683
   XX=   -44.0000   YX=   -66.0748   ZX=   -37.6581
   XY=   -57.5343   YY=    18.4152   ZY=     5.4856
   XZ=   -45.8368   YZ=    -4.5068   ZZ=    40.4228
   Eigenvalues:   -91.7053    31.4851    75.0582
      6  H    Isotropic =    28.3254   Anisotropy =     3.2250
   XX=    30.4642   YX=     0.2228   ZX=     0.4803
   XY=    -0.1253   YY=    28.9844   ZY=     0.7310
   XZ=    -0.0493   YZ=    -0.5525   ZZ=    25.5277
   Eigenvalues:    25.5161    28.9847    30.4755
      7  H    Isotropic =    30.1103   Anisotropy =     7.5788
   XX=    31.5286   YX=    -3.3469   ZX=     1.5775
   XY=    -3.2797   YY=    31.6733   ZY=    -0.1799
   XZ=     1.7212   YZ=    -0.5096   ZZ=    27.1291
   Eigenvalues:    26.4257    28.7424    35.1629
      8  H    Isotropic =    29.3754   Anisotropy =     5.0484
   XX=    30.4744   YX=    -1.4085   ZX=     2.6969
   XY=    -0.7220   YY=    27.7426   ZY=     0.0476
   XZ=     1.7086   YZ=    -1.5036   ZZ=    29.9091
   Eigenvalues:    27.3756    28.0096    32.7410
      9  H    Isotropic =    29.5111   Anisotropy =     5.1687
   XX=    27.7786   YX=    -0.9549   ZX=    -2.3628
   XY=    -0.6361   YY=    31.3839   ZY=     1.4591
   XZ=    -1.8326   YZ=     1.8812   ZZ=    29.3707
   Eigenvalues:    26.3110    29.2653    32.9568
     10  O    Isotropic =    84.7840   Anisotropy =   187.7878
   XX=   178.8061   YX=    24.0402   ZX=   -61.5023
   XY=   -14.9209   YY=    86.8013   ZY=   142.1377
   XZ=   -26.8019   YZ=   149.6394   ZZ=   -11.2553
   Eigenvalues:  -121.1047   165.4808   209.9759
     11  O    Isotropic =  -116.1970   Anisotropy =   585.1269
   XX=  -180.5405   YX=  -117.2206   ZX=  -277.6165
   XY=  -134.4082   YY=   -37.9800   ZY=   188.3168
   XZ=  -256.0523   YZ=   187.3953   ZZ=  -130.0706
   Eigenvalues:  -427.0862  -195.3924   273.8875
     12  C    Isotropic =   158.1899   Anisotropy =    20.0156
   XX=   164.4962   YX=     7.1800   ZX=     7.7971
   XY=     9.0521   YY=   155.6900   ZY=     5.9331
   XZ=     1.5616   YZ=     2.3552   ZZ=   154.3836
   Eigenvalues:   150.2328   152.8034   171.5337
     13  C    Isotropic =   175.5030   Anisotropy =    21.3362
   XX=   184.7570   YX=     1.1694   ZX=    -8.1091
   XY=     1.3471   YY=   172.0637   ZY=     5.3178
   XZ=   -11.7316   YZ=     3.7664   ZZ=   169.6883
   Eigenvalues:   162.5155   174.2664   189.7271
     14  C    Isotropic =   175.9264   Anisotropy =    11.4584
   XX=   173.7181   YX=     2.5314   ZX=     3.1246
   XY=     4.1486   YY=   173.4567   ZY=    -5.7258
   XZ=     2.3046   YZ=    -5.0284   ZZ=   180.6045
   Eigenvalues:   167.6233   176.5906   183.5653
     15  O    Isotropic =   243.3694   Anisotropy =    23.7404
   XX=   238.3157   YX=    14.1653   ZX=   -14.0954
   XY=    -1.4102   YY=   241.3407   ZY=    13.9763
   XZ=    -6.0657   YZ=     7.8901   ZZ=   250.4517
   Eigenvalues:   224.7852   246.1266   259.1963
     16  Si   Isotropic =   334.5760   Anisotropy =    53.9628
   XX=   334.2460   YX=   -30.6512   ZX=     9.4396
   XY=   -20.3288   YY=   347.9666   ZY=   -14.7931
   XZ=     1.1611   YZ=    -7.8473   ZZ=   321.5154
   Eigenvalues:   313.3761   319.8007   370.5512
     17  C    Isotropic =   185.5320   Anisotropy =    10.7281
   XX=   182.5647   YX=    -4.4271   ZX=     6.7950
   XY=    -5.9438   YY=   184.6878   ZY=     2.6562
   XZ=     4.5062   YZ=     5.1233   ZZ=   189.3437
   Eigenvalues:   175.0562   188.8559   192.6841
     18  C    Isotropic =   185.5886   Anisotropy =     7.4640
   XX=   189.5293   YX=    -1.2386   ZX=     2.4037
   XY=     2.1688   YY=   188.2622   ZY=     0.0203
   XZ=     4.3607   YZ=    -0.9299   ZZ=   178.9743
   Eigenvalues:   177.9523   188.2489   190.5646
     19  C    Isotropic =   185.5115   Anisotropy =    14.1555
   XX=   186.9346   YX=    -3.3126   ZX=    -8.0489
   XY=    -5.4249   YY=   181.3690   ZY=    -5.3193
   XZ=    -6.3016   YZ=    -6.1274   ZZ=   188.2310
   Eigenvalues:   173.7343   187.8517   194.9485
     20  H    Isotropic =    32.2622   Anisotropy =    10.5692
   XX=    31.9561   YX=    -4.4977   ZX=     1.0071
   XY=    -3.9135   YY=    36.4940   ZY=    -1.3356
   XZ=     1.0191   YZ=    -1.7134   ZZ=    28.3364
   Eigenvalues:    28.0263    29.4518    39.3083
     21  H    Isotropic =    32.0093   Anisotropy =     7.8520
   XX=    34.5118   YX=    -1.3217   ZX=    -4.6998
   XY=    -0.3982   YY=    31.1707   ZY=    -0.3782
   XZ=    -3.8661   YZ=    -0.2480   ZZ=    30.3453
   Eigenvalues:    27.5219    31.2620    37.2439
     22  H    Isotropic =    32.1294   Anisotropy =     7.0589
   XX=    31.1300   YX=    -0.1041   ZX=     2.9073
   XY=     0.2476   YY=    31.3594   ZY=     3.3529
   XZ=     2.4569   YZ=     2.6376   ZZ=    33.8987
   Eigenvalues:    28.3901    31.1627    36.8353
     23  H    Isotropic =    31.9740   Anisotropy =     8.8632
   XX=    33.8988   YX=     4.1663   ZX=    -1.8258
   XY=     3.7682   YY=    33.0526   ZY=    -0.1067
   XZ=    -2.2970   YZ=    -1.0417   ZZ=    28.9705
   Eigenvalues:    27.9816    30.0575    37.8828
     24  H    Isotropic =    32.3772   Anisotropy =     9.5759
   XX=    34.5196   YX=    -4.6505   ZX=    -0.4572
   XY=    -5.0504   YY=    33.2024   ZY=    -0.4931
   XZ=    -0.1535   YZ=    -0.8756   ZZ=    29.4097
   Eigenvalues:    28.4363    29.9342    38.7612
     25  H    Isotropic =    32.0837   Anisotropy =     8.4340
   XX=    30.7613   YX=    -0.2071   ZX=    -0.3795
   XY=    -0.4664   YY=    27.9938   ZY=     1.2325
   XZ=     0.4995   YZ=     1.6261   ZZ=    37.4960
   Eigenvalues:    27.7447    30.8001    37.7064
     26  H    Isotropic =    32.0138   Anisotropy =     8.0452
   XX=    31.8197   YX=     2.9874   ZX=     2.1061
   XY=     2.7245   YY=    34.6363   ZY=     1.3903
   XZ=     2.2399   YZ=     2.3226   ZZ=    29.5854
   Eigenvalues:    28.2569    30.4072    37.3773
     27  H    Isotropic =    31.6794   Anisotropy =     7.1420
   XX=    33.2280   YX=    -0.0389   ZX=    -1.5683
   XY=    -0.8030   YY=    27.1854   ZY=    -0.7779
   XZ=    -3.2162   YZ=    -0.9783   ZZ=    34.6247
   Eigenvalues:    26.9958    31.6015    36.4407
     28  H    Isotropic =    32.3110   Anisotropy =    10.3399
   XX=    34.7938   YX=    -4.4139   ZX=     2.8233
   XY=    -5.0389   YY=    31.4697   ZY=    -1.5962
   XZ=     2.5345   YZ=    -1.2507   ZZ=    30.6695
   Eigenvalues:    28.0355    29.6933    39.2043
     29  H    Isotropic =    30.7544   Anisotropy =     7.5559
   XX=    32.4329   YX=     0.5128   ZX=    -2.2735
   XY=     0.9313   YY=    25.9028   ZY=    -0.4091
   XZ=    -2.6009   YZ=    -0.4729   ZZ=    33.9276
   Eigenvalues:    25.8197    30.6519    35.7917
     30  H    Isotropic =    31.0924   Anisotropy =     9.0619
   XX=    30.0661   YX=     3.5571   ZX=     2.2294
   XY=     3.1627   YY=    29.2256   ZY=     2.6291
   XZ=     2.4299   YZ=     2.9073   ZZ=    33.9854
   Eigenvalues:    26.2115    29.9321    37.1337
     31  H    Isotropic =    31.4057   Anisotropy =     8.2988
   XX=    30.0987   YX=    -2.4340   ZX=     2.9932
   XY=    -2.3332   YY=    33.0953   ZY=    -2.6345
   XZ=     2.6015   YZ=    -2.9976   ZZ=    31.0231
   Eigenvalues:    27.7256    29.5533    36.9382
     32  H    Isotropic =    30.5221   Anisotropy =     5.3774
   XX=    31.5196   YX=     0.9894   ZX=    -1.5499
   XY=     0.7116   YY=    32.6787   ZY=     2.8892
   XZ=    -1.3238   YZ=     3.2802   ZZ=    27.3678
   Eigenvalues:    25.4951    31.9641    34.1070
     33  H    Isotropic =    30.3392   Anisotropy =     5.8453
   XX=    33.0414   YX=     1.4865   ZX=     0.7178
   XY=     1.1028   YY=    24.8379   ZY=    -2.9431
   XZ=     0.9799   YZ=    -2.8738   ZZ=    33.1383
   Eigenvalues:    23.6826    33.0990    34.2361
     34  H    Isotropic =    30.9648   Anisotropy =    11.4054
   XX=    36.5319   YX=     4.1247   ZX=     1.8938
   XY=     4.0794   YY=    28.1260   ZY=     1.7209
   XZ=     1.0370   YZ=     1.3694   ZZ=    28.2364
   Eigenvalues:    26.0457    28.2803    38.5684
     35  H    Isotropic =    30.6059   Anisotropy =     7.9386
   XX=    31.4813   YX=     1.4433   ZX=    -1.7582
   XY=     1.3579   YY=    27.9639   ZY=    -4.2226
   XZ=    -1.1280   YZ=    -4.4285   ZZ=    32.3724
   Eigenvalues:    25.2800    30.6394    35.8983
     36  H    Isotropic =    31.3098   Anisotropy =     9.2251
   XX=    33.4728   YX=    -3.5391   ZX=    -2.5680
   XY=    -3.0082   YY=    32.6336   ZY=     1.6308
   XZ=    -2.4498   YZ=     2.5513   ZZ=    27.8230
   Eigenvalues:    26.7146    29.7549    37.4598
     37  C    Isotropic =   137.4366   Anisotropy =    18.7363
   XX=   130.5516   YX=     1.4890   ZX=    -0.0966
   XY=    -7.4550   YY=   148.9333   ZY=    -7.2689
   XZ=     5.4747   YZ=     2.1137   ZZ=   132.8250
   Eigenvalues:   128.7055   133.6769   149.9275
     38  C    Isotropic =    42.8609   Anisotropy =   181.5421
   XX=   -77.7580   YX=    -9.7125   ZX=   -22.6617
   XY=   -12.7933   YY=    85.8889   ZY=   -56.8987
   XZ=   -26.3725   YZ=   -58.0367   ZZ=   120.4518
   Eigenvalues:   -82.8815    47.5753   163.8890
     39  C    Isotropic =    65.0852   Anisotropy =   139.3311
   XX=   -39.6040   YX=   -19.7249   ZX=   -31.7986
   XY=   -19.2561   YY=   108.5016   ZY=   -36.5437
   XZ=   -33.5637   YZ=   -40.5069   ZZ=   126.3579
   Eigenvalues:   -50.3561    87.6390   157.9726
     40  H    Isotropic =    30.1539   Anisotropy =     6.4366
   XX=    30.5731   YX=    -1.8586   ZX=     1.2484
   XY=    -1.2736   YY=    33.8048   ZY=     0.9916
   XZ=     1.8367   YZ=     0.7140   ZZ=    26.0839
   Eigenvalues:    25.4038    30.6131    34.4450
     41  H    Isotropic =    29.4179   Anisotropy =     3.7597
   XX=    26.2915   YX=     2.1790   ZX=     0.4848
   XY=     2.3943   YY=    30.4377   ZY=    -1.6808
   XZ=     0.6602   YZ=     0.3424   ZZ=    31.5246
   Eigenvalues:    25.1782    31.1511    31.9244
     42  H    Isotropic =    25.5951   Anisotropy =     7.3168
   XX=    23.2886   YX=     2.2835   ZX=     0.3627
   XY=     0.8811   YY=    29.8202   ZY=     1.6549
   XZ=    -0.5422   YZ=     1.2604   ZZ=    23.6764
   Eigenvalues:    22.6896    23.6227    30.4729
     43  H    Isotropic =    26.7055   Anisotropy =     7.0437
   XX=    23.4255   YX=    -0.7368   ZX=    -0.8356
   XY=     1.3043   YY=    30.3110   ZY=     2.5184
   XZ=     0.4828   YZ=     2.1502   ZZ=    26.3801
   Eigenvalues:    23.3804    25.3349    31.4013
     44  H    Isotropic =    26.7873   Anisotropy =     7.3899
   XX=    23.3956   YX=    -0.5694   ZX=    -0.1768
   XY=    -2.3837   YY=    30.7123   ZY=     1.7118
   XZ=    -1.8383   YZ=     1.9040   ZZ=    26.2540
   Eigenvalues:    22.9612    25.6869    31.7139
 End of Minotr F.D. properties file   721 does not exist.
 End of Minotr F.D. properties file   722 does not exist.
 End of Minotr F.D. properties file   788 does not exist.

 **********************************************************************

            Population analysis using the SCF density.

 **********************************************************************

 Orbital symmetries:
       Occupied  (A) (A) (A) (A) (A) (A) (A) (A) (A) (A) (A) (A)
                 (A) (A) (A) (A) (A) (A) (A) (A) (A) (A) (A) (A)
                 (A) (A) (A) (A) (A) (A) (A) (A) (A) (A) (A) (A)
                 (A) (A) (A) (A) (A) (A) (A) (A) (A) (A) (A) (A)
                 (A) (A) (A) (A) (A) (A) (A) (A) (A) (A) (A) (A)
                 (A) (A) (A) (A) (A) (A) (A) (A) (A) (A) (A) (A)
                 (A) (A)
       Virtual   (A) (A) (A) (A) (A) (A) (A) (A) (A) (A) (A) (A)
                 (A) (A) (A) (A) (A) (A) (A) (A) (A) (A) (A) (A)
                 (A) (A) (A) (A) (A) (A) (A) (A) (A) (A) (A) (A)
                 (A) (A) (A) (A) (A) (A) (A) (A) (A) (A) (A) (A)
                 (A) (A) (A) (A) (A) (A) (A) (A) (A) (A) (A) (A)
                 (A) (A) (A) (A) (A) (A) (A) (A) (A) (A) (A) (A)
                 (A) (A) (A) (A) (A) (A) (A) (A) (A) (A) (A) (A)
                 (A) (A) (A) (A) (A) (A) (A) (A) (A) (A) (A) (A)
                 (A) (A) (A) (A) (A) (A) (A) (A) (A) (A) (A) (A)
                 (A) (A) (A) (A) (A) (A) (A) (A) (A) (A) (A) (A)
                 (A) (A) (A) (A) (A) (A) (A) (A) (A) (A) (A) (A)
                 (A) (A) (A) (A) (A) (A) (A) (A) (A) (A) (A) (A)
                 (A) (A) (A) (A) (A) (A) (A) (A) (A) (A) (A) (A)
                 (A) (A) (A) (A) (A) (A) (A) (A) (A) (A) (A) (A)
                 (A) (A) (A) (A) (A) (A) (A) (A) (A) (A) (A) (A)
                 (A) (A) (A) (A) (A) (A) (A) (A) (A) (A) (A) (A)
                 (A) (A) (A) (A) (A) (A) (A) (A) (A) (A) (A) (A)
                 (A) (A) (A) (A) (A) (A) (A) (A) (A) (A) (A) (A)
                 (A) (A) (A) (A) (A) (A) (A) (A) (A) (A) (A) (A)
                 (A) (A) (A) (A) (A) (A) (A) (A) (A) (A) (A) (A)
                 (A) (A) (A) (A) (A) (A) (A) (A) (A) (A) (A) (A)
                 (A) (A) (A) (A) (A) (A) (A) (A) (A) (A) (A) (A)
                 (A) (A) (A) (A) (A) (A) (A) (A) (A) (A) (A) (A)
                 (A) (A) (A) (A) (A) (A) (A) (A) (A) (A) (A) (A)
                 (A) (A) (A) (A) (A) (A) (A) (A) (A) (A) (A) (A)
                 (A) (A) (A) (A) (A) (A) (A) (A) (A) (A) (A) (A)
                 (A) (A) (A) (A) (A) (A) (A) (A) (A) (A) (A) (A)
                 (A) (A) (A) (A) (A) (A) (A) (A) (A) (A) (A) (A)
 The electronic state is 1-A.
 Alpha  occ. eigenvalues --  -66.26853 -19.26574 -19.21488 -19.20295 -10.37294
 Alpha  occ. eigenvalues --  -10.32509 -10.30955 -10.25600 -10.25515 -10.24205
 Alpha  occ. eigenvalues --  -10.24172 -10.24070 -10.23019 -10.22843 -10.22158
 Alpha  occ. eigenvalues --  -10.20545 -10.20390 -10.20222  -5.32685  -3.66533
 Alpha  occ. eigenvalues --   -3.66303  -3.66260  -1.13694  -1.05267  -1.04264
 Alpha  occ. eigenvalues --   -0.86036  -0.83438  -0.80564  -0.78218  -0.74009
 Alpha  occ. eigenvalues --   -0.72383  -0.72276  -0.70128  -0.69689  -0.66824
 Alpha  occ. eigenvalues --   -0.63449  -0.61972  -0.58699  -0.56863  -0.54587
 Alpha  occ. eigenvalues --   -0.51999  -0.51228  -0.49196  -0.48915  -0.47186
 Alpha  occ. eigenvalues --   -0.46073  -0.45249  -0.44865  -0.44051  -0.43565
 Alpha  occ. eigenvalues --   -0.43022  -0.42592  -0.42216  -0.42059  -0.41271
 Alpha  occ. eigenvalues --   -0.40801  -0.40389  -0.39605  -0.39334  -0.39234
 Alpha  occ. eigenvalues --   -0.38649  -0.38245  -0.37018  -0.36437  -0.36142
 Alpha  occ. eigenvalues --   -0.35778  -0.35453  -0.33513  -0.32352  -0.31483
 Alpha  occ. eigenvalues --   -0.30042  -0.28825  -0.28641  -0.27175
 Alpha virt. eigenvalues --   -0.00181   0.01135   0.04078   0.05042   0.05846
 Alpha virt. eigenvalues --    0.06638   0.07495   0.07759   0.08671   0.08893
 Alpha virt. eigenvalues --    0.10051   0.10374   0.10526   0.10922   0.11274
 Alpha virt. eigenvalues --    0.11997   0.12165   0.12733   0.13052   0.13752
 Alpha virt. eigenvalues --    0.13968   0.14077   0.14777   0.14975   0.15469
 Alpha virt. eigenvalues --    0.16138   0.16372   0.16749   0.17507   0.17763
 Alpha virt. eigenvalues --    0.18060   0.19185   0.19317   0.19885   0.20423
 Alpha virt. eigenvalues --    0.21343   0.21950   0.23060   0.24696   0.25111
 Alpha virt. eigenvalues --    0.25713   0.26223   0.26538   0.27135   0.27966
 Alpha virt. eigenvalues --    0.29365   0.30185   0.31107   0.32094   0.32450
 Alpha virt. eigenvalues --    0.32731   0.33455   0.33954   0.35303   0.36001
 Alpha virt. eigenvalues --    0.36743   0.36772   0.38872   0.39872   0.40445
 Alpha virt. eigenvalues --    0.41596   0.43061   0.43269   0.44977   0.45162
 Alpha virt. eigenvalues --    0.45284   0.45886   0.47131   0.47717   0.48044
 Alpha virt. eigenvalues --    0.49231   0.49689   0.51631   0.52668   0.53139
 Alpha virt. eigenvalues --    0.53712   0.54049   0.54660   0.55498   0.56110
 Alpha virt. eigenvalues --    0.56992   0.57468   0.58191   0.58429   0.58846
 Alpha virt. eigenvalues --    0.59015   0.59510   0.60190   0.60400   0.61066
 Alpha virt. eigenvalues --    0.61292   0.61882   0.61977   0.62386   0.62636
 Alpha virt. eigenvalues --    0.63331   0.63453   0.64151   0.64870   0.65583
 Alpha virt. eigenvalues --    0.66415   0.67017   0.67485   0.67714   0.68432
 Alpha virt. eigenvalues --    0.68880   0.69155   0.70075   0.70817   0.71230
 Alpha virt. eigenvalues --    0.71447   0.71625   0.72305   0.73342   0.73788
 Alpha virt. eigenvalues --    0.76233   0.76953   0.78108   0.80574   0.81500
 Alpha virt. eigenvalues --    0.82282   0.83193   0.85392   0.88542   0.89108
 Alpha virt. eigenvalues --    0.90647   0.90787   0.93431   0.93712   0.94935
 Alpha virt. eigenvalues --    0.95495   0.96195   0.97978   0.98520   0.99954
 Alpha virt. eigenvalues --    1.02246   1.03450   1.05167   1.06515   1.10826
 Alpha virt. eigenvalues --    1.12657   1.14619   1.15838   1.18982   1.19802
 Alpha virt. eigenvalues --    1.21629   1.22899   1.26234   1.27726   1.28218
 Alpha virt. eigenvalues --    1.28352   1.30357   1.32552   1.34136   1.34410
 Alpha virt. eigenvalues --    1.35590   1.37401   1.37825   1.40804   1.41907
 Alpha virt. eigenvalues --    1.43493   1.44219   1.45820   1.46880   1.47796
 Alpha virt. eigenvalues --    1.49013   1.50834   1.51414   1.52183   1.53097
 Alpha virt. eigenvalues --    1.54711   1.54900   1.55445   1.55949   1.57993
 Alpha virt. eigenvalues --    1.58197   1.59229   1.60139   1.60524   1.60618
 Alpha virt. eigenvalues --    1.61254   1.61586   1.62603   1.63471   1.65103
 Alpha virt. eigenvalues --    1.65744   1.66942   1.67401   1.68350   1.69814
 Alpha virt. eigenvalues --    1.70298   1.72685   1.72732   1.74177   1.74826
 Alpha virt. eigenvalues --    1.75255   1.77723   1.79266   1.79878   1.80615
 Alpha virt. eigenvalues --    1.81409   1.82127   1.85046   1.85786   1.86894
 Alpha virt. eigenvalues --    1.88652   1.89374   1.93085   1.96226   1.96658
 Alpha virt. eigenvalues --    2.01194   2.01750   2.02714   2.08031   2.11078
 Alpha virt. eigenvalues --    2.15405   2.17342   2.18622   2.22366   2.25554
 Alpha virt. eigenvalues --    2.27461   2.31059   2.34724   2.37595   2.39994
 Alpha virt. eigenvalues --    2.41508   2.41649   2.42414   2.42832   2.44001
 Alpha virt. eigenvalues --    2.44733   2.44904   2.45618   2.47240   2.47453
 Alpha virt. eigenvalues --    2.48588   2.49742   2.50105   2.51067   2.51334
 Alpha virt. eigenvalues --    2.52977   2.53504   2.54433   2.56430   2.56788
 Alpha virt. eigenvalues --    2.61051   2.65016   2.68217   2.72664   2.80248
 Alpha virt. eigenvalues --    2.82143   2.87402   2.88878   2.90066   2.91297
 Alpha virt. eigenvalues --    2.92263   2.92950   2.94689   2.96273   2.96945
 Alpha virt. eigenvalues --    2.99836   3.00337   3.01969   3.04033   3.04656
 Alpha virt. eigenvalues --    3.07404   3.10634   3.11801   3.13027   3.14650
 Alpha virt. eigenvalues --    3.15913   3.17181   3.18351   3.19229   3.21243
 Alpha virt. eigenvalues --    3.22843   3.23097   3.23592   3.24068   3.25393
 Alpha virt. eigenvalues --    3.25968   3.27690   3.29164   3.30088   3.30771
 Alpha virt. eigenvalues --    3.33203   3.34067   3.34578   3.39972   3.40450
 Alpha virt. eigenvalues --    3.45224   3.51989   3.55704   3.59309   3.61792
 Alpha virt. eigenvalues --    3.75566   3.87864   3.92437   3.94941   4.04999
 Alpha virt. eigenvalues --    4.08591   4.10074   4.17844   4.23917   4.25593
 Alpha virt. eigenvalues --    4.95986   5.01220   5.02576   5.09191   5.15162
 Alpha virt. eigenvalues --    5.25904   5.50715   5.52171   5.76929   5.85036
 Alpha virt. eigenvalues --   11.51938  11.54589  11.60303  23.42162  23.49468
 Alpha virt. eigenvalues --   23.54576  23.55550  23.57887  23.62783  23.71750
 Alpha virt. eigenvalues --   23.73670  23.78817  23.79685  23.81605  23.84727
 Alpha virt. eigenvalues --   23.90588  24.27197  49.99193  50.05330  50.11668
 Alpha virt. eigenvalues --  141.28704
          Condensed to atoms (all electrons):
               1          2          3          4          5          6
     1  C    5.262103   0.299307  -0.068056  -0.025131  -0.066746   0.372820
     2  C    0.299307   5.432461   0.367006  -0.058105  -0.013503  -0.044135
     3  C   -0.068056   0.367006   5.124986   0.213845  -0.030913  -0.011275
     4  C   -0.025131  -0.058105   0.213845   5.914521   0.249270   0.004756
     5  C   -0.066746  -0.013503  -0.030913   0.249270   4.425172  -0.007125
     6  H    0.372820  -0.044135  -0.011275   0.004756  -0.007125   0.489049
     7  H   -0.054747   0.400009  -0.049144  -0.000343  -0.000330   0.008981
     8  H    0.000210   0.004529  -0.024220   0.376140  -0.026168  -0.000150
     9  H   -0.000628   0.002477  -0.032068   0.363306  -0.029201   0.000447
    10  O    0.190152  -0.025484  -0.000802  -0.102983   0.337363  -0.029799
    11  O    0.003570  -0.001789   0.004742  -0.099753   0.641638  -0.000232
    12  C    0.321719  -0.057599   0.006372  -0.000949   0.002776  -0.042339
    13  C   -0.072967   0.007071  -0.000189  -0.000062   0.000007  -0.006404
    14  C   -0.058410   0.279493  -0.052491   0.006319   0.000088   0.001866
    15  O    0.004749  -0.047808   0.221858  -0.034331   0.001229   0.000101
    16  Si   0.003878  -0.010685  -0.043716  -0.026637   0.001397  -0.000281
    17  C    0.000044  -0.000379  -0.001750   0.002724  -0.000728   0.000000
    18  C    0.000268  -0.002219   0.000539  -0.000594   0.000433  -0.000020
    19  C    0.000000  -0.000298   0.002450  -0.000211  -0.000014   0.000000
    20  H   -0.000020   0.000369  -0.000096   0.000037   0.000007   0.000001
    21  H   -0.000769  -0.000448  -0.000024   0.002189   0.005030   0.000028
    22  H    0.000094  -0.000583   0.000414   0.000111   0.000002  -0.000018
    23  H    0.000001  -0.000015  -0.000106  -0.000045   0.000003   0.000000
    24  H    0.000000   0.000004  -0.000061  -0.000002   0.000002   0.000000
    25  H   -0.000001   0.000018  -0.000033  -0.000027   0.000003   0.000000
    26  H    0.000005  -0.000046   0.000381  -0.000077   0.000103   0.000000
    27  H    0.000006  -0.000012   0.000529  -0.004443   0.000957  -0.000002
    28  H    0.000000   0.000003  -0.000047   0.000297  -0.000034   0.000000
    29  H    0.006944  -0.037458  -0.004856   0.000685  -0.000082  -0.000365
    30  H   -0.007751  -0.030178   0.006636  -0.000224  -0.000015  -0.000593
    31  H   -0.004035  -0.040779  -0.008764  -0.000150   0.000006   0.002607
    32  H   -0.048754  -0.002904  -0.000149   0.000151  -0.000390   0.007514
    33  H   -0.035757  -0.009824  -0.000264   0.000066  -0.000027   0.000202
    34  H    0.008485  -0.000202   0.000010   0.000001   0.000013  -0.000293
    35  H   -0.011552   0.000156  -0.000066   0.000318   0.000463   0.000617
    36  H   -0.004670   0.000095   0.000013  -0.000007  -0.000120   0.004846
    37  C   -0.000292  -0.080167   0.300573  -0.085367   0.004585   0.005148
    38  C   -0.000431   0.007781  -0.051016  -0.024299   0.000506  -0.000199
    39  C   -0.000029  -0.000073  -0.003088   0.001958   0.000030  -0.000039
    40  H    0.000726  -0.001331  -0.041114   0.000743  -0.000398   0.004276
    41  H    0.000708  -0.011105  -0.035881   0.007339  -0.000153  -0.000058
    42  H   -0.000017   0.000036  -0.001954  -0.000269  -0.000016   0.000001
    43  H   -0.000001   0.000017  -0.000341   0.000092   0.000000  -0.000004
    44  H   -0.000004  -0.000050   0.000102  -0.000078  -0.000005   0.000017
               7          8          9         10         11         12
     1  C   -0.054747   0.000210  -0.000628   0.190152   0.003570   0.321719
     2  C    0.400009   0.004529   0.002477  -0.025484  -0.001789  -0.057599
     3  C   -0.049144  -0.024220  -0.032068  -0.000802   0.004742   0.006372
     4  C   -0.000343   0.376140   0.363306  -0.102983  -0.099753  -0.000949
     5  C   -0.000330  -0.026168  -0.029201   0.337363   0.641638   0.002776
     6  H    0.008981  -0.000150   0.000447  -0.029799  -0.000232  -0.042339
     7  H    0.466850  -0.000248  -0.000333   0.004847  -0.001183  -0.006891
     8  H   -0.000248   0.386973  -0.015602   0.003646   0.002011   0.000083
     9  H   -0.000333  -0.015602   0.409254   0.000374   0.001436   0.000215
    10  O    0.004847   0.003646   0.000374   8.036999  -0.065438  -0.044891
    11  O   -0.001183   0.002011   0.001436  -0.065438   7.884047  -0.000127
    12  C   -0.006891   0.000083   0.000215  -0.044891  -0.000127   5.315405
    13  C   -0.000566  -0.000003  -0.000018  -0.003485  -0.000008   0.312009
    14  C   -0.041099  -0.000049  -0.000263   0.004794  -0.000010  -0.007996
    15  O   -0.003727  -0.003704   0.002594  -0.000044   0.000011  -0.000084
    16  Si  -0.003939  -0.005390   0.002896  -0.002365   0.007492  -0.000202
    17  C   -0.000100  -0.002232   0.000024  -0.000008  -0.003512   0.000000
    18  C   -0.004607   0.000284  -0.000020  -0.000125  -0.002290  -0.000039
    19  C   -0.000304  -0.000128   0.000009   0.000000   0.000001   0.000000
    20  H    0.000901   0.000016  -0.000001  -0.000001   0.000000   0.000000
    21  H   -0.001517  -0.000182   0.000060  -0.000041   0.004325   0.000049
    22  H   -0.001324  -0.000010   0.000008  -0.000131   0.000088   0.000053
    23  H   -0.000017  -0.000024   0.000001   0.000000   0.000000   0.000000
    24  H    0.000004   0.000006   0.000000   0.000000   0.000001   0.000000
    25  H   -0.000055  -0.000009   0.000001   0.000000   0.000000   0.000000
    26  H   -0.000010   0.000075  -0.000057  -0.000002  -0.000062   0.000000
    27  H   -0.000073   0.001842   0.000242   0.000203   0.013013   0.000001
    28  H    0.000000   0.000458  -0.000009   0.000000  -0.000032   0.000000
    29  H   -0.004636  -0.000020  -0.000030  -0.000150   0.000001   0.000291
    30  H   -0.008700   0.000013   0.000021   0.000005   0.000001   0.002692
    31  H    0.007633  -0.000006  -0.000047   0.000020  -0.000001  -0.001785
    32  H    0.005144   0.000001  -0.000007   0.002001  -0.000054   0.393631
    33  H    0.000833  -0.000004  -0.000006   0.003148   0.000004   0.388610
    34  H   -0.000011   0.000000   0.000000  -0.000107   0.000000  -0.038493
    35  H    0.000113  -0.000008  -0.000014   0.012065   0.000079  -0.039139
    36  H    0.000004   0.000001  -0.000001  -0.000390   0.000001  -0.041846
    37  C    0.006406  -0.003805  -0.009762  -0.000425  -0.000104  -0.000466
    38  C   -0.000163   0.002002   0.001237  -0.000026  -0.000019   0.000008
    39  C   -0.000004   0.001055   0.004519   0.000000   0.000001   0.000000
    40  H    0.000294   0.000298  -0.001685  -0.000078   0.000007   0.000116
    41  H   -0.000282  -0.000078   0.001114  -0.000023   0.000005  -0.000026
    42  H    0.000010   0.000126   0.000003   0.000001   0.000000   0.000001
    43  H   -0.000001   0.000045   0.000047   0.000000   0.000000   0.000000
    44  H    0.000001  -0.000018   0.000407   0.000001   0.000000   0.000000
              13         14         15         16         17         18
     1  C   -0.072967  -0.058410   0.004749   0.003878   0.000044   0.000268
     2  C    0.007071   0.279493  -0.047808  -0.010685  -0.000379  -0.002219
     3  C   -0.000189  -0.052491   0.221858  -0.043716  -0.001750   0.000539
     4  C   -0.000062   0.006319  -0.034331  -0.026637   0.002724  -0.000594
     5  C    0.000007   0.000088   0.001229   0.001397  -0.000728   0.000433
     6  H   -0.006404   0.001866   0.000101  -0.000281   0.000000  -0.000020
     7  H   -0.000566  -0.041099  -0.003727  -0.003939  -0.000100  -0.004607
     8  H   -0.000003  -0.000049  -0.003704  -0.005390  -0.002232   0.000284
     9  H   -0.000018  -0.000263   0.002594   0.002896   0.000024  -0.000020
    10  O   -0.003485   0.004794  -0.000044  -0.002365  -0.000008  -0.000125
    11  O   -0.000008  -0.000010   0.000011   0.007492  -0.003512  -0.002290
    12  C    0.312009  -0.007996  -0.000084  -0.000202   0.000000  -0.000039
    13  C    5.341972  -0.000115   0.000001   0.000031   0.000000   0.000000
    14  C   -0.000115   5.429728  -0.001950  -0.001419   0.000004   0.000538
    15  O    0.000001  -0.001950   8.248162   0.357585  -0.024686  -0.023159
    16  Si   0.000031  -0.001419   0.357585  11.543107   0.316156   0.320129
    17  C    0.000000   0.000004  -0.024686   0.316156   5.807980  -0.056852
    18  C    0.000000   0.000538  -0.023159   0.320129  -0.056852   5.811842
    19  C    0.000000   0.000000  -0.022197   0.333431  -0.054852  -0.053313
    20  H    0.000000  -0.000017   0.000740  -0.009317   0.000051   0.366289
    21  H   -0.000009   0.000120  -0.000934  -0.026405  -0.001590   0.359489
    22  H   -0.000001   0.000171  -0.001935  -0.027889   0.002540   0.368078
    23  H    0.000000  -0.000006  -0.001272  -0.026991  -0.000528   0.002602
    24  H    0.000000  -0.000002   0.000911  -0.014014   0.000445  -0.000238
    25  H    0.000000   0.000004  -0.001356  -0.028254   0.002678  -0.000739
    26  H    0.000000   0.000001  -0.002186  -0.025772   0.367910   0.002325
    27  H    0.000000  -0.000001  -0.001123  -0.027227   0.358443  -0.001826
    28  H    0.000000   0.000000   0.000855  -0.011681   0.365228   0.000809
    29  H    0.000019   0.386021   0.006897   0.002110   0.000025  -0.000048
    30  H    0.000227   0.391906  -0.000240  -0.000294   0.000000   0.000078
    31  H   -0.000147   0.387613   0.000030  -0.000102   0.000000  -0.000007
    32  H   -0.043547  -0.000323  -0.000004  -0.000130   0.000000   0.000067
    33  H   -0.038222   0.002819  -0.000004  -0.000036   0.000000  -0.000003
    34  H    0.393119  -0.000013   0.000000   0.000000   0.000000   0.000000
    35  H    0.386323  -0.000044   0.000000  -0.000002   0.000000  -0.000002
    36  H    0.384788  -0.000035   0.000000   0.000000   0.000000   0.000000
    37  C    0.000014  -0.021541  -0.078092   0.000740   0.000072  -0.000277
    38  C    0.000000   0.000060   0.007487   0.000721  -0.000167   0.000024
    39  C    0.000000  -0.000026   0.000845   0.000447  -0.000024   0.000001
    40  H   -0.000020  -0.001170   0.003854  -0.000064   0.000008   0.000012
    41  H    0.000001   0.002148   0.001714   0.000228   0.000012   0.000003
    42  H    0.000000  -0.000072   0.004125   0.001011   0.000226   0.000018
    43  H    0.000000   0.000000   0.000011   0.000004   0.000001   0.000000
    44  H    0.000000  -0.000012   0.000002   0.000002   0.000000   0.000000
              19         20         21         22         23         24
     1  C    0.000000  -0.000020  -0.000769   0.000094   0.000001   0.000000
     2  C   -0.000298   0.000369  -0.000448  -0.000583  -0.000015   0.000004
     3  C    0.002450  -0.000096  -0.000024   0.000414  -0.000106  -0.000061
     4  C   -0.000211   0.000037   0.002189   0.000111  -0.000045  -0.000002
     5  C   -0.000014   0.000007   0.005030   0.000002   0.000003   0.000002
     6  H    0.000000   0.000001   0.000028  -0.000018   0.000000   0.000000
     7  H   -0.000304   0.000901  -0.001517  -0.001324  -0.000017   0.000004
     8  H   -0.000128   0.000016  -0.000182  -0.000010  -0.000024   0.000006
     9  H    0.000009  -0.000001   0.000060   0.000008   0.000001   0.000000
    10  O    0.000000  -0.000001  -0.000041  -0.000131   0.000000   0.000000
    11  O    0.000001   0.000000   0.004325   0.000088   0.000000   0.000001
    12  C    0.000000   0.000000   0.000049   0.000053   0.000000   0.000000
    13  C    0.000000   0.000000  -0.000009  -0.000001   0.000000   0.000000
    14  C    0.000000  -0.000017   0.000120   0.000171  -0.000006  -0.000002
    15  O   -0.022197   0.000740  -0.000934  -0.001935  -0.001272   0.000911
    16  Si   0.333431  -0.009317  -0.026405  -0.027889  -0.026991  -0.014014
    17  C   -0.054852   0.000051  -0.001590   0.002540  -0.000528   0.000445
    18  C   -0.053313   0.366289   0.359489   0.368078   0.002602  -0.000238
    19  C    5.726931  -0.000909   0.003205  -0.000631   0.369852   0.365245
    20  H   -0.000909   0.432641  -0.018742  -0.021343  -0.000066   0.000576
    21  H    0.003205  -0.018742   0.438761  -0.018800  -0.000096  -0.000064
    22  H   -0.000631  -0.021343  -0.018800   0.457545  -0.000047  -0.000055
    23  H    0.369852  -0.000066  -0.000096  -0.000047   0.459450  -0.020825
    24  H    0.365245   0.000576  -0.000064  -0.000055  -0.020825   0.453532
    25  H    0.368772  -0.000041  -0.000068   0.001445  -0.018354  -0.020474
    26  H   -0.000337  -0.000019  -0.000073  -0.000096   0.000917  -0.000058
    27  H    0.002834  -0.000031   0.000914   0.000008  -0.000026  -0.000051
    28  H   -0.001389   0.000227   0.000012  -0.000053  -0.000023   0.000953
    29  H   -0.000004  -0.000002  -0.000004   0.000069   0.000002  -0.000002
    30  H    0.000001  -0.000003   0.000012   0.000176   0.000000   0.000000
    31  H    0.000000   0.000001  -0.000005  -0.000016   0.000000   0.000000
    32  H    0.000000  -0.000003   0.000150   0.000007   0.000000   0.000000
    33  H    0.000000   0.000000   0.000003  -0.000003   0.000000   0.000000
    34  H    0.000000   0.000000   0.000000   0.000000   0.000000   0.000000
    35  H    0.000000   0.000000   0.000013  -0.000001   0.000000   0.000000
    36  H    0.000000   0.000000   0.000000   0.000000   0.000000   0.000000
    37  C   -0.000011   0.000006  -0.000061  -0.000083   0.000052   0.000001
    38  C   -0.000029   0.000000   0.000011   0.000006  -0.000019   0.000000
    39  C   -0.000001   0.000000   0.000000   0.000000  -0.000001   0.000000
    40  H    0.000001   0.000000  -0.000001   0.000000  -0.000001   0.000000
    41  H   -0.000051   0.000000  -0.000006   0.000002  -0.000004   0.000001
    42  H    0.000024   0.000000   0.000001   0.000001   0.000066  -0.000003
    43  H    0.000000   0.000000   0.000000   0.000000   0.000000   0.000000
    44  H    0.000000   0.000000   0.000000   0.000000   0.000000   0.000000
              25         26         27         28         29         30
     1  C   -0.000001   0.000005   0.000006   0.000000   0.006944  -0.007751
     2  C    0.000018  -0.000046  -0.000012   0.000003  -0.037458  -0.030178
     3  C   -0.000033   0.000381   0.000529  -0.000047  -0.004856   0.006636
     4  C   -0.000027  -0.000077  -0.004443   0.000297   0.000685  -0.000224
     5  C    0.000003   0.000103   0.000957  -0.000034  -0.000082  -0.000015
     6  H    0.000000   0.000000  -0.000002   0.000000  -0.000365  -0.000593
     7  H   -0.000055  -0.000010  -0.000073   0.000000  -0.004636  -0.008700
     8  H   -0.000009   0.000075   0.001842   0.000458  -0.000020   0.000013
     9  H    0.000001  -0.000057   0.000242  -0.000009  -0.000030   0.000021
    10  O    0.000000  -0.000002   0.000203   0.000000  -0.000150   0.000005
    11  O    0.000000  -0.000062   0.013013  -0.000032   0.000001   0.000001
    12  C    0.000000   0.000000   0.000001   0.000000   0.000291   0.002692
    13  C    0.000000   0.000000   0.000000   0.000000   0.000019   0.000227
    14  C    0.000004   0.000001  -0.000001   0.000000   0.386021   0.391906
    15  O   -0.001356  -0.002186  -0.001123   0.000855   0.006897  -0.000240
    16  Si  -0.028254  -0.025772  -0.027227  -0.011681   0.002110  -0.000294
    17  C    0.002678   0.367910   0.358443   0.365228   0.000025   0.000000
    18  C   -0.000739   0.002325  -0.001826   0.000809  -0.000048   0.000078
    19  C    0.368772  -0.000337   0.002834  -0.001389  -0.000004   0.000001
    20  H   -0.000041  -0.000019  -0.000031   0.000227  -0.000002  -0.000003
    21  H   -0.000068  -0.000073   0.000914   0.000012  -0.000004   0.000012
    22  H    0.001445  -0.000096   0.000008  -0.000053   0.000069   0.000176
    23  H   -0.018354   0.000917  -0.000026  -0.000023   0.000002   0.000000
    24  H   -0.020474  -0.000058  -0.000051   0.000953  -0.000002   0.000000
    25  H    0.461610  -0.000110  -0.000104   0.000050   0.000097   0.000001
    26  H   -0.000110   0.454128  -0.019177  -0.019964   0.000003   0.000000
    27  H   -0.000104  -0.019177   0.450064  -0.021837   0.000003   0.000000
    28  H    0.000050  -0.019964  -0.021837   0.445095   0.000000   0.000000
    29  H    0.000097   0.000003   0.000003   0.000000   0.438808  -0.025248
    30  H    0.000001   0.000000   0.000000   0.000000  -0.025248   0.453462
    31  H   -0.000002   0.000000   0.000000   0.000000  -0.023211  -0.027462
    32  H    0.000000   0.000000   0.000000   0.000000  -0.000223   0.000581
    33  H    0.000000   0.000000   0.000000   0.000000   0.000423  -0.002238
    34  H    0.000000   0.000000   0.000000   0.000000  -0.000001   0.000004
    35  H    0.000000   0.000000   0.000000   0.000000   0.000006  -0.000040
    36  H    0.000000   0.000000   0.000000   0.000000  -0.000003   0.000017
    37  C   -0.000007   0.000110  -0.000049   0.000001  -0.004084   0.000447
    38  C    0.000004   0.000290  -0.000095   0.000001  -0.000298   0.000009
    39  C    0.000000   0.000020  -0.000011   0.000000  -0.000006   0.000001
    40  H   -0.000001   0.000002   0.000000   0.000000   0.000241  -0.000144
    41  H   -0.000009   0.000003   0.000007   0.000000   0.001602   0.000396
    42  H   -0.000006   0.000492  -0.000002  -0.000002   0.000019   0.000000
    43  H    0.000000  -0.000002   0.000000   0.000000   0.000000   0.000000
    44  H    0.000000   0.000001   0.000000   0.000000   0.000001   0.000000
              31         32         33         34         35         36
     1  C   -0.004035  -0.048754  -0.035757   0.008485  -0.011552  -0.004670
     2  C   -0.040779  -0.002904  -0.009824  -0.000202   0.000156   0.000095
     3  C   -0.008764  -0.000149  -0.000264   0.000010  -0.000066   0.000013
     4  C   -0.000150   0.000151   0.000066   0.000001   0.000318  -0.000007
     5  C    0.000006  -0.000390  -0.000027   0.000013   0.000463  -0.000120
     6  H    0.002607   0.007514   0.000202  -0.000293   0.000617   0.004846
     7  H    0.007633   0.005144   0.000833  -0.000011   0.000113   0.000004
     8  H   -0.000006   0.000001  -0.000004   0.000000  -0.000008   0.000001
     9  H   -0.000047  -0.000007  -0.000006   0.000000  -0.000014  -0.000001
    10  O    0.000020   0.002001   0.003148  -0.000107   0.012065  -0.000390
    11  O   -0.000001  -0.000054   0.000004   0.000000   0.000079   0.000001
    12  C   -0.001785   0.393631   0.388610  -0.038493  -0.039139  -0.041846
    13  C   -0.000147  -0.043547  -0.038222   0.393119   0.386323   0.384788
    14  C    0.387613  -0.000323   0.002819  -0.000013  -0.000044  -0.000035
    15  O    0.000030  -0.000004  -0.000004   0.000000   0.000000   0.000000
    16  Si  -0.000102  -0.000130  -0.000036   0.000000  -0.000002   0.000000
    17  C    0.000000   0.000000   0.000000   0.000000   0.000000   0.000000
    18  C   -0.000007   0.000067  -0.000003   0.000000  -0.000002   0.000000
    19  C    0.000000   0.000000   0.000000   0.000000   0.000000   0.000000
    20  H    0.000001  -0.000003   0.000000   0.000000   0.000000   0.000000
    21  H   -0.000005   0.000150   0.000003   0.000000   0.000013   0.000000
    22  H   -0.000016   0.000007  -0.000003   0.000000  -0.000001   0.000000
    23  H    0.000000   0.000000   0.000000   0.000000   0.000000   0.000000
    24  H    0.000000   0.000000   0.000000   0.000000   0.000000   0.000000
    25  H   -0.000002   0.000000   0.000000   0.000000   0.000000   0.000000
    26  H    0.000000   0.000000   0.000000   0.000000   0.000000   0.000000
    27  H    0.000000   0.000000   0.000000   0.000000   0.000000   0.000000
    28  H    0.000000   0.000000   0.000000   0.000000   0.000000   0.000000
    29  H   -0.023211  -0.000223   0.000423  -0.000001   0.000006  -0.000003
    30  H   -0.027462   0.000581  -0.002238   0.000004  -0.000040   0.000017
    31  H    0.467089   0.000135   0.000749   0.000005   0.000000   0.000012
    32  H    0.000135   0.477206  -0.024772  -0.004565  -0.004742   0.007280
    33  H    0.000749  -0.024772   0.468683  -0.005235   0.007191  -0.004634
    34  H    0.000005  -0.004565  -0.005235   0.470659  -0.026245  -0.026916
    35  H    0.000000  -0.004742   0.007191  -0.026245   0.462743  -0.027323
    36  H    0.000012   0.007280  -0.004634  -0.026916  -0.027323   0.487712
    37  C    0.002763  -0.000002   0.000025   0.000000   0.000004  -0.000016
    38  C    0.000330   0.000001  -0.000001   0.000000   0.000000   0.000000
    39  C   -0.000011   0.000000   0.000000   0.000000   0.000000   0.000000
    40  H    0.000597  -0.000003   0.000032   0.000001   0.000000  -0.000026
    41  H   -0.002205   0.000003  -0.000014   0.000000   0.000000   0.000001
    42  H   -0.000003   0.000000   0.000000   0.000000   0.000000   0.000000
    43  H    0.000000   0.000000   0.000000   0.000000   0.000000   0.000000
    44  H   -0.000006   0.000000   0.000000   0.000000   0.000000   0.000000
              37         38         39         40         41         42
     1  C   -0.000292  -0.000431  -0.000029   0.000726   0.000708  -0.000017
     2  C   -0.080167   0.007781  -0.000073  -0.001331  -0.011105   0.000036
     3  C    0.300573  -0.051016  -0.003088  -0.041114  -0.035881  -0.001954
     4  C   -0.085367  -0.024299   0.001958   0.000743   0.007339  -0.000269
     5  C    0.004585   0.000506   0.000030  -0.000398  -0.000153  -0.000016
     6  H    0.005148  -0.000199  -0.000039   0.004276  -0.000058   0.000001
     7  H    0.006406  -0.000163  -0.000004   0.000294  -0.000282   0.000010
     8  H   -0.003805   0.002002   0.001055   0.000298  -0.000078   0.000126
     9  H   -0.009762   0.001237   0.004519  -0.001685   0.001114   0.000003
    10  O   -0.000425  -0.000026   0.000000  -0.000078  -0.000023   0.000001
    11  O   -0.000104  -0.000019   0.000001   0.000007   0.000005   0.000000
    12  C   -0.000466   0.000008   0.000000   0.000116  -0.000026   0.000001
    13  C    0.000014   0.000000   0.000000  -0.000020   0.000001   0.000000
    14  C   -0.021541   0.000060  -0.000026  -0.001170   0.002148  -0.000072
    15  O   -0.078092   0.007487   0.000845   0.003854   0.001714   0.004125
    16  Si   0.000740   0.000721   0.000447  -0.000064   0.000228   0.001011
    17  C    0.000072  -0.000167  -0.000024   0.000008   0.000012   0.000226
    18  C   -0.000277   0.000024   0.000001   0.000012   0.000003   0.000018
    19  C   -0.000011  -0.000029  -0.000001   0.000001  -0.000051   0.000024
    20  H    0.000006   0.000000   0.000000   0.000000   0.000000   0.000000
    21  H   -0.000061   0.000011   0.000000  -0.000001  -0.000006   0.000001
    22  H   -0.000083   0.000006   0.000000   0.000000   0.000002   0.000001
    23  H    0.000052  -0.000019  -0.000001  -0.000001  -0.000004   0.000066
    24  H    0.000001   0.000000   0.000000   0.000000   0.000001  -0.000003
    25  H   -0.000007   0.000004   0.000000  -0.000001  -0.000009  -0.000006
    26  H    0.000110   0.000290   0.000020   0.000002   0.000003   0.000492
    27  H   -0.000049  -0.000095  -0.000011   0.000000   0.000007  -0.000002
    28  H    0.000001   0.000001   0.000000   0.000000   0.000000  -0.000002
    29  H   -0.004084  -0.000298  -0.000006   0.000241   0.001602   0.000019
    30  H    0.000447   0.000009   0.000001  -0.000144   0.000396   0.000000
    31  H    0.002763   0.000330  -0.000011   0.000597  -0.002205  -0.000003
    32  H   -0.000002   0.000001   0.000000  -0.000003   0.000003   0.000000
    33  H    0.000025  -0.000001   0.000000   0.000032  -0.000014   0.000000
    34  H    0.000000   0.000000   0.000000   0.000001   0.000000   0.000000
    35  H    0.000004   0.000000   0.000000   0.000000   0.000000   0.000000
    36  H   -0.000016   0.000000   0.000000  -0.000026   0.000001   0.000000
    37  C    5.477643   0.331913  -0.066388   0.385006   0.390385  -0.046421
    38  C    0.331913   5.063687   0.614494  -0.046355  -0.044353   0.398361
    39  C   -0.066388   0.614494   5.156924   0.001580   0.001239  -0.040783
    40  H    0.385006  -0.046355   0.001580   0.465262  -0.021612   0.005226
    41  H    0.390385  -0.044353   0.001239  -0.021612   0.448965  -0.001891
    42  H   -0.046421   0.398361  -0.040783   0.005226  -0.001891   0.459888
    43  H    0.006480  -0.039427   0.392023   0.000171  -0.000383  -0.007835
    44  H   -0.008956  -0.039021   0.387048   0.004730   0.000217   0.005837
              43         44
     1  C   -0.000001  -0.000004
     2  C    0.000017  -0.000050
     3  C   -0.000341   0.000102
     4  C    0.000092  -0.000078
     5  C    0.000000  -0.000005
     6  H   -0.000004   0.000017
     7  H   -0.000001   0.000001
     8  H    0.000045  -0.000018
     9  H    0.000047   0.000407
    10  O    0.000000   0.000001
    11  O    0.000000   0.000000
    12  C    0.000000   0.000000
    13  C    0.000000   0.000000
    14  C    0.000000  -0.000012
    15  O    0.000011   0.000002
    16  Si   0.000004   0.000002
    17  C    0.000001   0.000000
    18  C    0.000000   0.000000
    19  C    0.000000   0.000000
    20  H    0.000000   0.000000
    21  H    0.000000   0.000000
    22  H    0.000000   0.000000
    23  H    0.000000   0.000000
    24  H    0.000000   0.000000
    25  H    0.000000   0.000000
    26  H   -0.000002   0.000001
    27  H    0.000000   0.000000
    28  H    0.000000   0.000000
    29  H    0.000000   0.000001
    30  H    0.000000   0.000000
    31  H    0.000000  -0.000006
    32  H    0.000000   0.000000
    33  H    0.000000   0.000000
    34  H    0.000000   0.000000
    35  H    0.000000   0.000000
    36  H    0.000000   0.000000
    37  C    0.006480  -0.008956
    38  C   -0.039427  -0.039021
    39  C    0.392023   0.387048
    40  H    0.000171   0.004730
    41  H   -0.000383   0.000217
    42  H   -0.007835   0.005837
    43  H    0.456364  -0.033588
    44  H   -0.033588   0.463883
 Mulliken charges:
               1
     1  C   -0.015023
     2  C   -0.323652
     3  C    0.212024
     4  C   -0.680779
     5  C    0.504886
     6  H    0.240052
     7  H    0.282323
     8  H    0.302242
     9  H    0.299059
    10  O   -0.318821
    11  O   -0.387863
    12  C   -0.461160
    13  C   -0.659820
    14  C   -0.706631
    15  O   -0.614928
    16  Si   1.401444
    17  C   -1.077163
    18  C   -1.087448
    19  C   -1.038080
    20  H    0.248749
    21  H    0.255466
    22  H    0.242202
    23  H    0.235521
    24  H    0.234170
    25  H    0.234969
    26  H    0.241282
    27  H    0.247021
    28  H    0.241081
    29  H    0.256467
    30  H    0.246441
    31  H    0.239154
    32  H    0.236701
    33  H    0.248255
    34  H    0.229785
    35  H    0.239087
    36  H    0.221219
    37  C   -0.505995
    38  C   -0.183017
    39  C   -0.451701
    40  H    0.240820
    41  H    0.262041
    42  H    0.223802
    43  H    0.226325
    44  H    0.219490
 Sum of Mulliken charges =   0.00000
 Mulliken charges with hydrogens summed into heavy atoms:
               1
     1  C    0.225029
     2  C   -0.041329
     3  C    0.212024
     4  C   -0.079478
     5  C    0.504886
    10  O   -0.318821
    11  O   -0.387863
    12  C    0.023796
    13  C    0.030272
    14  C    0.035432
    15  O   -0.614928
    16  Si   1.401444
    17  C   -0.347780
    18  C   -0.341031
    19  C   -0.333419
    37  C   -0.003134
    38  C    0.040786
    39  C   -0.005886
 Electronic spatial extent (au):  <R**2>=           5316.8622
 Charge=              0.0000 electrons
 Dipole moment (field-independent basis, Debye):
    X=             -1.4886    Y=              2.2618    Z=             -3.7654  Tot=              4.6379
 Quadrupole moment (field-independent basis, Debye-Ang):
   XX=           -112.9509   YY=           -119.8232   ZZ=           -129.7544
   XY=             -5.1836   XZ=              6.9308   YZ=              9.7686
 Traceless Quadrupole moment (field-independent basis, Debye-Ang):
   XX=              7.8919   YY=              1.0197   ZZ=             -8.9116
   XY=             -5.1836   XZ=              6.9308   YZ=              9.7686
 Octapole moment (field-independent basis, Debye-Ang**2):
  XXX=            -20.4258  YYY=             -4.4585  ZZZ=            -31.7368  XYY=              1.5350
  XXY=             -0.3638  XXZ=             -2.6292  XZZ=             -6.1573  YZZ=             15.5746
  YYZ=              3.6351  XYZ=             -6.9949
 Hexadecapole moment (field-independent basis, Debye-Ang**3):
 XXXX=          -3775.5662 YYYY=          -2191.8282 ZZZZ=          -1376.0203 XXXY=             10.9474
 XXXZ=             61.1912 YYYX=            -17.7217 YYYZ=             55.0721 ZZZX=              2.3799
 ZZZY=             39.1027 XXYY=           -939.8192 XXZZ=           -874.3024 YYZZ=           -594.0333
 XXYZ=              8.6564 YYXZ=             19.5732 ZZXY=             -0.7484
 N-N= 1.639398520820D+03 E-N=-5.773989323259D+03  KE= 1.060507216968D+03
 1\1\GINC-SWANNODE-0-0\SP\RmPW1PW91\6-311G(d)\C14H26O3Si1\ROOT\08-Mar-2
 018\0\\#mPW1PW91/6-311g(d) nmr=(giao) scrf=(solvent=chloroform)\\P_ng_
 2ginp005\\0,1\C,0,-0.039298,0.261544,1.137111\C,0,-1.044694,1.127662,0
 .359345\C,0,-2.347095,1.290385,1.219244\C,0,-2.03944,1.196844,2.730733
 \C,0,-0.632116,1.585419,3.074721\H,0,-0.483721,-0.694534,1.440694\H,0,
 -0.588513,2.118315,0.258464\H,0,-2.733828,1.796151,3.325305\H,0,-2.133
 371,0.165103,3.096079\O,0,0.331305,0.991611,2.330057\O,0,-0.359184,2.3
 30502,4.008026\C,0,1.256683,-0.028594,0.365209\C,0,2.257908,-0.830807,
 1.188734\C,0,-1.296557,0.663285,-1.078658\O,0,-3.050743,2.477979,0.797
 263\Si,0,-2.786296,4.077418,1.208413\C,0,-3.366225,4.474535,2.95102\C,
 0,-1.00976,4.641094,1.013938\C,0,-3.824762,5.156355,0.039558\H,0,-0.92
 2369,5.707416,1.244397\H,0,-0.340874,4.099349,1.68686\H,0,-0.664274,4.
 491399,-0.013197\H,0,-4.884854,4.905424,0.13691\H,0,-3.690943,6.214939
 ,0.279804\H,0,-3.51922,4.990304,-0.997422\H,0,-4.357825,4.049877,3.132
 769\H,0,-2.675725,4.078619,3.70002\H,0,-3.426929,5.557728,3.094218\H,0
 ,-2.092658,1.250555,-1.548138\H,0,-0.401748,0.800992,-1.694805\H,0,-1.
 568388,-0.396034,-1.122486\H,0,1.733265,0.914307,0.071009\H,0,1.037795
 ,-0.592652,-0.547509\H,0,3.145269,-1.054161,0.587824\H,0,2.585062,-0.2
 76575,2.073823\H,0,1.82271,-1.780096,1.516835\C,0,-3.36414,0.131798,0.
 89343\C,0,-4.619884,0.146763,1.733555\C,0,-5.024574,-0.866909,2.509137
 \H,0,-2.864646,-0.840371,0.990265\H,0,-3.706179,0.218679,-0.14555\H,0,
 -5.229486,1.047646,1.677004\H,0,-5.945066,-0.791734,3.081015\H,0,-4.46
 0074,-1.790246,2.590977\\Version=EM64L-G09RevD.01\State=1-A\HF=-1064.3
 767097\RMSD=3.611e-09\Dipole=-0.3061603,-1.0815795,-1.4373394\Quadrupo
 le=-1.8210026,6.9685297,-5.1475271,-3.0660343,-9.0510287,-1.7588532\PG
 =C01 [X(C14H26O3Si1)]\\@


 SATCHEL PAIGE'S GUIDE TO LONGEVITY

    1.  AVOID FRIED MEATS, WHICH ANGRY UP THE BLOOD.

    2.  IF YOUR STOMACH DISPUTES YOU, LIE DOWN AND PACIFY IT WITH COOL
        THOUGHTS.

    3.  KEEP THE JUICES FLOWING BY JANGLING AROUND GENTLY AS YOU MOVE.

    4.  GO VERY LIGHT ON THE VICES, SUCH AS CARRYING ON IN SOCIETY.
        THE SOCIAL RUMBLE AIN'T RESTFUL.

    5.  AVOID RUNNING AT ALL TIMES.

    6.  DON'T LOOK BACK.  SOMETHING MAY BE GAINING ON YOU.
 Job cpu time:       0 days  1 hours 18 minutes  9.2 seconds.
 File lengths (MBytes):  RWF=    234 Int=      0 D2E=      0 Chk=     11 Scr=      1
 Normal termination of Gaussian 09 at Thu Mar  8 13:19:16 2018.
