 Entering Gaussian System, Link 0=/usr/local/shared/gaussian/em64t/09-D01/g09/g09
 Initial command:
 /usr/local/shared/gaussian/em64t/09-D01/g09/l1.exe "/scratch/ah809/P_ng_2ginp018/Gau-30186.inp" -scrdir="/scratch/ah809/P_ng_2ginp018/"
 Entering Link 1 = /usr/local/shared/gaussian/em64t/09-D01/g09/l1.exe PID=     30209.
  
 Copyright (c) 1988,1990,1992,1993,1995,1998,2003,2009,2013,
            Gaussian, Inc.  All Rights Reserved.
  
 This is part of the Gaussian(R) 09 program.  It is based on
 the Gaussian(R) 03 system (copyright 2003, Gaussian, Inc.),
 the Gaussian(R) 98 system (copyright 1998, Gaussian, Inc.),
 the Gaussian(R) 94 system (copyright 1995, Gaussian, Inc.),
 the Gaussian 92(TM) system (copyright 1992, Gaussian, Inc.),
 the Gaussian 90(TM) system (copyright 1990, Gaussian, Inc.),
 the Gaussian 88(TM) system (copyright 1988, Gaussian, Inc.),
 the Gaussian 86(TM) system (copyright 1986, Carnegie Mellon
 University), and the Gaussian 82(TM) system (copyright 1983,
 Carnegie Mellon University). Gaussian is a federally registered
 trademark of Gaussian, Inc.
  
 This software contains proprietary and confidential information,
 including trade secrets, belonging to Gaussian, Inc.
  
 This software is provided under written license and may be
 used, copied, transmitted, or stored only in accord with that
 written license.
  
 The following legend is applicable only to US Government
 contracts under FAR:
  
                    RESTRICTED RIGHTS LEGEND
  
 Use, reproduction and disclosure by the US Government is
 subject to restrictions as set forth in subparagraphs (a)
 and (c) of the Commercial Computer Software - Restricted
 Rights clause in FAR 52.227-19.
  
 Gaussian, Inc.
 340 Quinnipiac St., Bldg. 40, Wallingford CT 06492
  
  
 ---------------------------------------------------------------
 Warning -- This program may not be used in any manner that
 competes with the business of Gaussian, Inc. or will provide
 assistance to any competitor of Gaussian, Inc.  The licensee
 of this program is prohibited from giving any competitor of
 Gaussian, Inc. access to this program.  By using this program,
 the user acknowledges that Gaussian, Inc. is engaged in the
 business of creating and licensing software in the field of
 computational chemistry and represents and warrants to the
 licensee that it is not a competitor of Gaussian, Inc. and that
 it will not use this program in any manner prohibited above.
 ---------------------------------------------------------------
  

 Cite this work as:
 Gaussian 09, Revision D.01,
 M. J. Frisch, G. W. Trucks, H. B. Schlegel, G. E. Scuseria, 
 M. A. Robb, J. R. Cheeseman, G. Scalmani, V. Barone, B. Mennucci, 
 G. A. Petersson, H. Nakatsuji, M. Caricato, X. Li, H. P. Hratchian, 
 A. F. Izmaylov, J. Bloino, G. Zheng, J. L. Sonnenberg, M. Hada, 
 M. Ehara, K. Toyota, R. Fukuda, J. Hasegawa, M. Ishida, T. Nakajima, 
 Y. Honda, O. Kitao, H. Nakai, T. Vreven, J. A. Montgomery, Jr., 
 J. E. Peralta, F. Ogliaro, M. Bearpark, J. J. Heyd, E. Brothers, 
 K. N. Kudin, V. N. Staroverov, T. Keith, R. Kobayashi, J. Normand, 
 K. Raghavachari, A. Rendell, J. C. Burant, S. S. Iyengar, J. Tomasi, 
 M. Cossi, N. Rega, J. M. Millam, M. Klene, J. E. Knox, J. B. Cross, 
 V. Bakken, C. Adamo, J. Jaramillo, R. Gomperts, R. E. Stratmann, 
 O. Yazyev, A. J. Austin, R. Cammi, C. Pomelli, J. W. Ochterski, 
 R. L. Martin, K. Morokuma, V. G. Zakrzewski, G. A. Voth, 
 P. Salvador, J. J. Dannenberg, S. Dapprich, A. D. Daniels, 
 O. Farkas, J. B. Foresman, J. V. Ortiz, J. Cioslowski, 
 and D. J. Fox, Gaussian, Inc., Wallingford CT, 2013.
 
 ******************************************
 Gaussian 09:  EM64L-G09RevD.01 24-Apr-2013
                 8-Mar-2018 
 ******************************************
 %mem=6000MB
 %chk=P_ng_2ginp018.chk
 --------------------------------------------------------
 #mPW1PW91/6-311g(d) nmr=(giao) scrf=(solvent=chloroform)
 --------------------------------------------------------
 1/38=1/1;
 2/12=2,17=6,18=5,40=1/2;
 3/5=4,6=6,7=1,11=2,16=1,25=1,30=1,70=2201,72=7,74=-7/1,2,8,3;
 4//1;
 5/5=2,38=5,53=7/2;
 8/6=1,10=90,11=11/1;
 10/13=100,45=16/2;
 6/7=2,8=2,9=2,10=2,28=1/1;
 99/9=1/99;
 -------------
 P_ng_2ginp018
 -------------
 Symbolic Z-matrix:
 Charge =  0 Multiplicity = 1
 C                    -0.04312  -0.00439   0.99437 
 C                    -0.57955   1.3202    0.42542 
 C                    -1.83933   1.82864   1.1995 
 C                    -1.3856    1.95797   2.65453 
 C                    -0.85935   0.68586   3.23752 
 H                    -0.58956  -0.84364   0.54734 
 H                     0.20024   2.08707   0.55417 
 H                    -0.60083   2.71921   2.75089 
 H                    -2.20904   2.29214   3.29174 
 O                    -0.20157  -0.15614   2.42211 
 O                    -0.96072   0.44292   4.43698 
 C                     1.45265  -0.19819   0.68191 
 C                     1.97368  -1.55788   1.1334 
 C                    -0.80756   1.21456  -1.09406 
 O                    -2.05023   3.13431   0.61712 
 Si                   -3.22312   4.28018   0.9175 
 C                    -4.79916   3.92722  -0.04524 
 C                    -3.63182   4.54107   2.72488 
 C                    -2.57773   5.95076   0.27589 
 H                    -4.30814   5.39375   2.84148 
 H                    -4.12385   3.66931   3.16196 
 H                    -2.72618   4.75213   3.30125 
 H                    -3.3277    6.73171   0.43021 
 H                    -1.6639    6.23004   0.80796 
 H                    -2.35505   5.8828   -0.79275 
 H                    -5.50482   4.75649   0.0627 
 H                    -4.57521   3.80642  -1.10936 
 H                    -5.29236   3.01779   0.30393 
 H                    -1.18248   2.1546   -1.51074 
 H                     0.1252    0.98632  -1.61851 
 H                    -1.52583   0.42599  -1.33997 
 H                     2.0372    0.57606   1.19385 
 H                     1.63987  -0.09642  -0.39163 
 H                     1.89646  -1.67731   2.21846 
 H                     1.41491  -2.36888   0.6557 
 H                     3.02817  -1.66577   0.85992 
 C                    -3.04264   0.85312   0.97199 
 C                    -4.10348   0.81635   2.042 
 C                    -4.28024  -0.20967   2.88501 
 H                    -2.67583  -0.17228   0.85029 
 H                    -3.53835   1.0985    0.02422 
 H                    -4.78582   1.65744   2.11501 
 H                    -5.06987  -0.18662   3.63091 
 H                    -3.64458  -1.0904    2.86735 
 
                          Input orientation:                          
 ---------------------------------------------------------------------
 Center     Atomic      Atomic             Coordinates (Angstroms)
 Number     Number       Type             X           Y           Z
 ---------------------------------------------------------------------
      1          6           0       -0.043117   -0.004387    0.994373
      2          6           0       -0.579550    1.320201    0.425419
      3          6           0       -1.839325    1.828644    1.199499
      4          6           0       -1.385599    1.957972    2.654529
      5          6           0       -0.859349    0.685861    3.237516
      6          1           0       -0.589562   -0.843637    0.547339
      7          1           0        0.200240    2.087069    0.554169
      8          1           0       -0.600833    2.719209    2.750886
      9          1           0       -2.209039    2.292140    3.291744
     10          8           0       -0.201570   -0.156143    2.422112
     11          8           0       -0.960722    0.442920    4.436984
     12          6           0        1.452652   -0.198188    0.681912
     13          6           0        1.973675   -1.557882    1.133405
     14          6           0       -0.807560    1.214563   -1.094057
     15          8           0       -2.050225    3.134306    0.617115
     16         14           0       -3.223117    4.280182    0.917495
     17          6           0       -4.799156    3.927219   -0.045243
     18          6           0       -3.631824    4.541065    2.724879
     19          6           0       -2.577734    5.950756    0.275891
     20          1           0       -4.308143    5.393750    2.841483
     21          1           0       -4.123850    3.669314    3.161957
     22          1           0       -2.726176    4.752130    3.301254
     23          1           0       -3.327703    6.731714    0.430214
     24          1           0       -1.663904    6.230043    0.807957
     25          1           0       -2.355049    5.882802   -0.792746
     26          1           0       -5.504817    4.756490    0.062696
     27          1           0       -4.575213    3.806422   -1.109361
     28          1           0       -5.292363    3.017789    0.303934
     29          1           0       -1.182475    2.154602   -1.510738
     30          1           0        0.125201    0.986318   -1.618510
     31          1           0       -1.525832    0.425991   -1.339969
     32          1           0        2.037199    0.576055    1.193845
     33          1           0        1.639867   -0.096420   -0.391629
     34          1           0        1.896456   -1.677307    2.218456
     35          1           0        1.414914   -2.368876    0.655704
     36          1           0        3.028172   -1.665772    0.859917
     37          6           0       -3.042636    0.853119    0.971990
     38          6           0       -4.103479    0.816349    2.042004
     39          6           0       -4.280237   -0.209674    2.885014
     40          1           0       -2.675830   -0.172282    0.850287
     41          1           0       -3.538347    1.098501    0.024218
     42          1           0       -4.785817    1.657442    2.115014
     43          1           0       -5.069865   -0.186620    3.630913
     44          1           0       -3.644578   -1.090397    2.867345
 ---------------------------------------------------------------------
                    Distance matrix (angstroms):
                    1          2          3          4          5
     1  C    0.000000
     2  C    1.538182   0.000000
     3  C    2.574576   1.563569   0.000000
     4  C    2.899867   2.454669   1.529610   0.000000
     5  C    2.484827   2.896302   2.533736   1.495018   0.000000
     6  H    1.096714   2.167293   3.021309   3.594849   3.106316
     7  H    2.151091   1.101243   2.154776   2.634969   3.207252
     8  H    3.288519   2.713941   2.175723   1.097554   2.106690
     9  H    3.904250   3.437400   2.174628   1.093510   2.098746
    10  O    1.444498   2.511821   2.848930   2.434219   1.344071
    11  O    3.590773   4.124023   3.629529   2.377614   1.228015
    12  C    1.540297   2.549733   3.900392   4.073808   3.557809
    13  C    2.549535   3.911977   5.100186   5.095073   4.181829
    14  C    2.536090   1.540115   2.588829   3.865059   4.364027
    15  O    3.744623   2.343205   1.445131   2.444697   3.778832
    16  Si   5.336276   3.999009   2.829213   3.433135   4.887642
    17  C    6.257654   4.982283   3.835883   4.776931   6.066711
    18  C    6.044386   4.997785   3.591248   3.423864   4.776192
    19  C    6.511853   5.045507   4.288369   4.798065   6.280381
    20  H    7.123352   6.027734   4.636934   4.514508   5.849380
    21  H    5.903125   5.056583   3.529640   3.268668   4.423084
    22  H    5.928318   4.965538   3.708187   3.165868   4.474779
    23  H    7.515440   6.069336   5.181425   5.613195   7.108168
    24  H    6.444363   5.042689   4.422261   4.662389   6.106392
    25  H    6.572505   5.045161   4.546560   5.312987   6.744503
    26  H    7.305076   6.016469   4.827052   5.614023   6.944773
    27  H    6.283936   4.949966   4.089930   5.268517   6.514667
    28  H    6.096297   5.010706   3.760262   4.680952   5.804774
    29  H    3.497850   2.192817   2.807683   4.174850   4.980715
    30  H    2.799462   2.187647   3.536955   4.635244   4.963930
    31  H    2.798718   2.193549   2.917981   4.280496   4.633044
    32  H    2.168967   2.826943   4.073874   3.969740   3.546638
    33  H    2.182179   2.756845   4.282795   4.759522   4.475348
    34  H    2.838835   4.281430   5.223603   4.917042   3.770611
    35  H    2.798457   4.200025   5.339004   5.528091   4.601026
    36  H    3.494438   4.703242   6.001565   5.986111   5.127960
    37  C    3.119765   2.565872   1.565684   2.607184   3.150766
    38  C    4.272900   3.909641   2.619341   3.010874   3.459864
    39  C    4.644335   4.699490   3.599132   3.623637   3.553690
    40  H    2.641993   2.608143   2.196678   3.075381   3.120076
    41  H    3.791332   2.994093   2.191134   3.505931   4.203878
    42  H    5.148856   4.545453   3.090193   3.455847   4.197753
    43  H    5.679150   5.719146   4.517682   4.373376   4.317920
    44  H    4.202138   4.600911   3.815947   3.800109   3.324097
                    6          7          8          9         10
     6  H    0.000000
     7  H    3.035271   0.000000
     8  H    4.189226   2.422165   0.000000
     9  H    4.470745   3.652533   1.749640   0.000000
    10  O    2.034198   2.946636   2.921498   3.283334   0.000000
    11  O    4.113676   4.373478   2.855510   2.507884   2.234927
    12  C    2.146008   2.609071   4.124156   5.140130   2.401357
    13  C    2.724666   4.094662   5.247651   6.080805   2.890904
    14  C    2.641570   2.119806   4.134039   4.728696   3.822238
    15  O    4.238211   2.482994   2.612666   2.808577   4.183610
    16  Si   5.772880   4.081804   3.560103   3.258485   5.574459
    17  C    6.390063   5.360915   5.186862   4.529644   6.625668
    18  C    6.556833   5.041705   3.536487   2.720904   5.824266
    19  C    7.084510   4.766829   4.525111   4.755710   6.895407
    20  H    7.615506   6.040816   4.572256   3.772129   6.916728
    21  H    6.300329   5.291674   3.671965   2.362193   5.528632
    22  H    6.592555   4.817981   2.992116   2.513776   5.589067
    23  H    8.055872   5.833907   5.377875   5.399035   7.821952
    24  H    7.159545   4.550129   4.151030   4.687585   6.747391
    25  H    7.082214   4.769829   5.063884   5.440334   7.172283
    26  H    7.466996   6.317834   5.951969   5.230863   7.604291
    27  H    6.344534   5.341204   5.646170   5.221260   6.877643
    28  H    6.089844   5.576517   5.299734   4.354361   6.362130
    29  H    3.684652   2.486021   4.338033   4.912900   4.665729
    30  H    2.924128   2.436764   4.756223   5.591462   4.211724
    31  H    2.459774   3.053893   4.780122   5.040045   4.030608
    32  H    3.055056   2.463081   3.738542   5.037526   2.656471
    33  H    2.531866   2.781130   4.777437   5.838367   3.363272
    34  H    3.109328   4.451688   5.084219   5.810641   2.599448
    35  H    2.521115   4.619652   5.860173   6.465819   3.260277
    36  H    3.723118   4.708980   5.997791   7.000516   3.892386
    37  C    3.012786   3.494775   3.550939   2.854282   3.345612
    38  C    4.163795   4.727619   4.048693   2.707159   4.039198
    39  C    4.414489   5.548202   4.704717   3.273280   4.105200
    40  H    2.212467   3.669350   4.034676   3.500283   2.931358
    41  H    3.569438   3.903223   4.323240   3.724052   4.296290
    42  H    5.130454   5.242288   4.364146   2.902985   4.939506
    43  H    5.478432   6.512298   5.402827   3.800475   5.016216
    44  H    3.844014   5.498154   4.877606   3.698979   3.595187
                   11         12         13         14         15
    11  O    0.000000
    12  C    4.509541   0.000000
    13  C    4.850518   1.524493   0.000000
    14  C    5.586708   3.202888   4.514788   0.000000
    15  O    4.798122   4.835273   6.202818   2.856176   0.000000
    16  Si   5.677131   6.478743   7.818968   4.390817   1.667014
    17  C    6.853049   7.525479   8.794702   4.938760   2.936673
    18  C    5.182748   7.244731   8.435139   5.798824   2.987155
    19  C    7.089829   7.363313   8.822148   5.238492   2.885670
    20  H    6.185594   8.313861   9.523862   6.723701   3.892441
    21  H    4.694751   7.225342   8.283623   5.927667   3.326015
    22  H    4.793329   6.987790   8.161153   5.959381   3.206067
    23  H    7.823409   8.422511   9.864912   6.254077   3.822071
    24  H    6.866957   7.144996   8.601725   5.431945   3.125580
    25  H    7.673757   7.324728   8.821093   4.927268   3.104006
    26  H    7.641340   8.563798   9.846093   5.995627   3.856562
    27  H    7.425607   7.455248   8.757493   4.573093   3.131776
    28  H    6.517297   7.482019   8.626708   5.031845   3.259312
    29  H    6.193095   4.157791   5.543944   1.094467   2.498113
    30  H    6.176044   2.908113   4.178857   1.094162   3.787394
    31  H    5.804552   3.653624   4.722275   1.094638   3.382327
    32  H    4.418507   1.096915   2.135738   3.706055   4.856367
    33  H    5.510849   1.094485   2.138464   2.863910   5.007188
    34  H    4.192934   2.178468   1.094331   5.162108   6.425901
    35  H    5.277113   2.171174   1.094588   4.565314   6.503360
    36  H    5.757887   2.160498   1.094715   5.179497   6.992125
    37  C    4.063104   4.625690   5.567976   3.065087   2.512893
    38  C    3.968917   5.809452   6.587437   4.566896   3.408678
    39  C    3.722052   6.141645   6.633040   5.470004   4.615032
    40  H    4.022992   4.131995   4.859829   3.032201   3.373318
    41  H    5.152324   5.198465   6.218445   2.953169   2.590470
    42  H    4.636589   6.664506   7.549344   5.130381   3.450839
    43  H    4.234516   7.158210   7.597984   6.515819   5.406455
    44  H    3.466686   5.617287   5.898293   5.390196   5.045157
                   16         17         18         19         20
    16  Si   0.000000
    17  C    1.880252   0.000000
    18  C    1.871293   3.068069   0.000000
    19  C    1.902365   3.022010   3.015937   0.000000
    20  H    2.473670   3.274904   1.094566   3.144334   0.000000
    21  H    2.494412   3.287656   1.092280   3.990593   1.763618
    22  H    2.480321   4.022035   1.094054   3.257539   1.767961
    23  H    2.501677   3.202565   3.186992   1.093693   2.926709
    24  H    2.499020   3.982556   3.224895   1.093700   3.438984
    25  H    2.499371   3.218187   3.975437   1.093705   4.154680
    26  H    2.482681   1.094211   3.262166   3.168523   3.091890
    27  H    2.482087   1.094116   4.016352   3.241452   4.266158
    28  H    2.500374   1.091898   3.307376   3.996535   3.612898
    29  H    3.818197   4.286050   5.443801   4.421490   6.261286
    30  H    5.337799   5.947551   6.753998   5.961565   7.679293
    31  H    4.778254   4.964833   6.155650   5.851541   7.064306
    32  H    6.439554   7.713714   7.085421   7.143365   8.135617
    33  H    6.672111   7.600702   7.681772   7.402843   8.716295
    34  H    7.962048   9.020325   8.335856   9.054241   9.427887
    35  H    8.111094   8.873940   8.803314   9.235896   9.888851
    36  H    8.627647   9.662708   9.292925   9.475166  10.372318
    37  C    3.432245   3.683777   4.125616   5.165907   5.070882
    38  C    3.746691   3.810260   3.816056   5.639963   4.651199
    39  C    5.014722   5.096034   4.797458   6.903400   5.603663
    40  H    4.486477   4.702807   5.161750   6.150703   6.132701
    41  H    3.319700   3.097759   4.376477   4.952827   5.194105
    42  H    3.279459   3.133493   3.165267   5.166290   3.836134
    43  H    5.543053   5.523683   5.023929   7.425246   5.687174
    44  H    5.729107   5.915462   5.633278   7.578366   6.518063
                   21         22         23         24         25
    21  H    0.000000
    22  H    1.773524   0.000000
    23  H    4.180259   3.538850   0.000000
    24  H    4.260280   3.086937   1.778367   0.000000
    25  H    4.864963   4.263448   1.778297   1.777782   0.000000
    26  H    3.562926   4.267215   2.962500   4.180835   3.452738
    27  H    4.297288   4.875123   3.533257   4.245676   3.056260
    28  H    3.155662   4.310125   4.203460   4.872200   4.247213
    29  H    5.725392   5.682027   5.414725   4.713527   3.973653
    30  H    6.935832   6.820247   7.009236   6.048578   5.550593
    31  H    6.126678   6.457341   6.792822   6.190288   5.546516
    32  H    7.169396   6.676115   8.201064   6.768652   7.169376
    33  H    7.747849   7.497210   8.483843   7.237268   7.202176
    34  H    8.106826   7.992424  10.059885   8.785890   9.181388
    35  H    8.568486   8.651953  10.264697   9.134753   9.186992
    36  H    9.214877   8.958913  10.540378   9.184888   9.417608
    37  C    3.727725   4.552791   5.910386   5.553298   5.374456
    38  C    3.064983   4.355806   6.179906   6.064856   6.063148
    39  C    3.892005   5.216115   7.424031   7.254607   7.372281
    40  H    4.711522   5.500873   6.947414   6.481940   6.282237
    41  H    4.098451   4.974695   5.651751   5.519104   4.995714
    42  H    2.362608   3.902099   5.541921   5.688886   5.676035
    43  H    3.997886   5.476569   7.819396   7.793793   7.986042
    44  H    4.792843   5.930165   8.199112   7.858307   7.980267
                   26         27         28         29         30
    26  H    0.000000
    27  H    1.772149   0.000000
    28  H    1.768167   1.770212   0.000000
    29  H    5.284710   3.794771   4.574856   0.000000
    30  H    6.981243   5.505099   6.096939   1.756849   0.000000
    31  H    6.045909   4.558423   4.858661   1.770636   1.765633
    32  H    8.696985   7.711292   7.776663   4.491423   3.425404
    33  H    8.648911   7.373909   7.631377   3.779566   2.229747
    34  H   10.040911   9.111978   8.797070   6.170108   4.995453
    35  H    9.950134   8.782447   8.609731   5.648164   4.253556
    36  H   10.709478   9.572587   9.564317   6.159936   4.647948
    37  C    4.703770   3.924642   3.192705   3.364223   4.094340
    38  C    4.626675   4.369688   3.046419   4.790111   5.595533
    39  C    5.841906   5.671955   4.254749   5.874399   6.412489
    40  H    5.737269   4.824724   4.161887   3.635786   3.909359
    41  H    4.153236   3.113347   2.615049   3.003593   4.016556
    42  H    3.785904   3.880601   2.321022   5.135885   6.205458
    43  H    6.111930   6.217657   4.624557   6.857820   7.478030
    44  H    6.746305   6.376450   5.115023   5.979931   6.216661
                   31         32         33         34         35
    31  H    0.000000
    32  H    4.374691   0.000000
    33  H    3.345730   1.767434   0.000000
    34  H    5.366405   2.479370   3.062284   0.000000
    35  H    4.521281   3.057688   2.512283   1.775484   0.000000
    36  H    5.473018   2.473727   2.440620   1.768203   1.771626
    37  C    2.797908   5.092220   4.968593   5.687826   5.509178
    38  C    4.270174   6.203631   6.304105   6.499898   6.520747
    39  C    5.083434   6.586913   6.767337   6.383556   6.485886
    40  H    2.545122   4.784421   4.491475   5.004277   4.647265
    41  H    2.522596   5.720812   5.330541   6.485127   6.079167
    42  H    4.907227   6.969325   7.116790   7.468870   7.535907
    43  H    6.135563   7.551909   7.823649   7.262700   7.460996
    44  H    4.948738   6.153069   6.287628   5.609686   5.667832
                   36         37         38         39         40
    36  H    0.000000
    37  C    6.573590   0.000000
    38  C    7.643213   1.507206   0.000000
    39  C    7.722311   2.514129   1.339639   0.000000
    40  H    5.896291   1.095813   2.106125   2.591454   0.000000
    41  H    7.173477   1.097367   2.114343   3.232008   1.743908
    42  H    8.583557   2.234305   1.085520   2.081978   3.065855
    43  H    8.685880   3.501512   2.112932   1.086466   3.669263
    44  H    6.991882   2.780640   2.127782   1.086300   2.418663
                   41         42         43         44
    41  H    0.000000
    42  H    2.498004   0.000000
    43  H    4.123752   2.403996   0.000000
    44  H    3.589698   3.069047   1.852375   0.000000
 Stoichiometry    C14H26O3Si
 Framework group  C1[X(C14H26O3Si)]
 Deg. of freedom   126
 Full point group                 C1      NOp   1
 Largest Abelian subgroup         C1      NOp   1
 Largest concise Abelian subgroup C1      NOp   1
                         Standard orientation:                         
 ---------------------------------------------------------------------
 Center     Atomic      Atomic             Coordinates (Angstroms)
 Number     Number       Type             X           Y           Z
 ---------------------------------------------------------------------
      1          6           0        2.456247   -0.605479    0.271148
      2          6           0        1.053966   -1.232519    0.190965
      3          6           0       -0.073380   -0.151517    0.118349
      4          6           0        0.262553    0.690015   -1.113998
      5          6           0        1.619959    1.314693   -1.065988
      6          1           0        2.692319   -0.367178    1.315305
      7          1           0        0.993540   -1.814085   -0.742237
      8          1           0        0.206510    0.082764   -2.026539
      9          1           0       -0.463161    1.497497   -1.244674
     10          8           0        2.604427    0.636121   -0.452073
     11          8           0        1.852187    2.381954   -1.627275
     12          6           0        3.543393   -1.564698   -0.248974
     13          6           0        4.950943   -1.008015   -0.067355
     14          6           0        0.840480   -2.250913    1.326417
     15          8           0       -1.251393   -0.953324   -0.122054
     16         14           0       -2.848746   -0.510055   -0.297867
     17          6           0       -3.697199   -0.301767    1.367092
     18          6           0       -3.138137    1.010758   -1.349114
     19          6           0       -3.752126   -1.936810   -1.173805
     20          1           0       -4.209495    1.154639   -1.521061
     21          1           0       -2.757707    1.915990   -0.870673
     22          1           0       -2.654592    0.906065   -2.324910
     23          1           0       -4.813539   -1.699659   -1.289241
     24          1           0       -3.318998   -2.104228   -2.164034
     25          1           0       -3.658464   -2.856580   -0.589475
     26          1           0       -4.770756   -0.140885    1.229647
     27          1           0       -3.562404   -1.200001    1.977088
     28          1           0       -3.297499    0.549412    1.922048
     29          1           0       -0.152177   -2.708936    1.274413
     30          1           0        1.567973   -3.066088    1.267821
     31          1           0        0.946012   -1.784642    2.311144
     32          1           0        3.387318   -1.749806   -1.318833
     33          1           0        3.485466   -2.529684    0.264196
     34          1           0        5.094684   -0.085680   -0.638493
     35          1           0        5.154764   -0.796967    0.987178
     36          1           0        5.690591   -1.735587   -0.416583
     37          6           0       -0.139767    0.650050    1.461647
     38          6           0       -0.698211    2.048414    1.395393
     39          6           0        0.042066    3.156626    1.531367
     40          1           0        0.860593    0.726001    1.902460
     41          1           0       -0.737280    0.090438    2.192419
     42          1           0       -1.768893    2.165832    1.260464
     43          1           0       -0.416497    4.140526    1.485864
     44          1           0        1.117655    3.120580    1.679205
 ---------------------------------------------------------------------
 Rotational constants (GHZ):      0.5642741      0.2531151      0.2199972
 Standard basis: 6-311G(d) (5D, 7F)
 There are   428 symmetry adapted cartesian basis functions of A   symmetry.
 There are   410 symmetry adapted basis functions of A   symmetry.
   410 basis functions,   720 primitive gaussians,   428 cartesian basis functions
    74 alpha electrons       74 beta electrons
       nuclear repulsion energy      1627.5501733234 Hartrees.
 NAtoms=   44 NActive=   44 NUniq=   44 SFac= 1.00D+00 NAtFMM=   60 NAOKFM=F Big=F
 Integral buffers will be    131072 words long.
 Raffenetti 2 integral format.
 Two-electron integral symmetry is turned on.
 ------------------------------------------------------------------------------
 Polarizable Continuum Model (PCM)
 =================================
 Model                : PCM (using non-symmetric T matrix).
 Atomic radii         : UFF (Universal Force Field).
 Polarization charges : Total charges.
 Charge compensation  : None.
 Solution method      : On-the-fly selection.
 Cavity type          : Scaled VdW (van der Waals Surface) (Alpha=1.100).
 Cavity algorithm     : GePol (No added spheres)
                        Default sphere list used, NSphG=   44.
                        Lebedev-Laikov grids with approx.  5.0 points / Ang**2.
                        Smoothing algorithm: Karplus/York (Gamma=1.0000).
                        Polarization charges: spherical gaussians, with
                                              point-specific exponents (IZeta= 3).
                        Self-potential: point-specific (ISelfS= 7).
                        Self-field    : sphere-specific E.n sum rule (ISelfD= 2).
 Solvent              : Chloroform, Eps=   4.711300 Eps(inf)=   2.090627
 ------------------------------------------------------------------------------
 One-electron integrals computed using PRISM.
 NBasis=   410 RedAO= T EigKep=  8.62D-04  NBF=   410
 NBsUse=   410 1.00D-06 EigRej= -1.00D+00 NBFU=   410
 ExpMin= 6.54D-02 ExpMax= 6.94D+04 ExpMxC= 2.33D+03 IAcc=2 IRadAn=         4 AccDes= 0.00D+00
 Harris functional with IExCor=  908 and IRadAn=       4 diagonalized for initial guess.
 HarFok:  IExCor=  908 AccDes= 0.00D+00 IRadAn=         4 IDoV= 1 UseB2=F ITyADJ=14
 ICtDFT=  3500011 ScaDFX=  1.000000  1.000000  1.000000  1.000000
 FoFCou: FMM=F IPFlag=           0 FMFlag=      100000 FMFlg1=           0
         NFxFlg=           0 DoJE=T BraDBF=F KetDBF=T FulRan=T
         wScrn=  0.000000 ICntrl=     500 IOpCl=  0 I1Cent=   200000004 NGrid=           0
         NMat0=    1 NMatS0=      1 NMatT0=    0 NMatD0=    1 NMtDS0=    0 NMtDT0=    0
 Petite list used in FoFCou.
 Requested convergence on RMS density matrix=1.00D-08 within 128 cycles.
 Requested convergence on MAX density matrix=1.00D-06.
 Requested convergence on             energy=1.00D-06.
 No special actions if energy rises.
 Inv3:  Mode=1 IEnd=    24196800.
 Iteration    1 A*A^-1 deviation from unit magnitude is 1.18D-14 for      1.
 Iteration    1 A*A^-1 deviation from orthogonality  is 5.82D-15 for   2235   1918.
 Iteration    1 A^-1*A deviation from unit magnitude is 1.19D-14 for      1.
 Iteration    1 A^-1*A deviation from orthogonality  is 4.35D-12 for   2305   2288.
 Error on total polarization charges =  0.01148
 SCF Done:  E(RmPW1PW91) =  -1064.37392696     A.U. after   13 cycles
            NFock= 13  Conv=0.29D-08     -V/T= 2.0036
 DoSCS=F DFT=T ScalE2(SS,OS)=  1.000000  1.000000
 Range of M.O.s used for correlation:     1   410
 NBasis=   410 NAE=    74 NBE=    74 NFC=     0 NFV=     0
 NROrb=    410 NOA=    74 NOB=    74 NVA=   336 NVB=   336
 NEqPCM:  Using equilibrium solvation (IEInf=0, Eps=   4.7113, EpsInf=   2.0906)
          Differentiating once with respect to magnetic field using GIAOs.
          Electric field/nuclear overlap derivatives assumed to be zero.
 FoFJK:  IHMeth= 1 ICntrl=    6127 DoSepK=F KAlg= 0 I1Cent=   0 FoldK=F
 IRaf=         1 NMat=   1 IRICut=       1 DoRegI=T DoRafI=F ISym2E= 0.
          There are     3 degrees of freedom in the 1st order CPHF.  IDoFFX=0 NUNeed=     3.
      3 vectors produced by pass  0 Test12= 8.29D-13 3.33D-08 XBig12= 3.93D+01 8.58D-01.
 AX will form     3 AO Fock derivatives at one time.
      3 vectors produced by pass  1 Test12= 8.29D-13 3.33D-08 XBig12= 7.91D-02 1.07D-01.
      3 vectors produced by pass  2 Test12= 8.29D-13 3.33D-08 XBig12= 9.40D-04 1.25D-02.
      3 vectors produced by pass  3 Test12= 8.29D-13 3.33D-08 XBig12= 4.52D-06 4.34D-04.
      3 vectors produced by pass  4 Test12= 8.29D-13 3.33D-08 XBig12= 2.31D-08 3.42D-05.
      3 vectors produced by pass  5 Test12= 8.29D-13 3.33D-08 XBig12= 7.82D-11 1.65D-06.
      2 vectors produced by pass  6 Test12= 8.29D-13 3.33D-08 XBig12= 2.64D-13 9.57D-08.
 InvSVY:  IOpt=1 It=  1 EMax= 8.88D-16
 Solved reduced A of dimension    20 with     3 vectors.
 Calculating GIAO nuclear magnetic shielding tensors.
 SCF GIAO Magnetic shielding tensor (ppm):
      1  C    Isotropic =   101.7262   Anisotropy =    47.8873
   XX=    95.5165   YX=     9.3004   ZX=   -10.1164
   XY=    -4.0394   YY=   113.0412   ZY=   -27.7361
   XZ=    -1.7111   YZ=   -25.7705   ZZ=    96.6209
   Eigenvalues:    76.3001    95.2275   133.6511
      2  C    Isotropic =   136.0694   Anisotropy =    33.0567
   XX=   152.1173   YX=   -12.9037   ZX=     1.7802
   XY=   -13.8560   YY=   127.6287   ZY=    15.8305
   XZ=     3.9467   YZ=     5.1412   ZZ=   128.4621
   Eigenvalues:   113.8144   136.2865   158.1072
      3  C    Isotropic =   107.2633   Anisotropy =    56.0775
   XX=   131.0180   YX=    21.8640   ZX=    11.1441
   XY=    19.5218   YY=   100.8747   ZY=     7.1083
   XZ=    11.4339   YZ=     5.9893   ZZ=    89.8972
   Eigenvalues:    86.6632    90.4783   144.6483
      4  C    Isotropic =   142.6926   Anisotropy =    29.5461
   XX=   147.9362   YX=    12.3822   ZX=    -5.9439
   XY=    14.6379   YY=   143.5081   ZY=   -10.1882
   XZ=    -4.0083   YZ=    -5.0345   ZZ=   136.6335
   Eigenvalues:   130.2632   135.4246   162.3900
      5  C    Isotropic =    11.0813   Anisotropy =    92.6423
   XX=   -59.5151   YX=    16.3272   ZX=   -44.0759
   XY=    26.4435   YY=    44.9827   ZY=    21.4717
   XZ=   -51.2397   YZ=    21.7103   ZZ=    47.7764
   Eigenvalues:   -83.6254    44.0265    72.8429
      6  H    Isotropic =    28.1395   Anisotropy =     1.7579
   XX=    29.1117   YX=    -0.2496   ZX=     0.0162
   XY=     0.1309   YY=    26.6687   ZY=    -1.3123
   XZ=     0.5699   YZ=    -0.1123   ZZ=    28.6381
   Eigenvalues:    26.4376    28.6694    29.3114
      7  H    Isotropic =    30.0920   Anisotropy =     3.8806
   XX=    30.5716   YX=    -1.3582   ZX=    -0.2217
   XY=    -1.5459   YY=    28.9688   ZY=     2.3798
   XZ=    -0.1997   YZ=     1.8946   ZZ=    30.7358
   Eigenvalues:    27.1694    30.4276    32.6791
      8  H    Isotropic =    29.8193   Anisotropy =     4.4269
   XX=    29.7087   YX=     0.3453   ZX=     0.4990
   XY=     0.4820   YY=    27.1653   ZY=     0.3255
   XZ=     0.7303   YZ=     0.6933   ZZ=    32.5839
   Eigenvalues:    27.0688    29.6186    32.7706
      9  H    Isotropic =    29.2363   Anisotropy =     4.3188
   XX=    31.8271   YX=    -1.4075   ZX=     0.3102
   XY=    -0.2654   YY=    28.8530   ZY=    -2.3864
   XZ=    -0.5370   YZ=    -2.3791   ZZ=    27.0289
   Eigenvalues:    25.3394    30.2541    32.1155
     10  O    Isotropic =   104.1730   Anisotropy =   209.6372
   XX=   167.5483   YX=   -74.8408   ZX=    21.4195
   XY=   -90.5501   YY=   -32.4034   ZY=   141.5364
   XZ=    30.2129   YZ=   122.2402   ZZ=   177.3740
   Eigenvalues:  -121.4760   190.0638   243.9311
     11  O    Isotropic =  -113.0984   Anisotropy =   560.9842
   XX=  -212.1063   YX=    19.2786   ZX=  -130.1856
   XY=     4.3288   YY=  -208.1437   ZY=   268.2591
   XZ=  -135.6441   YZ=   255.4280   ZZ=    80.9548
   Eigenvalues:  -398.6478  -201.5384   260.8911
     12  C    Isotropic =   155.0839   Anisotropy =    27.9794
   XX=   162.9601   YX=   -12.3908   ZX=    -4.3362
   XY=    -9.5383   YY=   154.2831   ZY=     7.6298
   XZ=    -5.9062   YZ=     9.7558   ZZ=   148.0085
   Eigenvalues:   141.5821   149.9327   173.7368
     13  C    Isotropic =   174.6549   Anisotropy =    22.1578
   XX=   187.8213   YX=     2.5453   ZX=     2.7358
   XY=     5.9719   YY=   165.3583   ZY=     6.0519
   XZ=     2.6085   YZ=     6.7001   ZZ=   170.7850
   Eigenvalues:   160.9719   173.5659   189.4267
     14  C    Isotropic =   175.4145   Anisotropy =    23.0446
   XX=   169.3480   YX=    -0.0262   ZX=    -2.1220
   XY=     4.6376   YY=   173.9131   ZY=   -10.1262
   XZ=    -3.8078   YZ=   -11.3910   ZZ=   182.9823
   Eigenvalues:   166.7332   168.7327   190.7776
     15  O    Isotropic =   230.8242   Anisotropy =    52.2681
   XX=   201.8293   YX=    24.4495   ZX=    -1.9558
   XY=    23.4388   YY=   238.1546   ZY=    12.6774
   XZ=    -0.1429   YZ=    19.3496   ZZ=   252.4887
   Eigenvalues:   188.8638   237.9392   265.6696
     16  Si   Isotropic =   334.9354   Anisotropy =    56.1593
   XX=   367.9344   YX=   -21.6088   ZX=     6.8910
   XY=    -5.3062   YY=   321.8020   ZY=     2.2871
   XZ=     7.2947   YZ=    -1.7257   ZZ=   315.0699
   Eigenvalues:   313.3467   319.0846   372.3750
     17  C    Isotropic =   185.8350   Anisotropy =    10.8668
   XX=   188.6938   YX=    -2.7683   ZX=    -3.0087
   XY=    -2.3739   YY=   176.9303   ZY=     0.4677
   XZ=    -0.9372   YZ=     1.4868   ZZ=   191.8810
   Eigenvalues:   176.3727   188.0528   193.0795
     18  C    Isotropic =   185.2771   Anisotropy =     9.0677
   XX=   189.7879   YX=    -0.2911   ZX=     0.5297
   XY=     3.0137   YY=   185.8109   ZY=    -5.9241
   XZ=    -0.9378   YZ=    -7.5135   ZZ=   180.2323
   Eigenvalues:   175.7222   188.7868   191.3222
     19  C    Isotropic =   185.1263   Anisotropy =    14.1550
   XX=   187.4816   YX=     1.7263   ZX=     3.2164
   XY=    -0.1575   YY=   189.3490   ZY=     8.4014
   XZ=     1.6661   YZ=     8.6978   ZZ=   178.5481
   Eigenvalues:   173.6102   187.2056   194.5629
     20  H    Isotropic =    32.1372   Anisotropy =    10.4255
   XX=    37.5743   YX=    -2.5771   ZX=     2.9877
   XY=    -1.8844   YY=    29.9127   ZY=    -1.4152
   XZ=     2.5602   YZ=    -1.3404   ZZ=    28.9246
   Eigenvalues:    27.7932    29.5309    39.0875
     21  H    Isotropic =    31.8438   Anisotropy =     7.0201
   XX=    30.8798   YX=     1.1268   ZX=     2.4224
   XY=     1.9645   YY=    35.3205   ZY=     1.9720
   XZ=     2.4422   YZ=     1.0746   ZZ=    29.3311
   Eigenvalues:    27.5382    31.4693    36.5239
     22  H    Isotropic =    31.9082   Anisotropy =     7.0877
   XX=    31.2657   YX=    -0.5211   ZX=    -1.5440
   XY=     0.4540   YY=    28.4121   ZY=    -1.5364
   XZ=    -1.4335   YZ=    -0.8723   ZZ=    36.0467
   Eigenvalues:    28.2025    30.8887    36.6333
     23  H    Isotropic =    32.3703   Anisotropy =     9.6153
   XX=    38.2705   YX=     0.4505   ZX=     2.2981
   XY=     0.0694   YY=    29.7879   ZY=     0.5795
   XZ=     2.0770   YZ=     0.6923   ZZ=    29.0526
   Eigenvalues:    28.3387    29.9918    38.7805
     24  H    Isotropic =    32.1145   Anisotropy =     8.3307
   XX=    30.1164   YX=     0.6974   ZX=    -1.2962
   XY=     0.1652   YY=    30.2738   ZY=     3.7648
   XZ=    -1.3945   YZ=     2.9835   ZZ=    35.9534
   Eigenvalues:    28.1946    30.4807    37.6683
     25  H    Isotropic =    31.9987   Anisotropy =     8.4932
   XX=    29.3930   YX=     1.2716   ZX=     0.8641
   XY=     1.1323   YY=    36.8605   ZY=    -2.8556
   XZ=     0.8184   YZ=    -1.8163   ZZ=    29.7427
   Eigenvalues:    28.0177    30.3176    37.6609
     26  H    Isotropic =    32.2777   Anisotropy =    10.1981
   XX=    38.8055   YX=    -1.2445   ZX=    -1.2023
   XY=    -1.3130   YY=    28.4844   ZY=     0.3541
   XZ=    -0.8314   YZ=     0.2535   ZZ=    29.5434
   Eigenvalues:    28.3004    29.4564    39.0764
     27  H    Isotropic =    31.8896   Anisotropy =     8.0165
   XX=    29.9853   YX=     0.1654   ZX=    -1.0340
   XY=     0.1330   YY=    32.8279   ZY=    -3.8429
   XZ=    -0.6748   YZ=    -4.8016   ZZ=    32.8556
   Eigenvalues:    28.3615    30.0734    37.2339
     28  H    Isotropic =    31.9488   Anisotropy =     6.8677
   XX=    31.5787   YX=     2.0852   ZX=    -0.3945
   XY=     2.4286   YY=    32.3016   ZY=     3.6218
   XZ=     0.0434   YZ=     4.1697   ZZ=    31.9660
   Eigenvalues:    27.4893    31.8298    36.5272
     29  H    Isotropic =    30.3534   Anisotropy =     7.8834
   XX=    33.6684   YX=     2.2916   ZX=     0.9254
   XY=     2.9053   YY=    31.4884   ZY=    -3.2802
   XZ=     0.1497   YZ=    -3.1107   ZZ=    25.9035
   Eigenvalues:    24.1795    31.2718    35.6090
     30  H    Isotropic =    31.2726   Anisotropy =     9.7480
   XX=    31.5904   YX=    -3.8769   ZX=    -1.3312
   XY=    -3.7690   YY=    35.0231   ZY=    -2.5258
   XZ=    -0.8037   YZ=    -2.7858   ZZ=    27.2043
   Eigenvalues:    25.4752    30.5714    37.7712
     31  H    Isotropic =    31.5147   Anisotropy =     7.3490
   XX=    28.4103   YX=    -1.1103   ZX=     0.5217
   XY=    -0.9300   YY=    29.8043   ZY=    -0.9583
   XZ=     0.3842   YZ=    -0.1618   ZZ=    36.3296
   Eigenvalues:    27.8695    30.2606    36.4141
     32  H    Isotropic =    30.5527   Anisotropy =     5.3579
   XX=    32.0282   YX=    -0.4694   ZX=    -0.1996
   XY=    -0.3720   YY=    27.2387   ZY=     3.5542
   XZ=    -0.1667   YZ=     3.2078   ZZ=    32.3912
   Eigenvalues:    25.5508    31.9827    34.1246
     33  H    Isotropic =    30.2095   Anisotropy =     5.9388
   XX=    32.6496   YX=    -0.5471   ZX=    -1.3431
   XY=    -0.8314   YY=    33.1863   ZY=    -3.0527
   XZ=    -1.2722   YZ=    -2.8351   ZZ=    24.7926
   Eigenvalues:    23.6283    32.8314    34.1687
     34  H    Isotropic =    30.4832   Anisotropy =     7.7454
   XX=    32.8021   YX=     2.4578   ZX=    -1.3770
   XY=     1.5263   YY=    31.4317   ZY=    -3.8450
   XZ=    -1.6283   YZ=    -3.3325   ZZ=    27.2157
   Eigenvalues:    25.1474    30.6553    35.6468
     35  H    Isotropic =    31.1895   Anisotropy =     8.9479
   XX=    32.8093   YX=     1.1378   ZX=     4.0782
   XY=     0.6467   YY=    27.1534   ZY=     1.7599
   XZ=     3.1948   YZ=     1.2037   ZZ=    33.6056
   Eigenvalues:    26.8271    29.5866    37.1547
     36  H    Isotropic =    30.9865   Anisotropy =    11.3242
   XX=    36.3112   YX=    -4.0494   ZX=    -2.0486
   XY=    -3.3141   YY=    29.6336   ZY=     1.6548
   XZ=    -2.0691   YZ=     1.9262   ZZ=    27.0148
   Eigenvalues:    26.1013    28.3223    38.5360
     37  C    Isotropic =   146.7765   Anisotropy =    23.3585
   XX=   135.5020   YX=    -5.5811   ZX=    -2.4849
   XY=    -1.8216   YY=   154.3501   ZY=     9.2965
   XZ=     3.8122   YZ=     9.7306   ZZ=   150.4773
   Eigenvalues:   134.3148   143.6658   162.3488
     38  C    Isotropic =    46.7875   Anisotropy =   175.0527
   XX=   -41.3475   YX=    54.9726   ZX=   -26.4641
   XY=    56.6385   YY=    21.8776   ZY=     5.9534
   XZ=   -28.0563   YZ=     5.0747   ZZ=   159.8325
   Eigenvalues:   -76.8093    53.6826   163.4893
     39  C    Isotropic =    59.7789   Anisotropy =   146.9903
   XX=   -12.2066   YX=    64.9884   ZX=   -23.0675
   XY=    60.6570   YY=    36.9098   ZY=     5.7122
   XZ=   -22.1618   YZ=     3.8739   ZZ=   154.6335
   Eigenvalues:   -57.2634    78.8276   157.7724
     40  H    Isotropic =    29.6930   Anisotropy =     5.3477
   XX=    30.0374   YX=    -0.4093   ZX=     2.1864
   XY=    -1.8495   YY=    29.8075   ZY=     3.8901
   XZ=     2.7251   YZ=     2.9593   ZZ=    29.2342
   Eigenvalues:    24.8002    31.0207    33.2581
     41  H    Isotropic =    29.4696   Anisotropy =     3.8983
   XX=    29.5897   YX=    -0.1417   ZX=    -1.6857
   XY=    -0.0213   YY=    28.5691   ZY=    -0.0534
   XZ=    -2.3766   YZ=    -1.5482   ZZ=    30.2501
   Eigenvalues:    27.5182    28.8222    32.0685
     42  H    Isotropic =    25.7602   Anisotropy =     5.8775
   XX=    24.4608   YX=     1.1235   ZX=    -0.0872
   XY=     2.5581   YY=    28.3571   ZY=     1.8535
   XZ=    -0.4795   YZ=     2.0854   ZZ=    24.4627
   Eigenvalues:    22.8575    24.7445    29.6785
     43  H    Isotropic =    26.6149   Anisotropy =     6.7193
   XX=    24.1950   YX=     3.4212   ZX=    -0.1251
   XY=     0.8308   YY=    30.0916   ZY=     1.2978
   XZ=    -0.2419   YZ=     1.5888   ZZ=    25.5580
   Eigenvalues:    23.3180    25.4322    31.0944
     44  H    Isotropic =    26.7339   Anisotropy =     7.3072
   XX=    24.3438   YX=     1.5845   ZX=    -0.1103
   XY=     4.0719   YY=    29.2453   ZY=     2.7533
   XZ=    -0.0437   YZ=     2.3197   ZZ=    26.6127
   Eigenvalues:    22.6680    25.9284    31.6054
 End of Minotr F.D. properties file   721 does not exist.
 End of Minotr F.D. properties file   722 does not exist.
 End of Minotr F.D. properties file   788 does not exist.

 **********************************************************************

            Population analysis using the SCF density.

 **********************************************************************

 Orbital symmetries:
       Occupied  (A) (A) (A) (A) (A) (A) (A) (A) (A) (A) (A) (A)
                 (A) (A) (A) (A) (A) (A) (A) (A) (A) (A) (A) (A)
                 (A) (A) (A) (A) (A) (A) (A) (A) (A) (A) (A) (A)
                 (A) (A) (A) (A) (A) (A) (A) (A) (A) (A) (A) (A)
                 (A) (A) (A) (A) (A) (A) (A) (A) (A) (A) (A) (A)
                 (A) (A) (A) (A) (A) (A) (A) (A) (A) (A) (A) (A)
                 (A) (A)
       Virtual   (A) (A) (A) (A) (A) (A) (A) (A) (A) (A) (A) (A)
                 (A) (A) (A) (A) (A) (A) (A) (A) (A) (A) (A) (A)
                 (A) (A) (A) (A) (A) (A) (A) (A) (A) (A) (A) (A)
                 (A) (A) (A) (A) (A) (A) (A) (A) (A) (A) (A) (A)
                 (A) (A) (A) (A) (A) (A) (A) (A) (A) (A) (A) (A)
                 (A) (A) (A) (A) (A) (A) (A) (A) (A) (A) (A) (A)
                 (A) (A) (A) (A) (A) (A) (A) (A) (A) (A) (A) (A)
                 (A) (A) (A) (A) (A) (A) (A) (A) (A) (A) (A) (A)
                 (A) (A) (A) (A) (A) (A) (A) (A) (A) (A) (A) (A)
                 (A) (A) (A) (A) (A) (A) (A) (A) (A) (A) (A) (A)
                 (A) (A) (A) (A) (A) (A) (A) (A) (A) (A) (A) (A)
                 (A) (A) (A) (A) (A) (A) (A) (A) (A) (A) (A) (A)
                 (A) (A) (A) (A) (A) (A) (A) (A) (A) (A) (A) (A)
                 (A) (A) (A) (A) (A) (A) (A) (A) (A) (A) (A) (A)
                 (A) (A) (A) (A) (A) (A) (A) (A) (A) (A) (A) (A)
                 (A) (A) (A) (A) (A) (A) (A) (A) (A) (A) (A) (A)
                 (A) (A) (A) (A) (A) (A) (A) (A) (A) (A) (A) (A)
                 (A) (A) (A) (A) (A) (A) (A) (A) (A) (A) (A) (A)
                 (A) (A) (A) (A) (A) (A) (A) (A) (A) (A) (A) (A)
                 (A) (A) (A) (A) (A) (A) (A) (A) (A) (A) (A) (A)
                 (A) (A) (A) (A) (A) (A) (A) (A) (A) (A) (A) (A)
                 (A) (A) (A) (A) (A) (A) (A) (A) (A) (A) (A) (A)
                 (A) (A) (A) (A) (A) (A) (A) (A) (A) (A) (A) (A)
                 (A) (A) (A) (A) (A) (A) (A) (A) (A) (A) (A) (A)
                 (A) (A) (A) (A) (A) (A) (A) (A) (A) (A) (A) (A)
                 (A) (A) (A) (A) (A) (A) (A) (A) (A) (A) (A) (A)
                 (A) (A) (A) (A) (A) (A) (A) (A) (A) (A) (A) (A)
                 (A) (A) (A) (A) (A) (A) (A) (A) (A) (A) (A) (A)
 The electronic state is 1-A.
 Alpha  occ. eigenvalues --  -66.26972 -19.26421 -19.21374 -19.19531 -10.37183
 Alpha  occ. eigenvalues --  -10.32240 -10.30804 -10.25292 -10.24931 -10.24874
 Alpha  occ. eigenvalues --  -10.24594 -10.23846 -10.23265 -10.22630 -10.21954
 Alpha  occ. eigenvalues --  -10.20809 -10.20586 -10.20422  -5.32804  -3.66651
 Alpha  occ. eigenvalues --   -3.66423  -3.66382  -1.13495  -1.04591  -1.04254
 Alpha  occ. eigenvalues --   -0.86069  -0.83586  -0.80928  -0.77874  -0.73982
 Alpha  occ. eigenvalues --   -0.72941  -0.72204  -0.70384  -0.69791  -0.66670
 Alpha  occ. eigenvalues --   -0.64374  -0.61773  -0.59080  -0.55875  -0.53555
 Alpha  occ. eigenvalues --   -0.52815  -0.50339  -0.49366  -0.49079  -0.47901
 Alpha  occ. eigenvalues --   -0.46485  -0.45383  -0.45005  -0.44273  -0.43706
 Alpha  occ. eigenvalues --   -0.42624  -0.42533  -0.42114  -0.41945  -0.41266
 Alpha  occ. eigenvalues --   -0.41089  -0.40307  -0.39710  -0.39438  -0.38873
 Alpha  occ. eigenvalues --   -0.38566  -0.37916  -0.36899  -0.36517  -0.35992
 Alpha  occ. eigenvalues --   -0.35651  -0.34504  -0.33883  -0.31664  -0.31034
 Alpha  occ. eigenvalues --   -0.30303  -0.29577  -0.28385  -0.27353
 Alpha virt. eigenvalues --    0.00094   0.00452   0.04073   0.05656   0.06066
 Alpha virt. eigenvalues --    0.06594   0.07191   0.07856   0.08412   0.08716
 Alpha virt. eigenvalues --    0.09145   0.09988   0.10664   0.10842   0.11209
 Alpha virt. eigenvalues --    0.11812   0.12497   0.13018   0.13381   0.13778
 Alpha virt. eigenvalues --    0.13908   0.14190   0.14697   0.15301   0.15743
 Alpha virt. eigenvalues --    0.16191   0.16843   0.17370   0.17535   0.17834
 Alpha virt. eigenvalues --    0.19064   0.19419   0.19543   0.21134   0.21328
 Alpha virt. eigenvalues --    0.22133   0.22731   0.23496   0.23862   0.24439
 Alpha virt. eigenvalues --    0.25429   0.26429   0.26531   0.27051   0.27700
 Alpha virt. eigenvalues --    0.29244   0.29738   0.31650   0.31814   0.32174
 Alpha virt. eigenvalues --    0.33086   0.33393   0.34192   0.34447   0.35497
 Alpha virt. eigenvalues --    0.36218   0.37930   0.38327   0.39146   0.40287
 Alpha virt. eigenvalues --    0.41017   0.42693   0.43505   0.43591   0.44124
 Alpha virt. eigenvalues --    0.45096   0.45715   0.46879   0.47041   0.48196
 Alpha virt. eigenvalues --    0.49981   0.50749   0.50968   0.52068   0.52947
 Alpha virt. eigenvalues --    0.53965   0.54382   0.54748   0.55124   0.56520
 Alpha virt. eigenvalues --    0.56806   0.57590   0.57708   0.58071   0.59109
 Alpha virt. eigenvalues --    0.59728   0.60020   0.60321   0.60526   0.60981
 Alpha virt. eigenvalues --    0.61304   0.62108   0.62280   0.62744   0.63050
 Alpha virt. eigenvalues --    0.63135   0.63457   0.64101   0.65055   0.65615
 Alpha virt. eigenvalues --    0.65723   0.66594   0.67967   0.68182   0.68513
 Alpha virt. eigenvalues --    0.69039   0.69890   0.70170   0.70560   0.71506
 Alpha virt. eigenvalues --    0.72361   0.72590   0.73191   0.74014   0.74239
 Alpha virt. eigenvalues --    0.75294   0.76735   0.78478   0.80048   0.80249
 Alpha virt. eigenvalues --    0.82917   0.83692   0.84940   0.86504   0.88548
 Alpha virt. eigenvalues --    0.89487   0.91433   0.91786   0.92791   0.94100
 Alpha virt. eigenvalues --    0.95964   0.97079   0.98766   0.98936   0.99604
 Alpha virt. eigenvalues --    1.02796   1.04063   1.07368   1.08277   1.09520
 Alpha virt. eigenvalues --    1.12882   1.14275   1.16431   1.18837   1.21135
 Alpha virt. eigenvalues --    1.22048   1.23148   1.24291   1.24774   1.26241
 Alpha virt. eigenvalues --    1.28446   1.29972   1.30829   1.32019   1.32893
 Alpha virt. eigenvalues --    1.34817   1.38449   1.39641   1.40138   1.41207
 Alpha virt. eigenvalues --    1.42268   1.43311   1.45897   1.47267   1.48901
 Alpha virt. eigenvalues --    1.50159   1.50707   1.51782   1.52646   1.53401
 Alpha virt. eigenvalues --    1.54459   1.54680   1.56353   1.57447   1.57935
 Alpha virt. eigenvalues --    1.58601   1.59288   1.59572   1.60316   1.61146
 Alpha virt. eigenvalues --    1.61530   1.61997   1.62229   1.63413   1.63946
 Alpha virt. eigenvalues --    1.64619   1.65585   1.66514   1.68384   1.69227
 Alpha virt. eigenvalues --    1.69821   1.72047   1.72570   1.74208   1.75121
 Alpha virt. eigenvalues --    1.76212   1.76868   1.78225   1.79473   1.80845
 Alpha virt. eigenvalues --    1.81125   1.82010   1.83764   1.87498   1.87927
 Alpha virt. eigenvalues --    1.89313   1.90041   1.93782   1.96367   1.97350
 Alpha virt. eigenvalues --    1.98420   2.04490   2.05630   2.07063   2.13510
 Alpha virt. eigenvalues --    2.15705   2.17836   2.20264   2.23317   2.25705
 Alpha virt. eigenvalues --    2.27188   2.29429   2.33285   2.37194   2.40737
 Alpha virt. eigenvalues --    2.41316   2.41547   2.42382   2.42938   2.43661
 Alpha virt. eigenvalues --    2.44200   2.45197   2.45594   2.46711   2.47394
 Alpha virt. eigenvalues --    2.47913   2.48837   2.49859   2.50774   2.51150
 Alpha virt. eigenvalues --    2.52977   2.53418   2.56076   2.58908   2.59958
 Alpha virt. eigenvalues --    2.60488   2.62606   2.66333   2.72976   2.79900
 Alpha virt. eigenvalues --    2.82213   2.87555   2.89341   2.90658   2.91269
 Alpha virt. eigenvalues --    2.92131   2.94046   2.94572   2.96486   2.97093
 Alpha virt. eigenvalues --    2.99616   3.00067   3.01478   3.03766   3.04647
 Alpha virt. eigenvalues --    3.07720   3.10716   3.11722   3.12227   3.14778
 Alpha virt. eigenvalues --    3.15182   3.16890   3.17744   3.18422   3.20018
 Alpha virt. eigenvalues --    3.22348   3.22946   3.23427   3.23875   3.24703
 Alpha virt. eigenvalues --    3.27290   3.27928   3.28440   3.28883   3.31125
 Alpha virt. eigenvalues --    3.33242   3.34716   3.38118   3.40192   3.41164
 Alpha virt. eigenvalues --    3.43772   3.51290   3.57777   3.61160   3.62564
 Alpha virt. eigenvalues --    3.77739   3.88096   3.90580   3.97654   4.05291
 Alpha virt. eigenvalues --    4.10658   4.11121   4.16380   4.23453   4.24789
 Alpha virt. eigenvalues --    4.94208   5.00673   5.02790   5.08653   5.16350
 Alpha virt. eigenvalues --    5.23538   5.52167   5.55035   5.77519   5.87286
 Alpha virt. eigenvalues --   11.51339  11.54418  11.59119  23.42396  23.49231
 Alpha virt. eigenvalues --   23.54459  23.55202  23.58646  23.59980  23.71116
 Alpha virt. eigenvalues --   23.73772  23.78383  23.80092  23.82017  23.84490
 Alpha virt. eigenvalues --   23.90196  24.26653  49.98778  50.04436  50.12545
 Alpha virt. eigenvalues --  141.29601
          Condensed to atoms (all electrons):
               1          2          3          4          5          6
     1  C    5.241383   0.242515  -0.043095  -0.005654  -0.048277   0.381976
     2  C    0.242515   5.588858   0.282086  -0.098730  -0.009808  -0.039698
     3  C   -0.043095   0.282086   5.237283   0.236341  -0.019563  -0.012125
     4  C   -0.005654  -0.098730   0.236341   5.844830   0.241376   0.002102
     5  C   -0.048277  -0.009808  -0.019563   0.241376   4.384456  -0.000767
     6  H    0.381976  -0.039698  -0.012125   0.002102  -0.000767   0.489297
     7  H   -0.045778   0.410776  -0.059870  -0.004785   0.001035   0.006938
     8  H    0.001443  -0.007468  -0.031867   0.373571  -0.025134  -0.000025
     9  H   -0.000759   0.008119  -0.030058   0.355214  -0.027656   0.000226
    10  O    0.217085  -0.032976   0.006229  -0.111808   0.350267  -0.034058
    11  O    0.002050  -0.000162   0.004440  -0.101765   0.656896  -0.000121
    12  C    0.316928  -0.064277   0.008250  -0.002297   0.000576  -0.051183
    13  C   -0.074382   0.007763  -0.000178   0.000062   0.000136  -0.004905
    14  C   -0.069010   0.306170  -0.061269   0.007367   0.000111  -0.002681
    15  O    0.004778  -0.064071   0.213218  -0.028952   0.001651  -0.000063
    16  Si   0.000278   0.001123  -0.043832  -0.009811   0.001678  -0.000147
    17  C    0.000006  -0.000149  -0.000252  -0.000203   0.000006   0.000000
    18  C    0.000010  -0.000272   0.000231  -0.003751  -0.000232   0.000000
    19  C   -0.000002  -0.000025   0.002674  -0.000395  -0.000005   0.000000
    20  H    0.000000   0.000008  -0.000108   0.000399  -0.000002   0.000000
    21  H    0.000004  -0.000071   0.000742  -0.001412  -0.000160  -0.000001
    22  H    0.000002  -0.000103   0.000247   0.000337  -0.000111   0.000000
    23  H    0.000000   0.000001  -0.000072   0.000000   0.000000   0.000000
    24  H   -0.000001   0.000010  -0.000024   0.000010  -0.000002   0.000000
    25  H   -0.000001   0.000037  -0.000129  -0.000018   0.000000   0.000000
    26  H    0.000000   0.000002  -0.000077  -0.000001   0.000000   0.000000
    27  H    0.000001   0.000016   0.000296  -0.000023   0.000001   0.000000
    28  H    0.000002  -0.000033   0.000587   0.000012   0.000005   0.000000
    29  H    0.006782  -0.035455  -0.005972   0.000308  -0.000056   0.000088
    30  H   -0.006116  -0.036056   0.007746  -0.000316   0.000009  -0.000975
    31  H   -0.005800  -0.037391  -0.011485  -0.000041   0.000001   0.005629
    32  H   -0.042482  -0.007093  -0.001096   0.000267   0.000053   0.007860
    33  H   -0.039903  -0.003596   0.000007   0.000087   0.000034   0.000291
    34  H   -0.011615   0.000451  -0.000049   0.000381   0.000840   0.000183
    35  H   -0.004381  -0.000181  -0.000008  -0.000004  -0.000092   0.005295
    36  H    0.008396  -0.000255   0.000012   0.000000  -0.000004  -0.000250
    37  C   -0.000044  -0.084553   0.260776  -0.068622  -0.003214   0.002063
    38  C   -0.000351   0.006252  -0.055703  -0.011752  -0.003672   0.000077
    39  C   -0.000013   0.000191  -0.005471   0.000843   0.000595   0.000156
    40  H    0.000649  -0.009153  -0.030442   0.001120  -0.000663   0.002204
    41  H    0.000421  -0.005213  -0.039743   0.004224  -0.000018  -0.000180
    42  H    0.000058  -0.000638   0.003356  -0.001787   0.000195   0.000011
    43  H   -0.000003   0.000034  -0.000268   0.000029   0.000073  -0.000002
    44  H   -0.000041  -0.000140  -0.000003   0.000323   0.001182  -0.000009
               7          8          9         10         11         12
     1  C   -0.045778   0.001443  -0.000759   0.217085   0.002050   0.316928
     2  C    0.410776  -0.007468   0.008119  -0.032976  -0.000162  -0.064277
     3  C   -0.059870  -0.031867  -0.030058   0.006229   0.004440   0.008250
     4  C   -0.004785   0.373571   0.355214  -0.111808  -0.101765  -0.002297
     5  C    0.001035  -0.025134  -0.027656   0.350267   0.656896   0.000576
     6  H    0.006938  -0.000025   0.000226  -0.034058  -0.000121  -0.051183
     7  H    0.470136   0.002937   0.000149   0.001727  -0.000065  -0.008197
     8  H    0.002937   0.408033  -0.015873   0.000364   0.000247  -0.000029
     9  H    0.000149  -0.015873   0.418278   0.005466   0.014704   0.000037
    10  O    0.001727   0.000364   0.005466   8.024267  -0.070502  -0.051658
    11  O   -0.000065   0.000247   0.014704  -0.070502   7.888659  -0.000118
    12  C   -0.008197  -0.000029   0.000037  -0.051658  -0.000118   5.322825
    13  C    0.000205   0.000005  -0.000004  -0.004958  -0.000006   0.314899
    14  C   -0.039445  -0.000043  -0.000152   0.003122   0.000004  -0.004552
    15  O    0.004118  -0.001182  -0.002197  -0.000006  -0.000021  -0.000122
    16  Si  -0.000144  -0.000500  -0.004101  -0.000145  -0.000372   0.000011
    17  C    0.000045   0.000049  -0.000092   0.000000   0.000000   0.000000
    18  C   -0.000027   0.000233  -0.003738  -0.000002  -0.000027   0.000000
    19  C   -0.000072  -0.000118   0.000003   0.000000   0.000000   0.000000
    20  H    0.000000  -0.000031   0.000468   0.000000  -0.000001   0.000000
    21  H   -0.000005  -0.000068   0.001352  -0.000004  -0.000086   0.000000
    22  H   -0.000009   0.000690  -0.001490  -0.000001  -0.000015   0.000000
    23  H   -0.000001  -0.000001  -0.000001   0.000000   0.000000   0.000000
    24  H   -0.000019  -0.000006   0.000000   0.000000   0.000000   0.000000
    25  H   -0.000020  -0.000014  -0.000008   0.000000   0.000000   0.000000
    26  H    0.000000   0.000000  -0.000002   0.000000   0.000000   0.000000
    27  H    0.000006   0.000001  -0.000013   0.000000   0.000000   0.000000
    28  H    0.000005   0.000000  -0.000025   0.000000   0.000000   0.000000
    29  H   -0.002816   0.000042  -0.000023  -0.000108   0.000000  -0.000340
    30  H   -0.007093  -0.000033   0.000015   0.000017   0.000000   0.002254
    31  H    0.007023  -0.000017   0.000020   0.000003   0.000001   0.000082
    32  H    0.005018   0.000056   0.000044   0.002850  -0.000151   0.387972
    33  H    0.000079  -0.000010  -0.000001   0.003488   0.000005   0.387148
    34  H    0.000000  -0.000013  -0.000009   0.011977   0.000196  -0.037712
    35  H    0.000013   0.000000   0.000000  -0.000438  -0.000003  -0.043158
    36  H   -0.000046  -0.000001   0.000000  -0.000171   0.000000  -0.038342
    37  C    0.008455   0.005655  -0.006223  -0.000628  -0.000105   0.000218
    38  C   -0.000189   0.000619   0.002757  -0.000194  -0.000547  -0.000008
    39  C   -0.000013   0.000078   0.001704  -0.000359   0.000508   0.000000
    40  H    0.000213  -0.000164  -0.000199   0.001654  -0.000167   0.000951
    41  H   -0.000330  -0.000093   0.000122   0.000052  -0.000007  -0.000031
    42  H    0.000033   0.000080  -0.001381  -0.000010   0.000062   0.000000
    43  H   -0.000001  -0.000007   0.000196  -0.000004   0.000081   0.000000
    44  H    0.000006   0.000019  -0.000340   0.000399   0.000599  -0.000002
              13         14         15         16         17         18
     1  C   -0.074382  -0.069010   0.004778   0.000278   0.000006   0.000010
     2  C    0.007763   0.306170  -0.064071   0.001123  -0.000149  -0.000272
     3  C   -0.000178  -0.061269   0.213218  -0.043832  -0.000252   0.000231
     4  C    0.000062   0.007367  -0.028952  -0.009811  -0.000203  -0.003751
     5  C    0.000136   0.000111   0.001651   0.001678   0.000006  -0.000232
     6  H   -0.004905  -0.002681  -0.000063  -0.000147   0.000000   0.000000
     7  H    0.000205  -0.039445   0.004118  -0.000144   0.000045  -0.000027
     8  H    0.000005  -0.000043  -0.001182  -0.000500   0.000049   0.000233
     9  H   -0.000004  -0.000152  -0.002197  -0.004101  -0.000092  -0.003738
    10  O   -0.004958   0.003122  -0.000006  -0.000145   0.000000  -0.000002
    11  O   -0.000006   0.000004  -0.000021  -0.000372   0.000000  -0.000027
    12  C    0.314899  -0.004552  -0.000122   0.000011   0.000000   0.000000
    13  C    5.343473  -0.000361   0.000001   0.000002   0.000000   0.000000
    14  C   -0.000361   5.386394  -0.006080   0.000365  -0.000023   0.000002
    15  O    0.000001  -0.006080   8.246347   0.362641  -0.025954  -0.022384
    16  Si   0.000002   0.000365   0.362641  11.533293   0.312435   0.317766
    17  C    0.000000  -0.000023  -0.025954   0.312435   5.793167  -0.054107
    18  C    0.000000   0.000002  -0.022384   0.317766  -0.054107   5.807576
    19  C    0.000000  -0.000007  -0.023633   0.333153  -0.057595  -0.053222
    20  H    0.000000   0.000000   0.000728  -0.009794   0.000125   0.366280
    21  H    0.000000   0.000001  -0.000545  -0.027054  -0.002127   0.361644
    22  H    0.000000   0.000003  -0.002032  -0.025278   0.002274   0.368332
    23  H    0.000000   0.000000   0.000939  -0.012602   0.000461  -0.000286
    24  H    0.000000   0.000003  -0.001509  -0.028175   0.002536  -0.000410
    25  H    0.000000   0.000008  -0.001330  -0.026062  -0.000806   0.002668
    26  H    0.000000   0.000000   0.000920  -0.010926   0.363845   0.000579
    27  H    0.000000   0.000048  -0.002048  -0.025774   0.371253   0.002346
    28  H    0.000000  -0.000008  -0.001409  -0.030322   0.365009  -0.001966
    29  H    0.000022   0.385284   0.007962   0.001292   0.000160   0.000027
    30  H   -0.000090   0.390069  -0.000020   0.000085  -0.000005   0.000000
    31  H   -0.000049   0.383748   0.000237  -0.000341   0.000026   0.000002
    32  H   -0.043341   0.001384  -0.000030  -0.000035   0.000000   0.000000
    33  H   -0.039642  -0.000136  -0.000008  -0.000003   0.000000   0.000000
    34  H    0.385540  -0.000090   0.000000   0.000001   0.000000   0.000000
    35  H    0.386085   0.000126   0.000000   0.000000   0.000000   0.000000
    36  H    0.392442  -0.000002   0.000000   0.000000   0.000000   0.000000
    37  C    0.000007  -0.012118  -0.043532  -0.021751   0.000251  -0.000513
    38  C   -0.000001   0.000312   0.000807   0.007543  -0.001621  -0.003403
    39  C    0.000000  -0.000034   0.000125   0.000001   0.000254  -0.000141
    40  H   -0.000041   0.001373   0.003118   0.002302  -0.000077  -0.000050
    41  H    0.000001   0.000328  -0.003030  -0.002925  -0.000113   0.000013
    42  H    0.000000  -0.000001  -0.001129   0.002775   0.002529   0.001622
    43  H    0.000000   0.000000   0.000013   0.000040  -0.000007   0.000003
    44  H    0.000002  -0.000023  -0.000002   0.000119  -0.000004  -0.000008
              19         20         21         22         23         24
     1  C   -0.000002   0.000000   0.000004   0.000002   0.000000  -0.000001
     2  C   -0.000025   0.000008  -0.000071  -0.000103   0.000001   0.000010
     3  C    0.002674  -0.000108   0.000742   0.000247  -0.000072  -0.000024
     4  C   -0.000395   0.000399  -0.001412   0.000337   0.000000   0.000010
     5  C   -0.000005  -0.000002  -0.000160  -0.000111   0.000000  -0.000002
     6  H    0.000000   0.000000  -0.000001   0.000000   0.000000   0.000000
     7  H   -0.000072   0.000000  -0.000005  -0.000009  -0.000001  -0.000019
     8  H   -0.000118  -0.000031  -0.000068   0.000690  -0.000001  -0.000006
     9  H    0.000003   0.000468   0.001352  -0.001490  -0.000001   0.000000
    10  O    0.000000   0.000000  -0.000004  -0.000001   0.000000   0.000000
    11  O    0.000000  -0.000001  -0.000086  -0.000015   0.000000   0.000000
    12  C    0.000000   0.000000   0.000000   0.000000   0.000000   0.000000
    13  C    0.000000   0.000000   0.000000   0.000000   0.000000   0.000000
    14  C   -0.000007   0.000000   0.000001   0.000003   0.000000   0.000003
    15  O   -0.023633   0.000728  -0.000545  -0.002032   0.000939  -0.001509
    16  Si   0.333153  -0.009794  -0.027054  -0.025278  -0.012602  -0.028175
    17  C   -0.057595   0.000125  -0.002127   0.002274   0.000461   0.002536
    18  C   -0.053222   0.366280   0.361644   0.368332  -0.000286  -0.000410
    19  C    5.731160  -0.001210   0.003185  -0.000561   0.364354   0.369468
    20  H   -0.001210   0.434251  -0.019831  -0.020188   0.000661  -0.000023
    21  H    0.003185  -0.019831   0.444673  -0.019058  -0.000080  -0.000077
    22  H   -0.000561  -0.020188  -0.019058   0.446423  -0.000055   0.001263
    23  H    0.364354   0.000661  -0.000080  -0.000055   0.454700  -0.020681
    24  H    0.369468  -0.000023  -0.000077   0.001263  -0.020681   0.460675
    25  H    0.370187  -0.000036  -0.000097  -0.000060  -0.021227  -0.018246
    26  H   -0.000622   0.000368   0.000172  -0.000019   0.000822   0.000016
    27  H   -0.001133  -0.000062   0.000005  -0.000093  -0.000043  -0.000071
    28  H    0.002914   0.000034  -0.000018  -0.000034  -0.000121  -0.000120
    29  H    0.000032   0.000000   0.000000   0.000001  -0.000005  -0.000012
    30  H    0.000000   0.000000   0.000000   0.000000   0.000000   0.000001
    31  H    0.000000   0.000000   0.000000   0.000000   0.000000   0.000000
    32  H    0.000000   0.000000   0.000000   0.000000   0.000000   0.000000
    33  H    0.000000   0.000000   0.000000   0.000000   0.000000   0.000000
    34  H    0.000000   0.000000   0.000000   0.000000   0.000000   0.000000
    35  H    0.000000   0.000000   0.000000   0.000000   0.000000   0.000000
    36  H    0.000000   0.000000   0.000000   0.000000   0.000000   0.000000
    37  C   -0.000238   0.000013  -0.000642   0.000117   0.000000  -0.000021
    38  C    0.000008   0.000056   0.003253  -0.000027   0.000002   0.000003
    39  C    0.000000  -0.000004   0.000854  -0.000032   0.000000   0.000000
    40  H    0.000008   0.000000   0.000012   0.000015   0.000000   0.000002
    41  H   -0.000079   0.000005   0.000160  -0.000012   0.000005  -0.000004
    42  H   -0.000007  -0.000004   0.003319   0.000014   0.000007   0.000001
    43  H    0.000000  -0.000001   0.000055   0.000000   0.000000   0.000000
    44  H    0.000000   0.000000  -0.000006   0.000001   0.000000   0.000000
              25         26         27         28         29         30
     1  C   -0.000001   0.000000   0.000001   0.000002   0.006782  -0.006116
     2  C    0.000037   0.000002   0.000016  -0.000033  -0.035455  -0.036056
     3  C   -0.000129  -0.000077   0.000296   0.000587  -0.005972   0.007746
     4  C   -0.000018  -0.000001  -0.000023   0.000012   0.000308  -0.000316
     5  C    0.000000   0.000000   0.000001   0.000005  -0.000056   0.000009
     6  H    0.000000   0.000000   0.000000   0.000000   0.000088  -0.000975
     7  H   -0.000020   0.000000   0.000006   0.000005  -0.002816  -0.007093
     8  H   -0.000014   0.000000   0.000001   0.000000   0.000042  -0.000033
     9  H   -0.000008  -0.000002  -0.000013  -0.000025  -0.000023   0.000015
    10  O    0.000000   0.000000   0.000000   0.000000  -0.000108   0.000017
    11  O    0.000000   0.000000   0.000000   0.000000   0.000000   0.000000
    12  C    0.000000   0.000000   0.000000   0.000000  -0.000340   0.002254
    13  C    0.000000   0.000000   0.000000   0.000000   0.000022  -0.000090
    14  C    0.000008   0.000000   0.000048  -0.000008   0.385284   0.390069
    15  O   -0.001330   0.000920  -0.002048  -0.001409   0.007962  -0.000020
    16  Si  -0.026062  -0.010926  -0.025774  -0.030322   0.001292   0.000085
    17  C   -0.000806   0.363845   0.371253   0.365009   0.000160  -0.000005
    18  C    0.002668   0.000579   0.002346  -0.001966   0.000027   0.000000
    19  C    0.370187  -0.000622  -0.001133   0.002914   0.000032   0.000000
    20  H   -0.000036   0.000368  -0.000062   0.000034   0.000000   0.000000
    21  H   -0.000097   0.000172   0.000005  -0.000018   0.000000   0.000000
    22  H   -0.000060  -0.000019  -0.000093  -0.000034   0.000001   0.000000
    23  H   -0.021227   0.000822  -0.000043  -0.000121  -0.000005   0.000000
    24  H   -0.018246   0.000016  -0.000071  -0.000120  -0.000012   0.000001
    25  H    0.459055  -0.000073   0.001290  -0.000108   0.000106   0.000002
    26  H   -0.000073   0.448009  -0.021559  -0.021379  -0.000003   0.000000
    27  H    0.001290  -0.021559   0.451923  -0.018814   0.000219  -0.000005
    28  H   -0.000108  -0.021379  -0.018814   0.449057  -0.000004  -0.000001
    29  H    0.000106  -0.000003   0.000219  -0.000004   0.430550  -0.025228
    30  H    0.000002   0.000000  -0.000005  -0.000001  -0.025228   0.461470
    31  H   -0.000003  -0.000001   0.000019  -0.000003  -0.023861  -0.027182
    32  H    0.000000   0.000000   0.000000   0.000000  -0.000061   0.000161
    33  H    0.000000   0.000000   0.000000   0.000000   0.000214   0.003110
    34  H    0.000000   0.000000   0.000000   0.000000   0.000004  -0.000022
    35  H    0.000000   0.000000   0.000000   0.000000  -0.000005   0.000071
    36  H    0.000000   0.000000   0.000000   0.000000  -0.000002   0.000012
    37  C   -0.000040   0.000195  -0.000040  -0.000803   0.000316  -0.000559
    38  C    0.000005  -0.000052   0.000205   0.000625  -0.000085   0.000006
    39  C    0.000000  -0.000009  -0.000002   0.000549   0.000000   0.000000
    40  H    0.000001  -0.000003  -0.000043  -0.000017  -0.000083  -0.000134
    41  H   -0.000015   0.000202   0.000074   0.000288   0.000272   0.000171
    42  H    0.000000  -0.000087  -0.000098   0.004734   0.000018  -0.000002
    43  H    0.000000   0.000000  -0.000001  -0.000025   0.000000   0.000000
    44  H    0.000000   0.000000   0.000001  -0.000001   0.000002   0.000000
              31         32         33         34         35         36
     1  C   -0.005800  -0.042482  -0.039903  -0.011615  -0.004381   0.008396
     2  C   -0.037391  -0.007093  -0.003596   0.000451  -0.000181  -0.000255
     3  C   -0.011485  -0.001096   0.000007  -0.000049  -0.000008   0.000012
     4  C   -0.000041   0.000267   0.000087   0.000381  -0.000004   0.000000
     5  C    0.000001   0.000053   0.000034   0.000840  -0.000092  -0.000004
     6  H    0.005629   0.007860   0.000291   0.000183   0.005295  -0.000250
     7  H    0.007023   0.005018   0.000079   0.000000   0.000013  -0.000046
     8  H   -0.000017   0.000056  -0.000010  -0.000013   0.000000  -0.000001
     9  H    0.000020   0.000044  -0.000001  -0.000009   0.000000   0.000000
    10  O    0.000003   0.002850   0.003488   0.011977  -0.000438  -0.000171
    11  O    0.000001  -0.000151   0.000005   0.000196  -0.000003   0.000000
    12  C    0.000082   0.387972   0.387148  -0.037712  -0.043158  -0.038342
    13  C   -0.000049  -0.043341  -0.039642   0.385540   0.386085   0.392442
    14  C    0.383748   0.001384  -0.000136  -0.000090   0.000126  -0.000002
    15  O    0.000237  -0.000030  -0.000008   0.000000   0.000000   0.000000
    16  Si  -0.000341  -0.000035  -0.000003   0.000001   0.000000   0.000000
    17  C    0.000026   0.000000   0.000000   0.000000   0.000000   0.000000
    18  C    0.000002   0.000000   0.000000   0.000000   0.000000   0.000000
    19  C    0.000000   0.000000   0.000000   0.000000   0.000000   0.000000
    20  H    0.000000   0.000000   0.000000   0.000000   0.000000   0.000000
    21  H    0.000000   0.000000   0.000000   0.000000   0.000000   0.000000
    22  H    0.000000   0.000000   0.000000   0.000000   0.000000   0.000000
    23  H    0.000000   0.000000   0.000000   0.000000   0.000000   0.000000
    24  H    0.000000   0.000000   0.000000   0.000000   0.000000   0.000000
    25  H   -0.000003   0.000000   0.000000   0.000000   0.000000   0.000000
    26  H   -0.000001   0.000000   0.000000   0.000000   0.000000   0.000000
    27  H    0.000019   0.000000   0.000000   0.000000   0.000000   0.000000
    28  H   -0.000003   0.000000   0.000000   0.000000   0.000000   0.000000
    29  H   -0.023861  -0.000061   0.000214   0.000004  -0.000005  -0.000002
    30  H   -0.027182   0.000161   0.003110  -0.000022   0.000071   0.000012
    31  H    0.474162   0.000013   0.000190   0.000004  -0.000023   0.000000
    32  H    0.000013   0.483307  -0.024784  -0.005068   0.007409  -0.004552
    33  H    0.000190  -0.024784   0.474821   0.007191  -0.004578  -0.005551
    34  H    0.000004  -0.005068   0.007191   0.462508  -0.027239  -0.026251
    35  H   -0.000023   0.007409  -0.004578  -0.027239   0.486084  -0.026911
    36  H    0.000000  -0.004552  -0.005551  -0.026251  -0.026911   0.473349
    37  C    0.005169  -0.000032   0.000015   0.000001  -0.000019   0.000000
    38  C    0.000338   0.000001   0.000000   0.000000   0.000000   0.000000
    39  C   -0.000015   0.000001   0.000000   0.000000   0.000000   0.000000
    40  H    0.001381  -0.000028  -0.000044  -0.000011  -0.000040   0.000002
    41  H   -0.001152   0.000000  -0.000004   0.000000   0.000001   0.000000
    42  H    0.000010   0.000000   0.000000   0.000000   0.000000   0.000000
    43  H    0.000000   0.000000   0.000000   0.000000   0.000000   0.000000
    44  H   -0.000010   0.000000   0.000000   0.000004   0.000000   0.000000
              37         38         39         40         41         42
     1  C   -0.000044  -0.000351  -0.000013   0.000649   0.000421   0.000058
     2  C   -0.084553   0.006252   0.000191  -0.009153  -0.005213  -0.000638
     3  C    0.260776  -0.055703  -0.005471  -0.030442  -0.039743   0.003356
     4  C   -0.068622  -0.011752   0.000843   0.001120   0.004224  -0.001787
     5  C   -0.003214  -0.003672   0.000595  -0.000663  -0.000018   0.000195
     6  H    0.002063   0.000077   0.000156   0.002204  -0.000180   0.000011
     7  H    0.008455  -0.000189  -0.000013   0.000213  -0.000330   0.000033
     8  H    0.005655   0.000619   0.000078  -0.000164  -0.000093   0.000080
     9  H   -0.006223   0.002757   0.001704  -0.000199   0.000122  -0.001381
    10  O   -0.000628  -0.000194  -0.000359   0.001654   0.000052  -0.000010
    11  O   -0.000105  -0.000547   0.000508  -0.000167  -0.000007   0.000062
    12  C    0.000218  -0.000008   0.000000   0.000951  -0.000031   0.000000
    13  C    0.000007  -0.000001   0.000000  -0.000041   0.000001   0.000000
    14  C   -0.012118   0.000312  -0.000034   0.001373   0.000328  -0.000001
    15  O   -0.043532   0.000807   0.000125   0.003118  -0.003030  -0.001129
    16  Si  -0.021751   0.007543   0.000001   0.002302  -0.002925   0.002775
    17  C    0.000251  -0.001621   0.000254  -0.000077  -0.000113   0.002529
    18  C   -0.000513  -0.003403  -0.000141  -0.000050   0.000013   0.001622
    19  C   -0.000238   0.000008   0.000000   0.000008  -0.000079  -0.000007
    20  H    0.000013   0.000056  -0.000004   0.000000   0.000005  -0.000004
    21  H   -0.000642   0.003253   0.000854   0.000012   0.000160   0.003319
    22  H    0.000117  -0.000027  -0.000032   0.000015  -0.000012   0.000014
    23  H    0.000000   0.000002   0.000000   0.000000   0.000005   0.000007
    24  H   -0.000021   0.000003   0.000000   0.000002  -0.000004   0.000001
    25  H   -0.000040   0.000005   0.000000   0.000001  -0.000015   0.000000
    26  H    0.000195  -0.000052  -0.000009  -0.000003   0.000202  -0.000087
    27  H   -0.000040   0.000205  -0.000002  -0.000043   0.000074  -0.000098
    28  H   -0.000803   0.000625   0.000549  -0.000017   0.000288   0.004734
    29  H    0.000316  -0.000085   0.000000  -0.000083   0.000272   0.000018
    30  H   -0.000559   0.000006   0.000000  -0.000134   0.000171  -0.000002
    31  H    0.005169   0.000338  -0.000015   0.001381  -0.001152   0.000010
    32  H   -0.000032   0.000001   0.000001  -0.000028   0.000000   0.000000
    33  H    0.000015   0.000000   0.000000  -0.000044  -0.000004   0.000000
    34  H    0.000001   0.000000   0.000000  -0.000011   0.000000   0.000000
    35  H   -0.000019   0.000000   0.000000  -0.000040   0.000001   0.000000
    36  H    0.000000   0.000000   0.000000   0.000002   0.000000   0.000000
    37  C    5.494345   0.329130  -0.056028   0.386400   0.403083  -0.050685
    38  C    0.329130   5.092701   0.623618  -0.048194  -0.043468   0.390874
    39  C   -0.056028   0.623618   5.132596  -0.001645   0.001925  -0.037820
    40  H    0.386400  -0.048194  -0.001645   0.439707  -0.024218   0.004589
    41  H    0.403083  -0.043468   0.001925  -0.024218   0.435465  -0.005125
    42  H   -0.050685   0.390874  -0.037820   0.004589  -0.005125   0.465908
    43  H    0.006129  -0.034988   0.389170   0.000233  -0.000339  -0.008479
    44  H   -0.008035  -0.043304   0.390323   0.004117   0.000066   0.005951
              43         44
     1  C   -0.000003  -0.000041
     2  C    0.000034  -0.000140
     3  C   -0.000268  -0.000003
     4  C    0.000029   0.000323
     5  C    0.000073   0.001182
     6  H   -0.000002  -0.000009
     7  H   -0.000001   0.000006
     8  H   -0.000007   0.000019
     9  H    0.000196  -0.000340
    10  O   -0.000004   0.000399
    11  O    0.000081   0.000599
    12  C    0.000000  -0.000002
    13  C    0.000000   0.000002
    14  C    0.000000  -0.000023
    15  O    0.000013  -0.000002
    16  Si   0.000040   0.000119
    17  C   -0.000007  -0.000004
    18  C    0.000003  -0.000008
    19  C    0.000000   0.000000
    20  H   -0.000001   0.000000
    21  H    0.000055  -0.000006
    22  H    0.000000   0.000001
    23  H    0.000000   0.000000
    24  H    0.000000   0.000000
    25  H    0.000000   0.000000
    26  H    0.000000   0.000000
    27  H   -0.000001   0.000001
    28  H   -0.000025  -0.000001
    29  H    0.000000   0.000002
    30  H    0.000000   0.000000
    31  H    0.000000  -0.000010
    32  H    0.000000   0.000000
    33  H    0.000000   0.000000
    34  H    0.000000   0.000004
    35  H    0.000000   0.000000
    36  H    0.000000   0.000000
    37  C    0.006129  -0.008035
    38  C   -0.034988  -0.043304
    39  C    0.389170   0.390323
    40  H    0.000233   0.004117
    41  H   -0.000339   0.000066
    42  H   -0.008479   0.005951
    43  H    0.450732  -0.032217
    44  H   -0.032217   0.452881
 Mulliken charges:
               1
     1  C   -0.027060
     2  C   -0.316841
     3  C    0.188237
     4  C   -0.617077
     5  C    0.498257
     6  H    0.242791
     7  H    0.250009
     8  H    0.288578
     9  H    0.285468
    10  O   -0.320940
    11  O   -0.394210
    12  C   -0.440123
    13  C   -0.662686
    14  C   -0.670187
    15  O   -0.616313
    16  Si   1.403192
    17  C   -1.071295
    18  C   -1.084795
    19  C   -1.038223
    20  H    0.247899
    21  H    0.251910
    22  H    0.249458
    23  H    0.233225
    24  H    0.235413
    25  H    0.234932
    26  H    0.239682
    27  H    0.242119
    28  H    0.251392
    29  H    0.260417
    30  H    0.238640
    31  H    0.229318
    32  H    0.232360
    33  H    0.241581
    34  H    0.238799
    35  H    0.221995
    36  H    0.228124
    37  C   -0.543896
    38  C   -0.211638
    39  C   -0.441906
    40  H    0.265366
    41  H    0.279219
    42  H    0.221104
    43  H    0.229554
    44  H    0.228152
 Sum of Mulliken charges =   0.00000
 Mulliken charges with hydrogens summed into heavy atoms:
               1
     1  C    0.215732
     2  C   -0.066832
     3  C    0.188237
     4  C   -0.043031
     5  C    0.498257
    10  O   -0.320940
    11  O   -0.394210
    12  C    0.033818
    13  C    0.026232
    14  C    0.058187
    15  O   -0.616313
    16  Si   1.403192
    17  C   -0.338103
    18  C   -0.335529
    19  C   -0.334652
    37  C    0.000689
    38  C    0.009466
    39  C    0.015799
 Electronic spatial extent (au):  <R**2>=           5625.0327
 Charge=              0.0000 electrons
 Dipole moment (field-independent basis, Debye):
    X=             -1.8113    Y=             -3.5518    Z=              2.3621  Tot=              4.6342
 Quadrupole moment (field-independent basis, Debye-Ang):
   XX=           -118.1513   YY=           -126.8153   ZZ=           -121.0249
   XY=            -13.8707   XZ=              6.4610   YZ=              6.3424
 Traceless Quadrupole moment (field-independent basis, Debye-Ang):
   XX=              3.8458   YY=             -4.8181   ZZ=              0.9723
   XY=            -13.8707   XZ=              6.4610   YZ=              6.3424
 Octapole moment (field-independent basis, Debye-Ang**2):
  XXX=            -13.0388  YYY=            -12.7897  ZZZ=            -12.5819  XYY=             -5.7803
  XXY=            -22.4054  XXZ=              8.8404  XZZ=              5.4262  YZZ=            -15.8952
  YYZ=             23.7961  XYZ=             18.3449
 Hexadecapole moment (field-independent basis, Debye-Ang**3):
 XXXX=          -4805.5683 YYYY=          -1789.1319 ZZZZ=          -1009.8129 XXXY=            -91.5663
 XXXZ=             26.7765 YYYX=            -62.4693 YYYZ=             42.3733 ZZZX=             13.2247
 ZZZY=            -11.5762 XXYY=          -1143.7197 XXZZ=          -1002.9169 YYZZ=           -512.9873
 XXYZ=             17.9276 YYXZ=             15.3969 ZZXY=            -12.0867
 N-N= 1.627550173323D+03 E-N=-5.750254604316D+03  KE= 1.060549592583D+03
 1\1\GINC-SWANNODE-0-8\SP\RmPW1PW91\6-311G(d)\C14H26O3Si1\AH809\08-Mar-
 2018\0\\#mPW1PW91/6-311g(d) nmr=(giao) scrf=(solvent=chloroform)\\P_ng
 _2ginp018\\0,1\C,0,-0.043117,-0.004387,0.994373\C,0,-0.57955,1.320201,
 0.425419\C,0,-1.839325,1.828644,1.199499\C,0,-1.385599,1.957972,2.6545
 29\C,0,-0.859349,0.685861,3.237516\H,0,-0.589562,-0.843637,0.547339\H,
 0,0.20024,2.087069,0.554169\H,0,-0.600833,2.719209,2.750886\H,0,-2.209
 039,2.29214,3.291744\O,0,-0.20157,-0.156143,2.422112\O,0,-0.960722,0.4
 4292,4.436984\C,0,1.452652,-0.198188,0.681912\C,0,1.973675,-1.557882,1
 .133405\C,0,-0.80756,1.214563,-1.094057\O,0,-2.050225,3.134306,0.61711
 5\Si,0,-3.223117,4.280182,0.917495\C,0,-4.799156,3.927219,-0.045243\C,
 0,-3.631824,4.541065,2.724879\C,0,-2.577734,5.950756,0.275891\H,0,-4.3
 08143,5.39375,2.841483\H,0,-4.12385,3.669314,3.161957\H,0,-2.726176,4.
 75213,3.301254\H,0,-3.327703,6.731714,0.430214\H,0,-1.663904,6.230043,
 0.807957\H,0,-2.355049,5.882802,-0.792746\H,0,-5.504817,4.75649,0.0626
 96\H,0,-4.575213,3.806422,-1.109361\H,0,-5.292363,3.017789,0.303934\H,
 0,-1.182475,2.154602,-1.510738\H,0,0.125201,0.986318,-1.61851\H,0,-1.5
 25832,0.425991,-1.339969\H,0,2.037199,0.576055,1.193845\H,0,1.639867,-
 0.09642,-0.391629\H,0,1.896456,-1.677307,2.218456\H,0,1.414914,-2.3688
 76,0.655704\H,0,3.028172,-1.665772,0.859917\C,0,-3.042636,0.853119,0.9
 7199\C,0,-4.103479,0.816349,2.042004\C,0,-4.280237,-0.209674,2.885014\
 H,0,-2.67583,-0.172282,0.850287\H,0,-3.538347,1.098501,0.024218\H,0,-4
 .785817,1.657442,2.115014\H,0,-5.069865,-0.18662,3.630913\H,0,-3.64457
 8,-1.090397,2.867345\\Version=EM64L-G09RevD.01\State=1-A\HF=-1064.3739
 27\RMSD=2.908e-09\Dipole=-0.2393959,0.5190711,-1.7313115\Quadrupole=6.
 7645224,1.7404392,-8.5049616,-1.0097225,-5.4372849,8.442668\PG=C01 [X(
 C14H26O3Si1)]\\@


 IF IT'S NOT TRUE, IT'S WELL INVENTED -- DANTE
 Job cpu time:       0 days  1 hours 16 minutes 41.3 seconds.
 File lengths (MBytes):  RWF=    233 Int=      0 D2E=      0 Chk=     11 Scr=      1
 Normal termination of Gaussian 09 at Thu Mar  8 13:22:34 2018.
