 Entering Gaussian System, Link 0=/usr/local/shared/gaussian/em64t/09-D01/g09/g09
 Initial command:
 /usr/local/shared/gaussian/em64t/09-D01/g09/l1.exe "/scratch/ah809/P_ng_correct1ginp014/Gau-3065.inp" -scrdir="/scratch/ah809/P_ng_correct1ginp014/"
 Entering Link 1 = /usr/local/shared/gaussian/em64t/09-D01/g09/l1.exe PID=      3073.
  
 Copyright (c) 1988,1990,1992,1993,1995,1998,2003,2009,2013,
            Gaussian, Inc.  All Rights Reserved.
  
 This is part of the Gaussian(R) 09 program.  It is based on
 the Gaussian(R) 03 system (copyright 2003, Gaussian, Inc.),
 the Gaussian(R) 98 system (copyright 1998, Gaussian, Inc.),
 the Gaussian(R) 94 system (copyright 1995, Gaussian, Inc.),
 the Gaussian 92(TM) system (copyright 1992, Gaussian, Inc.),
 the Gaussian 90(TM) system (copyright 1990, Gaussian, Inc.),
 the Gaussian 88(TM) system (copyright 1988, Gaussian, Inc.),
 the Gaussian 86(TM) system (copyright 1986, Carnegie Mellon
 University), and the Gaussian 82(TM) system (copyright 1983,
 Carnegie Mellon University). Gaussian is a federally registered
 trademark of Gaussian, Inc.
  
 This software contains proprietary and confidential information,
 including trade secrets, belonging to Gaussian, Inc.
  
 This software is provided under written license and may be
 used, copied, transmitted, or stored only in accord with that
 written license.
  
 The following legend is applicable only to US Government
 contracts under FAR:
  
                    RESTRICTED RIGHTS LEGEND
  
 Use, reproduction and disclosure by the US Government is
 subject to restrictions as set forth in subparagraphs (a)
 and (c) of the Commercial Computer Software - Restricted
 Rights clause in FAR 52.227-19.
  
 Gaussian, Inc.
 340 Quinnipiac St., Bldg. 40, Wallingford CT 06492
  
  
 ---------------------------------------------------------------
 Warning -- This program may not be used in any manner that
 competes with the business of Gaussian, Inc. or will provide
 assistance to any competitor of Gaussian, Inc.  The licensee
 of this program is prohibited from giving any competitor of
 Gaussian, Inc. access to this program.  By using this program,
 the user acknowledges that Gaussian, Inc. is engaged in the
 business of creating and licensing software in the field of
 computational chemistry and represents and warrants to the
 licensee that it is not a competitor of Gaussian, Inc. and that
 it will not use this program in any manner prohibited above.
 ---------------------------------------------------------------
  

 Cite this work as:
 Gaussian 09, Revision D.01,
 M. J. Frisch, G. W. Trucks, H. B. Schlegel, G. E. Scuseria, 
 M. A. Robb, J. R. Cheeseman, G. Scalmani, V. Barone, B. Mennucci, 
 G. A. Petersson, H. Nakatsuji, M. Caricato, X. Li, H. P. Hratchian, 
 A. F. Izmaylov, J. Bloino, G. Zheng, J. L. Sonnenberg, M. Hada, 
 M. Ehara, K. Toyota, R. Fukuda, J. Hasegawa, M. Ishida, T. Nakajima, 
 Y. Honda, O. Kitao, H. Nakai, T. Vreven, J. A. Montgomery, Jr., 
 J. E. Peralta, F. Ogliaro, M. Bearpark, J. J. Heyd, E. Brothers, 
 K. N. Kudin, V. N. Staroverov, T. Keith, R. Kobayashi, J. Normand, 
 K. Raghavachari, A. Rendell, J. C. Burant, S. S. Iyengar, J. Tomasi, 
 M. Cossi, N. Rega, J. M. Millam, M. Klene, J. E. Knox, J. B. Cross, 
 V. Bakken, C. Adamo, J. Jaramillo, R. Gomperts, R. E. Stratmann, 
 O. Yazyev, A. J. Austin, R. Cammi, C. Pomelli, J. W. Ochterski, 
 R. L. Martin, K. Morokuma, V. G. Zakrzewski, G. A. Voth, 
 P. Salvador, J. J. Dannenberg, S. Dapprich, A. D. Daniels, 
 O. Farkas, J. B. Foresman, J. V. Ortiz, J. Cioslowski, 
 and D. J. Fox, Gaussian, Inc., Wallingford CT, 2013.
 
 ******************************************
 Gaussian 09:  EM64L-G09RevD.01 24-Apr-2013
                 8-Mar-2018 
 ******************************************
 %mem=6000MB
 %chk=P_ng_correct1ginp014.chk
 --------------------------------------------------------
 #mPW1PW91/6-311g(d) nmr=(giao) scrf=(solvent=chloroform)
 --------------------------------------------------------
 1/38=1/1;
 2/12=2,17=6,18=5,40=1/2;
 3/5=4,6=6,7=1,11=2,16=1,25=1,30=1,70=2201,72=7,74=-7/1,2,8,3;
 4//1;
 5/5=2,38=5,53=7/2;
 8/6=1,10=90,11=11/1;
 10/13=100,45=16/2;
 6/7=2,8=2,9=2,10=2,28=1/1;
 99/9=1/99;
 --------------------
 P_ng_correct1ginp014
 --------------------
 Symbolic Z-matrix:
 Charge =  0 Multiplicity = 1
 C                     0.92692  -0.29924   0.62733 
 C                    -0.5845   -0.43244   0.8687 
 C                    -1.03155   0.6888    1.86722 
 C                    -0.22074   1.9908    1.67139 
 C                     0.53327   2.08232   0.37553 
 H                     1.47937  -0.29545   1.57464 
 H                    -1.07602  -0.23936  -0.09103 
 H                    -0.87199   2.86836   1.7545 
 H                     0.55914   2.09796   2.43606 
 O                     1.17556   0.96328  -0.02758 
 O                     0.64234   3.13481  -0.24425 
 C                     1.55577  -1.38745  -0.25905 
 C                     0.98434  -1.46115  -1.67054 
 C                    -1.01781  -1.84166   1.289 
 O                    -2.45763   0.91559   1.82575 
 Si                   -3.43605   1.32659   0.53537 
 C                    -4.90383   2.32636   1.18435 
 C                    -2.60791   2.351    -0.79083 
 C                    -4.13657  -0.22627  -0.27266 
 H                    -3.32961   2.61932  -1.56884 
 H                    -2.20676   3.28015  -0.37702 
 H                    -1.79593   1.79958  -1.27183 
 H                    -4.86366   0.04057  -1.04531 
 H                    -3.34337  -0.81668  -0.73917 
 H                    -4.63853  -0.85016   0.47259 
 H                    -5.45838   1.74818   1.92909 
 H                    -4.55547   3.25176   1.65207 
 H                    -5.58342   2.58374   0.36682 
 H                    -0.42006  -2.21717   2.12572 
 H                    -2.07321  -1.86244   1.57879 
 H                    -0.90387  -2.55044   0.46278 
 H                     1.47145  -2.36749   0.2229 
 H                     2.62874  -1.17604  -0.35355 
 H                    -0.07594  -1.72822  -1.66512 
 H                     1.09639  -0.50846  -2.19724 
 H                     1.51538  -2.22527  -2.24755 
 C                    -0.79922   0.21355   3.35482 
 C                    -1.12027   1.24851   4.40869 
 C                    -0.25586   1.67852   5.33655 
 H                     0.2329   -0.13433   3.48206 
 H                    -1.45656  -0.63729   3.57456 
 H                    -2.13413   1.64685   4.40329 
 H                    -0.55723   2.42016   6.07078 
 H                     0.76179   1.30553   5.3923 
 
                          Input orientation:                          
 ---------------------------------------------------------------------
 Center     Atomic      Atomic             Coordinates (Angstroms)
 Number     Number       Type             X           Y           Z
 ---------------------------------------------------------------------
      1          6           0        0.926917   -0.299243    0.627333
      2          6           0       -0.584495   -0.432441    0.868702
      3          6           0       -1.031546    0.688799    1.867218
      4          6           0       -0.220736    1.990801    1.671393
      5          6           0        0.533272    2.082321    0.375527
      6          1           0        1.479369   -0.295452    1.574642
      7          1           0       -1.076019   -0.239360   -0.091030
      8          1           0       -0.871987    2.868360    1.754499
      9          1           0        0.559140    2.097960    2.436058
     10          8           0        1.175562    0.963280   -0.027576
     11          8           0        0.642337    3.134811   -0.244250
     12          6           0        1.555768   -1.387450   -0.259052
     13          6           0        0.984342   -1.461145   -1.670543
     14          6           0       -1.017809   -1.841664    1.288997
     15          8           0       -2.457625    0.915585    1.825749
     16         14           0       -3.436046    1.326588    0.535365
     17          6           0       -4.903834    2.326358    1.184350
     18          6           0       -2.607905    2.350998   -0.790827
     19          6           0       -4.136575   -0.226272   -0.272664
     20          1           0       -3.329608    2.619320   -1.568838
     21          1           0       -2.206759    3.280145   -0.377015
     22          1           0       -1.795934    1.799581   -1.271834
     23          1           0       -4.863659    0.040566   -1.045313
     24          1           0       -3.343366   -0.816675   -0.739172
     25          1           0       -4.638533   -0.850160    0.472588
     26          1           0       -5.458383    1.748184    1.929090
     27          1           0       -4.555469    3.251760    1.652070
     28          1           0       -5.583418    2.583741    0.366819
     29          1           0       -0.420058   -2.217166    2.125719
     30          1           0       -2.073213   -1.862437    1.578787
     31          1           0       -0.903873   -2.550440    0.462775
     32          1           0        1.471445   -2.367490    0.222900
     33          1           0        2.628739   -1.176042   -0.353552
     34          1           0       -0.075941   -1.728223   -1.665123
     35          1           0        1.096386   -0.508459   -2.197241
     36          1           0        1.515380   -2.225274   -2.247553
     37          6           0       -0.799223    0.213551    3.354825
     38          6           0       -1.120271    1.248507    4.408693
     39          6           0       -0.255864    1.678523    5.336550
     40          1           0        0.232895   -0.134334    3.482063
     41          1           0       -1.456563   -0.637289    3.574563
     42          1           0       -2.134128    1.646849    4.403286
     43          1           0       -0.557233    2.420161    6.070775
     44          1           0        0.761788    1.305526    5.392303
 ---------------------------------------------------------------------
                    Distance matrix (angstroms):
                    1          2          3          4          5
     1  C    0.000000
     2  C    1.536349   0.000000
     3  C    2.519746   1.566546   0.000000
     4  C    2.766129   2.578514   1.546276   0.000000
     5  C    2.426975   2.795828   2.572100   1.502056   0.000000
     6  H    1.096637   2.185555   2.712756   2.850732   2.826089
     7  H    2.128705   1.095428   2.167531   2.968377   2.863162
     8  H    3.813170   3.429661   2.188299   1.095967   2.119947
     9  H    3.025447   3.188642   2.199908   1.097453   2.060753
    10  O    1.443847   2.418502   2.921799   2.427333   1.351770
    11  O    3.554345   3.933073   3.639115   2.392351   1.226276
    12  C    1.537962   2.600884   3.940308   4.277285   3.672533
    13  C    2.575568   3.157095   4.604543   4.953451   4.116554
    14  C    2.568817   1.533075   2.595722   3.933108   4.317168
    15  O    3.790400   2.498345   1.444594   2.486682   3.522766
    16  Si   4.656955   3.366993   2.821742   3.474184   4.043781
    17  C    6.418855   5.134909   4.259404   4.720298   5.502351
    18  C    4.640035   3.820439   3.508991   3.448310   3.361482
    19  C    5.143372   3.736642   3.880419   4.901894   5.249498
    20  H    5.608849   4.773939   4.562289   4.534227   4.357839
    21  H    4.862166   4.238732   3.623918   3.130922   3.083646
    22  H    3.927571   3.321355   3.416398   3.343710   2.866870
    23  H    6.036885   4.711521   4.856762   5.721944   5.942593
    24  H    4.513357   3.216250   3.795291   4.841855   4.967399
    25  H    5.594791   4.094706   4.162180   5.387497   5.946128
    26  H    6.830709   5.443742   4.552253   5.249592   6.198801
    27  H    6.611828   5.473174   4.362693   4.514455   5.375168
    28  H    7.124881   5.859904   5.153789   5.550842   6.137214
    29  H    2.781714   2.189149   2.980834   4.237113   4.738945
    30  H    3.514203   2.182977   2.770752   4.276411   4.878803
    31  H    2.906331   2.180069   3.532907   4.748716   4.851337
    32  H    2.176631   2.896267   4.278977   4.894518   4.550196
    33  H    2.151072   3.517346   4.669811   4.716864   3.942013
    34  H    2.881504   2.891011   4.385500   4.998444   4.365276
    35  H    2.837377   3.497306   4.741450   4.790349   3.694371
    36  H    3.510107   4.163505   5.648893   6.012281   5.138138
    37  C    3.268292   2.577639   1.578863   2.515394   3.760859
    38  C    4.570032   3.955272   2.603889   2.975395   4.438004
    39  C    5.242829   4.952356   3.690190   3.678604   5.039597
    40  H    2.942507   2.754387   2.209996   2.828517   3.828100
    41  H    3.805446   2.850289   2.203219   3.472201   4.646456
    42  H    5.235942   4.383845   2.926634   3.353000   4.850516
    43  H    6.263299   5.932929   4.570829   4.433074   5.808544
    44  H    5.030655   5.029510   4.002827   3.908980   5.081700
                    6          7          8          9         10
     6  H    0.000000
     7  H    3.050839   0.000000
     8  H    3.946002   3.620156   0.000000
     9  H    2.705047   3.810903   1.762431   0.000000
    10  O    2.060050   2.553426   3.316260   2.781540   0.000000
    11  O    3.971863   3.789624   2.521740   2.875071   2.246514
    12  C    2.135587   2.876221   5.297197   4.517186   2.392503
    13  C    3.483550   2.869269   5.824215   5.450890   2.934918
    14  C    2.950977   2.115477   4.735217   4.395811   3.796308
    15  O    4.126692   2.629976   2.516477   3.297174   4.078865
    16  Si   5.279433   2.900740   3.230750   4.491009   4.660024
    17  C    6.911693   4.781388   4.107874   5.609191   6.347110
    18  C    5.413405   3.089716   3.124061   4.528464   4.101577
    19  C    5.912373   3.065969   4.933931   5.898217   5.449211
    20  H    6.442330   3.928693   4.140832   5.606547   5.041281
    21  H    5.493760   3.707732   2.548438   4.118390   4.114616
    22  H    4.818630   2.463708   3.339859   4.402711   3.328268
    23  H    6.871032   3.916022   5.636383   6.764582   6.193495
    24  H    5.374401   2.427806   5.089754   5.814356   4.908698
    25  H    6.241070   3.658175   5.445875   6.289867   6.110845
    26  H    7.241166   5.218844   4.724437   6.048962   6.960879
    27  H    7.000570   5.228087   3.704798   5.301426   6.395551
    28  H    7.722147   5.338180   4.919781   6.499904   6.961699
    29  H    2.757625   3.042364   5.119045   4.435702   4.159077
    30  H    3.882821   2.533192   4.884082   4.832074   4.595609
    31  H    3.464255   2.382735   5.570724   5.257554   4.112265
    32  H    2.473987   3.334226   5.937305   5.066617   3.353254
    33  H    2.411311   3.830342   5.749448   4.773285   2.606661
    34  H    3.868837   2.386344   5.784123   5.644705   3.389986
    35  H    3.797255   3.037743   5.558205   5.343174   2.622924
    36  H    4.281902   3.912773   6.903698   6.445228   3.900083
    37  C    2.936004   3.486497   3.100701   2.498055   3.987795
    38  C    4.144126   4.739537   3.119345   2.726404   5.003268
    39  C    4.589070   5.814598   3.824449   3.041877   5.597714
    40  H    2.284275   3.806741   3.636126   2.486704   3.796175
    41  H    3.568786   3.706715   3.992986   3.583412   4.739758
    42  H    4.983083   4.987610   3.178232   3.365588   5.572598
    43  H    5.633606   6.731273   4.350884   3.815923   6.504995
    44  H    4.201498   5.985912   4.283140   3.067312   5.446414
                   11         12         13         14         15
    11  O    0.000000
    12  C    4.613612   0.000000
    13  C    4.824323   1.524554   0.000000
    14  C    5.465550   3.037444   3.593366   0.000000
    15  O    4.338159   5.075203   5.451609   3.156516   0.000000
    16  Si   4.528872   5.737186   5.672505   4.056310   1.670725
    17  C    5.783987   7.589614   7.560834   5.699522   2.895792
    18  C    3.387799   5.620939   5.311363   4.942923   2.988221
    19  C    5.842575   5.809586   5.450025   3.843823   2.919940
    20  H    4.218603   6.452646   5.938914   5.780313   3.896959
    21  H    2.855888   5.996413   5.859707   5.515626   3.241334
    22  H    2.963770   4.734638   4.303631   4.519071   3.288511
    23  H    6.366478   6.623177   6.070022   4.876716   3.846772
    24  H    5.634272   4.955584   4.473461   3.251505   3.219329
    25  H    6.654430   6.260459   6.048391   3.841776   3.115327
    26  H    6.623060   7.988647   8.047724   5.745905   3.115838
    27  H    5.534157   7.907077   7.996295   6.212071   3.144651
    28  H    6.279897   8.193293   7.977933   6.424905   3.831684
    29  H    5.948873   3.206158   4.117707   1.094720   3.749105
    30  H    5.972450   4.095457   4.479712   1.094663   2.815345
    31  H    5.934031   2.814856   3.050076   1.094526   4.035489
    32  H    5.583992   1.095384   2.154961   2.758522   5.365193
    33  H    4.747757   1.097675   2.125980   4.054421   5.915687
    34  H    5.117021   2.180742   1.093417   3.102710   4.984810
    35  H    4.158576   2.177208   1.094338   4.289652   5.553678
    36  H    5.788431   2.158174   1.094913   4.367080   6.499350
    37  C    4.854400   4.601010   5.589279   2.922214   2.362461
    38  C    5.321166   5.991435   6.980596   4.392284   2.927619
    39  C    5.837197   6.632719   7.777852   5.418022   4.213733
    40  H    4.973968   4.161278   5.373495   3.047749   3.329355
    41  H    5.763458   4.932898   5.843620   2.620465   2.543992
    42  H    5.614479   6.675305   7.501725   4.807774   2.698721
    43  H    6.467552   7.683058   8.795965   6.421891   4.888301
    44  H    5.927165   6.310336   7.588662   5.468902   4.820475
                   16         17         18         19         20
    16  Si   0.000000
    17  C    1.890800   0.000000
    18  C    1.869229   3.028733   0.000000
    19  C    1.885478   3.037679   3.040994   0.000000
    20  H    2.471873   3.184974   1.094602   3.229343   0.000000
    21  H    2.481928   3.259108   1.093377   4.003753   1.765764
    22  H    2.485892   3.996170   1.093035   3.252848   1.764182
    23  H    2.488066   3.193408   3.239025   1.094002   3.045876
    24  H    2.495318   4.001706   3.252341   1.093337   3.534770
    25  H    2.487599   3.266077   3.995883   1.093892   4.232965
    26  H    2.491999   1.093822   3.985795   3.239348   4.186414
    27  H    2.491270   1.093841   3.251480   3.997096   3.503850
    28  H    2.494002   1.093818   3.201248   3.224665   2.971143
    29  H    4.917683   6.452444   5.844744   4.850608   6.745875
    30  H    3.621591   5.070897   4.863538   3.219063   5.618916
    31  H    4.631254   6.348505   5.338477   4.048826   6.061193
    32  H    6.150391   7.975010   6.319246   6.023312   7.150434
    33  H    6.620797   8.448172   6.328796   6.832136   7.168235
    34  H    5.046219   6.918647   4.880090   4.547917   5.431091
    35  H    5.601560   7.448086   4.886335   5.582787   5.455943
    36  H    6.699028   8.584965   6.329755   6.311956   6.885104
    37  C    4.017592   5.101250   5.002643   4.948741   6.035978
    38  C    4.513489   5.086600   5.519379   5.760917   6.518526
    39  C    5.769644   6.266106   6.597656   7.081768   7.616914
    40  H    4.927317   6.141700   5.701281   5.761831   6.766509
    41  H    4.124547   5.136146   5.414063   4.706650   6.369331
    42  H    4.093699   4.300529   5.262993   5.420598   6.167750
    43  H    6.334369   6.540557   7.161817   7.749485   8.129540
    44  H    6.419665   7.130795   7.118914   7.644097   8.180652
                   21         22         23         24         25
    21  H    0.000000
    22  H    1.778074   0.000000
    23  H    4.242713   3.543499   0.000000
    24  H    4.266962   3.085947   1.771969   0.000000
    25  H    4.867727   4.259637   1.774288   1.773962   0.000000
    26  H    4.270607   4.864369   3.480909   4.262795   3.089489
    27  H    3.103938   4.274701   4.205071   4.872309   4.268937
    28  H    3.527052   4.200610   2.996650   4.219464   3.563098
    29  H    6.298921   5.437891   5.907486   4.326050   4.732555
    30  H    5.503558   4.649011   4.277138   2.842506   2.971405
    31  H    6.033115   4.767318   4.966643   3.225173   4.103503
    32  H    6.766451   5.502225   6.894972   5.149079   6.300513
    33  H    6.575728   5.410666   7.621988   5.995322   7.321335
    34  H    5.593153   3.944421   5.141500   3.516301   5.114494
    35  H    5.345794   3.814308   6.095121   4.683200   6.335143
    36  H    6.903830   5.302479   6.875431   5.278899   6.867369
    37  C    5.031082   4.991482   5.992560   4.928980   4.917222
    38  C    5.311404   5.747051   6.724452   5.975587   5.681152
    39  C    6.246280   6.786546   8.040078   7.257622   7.018558
    40  H    5.701146   5.518669   6.819280   5.574411   5.770629
    41  H    5.614628   5.435170   5.780229   4.711742   4.448876
    42  H    5.052149   5.687239   6.302199   5.828901   5.287484
    43  H    6.710775   7.472175   8.651386   8.038347   7.661051
    44  H    6.782066   7.155191   8.642261   7.677956   7.616695
                   26         27         28         29         30
    26  H    0.000000
    27  H    1.775594   0.000000
    28  H    1.776086   1.776175   0.000000
    29  H    6.414623   6.872781   7.266548   0.000000
    30  H    4.961721   5.685242   5.793005   1.777045   0.000000
    31  H    6.432092   6.958024   6.947457   1.763670   1.756755
    32  H    8.238469   8.363145   8.620121   2.687211   3.828591
    33  H    8.897364   8.674145   9.060597   4.065204   5.129661
    34  H    7.346731   7.474635   7.283826   3.837703   3.811832
    35  H    8.067468   7.803839   7.794606   4.889506   5.112534
    36  H    9.047988   9.058707   8.964067   4.782415   5.258377
    37  C    5.108384   5.122448   6.118374   2.750064   3.014480
    38  C    5.021685   4.838655   6.167599   4.208700   4.312127
    39  C    6.219473   5.876825   7.341694   5.051019   5.473750
    40  H    6.192434   6.143528   7.135977   2.569865   3.453539
    41  H    4.940913   5.331407   6.139673   2.381072   2.421645
    42  H    4.145188   4.000978   5.391515   4.801662   4.505174
    43  H    6.451851   6.016843   7.604236   6.089917   6.388802
    44  H    7.133044   6.786044   8.194569   4.947392   5.711053
                   31         32         33         34         35
    31  H    0.000000
    32  H    2.394399   0.000000
    33  H    3.877461   1.758174   0.000000
    34  H    2.426821   2.523430   3.056209   0.000000
    35  H    3.904665   3.074695   2.488566   1.773506   0.000000
    36  H    3.647519   2.474933   2.434686   1.765952   1.767920
    37  C    4.001818   4.650447   5.237743   5.430792   5.911013
    38  C    5.481706   6.108460   6.527824   6.844179   7.186018
    39  C    6.485193   6.745608   6.989044   7.788563   7.960495
    40  H    4.030622   4.140427   4.640815   5.397165   5.756742
    41  H    3.694433   4.774984   5.692981   5.527256   6.312517
    42  H    5.887138   6.825738   7.299392   7.242433   7.658233
    43  H    7.501780   7.825265   8.022161   8.791180   8.925881
    44  H    6.476353   6.381018   6.531350   7.727398   7.810485
                   36         37         38         39         40
    36  H    0.000000
    37  C    6.533903   0.000000
    38  C    7.957350   1.511570   0.000000
    39  C    8.711805   2.523612   1.339041   0.000000
    40  H    6.232600   1.096577   2.145216   2.639026   0.000000
    41  H    6.726899   1.097410   2.089280   3.147898   1.765160
    42  H    8.517388   2.221618   1.089317   2.097584   3.102267
    43  H    9.750404   3.507716   2.110048   1.086249   3.721717
    44  H    8.449961   2.789351   2.124355   1.085288   2.449886
                   41         42         43         44
    41  H    0.000000
    42  H    2.522531   0.000000
    43  H    4.048193   2.421803   0.000000
    44  H    3.464071   3.079121   1.855412   0.000000
 Stoichiometry    C14H26O3Si
 Framework group  C1[X(C14H26O3Si)]
 Deg. of freedom   126
 Full point group                 C1      NOp   1
 Largest Abelian subgroup         C1      NOp   1
 Largest concise Abelian subgroup C1      NOp   1
                         Standard orientation:                         
 ---------------------------------------------------------------------
 Center     Atomic      Atomic             Coordinates (Angstroms)
 Number     Number       Type             X           Y           Z
 ---------------------------------------------------------------------
      1          6           0       -2.308399    0.210954   -0.160024
      2          6           0       -0.973926   -0.141685   -0.834705
      3          6           0        0.144009    0.783405   -0.244368
      4          6           0       -0.100725    1.101048    1.249010
      5          6           0       -1.087648    0.202137    1.937569
      6          1           0       -2.522302    1.283234   -0.244122
      7          1           0       -0.738345   -1.172754   -0.549469
      8          1           0        0.840576    1.073786    1.809683
      9          1           0       -0.523483    2.104932    1.382782
     10          8           0       -2.207406   -0.104697    1.245273
     11          8           0       -0.938509   -0.164722    3.098141
     12          6           0       -3.540308   -0.539558   -0.693370
     13          6           0       -3.468443   -2.055516   -0.548559
     14          6           0       -1.038194   -0.131554   -2.366399
     15          8           0        1.467599    0.257861   -0.486784
     16         14           0        2.121844   -1.221464   -0.068594
     17          6           0        3.984074   -1.009729    0.181184
     18          6           0        1.433015   -1.977504    1.495994
     19          6           0        1.887620   -2.458530   -1.472102
     20          1           0        1.950695   -2.914550    1.724259
     21          1           0        1.569258   -1.307843    2.349495
     22          1           0        0.369128   -2.206332    1.393487
     23          1           0        2.410919   -3.392855   -1.248413
     24          1           0        0.828679   -2.686924   -1.619969
     25          1           0        2.287451   -2.054496   -2.406709
     26          1           0        4.447871   -0.618395   -0.728870
     27          1           0        4.180094   -0.310507    0.999203
     28          1           0        4.449495   -1.969296    0.424188
     29          1           0       -1.473787    0.797473   -2.747948
     30          1           0       -0.043431   -0.255419   -2.806160
     31          1           0       -1.652582   -0.957089   -2.739237
     32          1           0       -3.721037   -0.278968   -1.741844
     33          1           0       -4.419502   -0.200710   -0.130262
     34          1           0       -2.647584   -2.480029   -1.132972
     35          1           0       -3.335411   -2.351223    0.496637
     36          1           0       -4.398792   -2.508083   -0.906986
     37          6           0        0.171113    2.160531   -1.016119
     38          6           0        1.160292    3.169295   -0.478753
     39          6           0        0.838234    4.403581   -0.071507
     40          1           0       -0.832583    2.601839   -1.034084
     41          1           0        0.468197    1.990470   -2.058774
     42          1           0        2.202456    2.854243   -0.443409
     43          1           0        1.603417    5.081090    0.296479
     44          1           0       -0.182969    4.770125   -0.096813
 ---------------------------------------------------------------------
 Rotational constants (GHZ):      0.4003679      0.3232789      0.2655266
 Standard basis: 6-311G(d) (5D, 7F)
 There are   428 symmetry adapted cartesian basis functions of A   symmetry.
 There are   410 symmetry adapted basis functions of A   symmetry.
   410 basis functions,   720 primitive gaussians,   428 cartesian basis functions
    74 alpha electrons       74 beta electrons
       nuclear repulsion energy      1647.5038354118 Hartrees.
 NAtoms=   44 NActive=   44 NUniq=   44 SFac= 1.00D+00 NAtFMM=   60 NAOKFM=F Big=F
 Integral buffers will be    131072 words long.
 Raffenetti 2 integral format.
 Two-electron integral symmetry is turned on.
 ------------------------------------------------------------------------------
 Polarizable Continuum Model (PCM)
 =================================
 Model                : PCM (using non-symmetric T matrix).
 Atomic radii         : UFF (Universal Force Field).
 Polarization charges : Total charges.
 Charge compensation  : None.
 Solution method      : On-the-fly selection.
 Cavity type          : Scaled VdW (van der Waals Surface) (Alpha=1.100).
 Cavity algorithm     : GePol (No added spheres)
                        Default sphere list used, NSphG=   44.
                        Lebedev-Laikov grids with approx.  5.0 points / Ang**2.
                        Smoothing algorithm: Karplus/York (Gamma=1.0000).
                        Polarization charges: spherical gaussians, with
                                              point-specific exponents (IZeta= 3).
                        Self-potential: point-specific (ISelfS= 7).
                        Self-field    : sphere-specific E.n sum rule (ISelfD= 2).
 Solvent              : Chloroform, Eps=   4.711300 Eps(inf)=   2.090627
 ------------------------------------------------------------------------------
 One-electron integrals computed using PRISM.
 NBasis=   410 RedAO= T EigKep=  6.76D-04  NBF=   410
 NBsUse=   410 1.00D-06 EigRej= -1.00D+00 NBFU=   410
 ExpMin= 6.54D-02 ExpMax= 6.94D+04 ExpMxC= 2.33D+03 IAcc=2 IRadAn=         4 AccDes= 0.00D+00
 Harris functional with IExCor=  908 and IRadAn=       4 diagonalized for initial guess.
 HarFok:  IExCor=  908 AccDes= 0.00D+00 IRadAn=         4 IDoV= 1 UseB2=F ITyADJ=14
 ICtDFT=  3500011 ScaDFX=  1.000000  1.000000  1.000000  1.000000
 FoFCou: FMM=F IPFlag=           0 FMFlag=      100000 FMFlg1=           0
         NFxFlg=           0 DoJE=T BraDBF=F KetDBF=T FulRan=T
         wScrn=  0.000000 ICntrl=     500 IOpCl=  0 I1Cent=   200000004 NGrid=           0
         NMat0=    1 NMatS0=      1 NMatT0=    0 NMatD0=    1 NMtDS0=    0 NMtDT0=    0
 Petite list used in FoFCou.
 Requested convergence on RMS density matrix=1.00D-08 within 128 cycles.
 Requested convergence on MAX density matrix=1.00D-06.
 Requested convergence on             energy=1.00D-06.
 No special actions if energy rises.
 Inv3:  Mode=1 IEnd=    23992752.
 Iteration    1 A*A^-1 deviation from unit magnitude is 8.66D-15 for   1834.
 Iteration    1 A*A^-1 deviation from orthogonality  is 6.88D-15 for   2059    554.
 Iteration    1 A^-1*A deviation from unit magnitude is 7.33D-15 for   2285.
 Iteration    1 A^-1*A deviation from orthogonality  is 8.39D-13 for   2516   2466.
 Error on total polarization charges =  0.01113
 SCF Done:  E(RmPW1PW91) =  -1064.37523387     A.U. after   13 cycles
            NFock= 13  Conv=0.35D-08     -V/T= 2.0036
 DoSCS=F DFT=T ScalE2(SS,OS)=  1.000000  1.000000
 Range of M.O.s used for correlation:     1   410
 NBasis=   410 NAE=    74 NBE=    74 NFC=     0 NFV=     0
 NROrb=    410 NOA=    74 NOB=    74 NVA=   336 NVB=   336
 NEqPCM:  Using equilibrium solvation (IEInf=0, Eps=   4.7113, EpsInf=   2.0906)
          Differentiating once with respect to magnetic field using GIAOs.
          Electric field/nuclear overlap derivatives assumed to be zero.
 FoFJK:  IHMeth= 1 ICntrl=    6127 DoSepK=F KAlg= 0 I1Cent=   0 FoldK=F
 IRaf=         1 NMat=   1 IRICut=       1 DoRegI=T DoRafI=F ISym2E= 0.
          There are     3 degrees of freedom in the 1st order CPHF.  IDoFFX=0 NUNeed=     3.
      3 vectors produced by pass  0 Test12= 8.29D-13 3.33D-08 XBig12= 3.47D+01 1.08D+00.
 AX will form     3 AO Fock derivatives at one time.
      3 vectors produced by pass  1 Test12= 8.29D-13 3.33D-08 XBig12= 7.49D-02 9.15D-02.
      3 vectors produced by pass  2 Test12= 8.29D-13 3.33D-08 XBig12= 7.11D-04 8.28D-03.
      3 vectors produced by pass  3 Test12= 8.29D-13 3.33D-08 XBig12= 3.80D-06 4.92D-04.
      3 vectors produced by pass  4 Test12= 8.29D-13 3.33D-08 XBig12= 9.45D-09 1.91D-05.
      3 vectors produced by pass  5 Test12= 8.29D-13 3.33D-08 XBig12= 3.12D-11 9.99D-07.
      2 vectors produced by pass  6 Test12= 8.29D-13 3.33D-08 XBig12= 8.76D-14 5.19D-08.
 InvSVY:  IOpt=1 It=  1 EMax= 8.88D-16
 Solved reduced A of dimension    20 with     3 vectors.
 Calculating GIAO nuclear magnetic shielding tensors.
 SCF GIAO Magnetic shielding tensor (ppm):
      1  C    Isotropic =   108.6923   Anisotropy =    54.3928
   XX=   100.5431   YX=     7.5910   ZX=    -3.8511
   XY=     4.1959   YY=    82.1783   ZY=   -11.0134
   XZ=     2.8241   YZ=    -8.7237   ZZ=   143.3556
   Eigenvalues:    79.0869   102.0359   144.9542
      2  C    Isotropic =   142.9638   Anisotropy =    16.1582
   XX=   153.5307   YX=    -1.3131   ZX=    -2.7820
   XY=     0.2665   YY=   136.7700   ZY=   -10.7774
   XZ=     5.8194   YZ=     2.8920   ZZ=   138.5907
   Eigenvalues:   133.6193   141.5361   153.7359
      3  C    Isotropic =   104.3003   Anisotropy =    59.3055
   XX=   134.5041   YX=   -24.0084   ZX=    -1.4794
   XY=   -18.4396   YY=    95.1112   ZY=     4.4068
   XZ=     0.7352   YZ=     4.4767   ZZ=    83.2856
   Eigenvalues:    80.3954    88.6682   143.8373
      4  C    Isotropic =   140.6545   Anisotropy =    25.8992
   XX=   146.6178   YX=     5.0789   ZX=    -6.4263
   XY=     3.4821   YY=   122.8514   ZY=    -9.2424
   XZ=    -6.5286   YZ=    -0.9955   ZZ=   152.4945
   Eigenvalues:   121.5696   142.4734   157.9207
      5  C    Isotropic =     6.3269   Anisotropy =   103.4387
   XX=   -58.3023   YX=   -61.4379   ZX=   -24.1378
   XY=   -55.2485   YY=    43.9568   ZY=     3.9892
   XZ=   -36.9295   YZ=    -2.0529   ZZ=    33.3262
   Eigenvalues:   -90.8551    34.5498    75.2861
      6  H    Isotropic =    27.9527   Anisotropy =     2.8279
   XX=    29.1509   YX=    -0.1172   ZX=     0.8063
   XY=    -0.2968   YY=    29.7167   ZY=     0.1689
   XZ=     0.5377   YZ=    -0.7577   ZZ=    24.9905
   Eigenvalues:    24.8708    29.1493    29.8379
      7  H    Isotropic =    30.0646   Anisotropy =     4.6424
   XX=    31.9946   YX=    -1.0271   ZX=     1.2215
   XY=    -1.2114   YY=    31.0447   ZY=    -0.6796
   XZ=     1.4630   YZ=    -1.0464   ZZ=    27.1543
   Eigenvalues:    26.7303    30.3039    33.1595
      8  H    Isotropic =    29.5236   Anisotropy =     4.5858
   XX=    29.1761   YX=    -0.2949   ZX=     2.4032
   XY=    -0.0421   YY=    27.7595   ZY=     0.7813
   XZ=     1.1852   YZ=    -0.6467   ZZ=    31.6353
   Eigenvalues:    27.6983    28.2918    32.5809
      9  H    Isotropic =    29.2349   Anisotropy =     5.1155
   XX=    26.3044   YX=    -0.7693   ZX=    -2.3242
   XY=     0.1699   YY=    32.2043   ZY=     0.8423
   XZ=    -1.8489   YZ=     1.1321   ZZ=    29.1960
   Eigenvalues:    25.2062    29.8532    32.6452
     10  O    Isotropic =    91.6455   Anisotropy =   193.0622
   XX=   195.0811   YX=   -14.0747   ZX=   -27.1862
   XY=   -36.5843   YY=   159.6533   ZY=    94.5194
   XZ=    13.4766   YZ=    97.0088   ZZ=   -79.7978
   Eigenvalues:  -113.3976   167.9804   220.3536
     11  O    Isotropic =  -117.0760   Anisotropy =   582.6140
   XX=  -186.6678   YX=  -177.3665   ZX=  -182.1301
   XY=  -180.4643   YY=   117.9480   ZY=   137.8236
   XZ=  -168.4214   YZ=   128.4301   ZZ=  -282.5081
   Eigenvalues:  -416.3151  -206.2461   271.3333
     12  C    Isotropic =   161.3331   Anisotropy =    20.7447
   XX=   166.4871   YX=     6.9788   ZX=     7.7158
   XY=    11.2339   YY=   161.4371   ZY=     4.9118
   XZ=     4.6705   YZ=    -2.2765   ZZ=   156.0751
   Eigenvalues:   151.8336   157.0029   175.1629
     13  C    Isotropic =   180.7465   Anisotropy =    12.0481
   XX=   179.7967   YX=    -0.1050   ZX=    -0.0953
   XY=     0.5203   YY=   188.7689   ZY=    -0.5207
   XZ=     0.8674   YZ=    -0.0349   ZZ=   173.6737
   Eigenvalues:   173.6439   179.8169   188.7785
     14  C    Isotropic =   176.4438   Anisotropy =    10.9697
   XX=   174.1116   YX=     2.0317   ZX=     1.5940
   XY=     3.6325   YY=   171.6175   ZY=    -1.1343
   XZ=    -0.3981   YZ=    -1.5229   ZZ=   183.6023
   Eigenvalues:   169.6218   175.9527   183.7570
     15  O    Isotropic =   242.8518   Anisotropy =    22.8368
   XX=   249.8288   YX=     3.1721   ZX=    -4.3385
   XY=   -13.4487   YY=   229.0287   ZY=    11.2768
   XZ=    -6.8271   YZ=     3.5733   ZZ=   249.6978
   Eigenvalues:   226.1746   244.3045   258.0763
     16  Si   Isotropic =   334.2864   Anisotropy =    51.2138
   XX=   329.3757   YX=   -23.5242   ZX=    12.1438
   XY=    -7.9106   YY=   357.4823   ZY=   -15.2150
   XZ=     2.0513   YZ=    -9.8168   ZZ=   316.0011
   Eigenvalues:   311.9207   322.5094   368.4289
     17  C    Isotropic =   186.1316   Anisotropy =    13.4206
   XX=   194.0095   YX=     3.5224   ZX=     3.0228
   XY=     0.8499   YY=   188.3457   ZY=    -0.6860
   XZ=     2.4967   YZ=    -0.2153   ZZ=   176.0396
   Eigenvalues:   175.5780   187.7382   195.0787
     18  C    Isotropic =   185.3673   Anisotropy =    11.4999
   XX=   187.1678   YX=    -6.7894   ZX=    -4.1768
   XY=    -3.4264   YY=   182.7931   ZY=    -1.4437
   XZ=    -5.8178   YZ=     0.5564   ZZ=   186.1412
   Eigenvalues:   178.0112   185.0569   193.0340
     19  C    Isotropic =   184.8512   Anisotropy =    10.3338
   XX=   180.0427   YX=    -2.8684   ZX=     3.0453
   XY=    -3.1484   YY=   187.8377   ZY=     4.9909
   XZ=     5.3258   YZ=     3.8461   ZZ=   186.6732
   Eigenvalues:   176.0984   186.7148   191.7404
     20  H    Isotropic =    32.1950   Anisotropy =    10.3529
   XX=    30.8151   YX=    -4.0781   ZX=     1.2554
   XY=    -3.6762   YY=    35.5769   ZY=    -3.7231
   XZ=     0.7048   YZ=    -3.1005   ZZ=    30.1929
   Eigenvalues:    27.9815    29.5065    39.0969
     21  H    Isotropic =    31.8517   Anisotropy =     7.3768
   XX=    29.6213   YX=    -1.3372   ZX=     0.7581
   XY=    -1.5685   YY=    30.3897   ZY=     2.5042
   XZ=     0.9589   YZ=     3.0714   ZZ=    35.5440
   Eigenvalues:    27.7036    31.0819    36.7696
     22  H    Isotropic =    32.1732   Anisotropy =     7.4566
   XX=    37.1423   YX=     0.0011   ZX=     0.3137
   XY=     0.1860   YY=    30.3749   ZY=    -1.0774
   XZ=    -0.4292   YZ=    -1.6174   ZZ=    29.0025
   Eigenvalues:    28.1766    31.1987    37.1443
     23  H    Isotropic =    32.3545   Anisotropy =    10.1933
   XX=    30.9400   YX=    -4.2216   ZX=     0.3020
   XY=    -4.2530   YY=    36.9490   ZY=     0.7629
   XZ=     0.5146   YZ=     0.4093   ZZ=    29.1744
   Eigenvalues:    28.2923    29.6211    39.1500
     24  H    Isotropic =    32.1181   Anisotropy =     7.3078
   XX=    36.5122   YX=    -0.1392   ZX=     1.2798
   XY=     0.4547   YY=    30.9023   ZY=     2.2541
   XZ=     2.3256   YZ=     2.0453   ZZ=    28.9398
   Eigenvalues:    27.3288    32.0356    36.9899
     25  H    Isotropic =    31.9621   Anisotropy =     8.0327
   XX=    30.4427   YX=    -0.3366   ZX=    -2.6860
   XY=    -0.3427   YY=    29.3484   ZY=    -0.0930
   XZ=    -3.0623   YZ=    -0.9960   ZZ=    36.0953
   Eigenvalues:    28.7593    29.8098    37.3173
     26  H    Isotropic =    31.9666   Anisotropy =     8.8764
   XX=    34.0788   YX=     1.9531   ZX=    -3.8494
   XY=     1.6263   YY=    29.1056   ZY=    -2.5395
   XZ=    -3.1470   YZ=    -2.0444   ZZ=    32.7154
   Eigenvalues:    27.9912    30.0244    37.8842
     27  H    Isotropic =    32.0695   Anisotropy =     8.5695
   XX=    32.4279   YX=     2.2826   ZX=     2.9911
   XY=     1.4256   YY=    31.5444   ZY=     4.1627
   XZ=     2.3303   YZ=     3.7188   ZZ=    32.2361
   Eigenvalues:    27.8775    30.5484    37.7825
     28  H    Isotropic =    32.3627   Anisotropy =     9.6685
   XX=    34.0251   YX=    -3.8666   ZX=     1.4395
   XY=    -4.4709   YY=    34.3212   ZY=    -1.6716
   XZ=     1.4430   YZ=    -1.5525   ZZ=    28.7417
   Eigenvalues:    28.2741    30.0055    38.8084
     29  H    Isotropic =    31.3458   Anisotropy =     8.6284
   XX=    29.1541   YX=    -1.3228   ZX=     3.0103
   XY=    -1.2241   YY=    32.1088   ZY=    -3.4175
   XZ=     2.6854   YZ=    -3.6203   ZZ=    32.7743
   Eigenvalues:    27.4640    29.4752    37.0980
     30  H    Isotropic =    30.7702   Anisotropy =     7.2323
   XX=    32.9943   YX=    -1.4516   ZX=    -2.1254
   XY=    -1.1896   YY=    26.6183   ZY=     1.1336
   XZ=    -2.6762   YZ=     1.1586   ZZ=    32.6980
   Eigenvalues:    26.2770    30.4419    35.5918
     31  H    Isotropic =    31.1566   Anisotropy =     8.4596
   XX=    30.5690   YX=     3.8269   ZX=     1.4494
   XY=     3.7057   YY=    30.3899   ZY=     2.9311
   XZ=     1.4981   YZ=     3.3492   ZZ=    32.5108
   Eigenvalues:    26.4012    30.2722    36.7963
     32  H    Isotropic =    30.3892   Anisotropy =     7.1818
   XX=    31.3149   YX=     0.3979   ZX=     3.0594
   XY=     0.1738   YY=    27.7647   ZY=    -2.5453
   XZ=     3.0244   YZ=    -2.4321   ZZ=    32.0879
   Eigenvalues:    26.0844    29.9061    35.1770
     33  H    Isotropic =    30.1079   Anisotropy =     9.9382
   XX=    35.3064   YX=    -2.2163   ZX=    -2.5940
   XY=    -2.2316   YY=    29.5202   ZY=     1.5950
   XZ=    -2.0436   YZ=     1.7579   ZZ=    25.4972
   Eigenvalues:    24.6681    28.9223    36.7334
     34  H    Isotropic =    31.2814   Anisotropy =     6.1630
   XX=    32.6192   YX=    -0.1928   ZX=    -2.9123
   XY=    -0.8104   YY=    33.1817   ZY=     2.9237
   XZ=    -2.6352   YZ=     2.2938   ZZ=    28.0432
   Eigenvalues:    26.0595    32.3946    35.3900
     35  H    Isotropic =    30.7847   Anisotropy =     7.6706
   XX=    27.8707   YX=     2.3970   ZX=     0.4978
   XY=     2.0770   YY=    31.3653   ZY=    -3.6966
   XZ=     0.4750   YZ=    -3.1336   ZZ=    33.1180
   Eigenvalues:    26.1237    30.3319    35.8984
     36  H    Isotropic =    31.1894   Anisotropy =    11.9575
   XX=    34.4085   YX=     4.8577   ZX=     2.3020
   XY=     5.4038   YY=    32.2135   ZY=     1.5536
   XZ=     2.4124   YZ=     1.2452   ZZ=    26.9461
   Eigenvalues:    26.2615    28.1457    39.1610
     37  C    Isotropic =   137.8758   Anisotropy =    18.6392
   XX=   130.0281   YX=     3.5270   ZX=     0.2002
   XY=    -3.9534   YY=   147.6877   ZY=   -10.2337
   XZ=     7.1533   YZ=    -1.6632   ZZ=   135.9115
   Eigenvalues:   127.9210   135.4044   150.3019
     38  C    Isotropic =    42.5380   Anisotropy =   181.7087
   XX=   -76.4038   YX=    -4.5971   ZX=   -33.9767
   XY=    -8.6848   YY=    60.9750   ZY=   -39.9878
   XZ=   -36.8932   YZ=   -41.4515   ZZ=   143.0427
   Eigenvalues:   -83.1926    47.1293   163.6771
     39  C    Isotropic =    64.8685   Anisotropy =   139.7772
   XX=   -39.3913   YX=   -17.2608   ZX=   -37.4898
   XY=   -17.5656   YY=    93.7150   ZY=   -26.3061
   XZ=   -39.7532   YZ=   -31.1675   ZZ=   140.2819
   Eigenvalues:   -51.0261    87.5783   158.0534
     40  H    Isotropic =    30.1153   Anisotropy =     6.7400
   XX=    30.2197   YX=    -1.1645   ZX=     1.6782
   XY=    -0.4196   YY=    34.2104   ZY=    -0.9198
   XZ=     2.0376   YZ=    -1.2513   ZZ=    25.9159
   Eigenvalues:    25.1626    30.5747    34.6087
     41  H    Isotropic =    29.4404   Anisotropy =     3.7821
   XX=    26.2510   YX=     2.4112   ZX=    -0.3831
   XY=     2.8148   YY=    30.5335   ZY=    -1.1751
   XZ=    -0.2223   YZ=     0.8350   ZZ=    31.5367
   Eigenvalues:    25.0078    31.3516    31.9618
     42  H    Isotropic =    25.5674   Anisotropy =     7.6719
   XX=    23.5804   YX=     2.8820   ZX=    -0.3472
   XY=     1.1152   YY=    30.1114   ZY=     0.5503
   XZ=    -0.7433   YZ=     0.2556   ZZ=    23.0105
   Eigenvalues:    22.3763    23.6439    30.6820
     43  H    Isotropic =    26.6869   Anisotropy =     7.0441
   XX=    23.4971   YX=    -0.4706   ZX=    -0.7157
   XY=     1.8204   YY=    31.0809   ZY=     1.5589
   XZ=     0.0233   YZ=     0.8984   ZZ=    25.4826
   Eigenvalues:    23.3332    25.3444    31.3830
     44  H    Isotropic =    26.7919   Anisotropy =     7.4305
   XX=    23.2038   YX=    -0.1005   ZX=    -0.1642
   XY=    -2.2612   YY=    31.4868   ZY=     0.4272
   XZ=    -1.3218   YZ=     0.8817   ZZ=    25.6852
   Eigenvalues:    22.8865    25.7437    31.7456
 End of Minotr F.D. properties file   721 does not exist.
 End of Minotr F.D. properties file   722 does not exist.
 End of Minotr F.D. properties file   788 does not exist.

 **********************************************************************

            Population analysis using the SCF density.

 **********************************************************************

 Orbital symmetries:
       Occupied  (A) (A) (A) (A) (A) (A) (A) (A) (A) (A) (A) (A)
                 (A) (A) (A) (A) (A) (A) (A) (A) (A) (A) (A) (A)
                 (A) (A) (A) (A) (A) (A) (A) (A) (A) (A) (A) (A)
                 (A) (A) (A) (A) (A) (A) (A) (A) (A) (A) (A) (A)
                 (A) (A) (A) (A) (A) (A) (A) (A) (A) (A) (A) (A)
                 (A) (A) (A) (A) (A) (A) (A) (A) (A) (A) (A) (A)
                 (A) (A)
       Virtual   (A) (A) (A) (A) (A) (A) (A) (A) (A) (A) (A) (A)
                 (A) (A) (A) (A) (A) (A) (A) (A) (A) (A) (A) (A)
                 (A) (A) (A) (A) (A) (A) (A) (A) (A) (A) (A) (A)
                 (A) (A) (A) (A) (A) (A) (A) (A) (A) (A) (A) (A)
                 (A) (A) (A) (A) (A) (A) (A) (A) (A) (A) (A) (A)
                 (A) (A) (A) (A) (A) (A) (A) (A) (A) (A) (A) (A)
                 (A) (A) (A) (A) (A) (A) (A) (A) (A) (A) (A) (A)
                 (A) (A) (A) (A) (A) (A) (A) (A) (A) (A) (A) (A)
                 (A) (A) (A) (A) (A) (A) (A) (A) (A) (A) (A) (A)
                 (A) (A) (A) (A) (A) (A) (A) (A) (A) (A) (A) (A)
                 (A) (A) (A) (A) (A) (A) (A) (A) (A) (A) (A) (A)
                 (A) (A) (A) (A) (A) (A) (A) (A) (A) (A) (A) (A)
                 (A) (A) (A) (A) (A) (A) (A) (A) (A) (A) (A) (A)
                 (A) (A) (A) (A) (A) (A) (A) (A) (A) (A) (A) (A)
                 (A) (A) (A) (A) (A) (A) (A) (A) (A) (A) (A) (A)
                 (A) (A) (A) (A) (A) (A) (A) (A) (A) (A) (A) (A)
                 (A) (A) (A) (A) (A) (A) (A) (A) (A) (A) (A) (A)
                 (A) (A) (A) (A) (A) (A) (A) (A) (A) (A) (A) (A)
                 (A) (A) (A) (A) (A) (A) (A) (A) (A) (A) (A) (A)
                 (A) (A) (A) (A) (A) (A) (A) (A) (A) (A) (A) (A)
                 (A) (A) (A) (A) (A) (A) (A) (A) (A) (A) (A) (A)
                 (A) (A) (A) (A) (A) (A) (A) (A) (A) (A) (A) (A)
                 (A) (A) (A) (A) (A) (A) (A) (A) (A) (A) (A) (A)
                 (A) (A) (A) (A) (A) (A) (A) (A) (A) (A) (A) (A)
                 (A) (A) (A) (A) (A) (A) (A) (A) (A) (A) (A) (A)
                 (A) (A) (A) (A) (A) (A) (A) (A) (A) (A) (A) (A)
                 (A) (A) (A) (A) (A) (A) (A) (A) (A) (A) (A) (A)
                 (A) (A) (A) (A) (A) (A) (A) (A) (A) (A) (A) (A)
 The electronic state is 1-A.
 Alpha  occ. eigenvalues --  -66.26784 -19.26422 -19.21332 -19.19761 -10.37023
 Alpha  occ. eigenvalues --  -10.32509 -10.31020 -10.26050 -10.25258 -10.24189
 Alpha  occ. eigenvalues --  -10.24148 -10.24147 -10.23226 -10.22800 -10.22251
 Alpha  occ. eigenvalues --  -10.20445 -10.20419 -10.20392  -5.32635  -3.66482
 Alpha  occ. eigenvalues --   -3.66245  -3.66216  -1.13578  -1.04851  -1.04173
 Alpha  occ. eigenvalues --   -0.86157  -0.83350  -0.80442  -0.77964  -0.74011
 Alpha  occ. eigenvalues --   -0.72850  -0.72210  -0.70048  -0.69827  -0.67361
 Alpha  occ. eigenvalues --   -0.63104  -0.62488  -0.58459  -0.56185  -0.54024
 Alpha  occ. eigenvalues --   -0.52934  -0.51164  -0.48940  -0.48738  -0.46834
 Alpha  occ. eigenvalues --   -0.46196  -0.45704  -0.44953  -0.44504  -0.43366
 Alpha  occ. eigenvalues --   -0.42953  -0.42557  -0.42237  -0.41906  -0.41093
 Alpha  occ. eigenvalues --   -0.40657  -0.40411  -0.39939  -0.39455  -0.38854
 Alpha  occ. eigenvalues --   -0.38512  -0.38143  -0.37564  -0.36612  -0.36226
 Alpha  occ. eigenvalues --   -0.35836  -0.35114  -0.33357  -0.32301  -0.31181
 Alpha  occ. eigenvalues --   -0.30400  -0.28620  -0.28385  -0.27183
 Alpha virt. eigenvalues --    0.00209   0.01207   0.03759   0.04879   0.05551
 Alpha virt. eigenvalues --    0.06482   0.07721   0.07939   0.08445   0.08896
 Alpha virt. eigenvalues --    0.09416   0.10328   0.10362   0.10764   0.11650
 Alpha virt. eigenvalues --    0.12011   0.12182   0.12838   0.13157   0.13603
 Alpha virt. eigenvalues --    0.13795   0.14446   0.14988   0.15169   0.15427
 Alpha virt. eigenvalues --    0.15869   0.16612   0.17221   0.17994   0.18645
 Alpha virt. eigenvalues --    0.18890   0.19130   0.19790   0.20295   0.20814
 Alpha virt. eigenvalues --    0.21842   0.22451   0.23762   0.23983   0.24168
 Alpha virt. eigenvalues --    0.24463   0.25929   0.26728   0.27223   0.28266
 Alpha virt. eigenvalues --    0.28722   0.30371   0.31707   0.32400   0.33325
 Alpha virt. eigenvalues --    0.33617   0.34404   0.34879   0.35377   0.35869
 Alpha virt. eigenvalues --    0.36064   0.38173   0.38901   0.39496   0.40150
 Alpha virt. eigenvalues --    0.41026   0.42246   0.42607   0.44357   0.44827
 Alpha virt. eigenvalues --    0.45734   0.45857   0.46102   0.46341   0.48456
 Alpha virt. eigenvalues --    0.49284   0.50683   0.51456   0.51889   0.52787
 Alpha virt. eigenvalues --    0.53321   0.54125   0.54647   0.55334   0.55643
 Alpha virt. eigenvalues --    0.56368   0.56665   0.57317   0.58306   0.58472
 Alpha virt. eigenvalues --    0.59419   0.59648   0.59746   0.60837   0.61050
 Alpha virt. eigenvalues --    0.61437   0.62162   0.62462   0.62778   0.63183
 Alpha virt. eigenvalues --    0.63652   0.63860   0.64303   0.64916   0.65126
 Alpha virt. eigenvalues --    0.65978   0.66277   0.66940   0.67513   0.68265
 Alpha virt. eigenvalues --    0.68836   0.69394   0.69748   0.70333   0.71130
 Alpha virt. eigenvalues --    0.72186   0.72567   0.73248   0.74570   0.74964
 Alpha virt. eigenvalues --    0.77013   0.77800   0.78291   0.79525   0.81952
 Alpha virt. eigenvalues --    0.83543   0.84909   0.86907   0.88244   0.89184
 Alpha virt. eigenvalues --    0.89878   0.90783   0.92172   0.94276   0.94688
 Alpha virt. eigenvalues --    0.95835   0.96588   0.97550   0.98847   0.99278
 Alpha virt. eigenvalues --    1.02238   1.03104   1.05478   1.08903   1.10722
 Alpha virt. eigenvalues --    1.11765   1.14551   1.16174   1.18466   1.19917
 Alpha virt. eigenvalues --    1.21822   1.22856   1.26076   1.26821   1.27957
 Alpha virt. eigenvalues --    1.29047   1.29845   1.31894   1.32905   1.33417
 Alpha virt. eigenvalues --    1.36277   1.37120   1.39561   1.40525   1.41864
 Alpha virt. eigenvalues --    1.42982   1.44902   1.45861   1.46893   1.48845
 Alpha virt. eigenvalues --    1.50050   1.50897   1.52052   1.52587   1.54055
 Alpha virt. eigenvalues --    1.54946   1.55552   1.56787   1.57589   1.58659
 Alpha virt. eigenvalues --    1.58938   1.59815   1.60246   1.60666   1.61648
 Alpha virt. eigenvalues --    1.62281   1.63051   1.63226   1.64126   1.64829
 Alpha virt. eigenvalues --    1.65476   1.66246   1.67471   1.68485   1.68808
 Alpha virt. eigenvalues --    1.70598   1.71763   1.72840   1.73739   1.74828
 Alpha virt. eigenvalues --    1.77333   1.77822   1.79315   1.79518   1.80910
 Alpha virt. eigenvalues --    1.82016   1.82659   1.83698   1.85405   1.87569
 Alpha virt. eigenvalues --    1.89367   1.91668   1.93003   1.93728   1.96942
 Alpha virt. eigenvalues --    1.99651   2.01640   2.03528   2.07294   2.11930
 Alpha virt. eigenvalues --    2.16116   2.16847   2.18683   2.22350   2.23838
 Alpha virt. eigenvalues --    2.27674   2.30786   2.34638   2.37773   2.40189
 Alpha virt. eigenvalues --    2.41796   2.42336   2.42786   2.43019   2.44193
 Alpha virt. eigenvalues --    2.44881   2.45244   2.46380   2.47299   2.48337
 Alpha virt. eigenvalues --    2.48894   2.49281   2.50496   2.52081   2.53375
 Alpha virt. eigenvalues --    2.53847   2.54161   2.56610   2.56667   2.58026
 Alpha virt. eigenvalues --    2.61101   2.64455   2.69259   2.71833   2.79944
 Alpha virt. eigenvalues --    2.82176   2.87860   2.89198   2.90632   2.90920
 Alpha virt. eigenvalues --    2.91754   2.92607   2.93793   2.94853   2.96853
 Alpha virt. eigenvalues --    2.99586   3.01687   3.02084   3.04618   3.07596
 Alpha virt. eigenvalues --    3.10007   3.10451   3.10958   3.13219   3.15310
 Alpha virt. eigenvalues --    3.15970   3.16342   3.17573   3.20992   3.21663
 Alpha virt. eigenvalues --    3.22315   3.23485   3.23947   3.24892   3.25622
 Alpha virt. eigenvalues --    3.27253   3.27696   3.29090   3.30207   3.32403
 Alpha virt. eigenvalues --    3.33583   3.34501   3.35113   3.39402   3.40576
 Alpha virt. eigenvalues --    3.44821   3.51445   3.55414   3.59160   3.61975
 Alpha virt. eigenvalues --    3.76209   3.87282   3.91955   3.94957   4.03974
 Alpha virt. eigenvalues --    4.08690   4.10096   4.18935   4.23097   4.25779
 Alpha virt. eigenvalues --    4.96816   5.01171   5.01490   5.08770   5.15230
 Alpha virt. eigenvalues --    5.25562   5.51362   5.53351   5.78561   5.85800
 Alpha virt. eigenvalues --   11.52698  11.54000  11.60288  23.41483  23.49701
 Alpha virt. eigenvalues --   23.54880  23.55743  23.58764  23.60981  23.72215
 Alpha virt. eigenvalues --   23.74568  23.77971  23.80386  23.81078  23.84170
 Alpha virt. eigenvalues --   23.90475  24.27153  49.99119  50.04968  50.12264
 Alpha virt. eigenvalues --  141.30955
          Condensed to atoms (all electrons):
               1          2          3          4          5          6
     1  C    5.215992   0.273349  -0.065389  -0.022572  -0.065548   0.398885
     2  C    0.273349   5.532713   0.349275  -0.048192  -0.016173  -0.052183
     3  C   -0.065389   0.349275   5.122768   0.201026  -0.025845  -0.009103
     4  C   -0.022572  -0.048192   0.201026   5.859084   0.259022   0.001331
     5  C   -0.065548  -0.016173  -0.025845   0.259022   4.423515  -0.004478
     6  H    0.398885  -0.052183  -0.009103   0.001331  -0.004478   0.471946
     7  H   -0.047748   0.398007  -0.047879  -0.003451   0.000883   0.007339
     8  H    0.000328   0.004245  -0.025909   0.367971  -0.027390  -0.000250
     9  H   -0.000295   0.003748  -0.036815   0.366463  -0.030278   0.000305
    10  O    0.199058  -0.032931   0.001348  -0.101239   0.334707  -0.027656
    11  O    0.003469  -0.001583   0.005404  -0.099553   0.652790  -0.000210
    12  C    0.334953  -0.049054   0.006743  -0.000623   0.002949  -0.049309
    13  C   -0.080887  -0.004981  -0.000221  -0.000084  -0.000154   0.007902
    14  C   -0.055164   0.265023  -0.059244   0.006204   0.000277   0.002324
    15  O    0.003900  -0.036311   0.224340  -0.040803   0.001002   0.000100
    16  Si   0.002491  -0.002246  -0.049366  -0.006781   0.000002   0.000190
    17  C    0.000004  -0.000082   0.002300  -0.000355  -0.000001   0.000000
    18  C   -0.000225  -0.002533  -0.003517  -0.002989  -0.005147  -0.000031
    19  C    0.000057  -0.002522   0.000670  -0.000211  -0.000086  -0.000007
    20  H    0.000004   0.000090   0.000001   0.000102   0.000180   0.000000
    21  H    0.000005   0.000350   0.000244  -0.001965  -0.001555  -0.000002
    22  H   -0.000371  -0.000592  -0.000137   0.000723   0.002191  -0.000005
    23  H    0.000000   0.000094  -0.000079   0.000008  -0.000003   0.000000
    24  H    0.000029  -0.000790   0.000319   0.000006   0.000001  -0.000013
    25  H   -0.000021   0.000026   0.000289  -0.000037   0.000000   0.000001
    26  H    0.000000  -0.000018  -0.000076  -0.000027   0.000000   0.000000
    27  H    0.000001  -0.000011  -0.000037   0.000036   0.000002   0.000000
    28  H    0.000000   0.000006  -0.000060   0.000000  -0.000001   0.000000
    29  H   -0.002689  -0.040096  -0.008677  -0.000167   0.000014   0.002324
    30  H    0.005627  -0.035579  -0.004338   0.000684  -0.000087  -0.000245
    31  H   -0.007132  -0.030853   0.006638  -0.000200  -0.000031  -0.000471
    32  H   -0.034208  -0.008188  -0.000277   0.000084  -0.000038   0.000137
    33  H   -0.044175   0.008885  -0.000144   0.000144  -0.000239  -0.007185
    34  H   -0.008682   0.006789   0.000442  -0.000007  -0.000071  -0.000484
    35  H   -0.009119  -0.000318  -0.000265   0.000458   0.000529   0.000457
    36  H    0.008389  -0.000346   0.000002  -0.000002   0.000012  -0.000172
    37  C   -0.001282  -0.083082   0.307977  -0.081607   0.004127   0.004904
    38  C   -0.000295   0.007803  -0.049037  -0.025136   0.000487  -0.000102
    39  C   -0.000031  -0.000074  -0.003002   0.001262   0.000032  -0.000045
    40  H    0.001046  -0.002646  -0.038742   0.000949  -0.000229   0.005860
    41  H    0.000688  -0.010812  -0.036583   0.006991  -0.000164  -0.000034
    42  H   -0.000035   0.000110  -0.002346  -0.000216  -0.000010   0.000004
    43  H   -0.000001   0.000017  -0.000327   0.000078   0.000000  -0.000004
    44  H   -0.000008  -0.000055   0.000079   0.000045  -0.000005   0.000018
               7          8          9         10         11         12
     1  C   -0.047748   0.000328  -0.000295   0.199058   0.003469   0.334953
     2  C    0.398007   0.004245   0.003748  -0.032931  -0.001583  -0.049054
     3  C   -0.047879  -0.025909  -0.036815   0.001348   0.005404   0.006743
     4  C   -0.003451   0.367971   0.366463  -0.101239  -0.099553  -0.000623
     5  C    0.000883  -0.027390  -0.030278   0.334707   0.652790   0.002949
     6  H    0.007339  -0.000250   0.000305  -0.027656  -0.000210  -0.049309
     7  H    0.464948  -0.000408  -0.000202   0.003852  -0.001004  -0.009310
     8  H   -0.000408   0.395467  -0.012047   0.004326   0.007333   0.000101
     9  H   -0.000202  -0.012047   0.408305   0.000609   0.000955   0.000117
    10  O    0.003852   0.004326   0.000609   8.036649  -0.068066  -0.052584
    11  O   -0.001004   0.007333   0.000955  -0.068066   7.884944  -0.000100
    12  C   -0.009310   0.000101   0.000117  -0.052584  -0.000100   5.325610
    13  C    0.002983   0.000000  -0.000003  -0.000580  -0.000036   0.290756
    14  C   -0.039930  -0.000155  -0.000270   0.004730  -0.000008  -0.009658
    15  O   -0.005324  -0.002990   0.002697  -0.000034  -0.000004  -0.000079
    16  Si   0.007620  -0.000290   0.000490  -0.000764  -0.002258  -0.000453
    17  C   -0.000085  -0.000115  -0.000011   0.000000   0.000002   0.000000
    18  C    0.002516  -0.000293   0.000163  -0.000450  -0.000784   0.000034
    19  C    0.003294   0.000036   0.000009   0.000006  -0.000001   0.000015
    20  H    0.000051   0.000077  -0.000003   0.000000   0.000015   0.000000
    21  H   -0.000439   0.003275   0.000078   0.000213   0.008699   0.000007
    22  H    0.003725  -0.000421   0.000017   0.000128   0.000881  -0.000013
    23  H   -0.000086   0.000000   0.000000   0.000000   0.000000   0.000000
    24  H    0.003617   0.000002   0.000002  -0.000024   0.000001   0.000017
    25  H   -0.000085  -0.000006   0.000001   0.000000   0.000000  -0.000001
    26  H    0.000004  -0.000027   0.000000   0.000000   0.000000   0.000000
    27  H   -0.000003   0.000133  -0.000009   0.000000   0.000001   0.000000
    28  H    0.000020   0.000008   0.000000   0.000000   0.000000   0.000000
    29  H    0.006838  -0.000005  -0.000026   0.000050  -0.000001  -0.002291
    30  H   -0.004496  -0.000014  -0.000035  -0.000137   0.000000   0.000310
    31  H   -0.008770   0.000012   0.000020   0.000052   0.000000   0.001078
    32  H    0.000492  -0.000005  -0.000006   0.003084   0.000006   0.388655
    33  H   -0.000649  -0.000004  -0.000026   0.002486  -0.000020   0.402741
    34  H   -0.003721   0.000001   0.000000  -0.000495   0.000004  -0.036010
    35  H    0.000170  -0.000017  -0.000006   0.011020   0.000129  -0.041045
    36  H    0.000312   0.000000   0.000000  -0.000070  -0.000001  -0.036538
    37  C    0.005597  -0.002085  -0.010052  -0.000363  -0.000090  -0.000502
    38  C   -0.000062   0.000935   0.002889  -0.000035  -0.000015   0.000009
    39  C   -0.000002   0.000416   0.005497   0.000000   0.000001   0.000000
    40  H    0.000333   0.000111  -0.001624  -0.000173   0.000013   0.000129
    41  H   -0.000212  -0.000145   0.001277  -0.000026   0.000005  -0.000027
    42  H    0.000021   0.000263   0.000144   0.000001   0.000002   0.000001
    43  H   -0.000001   0.000019   0.000067   0.000000   0.000000   0.000000
    44  H    0.000001  -0.000001   0.000314   0.000002   0.000000   0.000000
              13         14         15         16         17         18
     1  C   -0.080887  -0.055164   0.003900   0.002491   0.000004  -0.000225
     2  C   -0.004981   0.265023  -0.036311  -0.002246  -0.000082  -0.002533
     3  C   -0.000221  -0.059244   0.224340  -0.049366   0.002300  -0.003517
     4  C   -0.000084   0.006204  -0.040803  -0.006781  -0.000355  -0.002989
     5  C   -0.000154   0.000277   0.001002   0.000002  -0.000001  -0.005147
     6  H    0.007902   0.002324   0.000100   0.000190   0.000000  -0.000031
     7  H    0.002983  -0.039930  -0.005324   0.007620  -0.000085   0.002516
     8  H    0.000000  -0.000155  -0.002990  -0.000290  -0.000115  -0.000293
     9  H   -0.000003  -0.000270   0.002697   0.000490  -0.000011   0.000163
    10  O   -0.000580   0.004730  -0.000034  -0.000764   0.000000  -0.000450
    11  O   -0.000036  -0.000008  -0.000004  -0.002258   0.000002  -0.000784
    12  C    0.290756  -0.009658  -0.000079  -0.000453   0.000000   0.000034
    13  C    5.383572  -0.002483   0.000001   0.000129   0.000000  -0.000065
    14  C   -0.002483   5.441195  -0.001023  -0.001860  -0.000008   0.000159
    15  O    0.000001  -0.001023   8.253223   0.350758  -0.022990  -0.020483
    16  Si   0.000129  -0.001860   0.350758  11.544952   0.327702   0.322546
    17  C    0.000000  -0.000008  -0.022990   0.327702   5.732335  -0.050436
    18  C   -0.000065   0.000159  -0.020483   0.322546  -0.050436   5.803874
    19  C   -0.000052  -0.000471  -0.025827   0.314099  -0.056086  -0.057737
    20  H    0.000000  -0.000006   0.000693  -0.009542  -0.000890   0.366165
    21  H   -0.000001  -0.000018  -0.001929  -0.029610  -0.000123   0.365223
    22  H    0.000215   0.000184  -0.000677  -0.030052   0.002831   0.364585
    23  H    0.000000   0.000066   0.001027  -0.012624   0.000221   0.000163
    24  H    0.000152  -0.000725  -0.001549  -0.030886   0.002727  -0.001868
    25  H    0.000001   0.000321  -0.002556  -0.026054  -0.000782   0.002350
    26  H    0.000000  -0.000002  -0.001507  -0.025030   0.369301   0.002573
    27  H    0.000000   0.000000  -0.001476  -0.027143   0.369465  -0.000456
    28  H    0.000000   0.000000   0.000919  -0.012457   0.364174  -0.000469
    29  H    0.000426   0.389112  -0.000032   0.000031   0.000000  -0.000008
    30  H   -0.000175   0.386913   0.006092   0.001905  -0.000018   0.000047
    31  H    0.000343   0.388876  -0.000081  -0.000357   0.000000   0.000005
    32  H   -0.037295   0.003210  -0.000004  -0.000020   0.000000  -0.000001
    33  H   -0.046151  -0.000399   0.000004   0.000025   0.000000   0.000000
    34  H    0.382175  -0.000545   0.000006   0.000072   0.000000  -0.000040
    35  H    0.385307   0.000337   0.000003   0.000031   0.000000  -0.000008
    36  H    0.391786   0.000072   0.000000  -0.000012   0.000000   0.000000
    37  C    0.000006  -0.019010  -0.076217   0.003761   0.000045  -0.000230
    38  C    0.000000  -0.000089   0.004189   0.000047  -0.000063  -0.000017
    39  C    0.000000  -0.000026   0.000751   0.000154  -0.000002   0.000001
    40  H    0.000008  -0.000603   0.003926   0.000116   0.000003   0.000017
    41  H   -0.000001   0.002268   0.001530   0.000452  -0.000009   0.000032
    42  H    0.000000  -0.000076   0.006441   0.000756   0.000109   0.000017
    43  H    0.000000   0.000000   0.000006  -0.000001   0.000000   0.000000
    44  H    0.000000  -0.000011  -0.000002  -0.000002   0.000000   0.000000
              19         20         21         22         23         24
     1  C    0.000057   0.000004   0.000005  -0.000371   0.000000   0.000029
     2  C   -0.002522   0.000090   0.000350  -0.000592   0.000094  -0.000790
     3  C    0.000670   0.000001   0.000244  -0.000137  -0.000079   0.000319
     4  C   -0.000211   0.000102  -0.001965   0.000723   0.000008   0.000006
     5  C   -0.000086   0.000180  -0.001555   0.002191  -0.000003   0.000001
     6  H   -0.000007   0.000000  -0.000002  -0.000005   0.000000  -0.000013
     7  H    0.003294   0.000051  -0.000439   0.003725  -0.000086   0.003617
     8  H    0.000036   0.000077   0.003275  -0.000421   0.000000   0.000002
     9  H    0.000009  -0.000003   0.000078   0.000017   0.000000   0.000002
    10  O    0.000006   0.000000   0.000213   0.000128   0.000000  -0.000024
    11  O   -0.000001   0.000015   0.008699   0.000881   0.000000   0.000001
    12  C    0.000015   0.000000   0.000007  -0.000013   0.000000   0.000017
    13  C   -0.000052   0.000000  -0.000001   0.000215   0.000000   0.000152
    14  C   -0.000471  -0.000006  -0.000018   0.000184   0.000066  -0.000725
    15  O   -0.025827   0.000693  -0.001929  -0.000677   0.001027  -0.001549
    16  Si   0.314099  -0.009542  -0.029610  -0.030052  -0.012624  -0.030886
    17  C   -0.056086  -0.000890  -0.000123   0.002831   0.000221   0.002727
    18  C   -0.057737   0.366165   0.365223   0.364585   0.000163  -0.001868
    19  C    5.780547  -0.000330   0.002169  -0.001136   0.363709   0.367945
    20  H   -0.000330   0.434290  -0.019743  -0.019356   0.000463   0.000025
    21  H    0.002169  -0.019743   0.438769  -0.017708  -0.000062  -0.000072
    22  H   -0.001136  -0.019356  -0.017708   0.438902   0.000100   0.000770
    23  H    0.363709   0.000463  -0.000062   0.000100   0.453302  -0.021890
    24  H    0.367945   0.000025  -0.000072   0.000770  -0.021890   0.455699
    25  H    0.371056  -0.000033  -0.000112   0.000016  -0.021618  -0.018721
    26  H   -0.001178  -0.000059  -0.000038  -0.000099  -0.000052  -0.000112
    27  H    0.002497  -0.000094   0.001283  -0.000121  -0.000012  -0.000116
    28  H    0.000674   0.000528  -0.000046  -0.000080   0.000744  -0.000083
    29  H    0.000019   0.000000   0.000001  -0.000007  -0.000002   0.000061
    30  H   -0.001131   0.000001   0.000005   0.000017   0.000166  -0.000681
    31  H    0.000111   0.000000   0.000000   0.000002  -0.000014   0.000306
    32  H    0.000000   0.000000  -0.000001   0.000006   0.000000   0.000000
    33  H    0.000000   0.000000   0.000000  -0.000001   0.000000   0.000002
    34  H    0.000038   0.000001   0.000001  -0.000005   0.000001   0.000620
    35  H   -0.000004  -0.000001  -0.000012   0.000356   0.000000  -0.000007
    36  H    0.000000   0.000000   0.000000  -0.000009   0.000000  -0.000011
    37  C   -0.000208   0.000003  -0.000090  -0.000059   0.000005  -0.000013
    38  C    0.000018   0.000000  -0.000028   0.000002   0.000000   0.000004
    39  C    0.000000   0.000000  -0.000001   0.000000   0.000000   0.000000
    40  H    0.000002   0.000000   0.000002   0.000002   0.000000  -0.000003
    41  H   -0.000017   0.000000   0.000007  -0.000002  -0.000001  -0.000008
    42  H    0.000003   0.000000   0.000007   0.000000   0.000000   0.000000
    43  H    0.000000   0.000000   0.000000   0.000000   0.000000   0.000000
    44  H    0.000000   0.000000   0.000000   0.000000   0.000000   0.000000
              25         26         27         28         29         30
     1  C   -0.000021   0.000000   0.000001   0.000000  -0.002689   0.005627
     2  C    0.000026  -0.000018  -0.000011   0.000006  -0.040096  -0.035579
     3  C    0.000289  -0.000076  -0.000037  -0.000060  -0.008677  -0.004338
     4  C   -0.000037  -0.000027   0.000036   0.000000  -0.000167   0.000684
     5  C    0.000000   0.000000   0.000002  -0.000001   0.000014  -0.000087
     6  H    0.000001   0.000000   0.000000   0.000000   0.002324  -0.000245
     7  H   -0.000085   0.000004  -0.000003   0.000020   0.006838  -0.004496
     8  H   -0.000006  -0.000027   0.000133   0.000008  -0.000005  -0.000014
     9  H    0.000001   0.000000  -0.000009   0.000000  -0.000026  -0.000035
    10  O    0.000000   0.000000   0.000000   0.000000   0.000050  -0.000137
    11  O    0.000000   0.000000   0.000001   0.000000  -0.000001   0.000000
    12  C   -0.000001   0.000000   0.000000   0.000000  -0.002291   0.000310
    13  C    0.000001   0.000000   0.000000   0.000000   0.000426  -0.000175
    14  C    0.000321  -0.000002   0.000000   0.000000   0.389112   0.386913
    15  O   -0.002556  -0.001507  -0.001476   0.000919  -0.000032   0.006092
    16  Si  -0.026054  -0.025030  -0.027143  -0.012457   0.000031   0.001905
    17  C   -0.000782   0.369301   0.369465   0.364174   0.000000  -0.000018
    18  C    0.002350   0.002573  -0.000456  -0.000469  -0.000008   0.000047
    19  C    0.371056  -0.001178   0.002497   0.000674   0.000019  -0.001131
    20  H   -0.000033  -0.000059  -0.000094   0.000528   0.000000   0.000001
    21  H   -0.000112  -0.000038   0.001283  -0.000046   0.000001   0.000005
    22  H    0.000016  -0.000099  -0.000121  -0.000080  -0.000007   0.000017
    23  H   -0.021618  -0.000052  -0.000012   0.000744  -0.000002   0.000166
    24  H   -0.018721  -0.000112  -0.000116  -0.000083   0.000061  -0.000681
    25  H    0.455412   0.001252  -0.000090   0.000015  -0.000009   0.000189
    26  H    0.001252   0.457707  -0.018487  -0.021148   0.000000  -0.000011
    27  H   -0.000090  -0.018487   0.458896  -0.021011   0.000000   0.000003
    28  H    0.000015  -0.021148  -0.021011   0.453611   0.000000   0.000000
    29  H   -0.000009   0.000000   0.000000   0.000000   0.459715  -0.023503
    30  H    0.000189  -0.000011   0.000003   0.000000  -0.023503   0.433012
    31  H    0.000037   0.000000   0.000000   0.000000  -0.026675  -0.024814
    32  H    0.000000   0.000000   0.000000   0.000000   0.000661   0.000325
    33  H    0.000000   0.000000   0.000000   0.000000  -0.000159   0.000026
    34  H   -0.000007   0.000000   0.000000   0.000000  -0.000187   0.000012
    35  H    0.000000   0.000000   0.000000   0.000000  -0.000011   0.000022
    36  H    0.000000   0.000000   0.000000   0.000000   0.000009  -0.000003
    37  C    0.000057   0.000053   0.000003   0.000001   0.002766  -0.003991
    38  C    0.000002  -0.000011   0.000007   0.000000   0.000362  -0.000222
    39  C    0.000000  -0.000001  -0.000001   0.000000  -0.000014  -0.000004
    40  H   -0.000003  -0.000001   0.000000   0.000000   0.000385   0.000224
    41  H   -0.000020  -0.000003   0.000002   0.000000  -0.002200   0.001392
    42  H   -0.000004   0.000037   0.000101  -0.000003  -0.000003   0.000010
    43  H    0.000000   0.000000   0.000000   0.000000   0.000000   0.000000
    44  H    0.000000   0.000000   0.000000   0.000000  -0.000005   0.000001
              31         32         33         34         35         36
     1  C   -0.007132  -0.034208  -0.044175  -0.008682  -0.009119   0.008389
     2  C   -0.030853  -0.008188   0.008885   0.006789  -0.000318  -0.000346
     3  C    0.006638  -0.000277  -0.000144   0.000442  -0.000265   0.000002
     4  C   -0.000200   0.000084   0.000144  -0.000007   0.000458  -0.000002
     5  C   -0.000031  -0.000038  -0.000239  -0.000071   0.000529   0.000012
     6  H   -0.000471   0.000137  -0.007185  -0.000484   0.000457  -0.000172
     7  H   -0.008770   0.000492  -0.000649  -0.003721   0.000170   0.000312
     8  H    0.000012  -0.000005  -0.000004   0.000001  -0.000017   0.000000
     9  H    0.000020  -0.000006  -0.000026   0.000000  -0.000006   0.000000
    10  O    0.000052   0.003084   0.002486  -0.000495   0.011020  -0.000070
    11  O    0.000000   0.000006  -0.000020   0.000004   0.000129  -0.000001
    12  C    0.001078   0.388655   0.402741  -0.036010  -0.041045  -0.036538
    13  C    0.000343  -0.037295  -0.046151   0.382175   0.385307   0.391786
    14  C    0.388876   0.003210  -0.000399  -0.000545   0.000337   0.000072
    15  O   -0.000081  -0.000004   0.000004   0.000006   0.000003   0.000000
    16  Si  -0.000357  -0.000020   0.000025   0.000072   0.000031  -0.000012
    17  C    0.000000   0.000000   0.000000   0.000000   0.000000   0.000000
    18  C    0.000005  -0.000001   0.000000  -0.000040  -0.000008   0.000000
    19  C    0.000111   0.000000   0.000000   0.000038  -0.000004   0.000000
    20  H    0.000000   0.000000   0.000000   0.000001  -0.000001   0.000000
    21  H    0.000000  -0.000001   0.000000   0.000001  -0.000012   0.000000
    22  H    0.000002   0.000006  -0.000001  -0.000005   0.000356  -0.000009
    23  H   -0.000014   0.000000   0.000000   0.000001   0.000000   0.000000
    24  H    0.000306   0.000000   0.000002   0.000620  -0.000007  -0.000011
    25  H    0.000037   0.000000   0.000000  -0.000007   0.000000   0.000000
    26  H    0.000000   0.000000   0.000000   0.000000   0.000000   0.000000
    27  H    0.000000   0.000000   0.000000   0.000000   0.000000   0.000000
    28  H    0.000000   0.000000   0.000000   0.000000   0.000000   0.000000
    29  H   -0.026675   0.000661  -0.000159  -0.000187  -0.000011   0.000009
    30  H   -0.024814   0.000325   0.000026   0.000012   0.000022  -0.000003
    31  H    0.450485  -0.001804   0.000251   0.004249  -0.000119  -0.000016
    32  H   -0.001804   0.468648  -0.026130  -0.005531   0.006952  -0.004351
    33  H    0.000251  -0.026130   0.470704   0.007038  -0.004000  -0.005457
    34  H    0.004249  -0.005531   0.007038   0.481750  -0.027106  -0.027095
    35  H   -0.000119   0.006952  -0.004000  -0.027106   0.459420  -0.025407
    36  H   -0.000016  -0.004351  -0.005457  -0.027095  -0.025407   0.465177
    37  C    0.000412  -0.000001   0.000004  -0.000013   0.000004   0.000001
    38  C    0.000007  -0.000001  -0.000001   0.000000   0.000000   0.000000
    39  C    0.000001   0.000000   0.000000   0.000000   0.000000   0.000000
    40  H   -0.000130   0.000033  -0.000040  -0.000003   0.000000   0.000000
    41  H    0.000432  -0.000015   0.000004   0.000002   0.000000   0.000000
    42  H    0.000001   0.000000   0.000000   0.000000   0.000000   0.000000
    43  H    0.000000   0.000000   0.000000   0.000000   0.000000   0.000000
    44  H    0.000000   0.000000   0.000000   0.000000   0.000000   0.000000
              37         38         39         40         41         42
     1  C   -0.001282  -0.000295  -0.000031   0.001046   0.000688  -0.000035
     2  C   -0.083082   0.007803  -0.000074  -0.002646  -0.010812   0.000110
     3  C    0.307977  -0.049037  -0.003002  -0.038742  -0.036583  -0.002346
     4  C   -0.081607  -0.025136   0.001262   0.000949   0.006991  -0.000216
     5  C    0.004127   0.000487   0.000032  -0.000229  -0.000164  -0.000010
     6  H    0.004904  -0.000102  -0.000045   0.005860  -0.000034   0.000004
     7  H    0.005597  -0.000062  -0.000002   0.000333  -0.000212   0.000021
     8  H   -0.002085   0.000935   0.000416   0.000111  -0.000145   0.000263
     9  H   -0.010052   0.002889   0.005497  -0.001624   0.001277   0.000144
    10  O   -0.000363  -0.000035   0.000000  -0.000173  -0.000026   0.000001
    11  O   -0.000090  -0.000015   0.000001   0.000013   0.000005   0.000002
    12  C   -0.000502   0.000009   0.000000   0.000129  -0.000027   0.000001
    13  C    0.000006   0.000000   0.000000   0.000008  -0.000001   0.000000
    14  C   -0.019010  -0.000089  -0.000026  -0.000603   0.002268  -0.000076
    15  O   -0.076217   0.004189   0.000751   0.003926   0.001530   0.006441
    16  Si   0.003761   0.000047   0.000154   0.000116   0.000452   0.000756
    17  C    0.000045  -0.000063  -0.000002   0.000003  -0.000009   0.000109
    18  C   -0.000230  -0.000017   0.000001   0.000017   0.000032   0.000017
    19  C   -0.000208   0.000018   0.000000   0.000002  -0.000017   0.000003
    20  H    0.000003   0.000000   0.000000   0.000000   0.000000   0.000000
    21  H   -0.000090  -0.000028  -0.000001   0.000002   0.000007   0.000007
    22  H   -0.000059   0.000002   0.000000   0.000002  -0.000002   0.000000
    23  H    0.000005   0.000000   0.000000   0.000000  -0.000001   0.000000
    24  H   -0.000013   0.000004   0.000000  -0.000003  -0.000008   0.000000
    25  H    0.000057   0.000002   0.000000  -0.000003  -0.000020  -0.000004
    26  H    0.000053  -0.000011  -0.000001  -0.000001  -0.000003   0.000037
    27  H    0.000003   0.000007  -0.000001   0.000000   0.000002   0.000101
    28  H    0.000001   0.000000   0.000000   0.000000   0.000000  -0.000003
    29  H    0.002766   0.000362  -0.000014   0.000385  -0.002200  -0.000003
    30  H   -0.003991  -0.000222  -0.000004   0.000224   0.001392   0.000010
    31  H    0.000412   0.000007   0.000001  -0.000130   0.000432   0.000001
    32  H   -0.000001  -0.000001   0.000000   0.000033  -0.000015   0.000000
    33  H    0.000004  -0.000001   0.000000  -0.000040   0.000004   0.000000
    34  H   -0.000013   0.000000   0.000000  -0.000003   0.000002   0.000000
    35  H    0.000004   0.000000   0.000000   0.000000   0.000000   0.000000
    36  H    0.000001   0.000000   0.000000   0.000000   0.000000   0.000000
    37  C    5.472069   0.333806  -0.065357   0.381726   0.390136  -0.047449
    38  C    0.333806   5.056060   0.615706  -0.045904  -0.044283   0.397603
    39  C   -0.065357   0.615706   5.157791   0.001728   0.000804  -0.040151
    40  H    0.381726  -0.045904   0.001728   0.464066  -0.021652   0.005293
    41  H    0.390136  -0.044283   0.000804  -0.021652   0.450180  -0.001493
    42  H   -0.047449   0.397603  -0.040151   0.005293  -0.001493   0.459056
    43  H    0.006525  -0.039538   0.392162   0.000163  -0.000394  -0.007846
    44  H   -0.008856  -0.039078   0.386850   0.004818   0.000239   0.005809
              43         44
     1  C   -0.000001  -0.000008
     2  C    0.000017  -0.000055
     3  C   -0.000327   0.000079
     4  C    0.000078   0.000045
     5  C    0.000000  -0.000005
     6  H   -0.000004   0.000018
     7  H   -0.000001   0.000001
     8  H    0.000019  -0.000001
     9  H    0.000067   0.000314
    10  O    0.000000   0.000002
    11  O    0.000000   0.000000
    12  C    0.000000   0.000000
    13  C    0.000000   0.000000
    14  C    0.000000  -0.000011
    15  O    0.000006  -0.000002
    16  Si  -0.000001  -0.000002
    17  C    0.000000   0.000000
    18  C    0.000000   0.000000
    19  C    0.000000   0.000000
    20  H    0.000000   0.000000
    21  H    0.000000   0.000000
    22  H    0.000000   0.000000
    23  H    0.000000   0.000000
    24  H    0.000000   0.000000
    25  H    0.000000   0.000000
    26  H    0.000000   0.000000
    27  H    0.000000   0.000000
    28  H    0.000000   0.000000
    29  H    0.000000  -0.000005
    30  H    0.000000   0.000001
    31  H    0.000000   0.000000
    32  H    0.000000   0.000000
    33  H    0.000000   0.000000
    34  H    0.000000   0.000000
    35  H    0.000000   0.000000
    36  H    0.000000   0.000000
    37  C    0.006525  -0.008856
    38  C   -0.039538  -0.039078
    39  C    0.392162   0.386850
    40  H    0.000163   0.004818
    41  H   -0.000394   0.000239
    42  H   -0.007846   0.005809
    43  H    0.456097  -0.033538
    44  H   -0.033538   0.463709
 Mulliken charges:
               1
     1  C   -0.002399
     2  C   -0.388278
     3  C    0.237548
     4  C   -0.636454
     5  C    0.494810
     6  H    0.247961
     7  H    0.261244
     8  H    0.287518
     9  H    0.297541
    10  O   -0.316694
    11  O   -0.390921
    12  C   -0.466627
    13  C   -0.672593
    14  C   -0.699488
    15  O   -0.619706
    16  Si   1.389481
    17  C   -1.039162
    18  C   -1.082685
    19  C   -1.059971
    20  H    0.247368
    21  H    0.253219
    22  H    0.255197
    23  H    0.236372
    24  H    0.245267
    25  H    0.239133
    26  H    0.236960
    27  H    0.236638
    28  H    0.234660
    29  H    0.243990
    30  H    0.262502
    31  H    0.248150
    32  H    0.245582
    33  H    0.242469
    34  H    0.226797
    35  H    0.242248
    36  H    0.233728
    37  C   -0.513431
    38  C   -0.176020
    39  C   -0.454446
    40  H    0.240800
    41  H    0.261659
    42  H    0.223842
    43  H    0.226517
    44  H    0.219676
 Sum of Mulliken charges =   0.00000
 Mulliken charges with hydrogens summed into heavy atoms:
               1
     1  C    0.245562
     2  C   -0.127034
     3  C    0.237548
     4  C   -0.051395
     5  C    0.494810
    10  O   -0.316694
    11  O   -0.390921
    12  C    0.021423
    13  C    0.030181
    14  C    0.055155
    15  O   -0.619706
    16  Si   1.389481
    17  C   -0.330905
    18  C   -0.326902
    19  C   -0.339199
    37  C   -0.010971
    38  C    0.047823
    39  C   -0.008254
 Electronic spatial extent (au):  <R**2>=           5144.4274
 Charge=              0.0000 electrons
 Dipole moment (field-independent basis, Debye):
    X=             -0.7759    Y=              0.8656    Z=             -4.6865  Tot=              4.8285
 Quadrupole moment (field-independent basis, Debye-Ang):
   XX=           -114.9677   YY=           -115.0499   ZZ=           -134.5523
   XY=             -4.3351   XZ=             10.1333   YZ=              4.0863
 Traceless Quadrupole moment (field-independent basis, Debye-Ang):
   XX=              6.5556   YY=              6.4734   ZZ=            -13.0290
   XY=             -4.3351   XZ=             10.1333   YZ=              4.0863
 Octapole moment (field-independent basis, Debye-Ang**2):
  XXX=            -29.6641  YYY=              5.3007  ZZZ=            -47.0511  XYY=             -3.5780
  XXY=             -1.2577  XXZ=             -9.9027  XZZ=             13.5444  YZZ=              5.9569
  YYZ=             16.3604  XYZ=             -3.3715
 Hexadecapole moment (field-independent basis, Debye-Ang**3):
 XXXX=          -3167.0182 YYYY=          -2410.2496 ZZZZ=          -1532.0690 XXXY=             13.9684
 XXXZ=             16.9589 YYYX=            -28.1357 YYYZ=             31.3787 ZZZX=             41.6510
 ZZZY=             19.1339 XXYY=           -891.4974 XXZZ=           -763.7757 YYZZ=           -667.7789
 XXYZ=             11.0430 YYXZ=             20.0743 ZZXY=             -6.5381
 N-N= 1.647503835412D+03 E-N=-5.790126926945D+03  KE= 1.060512383578D+03
 1\1\GINC-SWANNODE-0-9\SP\RmPW1PW91\6-311G(d)\C14H26O3Si1\ROOT\08-Mar-2
 018\0\\#mPW1PW91/6-311g(d) nmr=(giao) scrf=(solvent=chloroform)\\P_ng_
 correct1ginp014\\0,1\C,0,0.926917,-0.299243,0.627333\C,0,-0.584495,-0.
 432441,0.868702\C,0,-1.031546,0.688799,1.867218\C,0,-0.220736,1.990801
 ,1.671393\C,0,0.533272,2.082321,0.375527\H,0,1.479369,-0.295452,1.5746
 42\H,0,-1.076019,-0.23936,-0.09103\H,0,-0.871987,2.86836,1.754499\H,0,
 0.55914,2.09796,2.436058\O,0,1.175562,0.96328,-0.027576\O,0,0.642337,3
 .134811,-0.24425\C,0,1.555768,-1.38745,-0.259052\C,0,0.984342,-1.46114
 5,-1.670543\C,0,-1.017809,-1.841664,1.288997\O,0,-2.457625,0.915585,1.
 825749\Si,0,-3.436046,1.326588,0.535365\C,0,-4.903834,2.326358,1.18435
 \C,0,-2.607905,2.350998,-0.790827\C,0,-4.136575,-0.226272,-0.272664\H,
 0,-3.329608,2.61932,-1.568838\H,0,-2.206759,3.280145,-0.377015\H,0,-1.
 795934,1.799581,-1.271834\H,0,-4.863659,0.040566,-1.045313\H,0,-3.3433
 66,-0.816675,-0.739172\H,0,-4.638533,-0.85016,0.472588\H,0,-5.458383,1
 .748184,1.92909\H,0,-4.555469,3.25176,1.65207\H,0,-5.583418,2.583741,0
 .366819\H,0,-0.420058,-2.217166,2.125719\H,0,-2.073213,-1.862437,1.578
 787\H,0,-0.903873,-2.55044,0.462775\H,0,1.471445,-2.36749,0.2229\H,0,2
 .628739,-1.176042,-0.353552\H,0,-0.075941,-1.728223,-1.665123\H,0,1.09
 6386,-0.508459,-2.197241\H,0,1.51538,-2.225274,-2.247553\C,0,-0.799223
 ,0.213551,3.354825\C,0,-1.120271,1.248507,4.408693\C,0,-0.255864,1.678
 523,5.33655\H,0,0.232895,-0.134334,3.482063\H,0,-1.456563,-0.637289,3.
 574563\H,0,-2.134128,1.646849,4.403286\H,0,-0.557233,2.420161,6.070775
 \H,0,0.761788,1.305526,5.392303\\Version=EM64L-G09RevD.01\State=1-A\HF
 =-1064.3752339\RMSD=3.542e-09\Dipole=-0.2023683,-1.7365737,0.7430742\Q
 uadrupole=1.8993582,-1.1610801,-0.7382782,-8.1056361,6.6541055,5.83301
 15\PG=C01 [X(C14H26O3Si1)]\\@


 SUCCESS-- IF YOU HAVE TRIED TO DO SOMETHING AND FAILED
           YOU ARE BETTER OFF THAN IF YOU HAD TRIED TO DO
           NOTHING AND SUCCEEDED.

                   -- FROM THE BACK OF A SUGAR PACKET
 Job cpu time:       0 days  1 hours 19 minutes 13.0 seconds.
 File lengths (MBytes):  RWF=    232 Int=      0 D2E=      0 Chk=     11 Scr=      1
 Normal termination of Gaussian 09 at Thu Mar  8 13:20:04 2018.
