 Entering Gaussian System, Link 0=/usr/local/shared/gaussian/em64t/09-D01/g09/g09
 Initial command:
 /usr/local/shared/gaussian/em64t/09-D01/g09/l1.exe "/scratch/ah809/P_ng_4ginp009/Gau-30221.inp" -scrdir="/scratch/ah809/P_ng_4ginp009/"
 Entering Link 1 = /usr/local/shared/gaussian/em64t/09-D01/g09/l1.exe PID=     30255.
  
 Copyright (c) 1988,1990,1992,1993,1995,1998,2003,2009,2013,
            Gaussian, Inc.  All Rights Reserved.
  
 This is part of the Gaussian(R) 09 program.  It is based on
 the Gaussian(R) 03 system (copyright 2003, Gaussian, Inc.),
 the Gaussian(R) 98 system (copyright 1998, Gaussian, Inc.),
 the Gaussian(R) 94 system (copyright 1995, Gaussian, Inc.),
 the Gaussian 92(TM) system (copyright 1992, Gaussian, Inc.),
 the Gaussian 90(TM) system (copyright 1990, Gaussian, Inc.),
 the Gaussian 88(TM) system (copyright 1988, Gaussian, Inc.),
 the Gaussian 86(TM) system (copyright 1986, Carnegie Mellon
 University), and the Gaussian 82(TM) system (copyright 1983,
 Carnegie Mellon University). Gaussian is a federally registered
 trademark of Gaussian, Inc.
  
 This software contains proprietary and confidential information,
 including trade secrets, belonging to Gaussian, Inc.
  
 This software is provided under written license and may be
 used, copied, transmitted, or stored only in accord with that
 written license.
  
 The following legend is applicable only to US Government
 contracts under FAR:
  
                    RESTRICTED RIGHTS LEGEND
  
 Use, reproduction and disclosure by the US Government is
 subject to restrictions as set forth in subparagraphs (a)
 and (c) of the Commercial Computer Software - Restricted
 Rights clause in FAR 52.227-19.
  
 Gaussian, Inc.
 340 Quinnipiac St., Bldg. 40, Wallingford CT 06492
  
  
 ---------------------------------------------------------------
 Warning -- This program may not be used in any manner that
 competes with the business of Gaussian, Inc. or will provide
 assistance to any competitor of Gaussian, Inc.  The licensee
 of this program is prohibited from giving any competitor of
 Gaussian, Inc. access to this program.  By using this program,
 the user acknowledges that Gaussian, Inc. is engaged in the
 business of creating and licensing software in the field of
 computational chemistry and represents and warrants to the
 licensee that it is not a competitor of Gaussian, Inc. and that
 it will not use this program in any manner prohibited above.
 ---------------------------------------------------------------
  

 Cite this work as:
 Gaussian 09, Revision D.01,
 M. J. Frisch, G. W. Trucks, H. B. Schlegel, G. E. Scuseria, 
 M. A. Robb, J. R. Cheeseman, G. Scalmani, V. Barone, B. Mennucci, 
 G. A. Petersson, H. Nakatsuji, M. Caricato, X. Li, H. P. Hratchian, 
 A. F. Izmaylov, J. Bloino, G. Zheng, J. L. Sonnenberg, M. Hada, 
 M. Ehara, K. Toyota, R. Fukuda, J. Hasegawa, M. Ishida, T. Nakajima, 
 Y. Honda, O. Kitao, H. Nakai, T. Vreven, J. A. Montgomery, Jr., 
 J. E. Peralta, F. Ogliaro, M. Bearpark, J. J. Heyd, E. Brothers, 
 K. N. Kudin, V. N. Staroverov, T. Keith, R. Kobayashi, J. Normand, 
 K. Raghavachari, A. Rendell, J. C. Burant, S. S. Iyengar, J. Tomasi, 
 M. Cossi, N. Rega, J. M. Millam, M. Klene, J. E. Knox, J. B. Cross, 
 V. Bakken, C. Adamo, J. Jaramillo, R. Gomperts, R. E. Stratmann, 
 O. Yazyev, A. J. Austin, R. Cammi, C. Pomelli, J. W. Ochterski, 
 R. L. Martin, K. Morokuma, V. G. Zakrzewski, G. A. Voth, 
 P. Salvador, J. J. Dannenberg, S. Dapprich, A. D. Daniels, 
 O. Farkas, J. B. Foresman, J. V. Ortiz, J. Cioslowski, 
 and D. J. Fox, Gaussian, Inc., Wallingford CT, 2013.
 
 ******************************************
 Gaussian 09:  EM64L-G09RevD.01 24-Apr-2013
                 8-Mar-2018 
 ******************************************
 %mem=6000MB
 %chk=P_ng_4ginp009.chk
 --------------------------------------------------------
 #mPW1PW91/6-311g(d) nmr=(giao) scrf=(solvent=chloroform)
 --------------------------------------------------------
 1/38=1/1;
 2/12=2,17=6,18=5,40=1/2;
 3/5=4,6=6,7=1,11=2,16=1,25=1,30=1,70=2201,72=7,74=-7/1,2,8,3;
 4//1;
 5/5=2,38=5,53=7/2;
 8/6=1,10=90,11=11/1;
 10/13=100,45=16/2;
 6/7=2,8=2,9=2,10=2,28=1/1;
 99/9=1/99;
 -------------
 P_ng_4ginp009
 -------------
 Symbolic Z-matrix:
 Charge =  0 Multiplicity = 1
 C                     0.57464   1.90484  -0.12681 
 C                    -0.60379   0.97099   0.2321 
 C                    -1.5761    1.63121   1.25845 
 C                    -1.98558   2.98477   0.66737 
 C                    -0.82514   3.84223   0.25467 
 H                     1.01965   1.49754  -1.04468 
 H                    -1.1591    0.8385   -0.70738 
 H                    -2.6038    2.86083  -0.22977 
 H                    -2.58008   3.55998   1.3812 
 O                     0.12448   3.22768  -0.48552 
 O                    -0.81873   5.05687   0.42699 
 C                     1.713     2.03731   0.90193 
 C                     2.9133    2.78626   0.32885 
 C                    -0.10954  -0.41842   0.65552 
 O                    -0.81017   1.79399   2.46635 
 Si                   -1.3177    2.20211   4.00732 
 C                    -2.01746   0.70358   4.90666 
 C                     0.18792   2.78547   4.99425 
 C                    -2.5852    3.57917   4.06575 
 H                    -0.10048   3.03954   6.01826 
 H                     0.94628   1.99804   5.03029 
 H                     0.62803   3.67051   4.52572 
 H                    -2.82477   3.83223   5.10322 
 H                    -2.20242   4.48196   3.5808 
 H                    -3.51548   3.2861    3.57149 
 H                    -2.96711   0.38713   4.46725 
 H                    -1.31637  -0.13457   4.85505 
 H                    -2.194     0.93957   5.96034 
 H                     0.63983  -0.79377  -0.04986 
 H                     0.33686  -0.4123    1.65444 
 H                    -0.92892  -1.14351   0.66469 
 H                     2.05432   1.05304   1.2359 
 H                     1.38102   2.59647   1.78126 
 H                     3.71205   2.84282   1.07534 
 H                     3.31022   2.27377  -0.55317 
 H                     2.64754   3.80903   0.04421 
 C                    -2.84533   0.74311   1.49495 
 C                    -3.63486   0.34669   0.27364 
 C                    -4.87035   0.78709   0.0029 
 H                    -3.52054   1.26138   2.18728 
 H                    -2.55803  -0.17571   2.02168 
 H                    -3.17743  -0.3681   -0.4076 
 H                    -5.39777   0.45081  -0.88535 
 H                    -5.3879    1.48582   0.65347 
 
                          Input orientation:                          
 ---------------------------------------------------------------------
 Center     Atomic      Atomic             Coordinates (Angstroms)
 Number     Number       Type             X           Y           Z
 ---------------------------------------------------------------------
      1          6           0        0.574636    1.904839   -0.126805
      2          6           0       -0.603794    0.970986    0.232097
      3          6           0       -1.576104    1.631208    1.258448
      4          6           0       -1.985580    2.984765    0.667367
      5          6           0       -0.825142    3.842228    0.254673
      6          1           0        1.019653    1.497539   -1.044677
      7          1           0       -1.159098    0.838496   -0.707375
      8          1           0       -2.603796    2.860832   -0.229769
      9          1           0       -2.580080    3.559977    1.381197
     10          8           0        0.124484    3.227681   -0.485517
     11          8           0       -0.818729    5.056870    0.426990
     12          6           0        1.712995    2.037313    0.901925
     13          6           0        2.913299    2.786256    0.328851
     14          6           0       -0.109543   -0.418420    0.655518
     15          8           0       -0.810167    1.793994    2.466352
     16         14           0       -1.317695    2.202111    4.007325
     17          6           0       -2.017458    0.703576    4.906658
     18          6           0        0.187919    2.785469    4.994251
     19          6           0       -2.585197    3.579174    4.065746
     20          1           0       -0.100476    3.039537    6.018260
     21          1           0        0.946276    1.998044    5.030286
     22          1           0        0.628031    3.670509    4.525721
     23          1           0       -2.824769    3.832231    5.103224
     24          1           0       -2.202415    4.481964    3.580795
     25          1           0       -3.515477    3.286096    3.571492
     26          1           0       -2.967108    0.387131    4.467252
     27          1           0       -1.316372   -0.134571    4.855054
     28          1           0       -2.193997    0.939569    5.960336
     29          1           0        0.639825   -0.793769   -0.049858
     30          1           0        0.336858   -0.412298    1.654443
     31          1           0       -0.928919   -1.143510    0.664691
     32          1           0        2.054320    1.053038    1.235900
     33          1           0        1.381022    2.596473    1.781256
     34          1           0        3.712052    2.842820    1.075338
     35          1           0        3.310225    2.273774   -0.553170
     36          1           0        2.647539    3.809033    0.044211
     37          6           0       -2.845333    0.743106    1.494945
     38          6           0       -3.634861    0.346687    0.273636
     39          6           0       -4.870345    0.787089    0.002900
     40          1           0       -3.520540    1.261384    2.187281
     41          1           0       -2.558031   -0.175711    2.021678
     42          1           0       -3.177427   -0.368104   -0.407597
     43          1           0       -5.397768    0.450810   -0.885345
     44          1           0       -5.387896    1.485816    0.653467
 ---------------------------------------------------------------------
                    Distance matrix (angstroms):
                    1          2          3          4          5
     1  C    0.000000
     2  C    1.545830   0.000000
     3  C    2.572835   1.560345   0.000000
     4  C    2.889923   2.480746   1.532698   0.000000
     5  C    2.420409   2.879850   2.541676   1.500725   0.000000
     6  H    1.098373   2.131429   3.472781   3.764885   3.254097
     7  H    2.116597   1.099329   2.160265   2.679451   3.171667
     8  H    3.320686   2.790134   2.186988   1.096542   2.088404
     9  H    3.868564   3.453840   2.177885   1.092636   2.104407
    10  O    1.442644   2.477505   2.912411   2.416717   1.351791
    11  O    3.490481   4.096172   3.605565   2.390176   1.226821
    12  C    1.540031   2.636899   3.333197   3.825198   3.181005
    13  C    2.540445   3.959105   4.727899   4.914572   3.885424
    14  C    2.545125   1.534281   2.591390   3.886042   4.338880
    15  O    2.941841   2.389943   1.439511   2.456802   3.014467
    16  Si   4.556349   4.034559   2.819402   3.494844   4.124923
    17  C    5.787723   4.890958   3.790083   4.814190   5.737048
    18  C    5.210592   5.157254   4.289559   4.846209   4.960507
    19  C    5.510483   5.042367   3.562831   3.501691   4.206099
    20  H    6.285311   6.165380   5.178482   5.673506   5.864161
    21  H    5.171305   5.145890   4.552333   5.348314   5.417141
    22  H    4.976589   5.219198   4.437571   4.710425   4.514759
    23  H    6.528706   6.070200   4.602822   4.593394   5.244717
    24  H    5.300932   5.108457   3.729929   3.282786   3.656396
    25  H    5.684566   4.998919   3.442382   3.296260   4.306794
    26  H    5.996061   4.884944   3.712013   4.706403   5.854190
    27  H    5.705613   4.806429   4.015098   5.264487   6.100799
    28  H    6.756505   5.944952   4.792484   5.678185   6.546280
    29  H    2.700492   2.177257   3.535890   4.656660   4.871482
    30  H    2.932321   2.195762   2.827040   4.231793   4.627158
    31  H    3.489925   2.182645   2.910405   4.261361   5.003645
    32  H    2.184490   2.842521   3.676244   4.513933   4.127189
    33  H    2.183876   2.996931   3.154308   3.567286   2.957959
    34  H    3.488314   4.779262   5.428271   5.713983   4.717885
    35  H    2.793089   4.199220   5.250815   5.480946   4.495989
    36  H    2.819952   4.319835   4.904738   4.746950   3.479211
    37  C    3.959278   2.582869   1.567035   2.539507   3.901795
    38  C    4.506446   3.094970   2.618841   3.136018   4.484829
    39  C    5.560037   4.276658   3.625046   3.686891   5.075523
    40  H    4.747578   3.523419   2.186397   2.763382   4.202487
    41  H    4.331082   2.887310   2.193549   3.485752   4.719009
    42  H    4.395804   2.970851   3.055682   3.717227   4.868135
    43  H    6.193480   4.949894   4.538095   4.524917   5.806054
    44  H    6.027951   4.830138   3.862240   3.717902   5.150771
                    6          7          8          9         10
     6  H    0.000000
     7  H    2.301101   0.000000
     8  H    3.956264   2.530830   0.000000
     9  H    4.805891   3.713190   1.756297   0.000000
    10  O    2.026667   2.721215   2.764688   3.302985   0.000000
    11  O    4.267820   4.381474   2.905233   2.500711   2.251278
    12  C    2.135729   3.503702   4.538017   4.580251   2.421846
    13  C    2.670817   4.631625   5.545805   5.646529   2.938629
    14  C    2.799401   2.130465   4.214086   4.738967   3.827634
    15  O    3.970321   3.332757   3.409445   2.725592   3.412120
    16  Si   5.610913   4.910498   4.476710   3.214648   4.828799
    17  C    6.728507   5.680876   5.601824   4.572138   6.327288
    18  C    6.230505   6.173629   5.923659   4.616908   5.497948
    19  C    6.591250   5.685750   4.355205   2.684623   5.308476
    20  H    7.315567   7.155378   6.733232   5.284094   6.510386
    21  H    6.095988   6.220764   6.404342   5.309489   5.710642
    22  H    5.992036   6.212843   5.806459   4.493576   5.055904
    23  H    7.617549   6.745367   5.425243   3.739984   6.348039
    24  H    6.378362   5.722916   4.160478   2.414730   4.850008
    25  H    6.713818   5.463696   3.932124   2.397367   5.450876
    26  H    6.892650   5.499945   5.321015   4.443026   6.492810
    27  H    6.551917   5.649089   6.040308   5.226311   6.473214
    28  H    7.727165   6.748304   6.494350   5.290001   7.222176
    29  H    2.526663   2.516494   4.889740   5.600965   4.077675
    30  H    3.376231   3.062769   4.786552   4.935804   4.227763
    31  H    3.700542   2.421548   4.431707   5.036120   4.641115
    32  H    2.543452   3.761436   5.207144   5.271007   3.378848
    33  H    3.053546   3.966860   4.471340   4.096183   2.667503
    34  H    3.681475   5.560889   6.449307   6.340251   3.931289
    35  H    2.467963   4.696664   5.951880   6.331808   3.326178
    36  H    3.029636   4.886661   5.343283   5.401626   2.642799
    37  C    4.685826   2.775374   2.741850   2.831618   4.349156
    38  C    4.972616   2.708073   2.763591   3.558720   4.796782
    39  C    6.024470   3.778953   3.080875   3.851483   5.580623
    40  H    5.578053   3.759558   3.039866   2.611085   4.929135
    41  H    5.000212   3.230071   3.780437   3.790259   5.006495
    42  H    4.637022   2.370528   3.284312   4.357342   4.882454
    43  H    6.504177   4.260082   3.747568   4.769014   6.194041
    44  H    6.628764   4.489281   3.228310   3.565889   5.892174
                   11         12         13         14         15
    11  O    0.000000
    12  C    3.968994   0.000000
    13  C    4.369594   1.526453   0.000000
    14  C    5.525755   3.068059   4.417492   0.000000
    15  O    3.847783   2.978755   4.406551   2.943598   0.000000
    16  Si   4.606237   4.342321   5.636817   4.422830   1.672944
    17  C    6.360467   5.633207   7.043170   4.792829   2.932858
    18  C    5.199276   4.430883   5.403115   5.401666   2.893004
    19  C    4.306337   5.555318   6.695264   5.808552   2.982559
    20  H    5.987305   5.519965   6.443319   6.380952   3.830286
    21  H    5.801896   4.199139   5.156932   5.108096   3.114560
    22  H    4.562314   4.120239   4.859843   5.678189   3.135398
    23  H    5.233651   6.439250   7.537515   6.724773   3.894371
    24  H    3.491646   5.336956   6.294529   6.078743   3.225759
    25  H    4.505106   6.001914   7.217598   5.816075   3.281220
    26  H    6.538020   6.110485   7.580327   4.831553   3.261174
    27  H    6.841525   5.433357   6.848931   4.378711   3.111511
    28  H    7.032883   6.485148   7.823576   5.859196   3.853953
    29  H    6.048532   3.173738   4.257779   1.095443   3.889770
    30  H    5.723095   2.908716   4.315784   1.094149   2.615834
    31  H    6.205913   4.141693   5.506223   1.094174   3.448045
    32  H    4.993938   1.094002   2.136499   2.680361   3.204421
    33  H    3.567421   1.093659   2.119757   3.546639   2.432003
    34  H    5.084324   2.162208   1.094737   5.041480   4.846176
    35  H    5.074899   2.173559   1.094600   4.517040   5.130822
    36  H    3.703867   2.178999   1.094404   5.083951   4.677914
    37  C    4.884282   4.775458   6.220617   3.088418   2.487951
    38  C    5.489985   5.643804   6.988057   3.627546   3.857667
    39  C    5.901396   6.761041   8.042887   4.954230   4.854637
    40  H    4.980374   5.444639   6.868281   4.099139   2.776270
    41  H    5.740044   4.938926   6.447819   2.814320   2.670674
    42  H    5.974139   5.605096   6.898499   3.247254   4.305598
    43  H    6.626131   7.501618   8.717936   5.576302   5.838159
    44  H    5.803534   7.126607   8.408707   5.611339   4.933268
                   16         17         18         19         20
    16  Si   0.000000
    17  C    1.882571   0.000000
    18  C    1.892407   3.034080   0.000000
    19  C    1.872505   3.049348   3.030225   0.000000
    20  H    2.495348   3.219813   1.093763   3.205832   0.000000
    21  H    2.492721   3.236456   1.093820   3.987682   1.776651
    22  H    2.492143   3.993296   1.093853   3.247269   1.776660
    23  H    2.475794   3.237108   3.191218   1.094437   2.981179
    24  H    2.482416   4.008533   3.254174   1.093951   3.527035
    25  H    2.489020   3.270495   3.998751   1.093436   4.208289
    26  H    2.495245   1.093184   3.997993   3.239784   4.202197
    27  H    2.485705   1.093926   3.287689   4.003102   3.592550
    28  H    2.485190   1.094119   3.164521   3.272617   2.965814
    29  H    5.409983   5.819815   6.201468   6.816274   7.215562
    30  H    3.886995   4.167119   4.626253   5.503148   5.581158
    31  H    4.745264   4.752991   5.952251   6.050965   6.844333
    32  H    4.513496   5.493265   4.539821   5.992872   5.608947
    33  H    3.520508   4.990076   3.432572   4.681398   4.510360
    34  H    5.857082   7.216832   5.270738   7.010000   6.245522
    35  H    6.497761   7.788418   6.386275   7.602266   7.443317
    36  H    5.831942   7.419532   5.621415   6.603568   6.620647
    37  C    3.282442   3.510944   5.061325   3.836661   5.767860
    38  C    4.769936   4.920189   6.545648   5.092236   7.262508
    39  C    5.537060   5.673868   7.381947   5.433632   8.000608
    40  H    3.008331   3.156805   4.894342   3.126603   5.434617
    41  H    3.336954   3.064062   5.014481   4.275291   5.687712
    42  H    5.436556   5.543946   7.102854   5.995210   7.897549
    43  H    6.606986   6.711012   8.439205   6.496962   9.078688
    44  H    5.322403   5.482826   7.184791   4.886811   7.691025
                   21         22         23         24         25
    21  H    0.000000
    22  H    1.775670   0.000000
    23  H    4.194084   3.504496   0.000000
    24  H    4.264404   3.092373   1.768408   0.000000
    25  H    4.867689   4.269307   1.766789   1.776040   0.000000
    26  H    4.269265   4.869190   3.506199   4.258899   3.083357
    27  H    3.114214   4.285767   4.251161   4.870442   4.264335
    28  H    3.441900   4.180908   3.082208   4.267417   3.599871
    29  H    5.804825   6.392640   7.743226   7.006663   6.857551
    30  H    4.192548   4.999833   6.317120   5.840594   5.673947
    31  H    5.695976   6.364466   6.932014   6.463081   5.895862
    32  H    4.064254   4.439412   6.818036   5.947761   6.439268
    33  H    3.332164   3.041815   5.500113   4.431076   5.258919
    34  H    4.899467   4.701212   7.741630   6.629105   7.659272
    35  H    6.069536   5.911021   8.488918   7.235673   8.039144
    36  H    5.570899   4.917472   7.452537   6.040059   7.120249
    37  C    5.333836   5.460728   4.750031   4.329339   3.350812
    38  C    6.807313   6.877519   6.010839   5.485410   4.419302
    39  C    7.782937   7.681286   6.282561   5.794073   4.562406
    40  H    5.345820   5.336930   3.949187   3.748529   2.452657
    41  H    5.104616   5.587006   5.062675   4.924555   3.911871
    42  H    7.223168   7.424926   6.938035   6.354611   5.413003
    43  H    8.811102   8.715294   7.342839   6.812260   5.607608
    44  H    7.716259   7.480549   5.645850   5.262456   3.906639
                   26         27         28         29         30
    26  H    0.000000
    27  H    1.774117   0.000000
    28  H    1.769799   1.773598   0.000000
    29  H    5.899896   5.321598   6.867127   0.000000
    30  H    4.412162   3.613061   5.174310   1.772555   0.000000
    31  H    4.577832   4.327496   5.829537   1.758936   1.765353
    32  H    6.008311   5.086281   6.354634   2.657944   2.296097
    33  H    5.567944   4.917598   5.743762   3.923785   3.187328
    34  H    7.883316   6.959609   7.897277   4.891771   4.724732
    35  H    8.256450   7.513615   8.631473   4.098070   4.574872
    36  H    7.924454   7.376233   8.165466   5.022504   5.074616
    37  C    2.996023   3.794519   4.516919   4.110320   3.389209
    38  C    4.246639   5.157169   5.896283   4.436015   4.272849
    39  C    4.869570   6.084700   6.532774   5.732702   5.592950
    40  H    2.503772   3.731496   4.012384   5.151416   4.238472
    41  H    2.542630   3.093773   4.109671   3.859992   2.927664
    42  H    4.937486   5.586910   6.574779   3.857536   4.074820
    43  H    5.878984   7.067719   7.574060   6.220896   6.330988
    44  H    4.648901   6.070939   6.217896   6.482638   6.113722
                   31         32         33         34         35
    31  H    0.000000
    32  H    3.748442   0.000000
    33  H    4.535418   1.770010   0.000000
    34  H    6.131726   2.444826   2.448001   0.000000
    35  H    5.579548   2.503650   3.045571   1.771247   0.000000
    36  H    6.140336   3.060644   2.468135   1.769174   1.775679
    37  C    2.814478   4.916275   4.623745   6.898128   6.665479
    38  C    3.113797   5.813060   5.700310   7.800675   7.254757
    39  C    4.438470   7.038608   6.746555   8.890090   8.333137
    40  H    3.849454   5.659293   5.096335   7.486504   7.429290
    41  H    2.330677   4.837463   4.822753   7.022893   6.860484
    42  H    2.608993   5.664972   5.861677   7.744291   7.006450
    43  H    4.991501   7.771485   7.593854   9.620541   8.902959
    44  H    5.176481   7.477507   6.951526   9.210238   8.816698
                   36         37         38         39         40
    36  H    0.000000
    37  C    6.455709   0.000000
    38  C    7.176979   1.507348   0.000000
    39  C    8.102619   2.515712   1.339281   0.000000
    40  H    7.009170   1.097199   2.124094   2.611216   0.000000
    41  H    6.847373   1.097367   2.118517   3.217024   1.737553
    42  H    7.182119   2.228170   1.088233   2.090203   3.083237
    43  H    8.767480   3.502305   2.112326   1.086387   3.690806
    44  H    8.386701   2.779268   2.124857   1.085963   2.426927
                   41         42         43         44
    41  H    0.000000
    42  H    2.514367   0.000000
    43  H    4.111863   2.414286   0.000000
    44  H    3.555392   3.073931   1.854529   0.000000
 Stoichiometry    C14H26O3Si
 Framework group  C1[X(C14H26O3Si)]
 Deg. of freedom   126
 Full point group                 C1      NOp   1
 Largest Abelian subgroup         C1      NOp   1
 Largest concise Abelian subgroup C1      NOp   1
                         Standard orientation:                         
 ---------------------------------------------------------------------
 Center     Atomic      Atomic             Coordinates (Angstroms)
 Number     Number       Type             X           Y           Z
 ---------------------------------------------------------------------
      1          6           0        2.295786    0.512641   -0.481900
      2          6           0        1.001176    1.215858   -0.949936
      3          6           0       -0.238833    0.763165   -0.117997
      4          6           0        0.116528    0.985615    1.356248
      5          6           0        1.416483    0.358842    1.767890
      6          1           0        3.128541    1.094181   -0.899933
      7          1           0        1.164566    2.282717   -0.741036
      8          1           0        0.208039    2.052867    1.590771
      9          1           0       -0.661446    0.585941    2.011128
     10          8           0        2.465915    0.592416    0.948455
     11          8           0        1.561964   -0.182993    2.858916
     12          6           0        2.506561   -0.948882   -0.919187
     13          6           0        3.916271   -1.440240   -0.600841
     14          6           0        0.808475    1.084733   -2.466409
     15          8           0       -0.412027   -0.635143   -0.412834
     16         14           0       -1.689846   -1.653322   -0.053347
     17          6           0       -3.093134   -1.437949   -1.289661
     18          6           0       -1.087419   -3.440675   -0.207148
     19          6           0       -2.380257   -1.448762    1.675168
     20          1           0       -1.903948   -4.138942   -0.002158
     21          1           0       -0.712256   -3.629026   -1.217207
     22          1           0       -0.278882   -3.630307    0.504766
     23          1           0       -3.169502   -2.184274    1.859313
     24          1           0       -1.599947   -1.599764    2.426862
     25          1           0       -2.812542   -0.454442    1.816803
     26          1           0       -3.579698   -0.466412   -1.169569
     27          1           0       -2.714704   -1.510826   -2.313456
     28          1           0       -3.849650   -2.215353   -1.146755
     29          1           0        1.736915    1.324007   -2.996259
     30          1           0        0.500331    0.076427   -2.758864
     31          1           0        0.046574    1.780999   -2.829641
     32          1           0        2.341750   -1.062569   -1.994711
     33          1           0        1.813501   -1.615682   -0.398480
     34          1           0        4.040855   -2.472185   -0.944378
     35          1           0        4.668752   -0.823523   -1.102420
     36          1           0        4.113351   -1.419207    0.475467
     37          6           0       -1.512777    1.594577   -0.494056
     38          6           0       -1.396745    3.094715   -0.403385
     39          6           0       -2.046317    3.844869    0.496057
     40          1           0       -2.348461    1.275565    0.141325
     41          1           0       -1.827450    1.343381   -1.514887
     42          1           0       -0.769892    3.593499   -1.139945
     43          1           0       -1.937228    4.925757    0.500541
     44          1           0       -2.701327    3.408411    1.244243
 ---------------------------------------------------------------------
 Rotational constants (GHZ):      0.3974493      0.3409227      0.2687614
 Standard basis: 6-311G(d) (5D, 7F)
 There are   428 symmetry adapted cartesian basis functions of A   symmetry.
 There are   410 symmetry adapted basis functions of A   symmetry.
   410 basis functions,   720 primitive gaussians,   428 cartesian basis functions
    74 alpha electrons       74 beta electrons
       nuclear repulsion energy      1653.8153471272 Hartrees.
 NAtoms=   44 NActive=   44 NUniq=   44 SFac= 1.00D+00 NAtFMM=   60 NAOKFM=F Big=F
 Integral buffers will be    131072 words long.
 Raffenetti 2 integral format.
 Two-electron integral symmetry is turned on.
 ------------------------------------------------------------------------------
 Polarizable Continuum Model (PCM)
 =================================
 Model                : PCM (using non-symmetric T matrix).
 Atomic radii         : UFF (Universal Force Field).
 Polarization charges : Total charges.
 Charge compensation  : None.
 Solution method      : On-the-fly selection.
 Cavity type          : Scaled VdW (van der Waals Surface) (Alpha=1.100).
 Cavity algorithm     : GePol (No added spheres)
                        Default sphere list used, NSphG=   44.
                        Lebedev-Laikov grids with approx.  5.0 points / Ang**2.
                        Smoothing algorithm: Karplus/York (Gamma=1.0000).
                        Polarization charges: spherical gaussians, with
                                              point-specific exponents (IZeta= 3).
                        Self-potential: point-specific (ISelfS= 7).
                        Self-field    : sphere-specific E.n sum rule (ISelfD= 2).
 Solvent              : Chloroform, Eps=   4.711300 Eps(inf)=   2.090627
 ------------------------------------------------------------------------------
 One-electron integrals computed using PRISM.
 NBasis=   410 RedAO= T EigKep=  1.21D-03  NBF=   410
 NBsUse=   410 1.00D-06 EigRej= -1.00D+00 NBFU=   410
 ExpMin= 6.54D-02 ExpMax= 6.94D+04 ExpMxC= 2.33D+03 IAcc=2 IRadAn=         4 AccDes= 0.00D+00
 Harris functional with IExCor=  908 and IRadAn=       4 diagonalized for initial guess.
 HarFok:  IExCor=  908 AccDes= 0.00D+00 IRadAn=         4 IDoV= 1 UseB2=F ITyADJ=14
 ICtDFT=  3500011 ScaDFX=  1.000000  1.000000  1.000000  1.000000
 FoFCou: FMM=F IPFlag=           0 FMFlag=      100000 FMFlg1=           0
         NFxFlg=           0 DoJE=T BraDBF=F KetDBF=T FulRan=T
         wScrn=  0.000000 ICntrl=     500 IOpCl=  0 I1Cent=   200000004 NGrid=           0
         NMat0=    1 NMatS0=      1 NMatT0=    0 NMatD0=    1 NMtDS0=    0 NMtDT0=    0
 Petite list used in FoFCou.
 Requested convergence on RMS density matrix=1.00D-08 within 128 cycles.
 Requested convergence on MAX density matrix=1.00D-06.
 Requested convergence on             energy=1.00D-06.
 No special actions if energy rises.
 Inv3:  Mode=1 IEnd=    24952368.
 Iteration    1 A*A^-1 deviation from unit magnitude is 7.77D-15 for   1856.
 Iteration    1 A*A^-1 deviation from orthogonality  is 7.11D-15 for   2144    519.
 Iteration    1 A^-1*A deviation from unit magnitude is 7.11D-15 for   2702.
 Iteration    1 A^-1*A deviation from orthogonality  is 2.35D-12 for   2373   2368.
 Error on total polarization charges =  0.01124
 SCF Done:  E(RmPW1PW91) =  -1064.37585771     A.U. after   12 cycles
            NFock= 12  Conv=0.97D-08     -V/T= 2.0036
 DoSCS=F DFT=T ScalE2(SS,OS)=  1.000000  1.000000
 Range of M.O.s used for correlation:     1   410
 NBasis=   410 NAE=    74 NBE=    74 NFC=     0 NFV=     0
 NROrb=    410 NOA=    74 NOB=    74 NVA=   336 NVB=   336
 NEqPCM:  Using equilibrium solvation (IEInf=0, Eps=   4.7113, EpsInf=   2.0906)
          Differentiating once with respect to magnetic field using GIAOs.
          Electric field/nuclear overlap derivatives assumed to be zero.
 FoFJK:  IHMeth= 1 ICntrl=    6127 DoSepK=F KAlg= 0 I1Cent=   0 FoldK=F
 IRaf=         1 NMat=   1 IRICut=       1 DoRegI=T DoRafI=F ISym2E= 0.
          There are     3 degrees of freedom in the 1st order CPHF.  IDoFFX=0 NUNeed=     3.
      3 vectors produced by pass  0 Test12= 8.29D-13 3.33D-08 XBig12= 2.86D+01 1.18D+00.
 AX will form     3 AO Fock derivatives at one time.
      3 vectors produced by pass  1 Test12= 8.29D-13 3.33D-08 XBig12= 7.63D-02 1.04D-01.
      3 vectors produced by pass  2 Test12= 8.29D-13 3.33D-08 XBig12= 8.31D-04 8.82D-03.
      3 vectors produced by pass  3 Test12= 8.29D-13 3.33D-08 XBig12= 3.09D-06 2.73D-04.
      3 vectors produced by pass  4 Test12= 8.29D-13 3.33D-08 XBig12= 9.21D-09 2.30D-05.
      3 vectors produced by pass  5 Test12= 8.29D-13 3.33D-08 XBig12= 3.23D-11 1.01D-06.
      3 vectors produced by pass  6 Test12= 8.29D-13 3.33D-08 XBig12= 1.08D-13 5.23D-08.
 InvSVY:  IOpt=1 It=  1 EMax= 8.88D-16
 Solved reduced A of dimension    21 with     3 vectors.
 Calculating GIAO nuclear magnetic shielding tensors.
 SCF GIAO Magnetic shielding tensor (ppm):
      1  C    Isotropic =    98.4472   Anisotropy =    47.4277
   XX=    82.5151   YX=    -9.5899   ZX=    11.2346
   XY=   -10.2385   YY=    83.6481   ZY=    -1.4113
   XZ=    -0.3883   YZ=    10.5782   ZZ=   129.1784
   Eigenvalues:    72.2679    93.0081   130.0657
      2  C    Isotropic =   145.7151   Anisotropy =     9.3197
   XX=   147.1836   YX=     2.1475   ZX=    -3.8515
   XY=     2.5818   YY=   145.5962   ZY=    10.8983
   XZ=    -6.7180   YZ=     0.2481   ZZ=   144.3654
   Eigenvalues:   136.4747   148.7423   151.9282
      3  C    Isotropic =   103.0836   Anisotropy =    53.8631
   XX=    88.6037   YX=     4.9162   ZX=    -1.0803
   XY=     8.9664   YY=   137.4440   ZY=     5.0427
   XZ=    -5.0351   YZ=     7.2753   ZZ=    83.2030
   Eigenvalues:    80.5293    89.7291   138.9923
      4  C    Isotropic =   143.8840   Anisotropy =    21.5200
   XX=   151.0597   YX=    -3.0476   ZX=     6.3286
   XY=    -3.0698   YY=   134.4663   ZY=   -11.5530
   XZ=     9.4960   YZ=     0.8917   ZZ=   146.1262
   Eigenvalues:   132.3966   141.0249   158.2307
      5  C    Isotropic =     4.2806   Anisotropy =   110.1753
   XX=   -74.8290   YX=    17.4807   ZX=    43.8887
   XY=     5.7187   YY=    65.3510   ZY=    20.1674
   XZ=    54.0714   YZ=    15.1067   ZZ=    22.3199
   Eigenvalues:   -95.3343    30.4454    77.7308
      6  H    Isotropic =    27.7419   Anisotropy =     4.4061
   XX=    29.9948   YX=     0.7186   ZX=    -0.3061
   XY=     1.5982   YY=    26.9135   ZY=    -0.7395
   XZ=    -1.0031   YZ=    -2.2392   ZZ=    26.3173
   Eigenvalues:    25.0846    27.4618    30.6793
      7  H    Isotropic =    29.7842   Anisotropy =     6.4749
   XX=    29.0723   YX=     0.3849   ZX=    -0.8848
   XY=     1.5186   YY=    33.8980   ZY=     0.6624
   XZ=     0.0292   YZ=     0.3338   ZZ=    26.3822
   Eigenvalues:    26.2606    28.9911    34.1008
      8  H    Isotropic =    29.4328   Anisotropy =     5.6540
   XX=    27.6075   YX=    -1.9892   ZX=     1.5031
   XY=    -1.0929   YY=    31.5825   ZY=     2.4058
   XZ=     0.8472   YZ=     2.5300   ZZ=    29.1084
   Eigenvalues:    25.7538    29.3424    33.2021
      9  H    Isotropic =    29.6400   Anisotropy =     4.8118
   XX=    30.1260   YX=     2.7816   ZX=    -1.7271
   XY=     2.2186   YY=    27.8707   ZY=    -0.8635
   XZ=    -0.0222   YZ=    -1.7276   ZZ=    30.9233
   Eigenvalues:    26.1698    29.9024    32.8478
     10  O    Isotropic =   110.4535   Anisotropy =   197.8075
   XX=   177.3014   YX=    31.3985   ZX=   -54.0267
   XY=    56.6490   YY=   204.2758   ZY=   117.4784
   XZ=   -80.6440   YZ=    59.4140   ZZ=   -50.2166
   Eigenvalues:   -99.6882   188.7236   242.3252
     11  O    Isotropic =  -157.9774   Anisotropy =   626.5478
   XX=  -270.9104   YX=    65.0403   ZX=   141.8101
   XY=    63.5903   YY=   115.5555   ZY=   282.2728
   XZ=   124.9952   YZ=   230.5096   ZZ=  -318.5774
   Eigenvalues:  -483.0092  -250.6442   259.7211
     12  C    Isotropic =   158.3557   Anisotropy =    15.3614
   XX=   156.6102   YX=    -3.7008   ZX=    -2.1960
   XY=     2.9282   YY=   165.3820   ZY=    10.7099
   XZ=    -2.4941   YZ=     3.0290   ZZ=   153.0747
   Eigenvalues:   149.4493   157.0211   168.5966
     13  C    Isotropic =   173.5983   Anisotropy =    24.9801
   XX=   188.8015   YX=    -6.1773   ZX=    -0.3791
   XY=    -3.4022   YY=   173.6127   ZY=    -0.5796
   XZ=     1.7171   YZ=    -5.1771   ZZ=   158.3808
   Eigenvalues:   157.8536   172.6896   190.2517
     14  C    Isotropic =   176.1529   Anisotropy =    15.4069
   XX=   172.2246   YX=    -0.9765   ZX=     0.8967
   XY=    -0.6021   YY=   170.0305   ZY=    -0.9005
   XZ=     1.8383   YZ=    -1.3577   ZZ=   186.2036
   Eigenvalues:   169.7483   172.2863   186.4242
     15  O    Isotropic =   246.7133   Anisotropy =    39.8424
   XX=   253.8094   YX=   -24.2170   ZX=    -1.0850
   XY=   -29.3788   YY=   236.3811   ZY=     0.2841
   XZ=    -2.1924   YZ=    -4.4061   ZZ=   249.9495
   Eigenvalues:   216.7080   250.1571   273.2749
     16  Si   Isotropic =   333.7416   Anisotropy =    53.4933
   XX=   347.5616   YX=    15.6412   ZX=   -12.0893
   XY=    29.5166   YY=   339.1521   ZY=   -11.4120
   XZ=    -8.7165   YZ=    -4.2357   ZZ=   314.5111
   Eigenvalues:   311.3898   320.4313   369.4038
     17  C    Isotropic =   184.2424   Anisotropy =    11.9892
   XX=   187.4212   YX=     2.3626   ZX=     7.1620
   XY=     3.9813   YY=   182.4047   ZY=    -3.7512
   XZ=     6.2445   YZ=    -5.0685   ZZ=   182.9014
   Eigenvalues:   174.4007   186.0913   192.2352
     18  C    Isotropic =   186.3392   Anisotropy =    12.3122
   XX=   190.6162   YX=    -1.1457   ZX=    -2.8418
   XY=    -3.6987   YY=   192.6160   ZY=     1.1100
   XZ=    -3.4544   YZ=     0.3502   ZZ=   175.7854
   Eigenvalues:   175.1417   189.3286   194.5473
     19  C    Isotropic =   185.1997   Anisotropy =     7.0813
   XX=   183.8414   YX=     5.6923   ZX=    -3.8600
   XY=     5.5062   YY=   183.6280   ZY=     1.5905
   XZ=    -1.7533   YZ=     5.0790   ZZ=   188.1299
   Eigenvalues:   176.5080   189.1706   189.9206
     20  H    Isotropic =    32.3673   Anisotropy =    10.1002
   XX=    32.7365   YX=     4.5981   ZX=    -1.0848
   XY=     4.0891   YY=    35.8744   ZY=    -0.8929
   XZ=    -1.0514   YZ=    -0.9546   ZZ=    28.4911
   Eigenvalues:    28.2344    29.7668    39.1008
     21  H    Isotropic =    32.0041   Anisotropy =     8.0837
   XX=    29.8975   YX=    -0.8258   ZX=    -3.3205
   XY=    -1.0124   YY=    31.8780   ZY=     3.2509
   XZ=    -2.6406   YZ=     2.5450   ZZ=    34.2369
   Eigenvalues:    28.2781    30.3410    37.3933
     22  H    Isotropic =    32.0212   Anisotropy =     7.6919
   XX=    33.5700   YX=    -1.7189   ZX=     3.8848
   XY=    -2.1432   YY=    32.0753   ZY=    -1.8716
   XZ=     3.2789   YZ=    -1.3866   ZZ=    30.4183
   Eigenvalues:    28.0514    30.8631    37.1491
     23  H    Isotropic =    32.1497   Anisotropy =    10.5571
   XX=    33.7934   YX=     4.6880   ZX=    -3.3068
   XY=     4.8637   YY=    32.2635   ZY=    -2.0499
   XZ=    -2.6570   YZ=    -1.4493   ZZ=    30.3922
   Eigenvalues:    27.9145    29.3468    39.1877
     24  H    Isotropic =    31.7470   Anisotropy =     7.4360
   XX=    31.7380   YX=     0.2501   ZX=     2.5078
   XY=     0.9000   YY=    28.8315   ZY=    -1.4762
   XZ=     3.5973   YZ=    -1.4416   ZZ=    34.6716
   Eigenvalues:    27.9000    30.6367    36.7044
     25  H    Isotropic =    31.8980   Anisotropy =     6.5689
   XX=    30.6898   YX=    -2.0522   ZX=    -2.5724
   XY=    -1.7020   YY=    34.8346   ZY=     0.5106
   XZ=    -2.5508   YZ=     1.7710   ZZ=    30.1695
   Eigenvalues:    27.8271    31.5896    36.2772
     26  H    Isotropic =    32.0326   Anisotropy =     6.3382
   XX=    32.7001   YX=    -2.4922   ZX=     1.4450
   XY=    -1.7366   YY=    34.9632   ZY=     0.7444
   XZ=     1.6760   YZ=     0.0630   ZZ=    28.4347
   Eigenvalues:    27.7595    32.0803    36.2581
     27  H    Isotropic =    31.9697   Anisotropy =     7.7035
   XX=    30.0293   YX=     0.7576   ZX=     0.2116
   XY=     0.9385   YY=    28.8612   ZY=     0.6650
   XZ=    -0.8103   YZ=     0.9601   ZZ=    37.0186
   Eigenvalues:    28.3307    30.4731    37.1054
     28  H    Isotropic =    32.3232   Anisotropy =    10.3185
   XX=    35.2914   YX=     4.8593   ZX=     1.1376
   XY=     5.0167   YY=    32.8289   ZY=    -0.0441
   XZ=     0.8947   YZ=    -0.1609   ZZ=    28.8492
   Eigenvalues:    28.1738    29.5936    39.2021
     29  H    Isotropic =    31.3791   Anisotropy =    10.5482
   XX=    32.5129   YX=     1.2055   ZX=    -4.2559
   XY=     1.2073   YY=    27.5970   ZY=    -2.6174
   XZ=    -4.2834   YZ=    -3.0295   ZZ=    34.0274
   Eigenvalues:    26.4954    29.2306    38.4112
     30  H    Isotropic =    30.8322   Anisotropy =     5.5413
   XX=    28.1813   YX=     1.7329   ZX=    -0.0303
   XY=     1.9119   YY=    32.1356   ZY=     1.9519
   XZ=     0.4405   YZ=     2.1112   ZZ=    32.1797
   Eigenvalues:    27.3958    30.5743    34.5264
     31  H    Isotropic =    30.8615   Anisotropy =     8.7886
   XX=    30.2874   YX=    -3.6220   ZX=     1.0190
   XY=    -3.4396   YY=    29.7269   ZY=    -3.6483
   XZ=     1.5731   YZ=    -3.7978   ZZ=    32.5703
   Eigenvalues:    25.8039    30.0601    36.7206
     32  H    Isotropic =    30.4331   Anisotropy =     4.6040
   XX=    30.6547   YX=    -3.6980   ZX=     1.5770
   XY=    -3.7765   YY=    28.1542   ZY=     2.3255
   XZ=     1.7103   YZ=     1.6533   ZZ=    32.4904
   Eigenvalues:    24.6208    33.1761    33.5024
     33  H    Isotropic =    30.0450   Anisotropy =     9.7134
   XX=    36.0729   YX=     0.7240   ZX=    -2.1510
   XY=     0.3683   YY=    30.4737   ZY=    -1.3183
   XZ=    -2.1222   YZ=    -1.1417   ZZ=    23.5884
   Eigenvalues:    23.0616    30.5528    36.5206
     34  H    Isotropic =    31.0218   Anisotropy =    10.4931
   XX=    31.1717   YX=    -4.2020   ZX=    -0.5725
   XY=    -3.6224   YY=    35.2878   ZY=     2.4571
   XZ=    -0.3239   YZ=     1.7708   ZZ=    26.6059
   Eigenvalues:    26.0632    28.9850    38.0172
     35  H    Isotropic =    31.4242   Anisotropy =    10.1141
   XX=    36.7842   YX=     1.7697   ZX=    -3.3264
   XY=     0.6605   YY=    28.8103   ZY=    -1.7006
   XZ=    -3.0226   YZ=    -1.2621   ZZ=    28.6780
   Eigenvalues:    26.9566    29.1490    38.1669
     36  H    Isotropic =    30.5374   Anisotropy =     7.6238
   XX=    31.2755   YX=    -2.7041   ZX=     3.1001
   XY=    -3.4292   YY=    27.1322   ZY=    -0.5293
   XZ=     2.0402   YZ=    -0.5999   ZZ=    33.2047
   Eigenvalues:    25.4307    30.5617    35.6200
     37  C    Isotropic =   140.6539   Anisotropy =    31.4530
   XX=   143.0355   YX=    -6.7506   ZX=     3.3457
   XY=    -5.0068   YY=   159.5121   ZY=    -3.2495
   XZ=     9.4407   YZ=     0.9535   ZZ=   119.4141
   Eigenvalues:   117.7921   142.5470   161.6226
     38  C    Isotropic =    45.5397   Anisotropy =   173.7035
   XX=    93.4392   YX=   -50.7471   ZX=    81.2964
   XY=   -53.3094   YY=   -22.7989   ZY=    42.3759
   XZ=    77.3635   YZ=    39.8417   ZZ=    65.9789
   Eigenvalues:   -78.1157    53.3928   161.3421
     39  C    Isotropic =    61.8334   Anisotropy =   143.0978
   XX=   104.5719   YX=   -49.3080   ZX=    58.5445
   XY=   -50.8203   YY=    -8.3343   ZY=    41.0954
   XZ=    59.3551   YZ=    40.4372   ZZ=    89.2626
   Eigenvalues:   -53.4599    81.7282   157.2319
     40  H    Isotropic =    29.9197   Anisotropy =     3.7351
   XX=    31.8149   YX=     0.0423   ZX=    -2.2351
   XY=     0.1185   YY=    32.2673   ZY=    -1.0133
   XZ=    -0.9912   YZ=     0.3347   ZZ=    25.6771
   Eigenvalues:    25.2652    32.0843    32.4098
     41  H    Isotropic =    29.3558   Anisotropy =     2.6643
   XX=    29.2344   YX=     0.8253   ZX=     2.6006
   XY=    -0.2476   YY=    29.3878   ZY=    -0.2097
   XZ=     0.9221   YZ=     0.2668   ZZ=    29.4453
   Eigenvalues:    27.5553    29.3802    31.1320
     42  H    Isotropic =    25.9465   Anisotropy =     7.2983
   XX=    24.2725   YX=    -2.7777   ZX=    -0.3439
   XY=    -3.4713   YY=    29.1176   ZY=     1.3367
   XZ=    -0.5932   YZ=     0.4743   ZZ=    24.4493
   Eigenvalues:    22.7411    24.2863    30.8120
     43  H    Isotropic =    26.7216   Anisotropy =     6.6771
   XX=    25.8320   YX=    -3.3109   ZX=    -0.6424
   XY=    -1.9863   YY=    28.3199   ZY=     1.6535
   XZ=    -0.5394   YZ=     3.3619   ZZ=    26.0127
   Eigenvalues:    23.6499    25.3418    31.1730
     44  H    Isotropic =    26.7118   Anisotropy =     7.3402
   XX=    26.9583   YX=    -2.5125   ZX=    -0.9072
   XY=    -4.2719   YY=    26.7657   ZY=     3.7901
   XZ=    -1.2194   YZ=     1.4985   ZZ=    26.4116
   Eigenvalues:    22.9432    25.5871    31.6053
 End of Minotr F.D. properties file   721 does not exist.
 End of Minotr F.D. properties file   722 does not exist.
 End of Minotr F.D. properties file   788 does not exist.

 **********************************************************************

            Population analysis using the SCF density.

 **********************************************************************

 Orbital symmetries:
       Occupied  (A) (A) (A) (A) (A) (A) (A) (A) (A) (A) (A) (A)
                 (A) (A) (A) (A) (A) (A) (A) (A) (A) (A) (A) (A)
                 (A) (A) (A) (A) (A) (A) (A) (A) (A) (A) (A) (A)
                 (A) (A) (A) (A) (A) (A) (A) (A) (A) (A) (A) (A)
                 (A) (A) (A) (A) (A) (A) (A) (A) (A) (A) (A) (A)
                 (A) (A) (A) (A) (A) (A) (A) (A) (A) (A) (A) (A)
                 (A) (A)
       Virtual   (A) (A) (A) (A) (A) (A) (A) (A) (A) (A) (A) (A)
                 (A) (A) (A) (A) (A) (A) (A) (A) (A) (A) (A) (A)
                 (A) (A) (A) (A) (A) (A) (A) (A) (A) (A) (A) (A)
                 (A) (A) (A) (A) (A) (A) (A) (A) (A) (A) (A) (A)
                 (A) (A) (A) (A) (A) (A) (A) (A) (A) (A) (A) (A)
                 (A) (A) (A) (A) (A) (A) (A) (A) (A) (A) (A) (A)
                 (A) (A) (A) (A) (A) (A) (A) (A) (A) (A) (A) (A)
                 (A) (A) (A) (A) (A) (A) (A) (A) (A) (A) (A) (A)
                 (A) (A) (A) (A) (A) (A) (A) (A) (A) (A) (A) (A)
                 (A) (A) (A) (A) (A) (A) (A) (A) (A) (A) (A) (A)
                 (A) (A) (A) (A) (A) (A) (A) (A) (A) (A) (A) (A)
                 (A) (A) (A) (A) (A) (A) (A) (A) (A) (A) (A) (A)
                 (A) (A) (A) (A) (A) (A) (A) (A) (A) (A) (A) (A)
                 (A) (A) (A) (A) (A) (A) (A) (A) (A) (A) (A) (A)
                 (A) (A) (A) (A) (A) (A) (A) (A) (A) (A) (A) (A)
                 (A) (A) (A) (A) (A) (A) (A) (A) (A) (A) (A) (A)
                 (A) (A) (A) (A) (A) (A) (A) (A) (A) (A) (A) (A)
                 (A) (A) (A) (A) (A) (A) (A) (A) (A) (A) (A) (A)
                 (A) (A) (A) (A) (A) (A) (A) (A) (A) (A) (A) (A)
                 (A) (A) (A) (A) (A) (A) (A) (A) (A) (A) (A) (A)
                 (A) (A) (A) (A) (A) (A) (A) (A) (A) (A) (A) (A)
                 (A) (A) (A) (A) (A) (A) (A) (A) (A) (A) (A) (A)
                 (A) (A) (A) (A) (A) (A) (A) (A) (A) (A) (A) (A)
                 (A) (A) (A) (A) (A) (A) (A) (A) (A) (A) (A) (A)
                 (A) (A) (A) (A) (A) (A) (A) (A) (A) (A) (A) (A)
                 (A) (A) (A) (A) (A) (A) (A) (A) (A) (A) (A) (A)
                 (A) (A) (A) (A) (A) (A) (A) (A) (A) (A) (A) (A)
                 (A) (A) (A) (A) (A) (A) (A) (A) (A) (A) (A) (A)
 The electronic state is 1-A.
 Alpha  occ. eigenvalues --  -66.26994 -19.25472 -19.21448 -19.20077 -10.36930
 Alpha  occ. eigenvalues --  -10.32161 -10.30222 -10.25219 -10.24924 -10.24767
 Alpha  occ. eigenvalues --  -10.24712 -10.23520 -10.22734 -10.22720 -10.21447
 Alpha  occ. eigenvalues --  -10.20766 -10.20488 -10.20447  -5.32822  -3.66674
 Alpha  occ. eigenvalues --   -3.66433  -3.66401  -1.13028  -1.04757  -1.04355
 Alpha  occ. eigenvalues --   -0.85742  -0.82986  -0.80632  -0.77708  -0.73867
 Alpha  occ. eigenvalues --   -0.73118  -0.71839  -0.70257  -0.69853  -0.66276
 Alpha  occ. eigenvalues --   -0.63563  -0.62282  -0.58291  -0.56087  -0.53498
 Alpha  occ. eigenvalues --   -0.51650  -0.50443  -0.49086  -0.48630  -0.47763
 Alpha  occ. eigenvalues --   -0.46251  -0.45368  -0.44935  -0.44254  -0.43276
 Alpha  occ. eigenvalues --   -0.42827  -0.42540  -0.42264  -0.41648  -0.41091
 Alpha  occ. eigenvalues --   -0.40985  -0.40322  -0.39787  -0.39529  -0.38811
 Alpha  occ. eigenvalues --   -0.38741  -0.37950  -0.37177  -0.36497  -0.35743
 Alpha  occ. eigenvalues --   -0.35256  -0.34198  -0.33395  -0.31652  -0.30531
 Alpha  occ. eigenvalues --   -0.29936  -0.29341  -0.28956  -0.27240
 Alpha virt. eigenvalues --   -0.00630   0.00590   0.04066   0.05035   0.06054
 Alpha virt. eigenvalues --    0.06960   0.07135   0.07955   0.08871   0.09374
 Alpha virt. eigenvalues --    0.09532   0.09777   0.10619   0.11425   0.11911
 Alpha virt. eigenvalues --    0.12332   0.12896   0.13314   0.13626   0.13771
 Alpha virt. eigenvalues --    0.14186   0.14699   0.14894   0.15199   0.15450
 Alpha virt. eigenvalues --    0.16211   0.16427   0.16989   0.17495   0.18151
 Alpha virt. eigenvalues --    0.18333   0.19218   0.20170   0.21012   0.21601
 Alpha virt. eigenvalues --    0.22276   0.22980   0.23294   0.24005   0.25433
 Alpha virt. eigenvalues --    0.25667   0.25855   0.26470   0.26659   0.28112
 Alpha virt. eigenvalues --    0.29284   0.30373   0.31205   0.31658   0.31855
 Alpha virt. eigenvalues --    0.33237   0.33780   0.35140   0.36046   0.36839
 Alpha virt. eigenvalues --    0.36948   0.37676   0.38891   0.39239   0.39977
 Alpha virt. eigenvalues --    0.41165   0.42505   0.42702   0.44303   0.45259
 Alpha virt. eigenvalues --    0.45607   0.46339   0.46859   0.47540   0.49406
 Alpha virt. eigenvalues --    0.50335   0.51058   0.51481   0.52228   0.52998
 Alpha virt. eigenvalues --    0.53692   0.54510   0.55127   0.55323   0.55891
 Alpha virt. eigenvalues --    0.56626   0.56816   0.57748   0.58582   0.59273
 Alpha virt. eigenvalues --    0.59444   0.60065   0.60440   0.60895   0.61267
 Alpha virt. eigenvalues --    0.61616   0.61952   0.62068   0.62884   0.63321
 Alpha virt. eigenvalues --    0.63841   0.64383   0.65066   0.65239   0.65754
 Alpha virt. eigenvalues --    0.66487   0.67138   0.67474   0.67687   0.68715
 Alpha virt. eigenvalues --    0.68783   0.69060   0.70263   0.71313   0.72007
 Alpha virt. eigenvalues --    0.72406   0.73139   0.74020   0.74558   0.74937
 Alpha virt. eigenvalues --    0.75953   0.77624   0.78807   0.81127   0.81631
 Alpha virt. eigenvalues --    0.83865   0.84671   0.85325   0.86579   0.89024
 Alpha virt. eigenvalues --    0.89492   0.90935   0.91479   0.93263   0.93918
 Alpha virt. eigenvalues --    0.94983   0.96272   0.97731   0.98273   1.00620
 Alpha virt. eigenvalues --    1.02972   1.04850   1.06703   1.08147   1.08732
 Alpha virt. eigenvalues --    1.09057   1.12969   1.15209   1.17703   1.20393
 Alpha virt. eigenvalues --    1.20755   1.22900   1.25939   1.26782   1.28059
 Alpha virt. eigenvalues --    1.28606   1.30215   1.31126   1.31714   1.34712
 Alpha virt. eigenvalues --    1.35300   1.37060   1.39597   1.40982   1.42399
 Alpha virt. eigenvalues --    1.43980   1.44300   1.45566   1.47624   1.48983
 Alpha virt. eigenvalues --    1.50037   1.51083   1.52570   1.53302   1.54371
 Alpha virt. eigenvalues --    1.54795   1.54952   1.56781   1.58246   1.58787
 Alpha virt. eigenvalues --    1.59453   1.60203   1.60662   1.61140   1.61880
 Alpha virt. eigenvalues --    1.62075   1.62420   1.63297   1.63466   1.64610
 Alpha virt. eigenvalues --    1.64853   1.66523   1.67942   1.68554   1.69044
 Alpha virt. eigenvalues --    1.69213   1.71319   1.71972   1.73113   1.73369
 Alpha virt. eigenvalues --    1.75393   1.76153   1.77910   1.80800   1.81407
 Alpha virt. eigenvalues --    1.81897   1.82670   1.84949   1.85835   1.87557
 Alpha virt. eigenvalues --    1.88663   1.90650   1.93222   1.95538   1.95746
 Alpha virt. eigenvalues --    1.97519   2.02176   2.06336   2.09625   2.14101
 Alpha virt. eigenvalues --    2.16622   2.17841   2.19960   2.21265   2.24082
 Alpha virt. eigenvalues --    2.26262   2.30997   2.34643   2.36510   2.40891
 Alpha virt. eigenvalues --    2.41699   2.42501   2.42677   2.43000   2.43811
 Alpha virt. eigenvalues --    2.44558   2.44771   2.46576   2.47429   2.47745
 Alpha virt. eigenvalues --    2.48586   2.49017   2.49795   2.51240   2.53714
 Alpha virt. eigenvalues --    2.54560   2.55784   2.56310   2.57375   2.58180
 Alpha virt. eigenvalues --    2.60964   2.63672   2.69094   2.71090   2.79963
 Alpha virt. eigenvalues --    2.85140   2.87168   2.88209   2.88898   2.89504
 Alpha virt. eigenvalues --    2.91731   2.92519   2.94060   2.95457   2.98809
 Alpha virt. eigenvalues --    3.00316   3.02261   3.04608   3.05893   3.06428
 Alpha virt. eigenvalues --    3.10056   3.12096   3.13433   3.14882   3.15284
 Alpha virt. eigenvalues --    3.16570   3.18734   3.19062   3.20435   3.22076
 Alpha virt. eigenvalues --    3.22934   3.23101   3.24160   3.24820   3.25305
 Alpha virt. eigenvalues --    3.26793   3.28224   3.29181   3.30093   3.33192
 Alpha virt. eigenvalues --    3.33882   3.34188   3.36607   3.38491   3.41387
 Alpha virt. eigenvalues --    3.44180   3.53060   3.55324   3.58802   3.61687
 Alpha virt. eigenvalues --    3.78189   3.89167   3.90971   3.97028   4.00566
 Alpha virt. eigenvalues --    4.12272   4.13713   4.16374   4.19616   4.21120
 Alpha virt. eigenvalues --    4.95722   5.01043   5.03700   5.10514   5.19186
 Alpha virt. eigenvalues --    5.25434   5.50992   5.54232   5.77661   5.84371
 Alpha virt. eigenvalues --   11.53934  11.54756  11.59020  23.41065  23.49351
 Alpha virt. eigenvalues --   23.54531  23.55304  23.58404  23.60493  23.71781
 Alpha virt. eigenvalues --   23.74766  23.77497  23.80140  23.83855  23.84619
 Alpha virt. eigenvalues --   23.89809  24.26608  49.98353  50.06261  50.11648
 Alpha virt. eigenvalues --  141.30072
          Condensed to atoms (all electrons):
               1          2          3          4          5          6
     1  C    5.127767   0.348084  -0.050103  -0.011371  -0.050026   0.403479
     2  C    0.348084   5.526350   0.255334  -0.105610  -0.022028  -0.044686
     3  C   -0.050103   0.255334   5.244325   0.239044  -0.019481   0.009162
     4  C   -0.011371  -0.105610   0.239044   5.782172   0.263561  -0.002359
     5  C   -0.050026  -0.022028  -0.019481   0.263561   4.420300   0.003311
     6  H    0.403479  -0.044686   0.009162  -0.002359   0.003311   0.475001
     7  H   -0.054119   0.407830  -0.048654   0.004228  -0.000511  -0.011012
     8  H    0.000484  -0.000348  -0.027736   0.359899  -0.026316  -0.000084
     9  H   -0.000809   0.007060  -0.027364   0.365731  -0.033005   0.000093
    10  O    0.225932  -0.035821   0.004070  -0.103421   0.324077  -0.024319
    11  O    0.001265   0.000326   0.002231  -0.095581   0.652525  -0.000299
    12  C    0.309905  -0.066384  -0.016886   0.003280  -0.008145  -0.056547
    13  C   -0.079938   0.008399  -0.000237   0.000213  -0.000201  -0.007223
    14  C   -0.059122   0.291758  -0.072211   0.007898  -0.000196  -0.002474
    15  O   -0.000038  -0.071068   0.214794  -0.057461   0.007202  -0.000367
    16  Si  -0.000122   0.004644  -0.049713  -0.016440   0.001025  -0.000077
    17  C    0.000025  -0.000254  -0.000419  -0.000371   0.000015   0.000000
    18  C   -0.000030   0.000040   0.002476  -0.000310  -0.000039   0.000000
    19  C   -0.000032  -0.000274  -0.000856  -0.001271   0.000156  -0.000001
    20  H   -0.000001   0.000001  -0.000061   0.000000  -0.000002   0.000000
    21  H   -0.000013   0.000048  -0.000115  -0.000027   0.000000   0.000002
    22  H   -0.000032  -0.000004   0.000001   0.000039   0.000035   0.000002
    23  H    0.000000   0.000009  -0.000043   0.000370  -0.000037   0.000000
    24  H   -0.000017  -0.000090  -0.000099  -0.002504   0.000956   0.000001
    25  H   -0.000004  -0.000042   0.000478  -0.000113   0.000025   0.000000
    26  H    0.000001  -0.000006   0.000161  -0.000063   0.000002   0.000000
    27  H    0.000005   0.000059   0.000545  -0.000038   0.000003   0.000000
    28  H   -0.000001   0.000011  -0.000064   0.000007   0.000000   0.000000
    29  H   -0.002663  -0.044629   0.007740  -0.000399   0.000052   0.004634
    30  H   -0.006314  -0.036954  -0.006429   0.000495  -0.000015  -0.000584
    31  H    0.005779  -0.029716  -0.007029  -0.000222  -0.000052  -0.000320
    32  H   -0.033660  -0.006578   0.001034  -0.000279   0.000315   0.000559
    33  H   -0.030358  -0.005133   0.003051  -0.002059   0.004135   0.006194
    34  H    0.008012  -0.000256  -0.000001   0.000007  -0.000061  -0.000104
    35  H   -0.004411  -0.000200   0.000042  -0.000029   0.000002   0.006533
    36  H   -0.010730   0.000320  -0.000085   0.000653   0.002046  -0.000650
    37  C    0.007418  -0.084503   0.327886  -0.081706   0.004048  -0.000219
    38  C    0.000093  -0.007354  -0.052298  -0.005647  -0.000088  -0.000022
    39  C   -0.000019  -0.000087  -0.003291  -0.000989   0.000011   0.000000
    40  H   -0.000145   0.006725  -0.031235  -0.008321   0.000148   0.000012
    41  H   -0.000144  -0.010018  -0.043193   0.006858  -0.000131  -0.000014
    42  H    0.000336   0.001409  -0.002767   0.000118   0.000016   0.000024
    43  H   -0.000003   0.000026  -0.000185   0.000021  -0.000001   0.000000
    44  H    0.000001   0.000061  -0.000346   0.000306  -0.000001   0.000000
               7          8          9         10         11         12
     1  C   -0.054119   0.000484  -0.000809   0.225932   0.001265   0.309905
     2  C    0.407830  -0.000348   0.007060  -0.035821   0.000326  -0.066384
     3  C   -0.048654  -0.027736  -0.027364   0.004070   0.002231  -0.016886
     4  C    0.004228   0.359899   0.365731  -0.103421  -0.095581   0.003280
     5  C   -0.000511  -0.026316  -0.033005   0.324077   0.652525  -0.008145
     6  H   -0.011012  -0.000084   0.000093  -0.024319  -0.000299  -0.056547
     7  H    0.477229   0.001224   0.000145   0.003228   0.000021   0.009573
     8  H    0.001224   0.415273  -0.016863   0.000899   0.000051   0.000113
     9  H    0.000145  -0.016863   0.425170   0.005283   0.011172   0.000039
    10  O    0.003228   0.000899   0.005283   8.041508  -0.067635  -0.058432
    11  O    0.000021   0.000051   0.011172  -0.067635   7.874569   0.000359
    12  C    0.009573   0.000113   0.000039  -0.058432   0.000359   5.385748
    13  C   -0.000341  -0.000011  -0.000002  -0.001374  -0.000092   0.301248
    14  C   -0.037164  -0.000121  -0.000109   0.003469   0.000006  -0.003110
    15  O    0.004130   0.003656  -0.002869  -0.000877  -0.000038  -0.001878
    16  Si  -0.000013   0.002544  -0.004148  -0.000890   0.001866  -0.000867
    17  C    0.000003   0.000020  -0.000112   0.000000   0.000000  -0.000027
    18  C    0.000002  -0.000004  -0.000026   0.000005  -0.000017   0.000290
    19  C    0.000011  -0.000122  -0.003336   0.000001  -0.000711   0.000024
    20  H    0.000000   0.000000   0.000006   0.000000   0.000000   0.000009
    21  H   -0.000001   0.000001  -0.000006   0.000001   0.000000   0.000224
    22  H    0.000000  -0.000002  -0.000015   0.000005  -0.000019   0.000278
    23  H    0.000000  -0.000008   0.000583   0.000000  -0.000009   0.000000
    24  H    0.000003   0.000073   0.001708   0.000053   0.003242   0.000003
    25  H    0.000004  -0.000172   0.000253  -0.000005  -0.000163   0.000000
    26  H    0.000002   0.000013  -0.000024   0.000000   0.000000  -0.000001
    27  H    0.000002   0.000004  -0.000007   0.000000   0.000000  -0.000005
    28  H    0.000000   0.000000   0.000008   0.000000   0.000000   0.000001
    29  H   -0.003684  -0.000016   0.000017   0.000085   0.000000  -0.002644
    30  H    0.006386  -0.000022  -0.000007  -0.000056   0.000000   0.002173
    31  H   -0.006797  -0.000022  -0.000013  -0.000121   0.000000   0.000392
    32  H   -0.000324   0.000000  -0.000014   0.003754  -0.000027   0.385700
    33  H   -0.000328   0.000024   0.000112  -0.001200  -0.000145   0.384417
    34  H    0.000021   0.000000   0.000000  -0.000077  -0.000003  -0.038153
    35  H   -0.000059   0.000000   0.000000  -0.000222  -0.000014  -0.042434
    36  H   -0.000029  -0.000005  -0.000030   0.010077   0.001223  -0.037348
    37  C   -0.008898  -0.007854  -0.007674  -0.000450  -0.000220  -0.000419
    38  C    0.006013   0.005872   0.000196  -0.000073   0.000004  -0.000016
    39  C    0.000887   0.003434   0.000486   0.000002   0.000001   0.000000
    40  H   -0.000219  -0.000632   0.001211   0.000002  -0.000025  -0.000010
    41  H    0.000764   0.000354   0.000148   0.000008   0.000003   0.000021
    42  H   -0.000777  -0.000262  -0.000018  -0.000027   0.000001  -0.000016
    43  H   -0.000009   0.000063   0.000012   0.000000   0.000000   0.000000
    44  H   -0.000006  -0.000051   0.000091   0.000000   0.000000   0.000000
              13         14         15         16         17         18
     1  C   -0.079938  -0.059122  -0.000038  -0.000122   0.000025  -0.000030
     2  C    0.008399   0.291758  -0.071068   0.004644  -0.000254   0.000040
     3  C   -0.000237  -0.072211   0.214794  -0.049713  -0.000419   0.002476
     4  C    0.000213   0.007898  -0.057461  -0.016440  -0.000371  -0.000310
     5  C   -0.000201  -0.000196   0.007202   0.001025   0.000015  -0.000039
     6  H   -0.007223  -0.002474  -0.000367  -0.000077   0.000000   0.000000
     7  H   -0.000341  -0.037164   0.004130  -0.000013   0.000003   0.000002
     8  H   -0.000011  -0.000121   0.003656   0.002544   0.000020  -0.000004
     9  H   -0.000002  -0.000109  -0.002869  -0.004148  -0.000112  -0.000026
    10  O   -0.001374   0.003469  -0.000877  -0.000890   0.000000   0.000005
    11  O   -0.000092   0.000006  -0.000038   0.001866   0.000000  -0.000017
    12  C    0.301248  -0.003110  -0.001878  -0.000867  -0.000027   0.000290
    13  C    5.368419  -0.000509   0.000526   0.000557   0.000000  -0.000011
    14  C   -0.000509   5.402365  -0.000779   0.000197   0.000062  -0.000011
    15  O    0.000526  -0.000779   8.284424   0.341929  -0.024157  -0.021857
    16  Si   0.000557   0.000197   0.341929  11.512396   0.323231   0.335279
    17  C    0.000000   0.000062  -0.024157   0.323231   5.770773  -0.054284
    18  C   -0.000011  -0.000011  -0.021857   0.335279  -0.054284   5.727292
    19  C    0.000001   0.000008  -0.021085   0.316304  -0.058374  -0.049931
    20  H    0.000000   0.000000   0.000889  -0.013352   0.000547   0.364147
    21  H   -0.000018  -0.000005  -0.001083  -0.025436  -0.000633   0.368517
    22  H    0.000007   0.000002  -0.001422  -0.026670   0.002521   0.368445
    23  H    0.000000   0.000000   0.000767  -0.009879   0.000003  -0.000762
    24  H    0.000000   0.000003  -0.001616  -0.025404   0.002424  -0.000597
    25  H    0.000000   0.000002  -0.000937  -0.031305  -0.001598   0.003097
    26  H    0.000000  -0.000006  -0.001254  -0.030645   0.371115   0.002859
    27  H    0.000000   0.000097  -0.002071  -0.025596   0.370187  -0.000591
    28  H    0.000000  -0.000001   0.001000  -0.013320   0.364986  -0.000371
    29  H   -0.000252   0.393066  -0.000010   0.000078  -0.000004   0.000000
    30  H    0.000232   0.385604   0.006331   0.000651   0.000209  -0.000012
    31  H    0.000012   0.383678  -0.000063  -0.000333   0.000048  -0.000001
    32  H   -0.041011   0.000780  -0.000506  -0.000475  -0.000004   0.000094
    33  H   -0.050360   0.000224   0.003018  -0.000917   0.000015  -0.000720
    34  H    0.393060   0.000006  -0.000011  -0.000008   0.000000   0.000013
    35  H    0.382417   0.000029  -0.000025  -0.000038   0.000000   0.000000
    36  H    0.385888  -0.000074  -0.000011   0.000026   0.000000   0.000000
    37  C    0.000016  -0.004442  -0.036253  -0.005390  -0.002319  -0.000065
    38  C    0.000000  -0.001341   0.003773   0.002002   0.000228   0.000003
    39  C    0.000000   0.000056  -0.000052  -0.000348  -0.000001   0.000000
    40  H    0.000000   0.000124  -0.002021   0.007096  -0.000601   0.000036
    41  H    0.000000   0.001516   0.000082  -0.002821  -0.001986  -0.000049
    42  H    0.000000   0.000598  -0.000054  -0.000029  -0.000013   0.000000
    43  H    0.000000   0.000007   0.000004   0.000027   0.000000   0.000000
    44  H    0.000000  -0.000010  -0.000013  -0.000161  -0.000012   0.000000
              19         20         21         22         23         24
     1  C   -0.000032  -0.000001  -0.000013  -0.000032   0.000000  -0.000017
     2  C   -0.000274   0.000001   0.000048  -0.000004   0.000009  -0.000090
     3  C   -0.000856  -0.000061  -0.000115   0.000001  -0.000043  -0.000099
     4  C   -0.001271   0.000000  -0.000027   0.000039   0.000370  -0.002504
     5  C    0.000156  -0.000002   0.000000   0.000035  -0.000037   0.000956
     6  H   -0.000001   0.000000   0.000002   0.000002   0.000000   0.000001
     7  H    0.000011   0.000000  -0.000001   0.000000   0.000000   0.000003
     8  H   -0.000122   0.000000   0.000001  -0.000002  -0.000008   0.000073
     9  H   -0.003336   0.000006  -0.000006  -0.000015   0.000583   0.001708
    10  O    0.000001   0.000000   0.000001   0.000005   0.000000   0.000053
    11  O   -0.000711   0.000000   0.000000  -0.000019  -0.000009   0.003242
    12  C    0.000024   0.000009   0.000224   0.000278   0.000000   0.000003
    13  C    0.000001   0.000000  -0.000018   0.000007   0.000000   0.000000
    14  C    0.000008   0.000000  -0.000005   0.000002   0.000000   0.000003
    15  O   -0.021085   0.000889  -0.001083  -0.001422   0.000767  -0.001616
    16  Si   0.316304  -0.013352  -0.025436  -0.026670  -0.009879  -0.025404
    17  C   -0.058374   0.000547  -0.000633   0.002521   0.000003   0.002424
    18  C   -0.049931   0.364147   0.368517   0.368445  -0.000762  -0.000597
    19  C    5.808749  -0.000260   0.002609  -0.000431   0.366616   0.365668
    20  H   -0.000260   0.452333  -0.020348  -0.020574   0.000448  -0.000048
    21  H    0.002609  -0.020348   0.457697  -0.018248  -0.000050  -0.000059
    22  H   -0.000431  -0.020574  -0.018248   0.454206  -0.000092   0.001256
    23  H    0.366616   0.000448  -0.000050  -0.000092   0.434503  -0.020054
    24  H    0.365668  -0.000048  -0.000059   0.001256  -0.020054   0.442465
    25  H    0.366460  -0.000102  -0.000107  -0.000097  -0.019799  -0.019997
    26  H   -0.001741  -0.000104  -0.000089  -0.000118   0.000086  -0.000013
    27  H    0.002359  -0.000023   0.001209  -0.000086  -0.000035  -0.000093
    28  H    0.000778   0.000639  -0.000069   0.000008   0.000484  -0.000024
    29  H    0.000000   0.000000   0.000001   0.000000   0.000000   0.000000
    30  H    0.000019  -0.000003   0.000021  -0.000004   0.000000   0.000000
    31  H    0.000002   0.000000  -0.000002   0.000000   0.000000   0.000000
    32  H    0.000001  -0.000004   0.000086  -0.000009   0.000000  -0.000002
    33  H   -0.000157   0.000138  -0.000108   0.000778   0.000003   0.000012
    34  H    0.000000  -0.000001   0.000011   0.000022   0.000000   0.000000
    35  H    0.000000   0.000000   0.000001   0.000000   0.000000   0.000000
    36  H    0.000000   0.000000  -0.000001   0.000004   0.000000  -0.000003
    37  C   -0.003040   0.000003  -0.000027  -0.000006   0.000036   0.000175
    38  C    0.000051   0.000000   0.000000   0.000001   0.000000   0.000002
    39  C   -0.000026   0.000000   0.000000   0.000000   0.000000  -0.000002
    40  H    0.002227   0.000006   0.000005   0.000002   0.000015  -0.000306
    41  H    0.000223   0.000001  -0.000014  -0.000003  -0.000005   0.000004
    42  H   -0.000004   0.000000   0.000000   0.000000   0.000000   0.000001
    43  H   -0.000001   0.000000   0.000000   0.000000   0.000000   0.000000
    44  H   -0.000019   0.000000   0.000000   0.000000   0.000001   0.000002
              25         26         27         28         29         30
     1  C   -0.000004   0.000001   0.000005  -0.000001  -0.002663  -0.006314
     2  C   -0.000042  -0.000006   0.000059   0.000011  -0.044629  -0.036954
     3  C    0.000478   0.000161   0.000545  -0.000064   0.007740  -0.006429
     4  C   -0.000113  -0.000063  -0.000038   0.000007  -0.000399   0.000495
     5  C    0.000025   0.000002   0.000003   0.000000   0.000052  -0.000015
     6  H    0.000000   0.000000   0.000000   0.000000   0.004634  -0.000584
     7  H    0.000004   0.000002   0.000002   0.000000  -0.003684   0.006386
     8  H   -0.000172   0.000013   0.000004   0.000000  -0.000016  -0.000022
     9  H    0.000253  -0.000024  -0.000007   0.000008   0.000017  -0.000007
    10  O   -0.000005   0.000000   0.000000   0.000000   0.000085  -0.000056
    11  O   -0.000163   0.000000   0.000000   0.000000   0.000000   0.000000
    12  C    0.000000  -0.000001  -0.000005   0.000001  -0.002644   0.002173
    13  C    0.000000   0.000000   0.000000   0.000000  -0.000252   0.000232
    14  C    0.000002  -0.000006   0.000097  -0.000001   0.393066   0.385604
    15  O   -0.000937  -0.001254  -0.002071   0.001000  -0.000010   0.006331
    16  Si  -0.031305  -0.030645  -0.025596  -0.013320   0.000078   0.000651
    17  C   -0.001598   0.371115   0.370187   0.364986  -0.000004   0.000209
    18  C    0.003097   0.002859  -0.000591  -0.000371   0.000000  -0.000012
    19  C    0.366460  -0.001741   0.002359   0.000778   0.000000   0.000019
    20  H   -0.000102  -0.000104  -0.000023   0.000639   0.000000  -0.000003
    21  H   -0.000107  -0.000089   0.001209  -0.000069   0.000001   0.000021
    22  H   -0.000097  -0.000118  -0.000086   0.000008   0.000000  -0.000004
    23  H   -0.019799   0.000086  -0.000035   0.000484   0.000000   0.000000
    24  H   -0.019997  -0.000013  -0.000093  -0.000024   0.000000   0.000000
    25  H    0.451973   0.000793  -0.000032   0.000054   0.000000   0.000002
    26  H    0.000793   0.457529  -0.018742  -0.022579  -0.000001  -0.000007
    27  H   -0.000032  -0.018742   0.452996  -0.020662  -0.000005   0.000359
    28  H    0.000054  -0.022579  -0.020662   0.452643   0.000000  -0.000003
    29  H    0.000000  -0.000001  -0.000005   0.000000   0.462609  -0.025765
    30  H    0.000002  -0.000007   0.000359  -0.000003  -0.025765   0.446621
    31  H   -0.000001  -0.000006   0.000030  -0.000002  -0.025960  -0.025890
    32  H    0.000000  -0.000001  -0.000008  -0.000001   0.000257  -0.000823
    33  H   -0.000010  -0.000002   0.000002   0.000000   0.000153  -0.000065
    34  H    0.000000   0.000000   0.000000   0.000000   0.000006   0.000013
    35  H    0.000000   0.000000   0.000000   0.000000   0.000061   0.000007
    36  H    0.000000   0.000000   0.000000   0.000000  -0.000020  -0.000016
    37  C    0.000276   0.000478  -0.000262   0.000173  -0.000211  -0.000722
    38  C    0.000100   0.000209  -0.000063  -0.000003  -0.000004   0.000205
    39  C    0.000051   0.000031   0.000002   0.000000   0.000002  -0.000001
    40  H    0.005047   0.001667  -0.000011  -0.000028   0.000005  -0.000113
    41  H    0.000014  -0.000393   0.000095   0.000277   0.000147   0.000305
    42  H    0.000002  -0.000007  -0.000001   0.000000   0.000022  -0.000075
    43  H   -0.000004  -0.000001   0.000000   0.000000   0.000000   0.000000
    44  H    0.000128  -0.000008   0.000000   0.000001   0.000000   0.000000
              31         32         33         34         35         36
     1  C    0.005779  -0.033660  -0.030358   0.008012  -0.004411  -0.010730
     2  C   -0.029716  -0.006578  -0.005133  -0.000256  -0.000200   0.000320
     3  C   -0.007029   0.001034   0.003051  -0.000001   0.000042  -0.000085
     4  C   -0.000222  -0.000279  -0.002059   0.000007  -0.000029   0.000653
     5  C   -0.000052   0.000315   0.004135  -0.000061   0.000002   0.002046
     6  H   -0.000320   0.000559   0.006194  -0.000104   0.006533  -0.000650
     7  H   -0.006797  -0.000324  -0.000328   0.000021  -0.000059  -0.000029
     8  H   -0.000022   0.000000   0.000024   0.000000   0.000000  -0.000005
     9  H   -0.000013  -0.000014   0.000112   0.000000   0.000000  -0.000030
    10  O   -0.000121   0.003754  -0.001200  -0.000077  -0.000222   0.010077
    11  O    0.000000  -0.000027  -0.000145  -0.000003  -0.000014   0.001223
    12  C    0.000392   0.385700   0.384417  -0.038153  -0.042434  -0.037348
    13  C    0.000012  -0.041011  -0.050360   0.393060   0.382417   0.385888
    14  C    0.383678   0.000780   0.000224   0.000006   0.000029  -0.000074
    15  O   -0.000063  -0.000506   0.003018  -0.000011  -0.000025  -0.000011
    16  Si  -0.000333  -0.000475  -0.000917  -0.000008  -0.000038   0.000026
    17  C    0.000048  -0.000004   0.000015   0.000000   0.000000   0.000000
    18  C   -0.000001   0.000094  -0.000720   0.000013   0.000000   0.000000
    19  C    0.000002   0.000001  -0.000157   0.000000   0.000000   0.000000
    20  H    0.000000  -0.000004   0.000138  -0.000001   0.000000   0.000000
    21  H   -0.000002   0.000086  -0.000108   0.000011   0.000001  -0.000001
    22  H    0.000000  -0.000009   0.000778   0.000022   0.000000   0.000004
    23  H    0.000000   0.000000   0.000003   0.000000   0.000000   0.000000
    24  H    0.000000  -0.000002   0.000012   0.000000   0.000000  -0.000003
    25  H   -0.000001   0.000000  -0.000010   0.000000   0.000000   0.000000
    26  H   -0.000006  -0.000001  -0.000002   0.000000   0.000000   0.000000
    27  H    0.000030  -0.000008   0.000002   0.000000   0.000000   0.000000
    28  H   -0.000002  -0.000001   0.000000   0.000000   0.000000   0.000000
    29  H   -0.025960   0.000257   0.000153   0.000006   0.000061  -0.000020
    30  H   -0.025890  -0.000823  -0.000065   0.000013   0.000007  -0.000016
    31  H    0.459854   0.000540  -0.000098  -0.000001  -0.000007   0.000005
    32  H    0.000540   0.480923  -0.023434  -0.004823  -0.004632   0.007245
    33  H   -0.000098  -0.023434   0.453116  -0.004759   0.007873  -0.005921
    34  H   -0.000001  -0.004823  -0.004759   0.476498  -0.027733  -0.025880
    35  H   -0.000007  -0.004632   0.007873  -0.027733   0.496252  -0.028716
    36  H    0.000005   0.007245  -0.005921  -0.025880  -0.028716   0.467618
    37  C    0.002969   0.000011   0.000016  -0.000001  -0.000001   0.000004
    38  C   -0.000073  -0.000002  -0.000010   0.000000   0.000000   0.000000
    39  C    0.000077   0.000000   0.000000   0.000000   0.000000   0.000000
    40  H    0.000339   0.000003  -0.000001   0.000000   0.000000   0.000000
    41  H   -0.000408  -0.000018  -0.000003   0.000000   0.000000   0.000000
    42  H    0.002765   0.000004   0.000000   0.000000   0.000000   0.000000
    43  H   -0.000011   0.000000   0.000000   0.000000   0.000000   0.000000
    44  H    0.000005   0.000000   0.000000   0.000000   0.000000   0.000000
              37         38         39         40         41         42
     1  C    0.007418   0.000093  -0.000019  -0.000145  -0.000144   0.000336
     2  C   -0.084503  -0.007354  -0.000087   0.006725  -0.010018   0.001409
     3  C    0.327886  -0.052298  -0.003291  -0.031235  -0.043193  -0.002767
     4  C   -0.081706  -0.005647  -0.000989  -0.008321   0.006858   0.000118
     5  C    0.004048  -0.000088   0.000011   0.000148  -0.000131   0.000016
     6  H   -0.000219  -0.000022   0.000000   0.000012  -0.000014   0.000024
     7  H   -0.008898   0.006013   0.000887  -0.000219   0.000764  -0.000777
     8  H   -0.007854   0.005872   0.003434  -0.000632   0.000354  -0.000262
     9  H   -0.007674   0.000196   0.000486   0.001211   0.000148  -0.000018
    10  O   -0.000450  -0.000073   0.000002   0.000002   0.000008  -0.000027
    11  O   -0.000220   0.000004   0.000001  -0.000025   0.000003   0.000001
    12  C   -0.000419  -0.000016   0.000000  -0.000010   0.000021  -0.000016
    13  C    0.000016   0.000000   0.000000   0.000000   0.000000   0.000000
    14  C   -0.004442  -0.001341   0.000056   0.000124   0.001516   0.000598
    15  O   -0.036253   0.003773  -0.000052  -0.002021   0.000082  -0.000054
    16  Si  -0.005390   0.002002  -0.000348   0.007096  -0.002821  -0.000029
    17  C   -0.002319   0.000228  -0.000001  -0.000601  -0.001986  -0.000013
    18  C   -0.000065   0.000003   0.000000   0.000036  -0.000049   0.000000
    19  C   -0.003040   0.000051  -0.000026   0.002227   0.000223  -0.000004
    20  H    0.000003   0.000000   0.000000   0.000006   0.000001   0.000000
    21  H   -0.000027   0.000000   0.000000   0.000005  -0.000014   0.000000
    22  H   -0.000006   0.000001   0.000000   0.000002  -0.000003   0.000000
    23  H    0.000036   0.000000   0.000000   0.000015  -0.000005   0.000000
    24  H    0.000175   0.000002  -0.000002  -0.000306   0.000004   0.000001
    25  H    0.000276   0.000100   0.000051   0.005047   0.000014   0.000002
    26  H    0.000478   0.000209   0.000031   0.001667  -0.000393  -0.000007
    27  H   -0.000262  -0.000063   0.000002  -0.000011   0.000095  -0.000001
    28  H    0.000173  -0.000003   0.000000  -0.000028   0.000277   0.000000
    29  H   -0.000211  -0.000004   0.000002   0.000005   0.000147   0.000022
    30  H   -0.000722   0.000205  -0.000001  -0.000113   0.000305  -0.000075
    31  H    0.002969  -0.000073   0.000077   0.000339  -0.000408   0.002765
    32  H    0.000011  -0.000002   0.000000   0.000003  -0.000018   0.000004
    33  H    0.000016  -0.000010   0.000000  -0.000001  -0.000003   0.000000
    34  H   -0.000001   0.000000   0.000000   0.000000   0.000000   0.000000
    35  H   -0.000001   0.000000   0.000000   0.000000   0.000000   0.000000
    36  H    0.000004   0.000000   0.000000   0.000000   0.000000   0.000000
    37  C    5.476609   0.307164  -0.053021   0.389814   0.402049  -0.048596
    38  C    0.307164   5.064903   0.629199  -0.047345  -0.039268   0.398116
    39  C   -0.053021   0.629199   5.129546  -0.000403   0.001401  -0.037623
    40  H    0.389814  -0.047345  -0.000403   0.447852  -0.030067   0.005063
    41  H    0.402049  -0.039268   0.001401  -0.030067   0.440423  -0.003983
    42  H   -0.048596   0.398116  -0.037623   0.005063  -0.003983   0.464302
    43  H    0.005928  -0.037159   0.389890   0.000153  -0.000342  -0.007847
    44  H   -0.008132  -0.041073   0.389143   0.004825   0.000091   0.005833
              43         44
     1  C   -0.000003   0.000001
     2  C    0.000026   0.000061
     3  C   -0.000185  -0.000346
     4  C    0.000021   0.000306
     5  C   -0.000001  -0.000001
     6  H    0.000000   0.000000
     7  H   -0.000009  -0.000006
     8  H    0.000063  -0.000051
     9  H    0.000012   0.000091
    10  O    0.000000   0.000000
    11  O    0.000000   0.000000
    12  C    0.000000   0.000000
    13  C    0.000000   0.000000
    14  C    0.000007  -0.000010
    15  O    0.000004  -0.000013
    16  Si   0.000027  -0.000161
    17  C    0.000000  -0.000012
    18  C    0.000000   0.000000
    19  C   -0.000001  -0.000019
    20  H    0.000000   0.000000
    21  H    0.000000   0.000000
    22  H    0.000000   0.000000
    23  H    0.000000   0.000001
    24  H    0.000000   0.000002
    25  H   -0.000004   0.000128
    26  H   -0.000001  -0.000008
    27  H    0.000000   0.000000
    28  H    0.000000   0.000001
    29  H    0.000000   0.000000
    30  H    0.000000   0.000000
    31  H   -0.000011   0.000005
    32  H    0.000000   0.000000
    33  H    0.000000   0.000000
    34  H    0.000000   0.000000
    35  H    0.000000   0.000000
    36  H    0.000000   0.000000
    37  C    0.005928  -0.008132
    38  C   -0.037159  -0.041073
    39  C    0.389890   0.389143
    40  H    0.000153   0.004825
    41  H   -0.000342   0.000091
    42  H   -0.007847   0.005833
    43  H    0.450864  -0.032242
    44  H   -0.032242   0.455487
 Mulliken charges:
               1
     1  C   -0.044363
     2  C   -0.286451
     3  C    0.148527
     4  C   -0.538307
     5  C    0.476371
     6  H    0.242357
     7  H    0.251239
     8  H    0.286653
     9  H    0.276924
    10  O   -0.327457
    11  O   -0.383865
    12  C   -0.450473
    13  C   -0.659415
    14  C   -0.689868
    15  O   -0.622648
    16  Si   1.434546
    17  C   -1.061247
    18  C   -1.042911
    19  C   -1.090597
    20  H    0.235716
    21  H    0.236025
    22  H    0.240221
    23  H    0.246850
    24  H    0.252875
    25  H    0.245728
    26  H    0.240865
    27  H    0.240375
    28  H    0.236057
    29  H    0.237329
    30  H    0.254246
    31  H    0.240652
    32  H    0.235330
    33  H    0.262510
    34  H    0.224203
    35  H    0.215304
    36  H    0.234407
    37  C   -0.570642
    38  C   -0.186293
    39  C   -0.448353
    40  H    0.249107
    41  H    0.278077
    42  H    0.223490
    43  H    0.230808
    44  H    0.226099
 Sum of Mulliken charges =   0.00000
 Mulliken charges with hydrogens summed into heavy atoms:
               1
     1  C    0.197995
     2  C   -0.035212
     3  C    0.148527
     4  C    0.025270
     5  C    0.476371
    10  O   -0.327457
    11  O   -0.383865
    12  C    0.047366
    13  C    0.014499
    14  C    0.042359
    15  O   -0.622648
    16  Si   1.434546
    17  C   -0.343949
    18  C   -0.330949
    19  C   -0.345144
    37  C   -0.043459
    38  C    0.037197
    39  C    0.008555
 Electronic spatial extent (au):  <R**2>=           5055.6528
 Charge=              0.0000 electrons
 Dipole moment (field-independent basis, Debye):
    X=             -2.9730    Y=              2.0971    Z=             -4.2300  Tot=              5.5794
 Quadrupole moment (field-independent basis, Debye-Ang):
   XX=           -121.9513   YY=           -112.0800   ZZ=           -129.6037
   XY=              2.5488   XZ=            -12.9246   YZ=              0.9834
 Traceless Quadrupole moment (field-independent basis, Debye-Ang):
   XX=             -0.7396   YY=              9.1317   ZZ=             -8.3920
   XY=              2.5488   XZ=            -12.9246   YZ=              0.9834
 Octapole moment (field-independent basis, Debye-Ang**2):
  XXX=             -2.4387  YYY=             21.4660  ZZZ=            -36.4291  XYY=             -1.8101
  XXY=             -4.0299  XXZ=            -11.7741  XZZ=            -13.4431  YZZ=              8.2562
  YYZ=              6.3469  XYZ=             -3.4995
 Hexadecapole moment (field-independent basis, Debye-Ang**3):
 XXXX=          -3127.9032 YYYY=          -2436.4899 ZZZZ=          -1442.9835 XXXY=             55.4112
 XXXZ=            -72.0552 YYYX=             12.4789 YYYZ=              4.9049 ZZZX=            -48.3936
 ZZZY=             21.1062 XXYY=           -906.5348 XXZZ=           -772.4601 YYZZ=           -626.9703
 XXYZ=              5.7521 YYXZ=            -21.0257 ZZXY=              5.0205
 N-N= 1.653815347127D+03 E-N=-5.802976724684D+03  KE= 1.060545383374D+03
 1\1\GINC-SWANNODE-0-12\SP\RmPW1PW91\6-311G(d)\C14H26O3Si1\ROOT\08-Mar-
 2018\0\\#mPW1PW91/6-311g(d) nmr=(giao) scrf=(solvent=chloroform)\\P_ng
 _4ginp009\\0,1\C,0,0.574636,1.904839,-0.126805\C,0,-0.603794,0.970986,
 0.232097\C,0,-1.576104,1.631208,1.258448\C,0,-1.98558,2.984765,0.66736
 7\C,0,-0.825142,3.842228,0.254673\H,0,1.019653,1.497539,-1.044677\H,0,
 -1.159098,0.838496,-0.707375\H,0,-2.603796,2.860832,-0.229769\H,0,-2.5
 8008,3.559977,1.381197\O,0,0.124484,3.227681,-0.485517\O,0,-0.818729,5
 .05687,0.42699\C,0,1.712995,2.037313,0.901925\C,0,2.913299,2.786256,0.
 328851\C,0,-0.109543,-0.41842,0.655518\O,0,-0.810167,1.793994,2.466352
 \Si,0,-1.317695,2.202111,4.007325\C,0,-2.017458,0.703576,4.906658\C,0,
 0.187919,2.785469,4.994251\C,0,-2.585197,3.579174,4.065746\H,0,-0.1004
 76,3.039537,6.01826\H,0,0.946276,1.998044,5.030286\H,0,0.628031,3.6705
 09,4.525721\H,0,-2.824769,3.832231,5.103224\H,0,-2.202415,4.481964,3.5
 80795\H,0,-3.515477,3.286096,3.571492\H,0,-2.967108,0.387131,4.467252\
 H,0,-1.316372,-0.134571,4.855054\H,0,-2.193997,0.939569,5.960336\H,0,0
 .639825,-0.793769,-0.049858\H,0,0.336858,-0.412298,1.654443\H,0,-0.928
 919,-1.14351,0.664691\H,0,2.05432,1.053038,1.2359\H,0,1.381022,2.59647
 3,1.781256\H,0,3.712052,2.84282,1.075338\H,0,3.310225,2.273774,-0.5531
 7\H,0,2.647539,3.809033,0.044211\C,0,-2.845333,0.743106,1.494945\C,0,-
 3.634861,0.346687,0.273636\C,0,-4.870345,0.787089,0.0029\H,0,-3.52054,
 1.261384,2.187281\H,0,-2.558031,-0.175711,2.021678\H,0,-3.177427,-0.36
 8104,-0.407597\H,0,-5.397768,0.45081,-0.885345\H,0,-5.387896,1.485816,
 0.653467\\Version=EM64L-G09RevD.01\State=1-A\HF=-1064.3758577\RMSD=9.6
 75e-09\Dipole=-0.7101094,-2.0482013,0.3451022\Quadrupole=4.9876555,-8.
 8921805,3.9045249,-3.4465453,1.3717041,8.1096521\PG=C01 [X(C14H26O3Si1
 )]\\@


 This summer one third of the nation will be ill-housed
 ill-nourished and ill-clad. Only they call it a vacation.
 -- Jonas Salk
 Job cpu time:       0 days  1 hours 11 minutes  9.6 seconds.
 File lengths (MBytes):  RWF=    237 Int=      0 D2E=      0 Chk=     11 Scr=      1
 Normal termination of Gaussian 09 at Thu Mar  8 13:57:23 2018.
