 Entering Gaussian System, Link 0=/usr/local/shared/gaussian/em64t/09-D01/g09/g09
 Initial command:
 /usr/local/shared/gaussian/em64t/09-D01/g09/l1.exe "/scratch/ah809/P_ng_correct1ginp001/Gau-2586.inp" -scrdir="/scratch/ah809/P_ng_correct1ginp001/"
 Entering Link 1 = /usr/local/shared/gaussian/em64t/09-D01/g09/l1.exe PID=      2591.
  
 Copyright (c) 1988,1990,1992,1993,1995,1998,2003,2009,2013,
            Gaussian, Inc.  All Rights Reserved.
  
 This is part of the Gaussian(R) 09 program.  It is based on
 the Gaussian(R) 03 system (copyright 2003, Gaussian, Inc.),
 the Gaussian(R) 98 system (copyright 1998, Gaussian, Inc.),
 the Gaussian(R) 94 system (copyright 1995, Gaussian, Inc.),
 the Gaussian 92(TM) system (copyright 1992, Gaussian, Inc.),
 the Gaussian 90(TM) system (copyright 1990, Gaussian, Inc.),
 the Gaussian 88(TM) system (copyright 1988, Gaussian, Inc.),
 the Gaussian 86(TM) system (copyright 1986, Carnegie Mellon
 University), and the Gaussian 82(TM) system (copyright 1983,
 Carnegie Mellon University). Gaussian is a federally registered
 trademark of Gaussian, Inc.
  
 This software contains proprietary and confidential information,
 including trade secrets, belonging to Gaussian, Inc.
  
 This software is provided under written license and may be
 used, copied, transmitted, or stored only in accord with that
 written license.
  
 The following legend is applicable only to US Government
 contracts under FAR:
  
                    RESTRICTED RIGHTS LEGEND
  
 Use, reproduction and disclosure by the US Government is
 subject to restrictions as set forth in subparagraphs (a)
 and (c) of the Commercial Computer Software - Restricted
 Rights clause in FAR 52.227-19.
  
 Gaussian, Inc.
 340 Quinnipiac St., Bldg. 40, Wallingford CT 06492
  
  
 ---------------------------------------------------------------
 Warning -- This program may not be used in any manner that
 competes with the business of Gaussian, Inc. or will provide
 assistance to any competitor of Gaussian, Inc.  The licensee
 of this program is prohibited from giving any competitor of
 Gaussian, Inc. access to this program.  By using this program,
 the user acknowledges that Gaussian, Inc. is engaged in the
 business of creating and licensing software in the field of
 computational chemistry and represents and warrants to the
 licensee that it is not a competitor of Gaussian, Inc. and that
 it will not use this program in any manner prohibited above.
 ---------------------------------------------------------------
  

 Cite this work as:
 Gaussian 09, Revision D.01,
 M. J. Frisch, G. W. Trucks, H. B. Schlegel, G. E. Scuseria, 
 M. A. Robb, J. R. Cheeseman, G. Scalmani, V. Barone, B. Mennucci, 
 G. A. Petersson, H. Nakatsuji, M. Caricato, X. Li, H. P. Hratchian, 
 A. F. Izmaylov, J. Bloino, G. Zheng, J. L. Sonnenberg, M. Hada, 
 M. Ehara, K. Toyota, R. Fukuda, J. Hasegawa, M. Ishida, T. Nakajima, 
 Y. Honda, O. Kitao, H. Nakai, T. Vreven, J. A. Montgomery, Jr., 
 J. E. Peralta, F. Ogliaro, M. Bearpark, J. J. Heyd, E. Brothers, 
 K. N. Kudin, V. N. Staroverov, T. Keith, R. Kobayashi, J. Normand, 
 K. Raghavachari, A. Rendell, J. C. Burant, S. S. Iyengar, J. Tomasi, 
 M. Cossi, N. Rega, J. M. Millam, M. Klene, J. E. Knox, J. B. Cross, 
 V. Bakken, C. Adamo, J. Jaramillo, R. Gomperts, R. E. Stratmann, 
 O. Yazyev, A. J. Austin, R. Cammi, C. Pomelli, J. W. Ochterski, 
 R. L. Martin, K. Morokuma, V. G. Zakrzewski, G. A. Voth, 
 P. Salvador, J. J. Dannenberg, S. Dapprich, A. D. Daniels, 
 O. Farkas, J. B. Foresman, J. V. Ortiz, J. Cioslowski, 
 and D. J. Fox, Gaussian, Inc., Wallingford CT, 2013.
 
 ******************************************
 Gaussian 09:  EM64L-G09RevD.01 24-Apr-2013
                 8-Mar-2018 
 ******************************************
 %mem=6000MB
 %chk=P_ng_correct1ginp001.chk
 --------------------------------------------------------
 #mPW1PW91/6-311g(d) nmr=(giao) scrf=(solvent=chloroform)
 --------------------------------------------------------
 1/38=1/1;
 2/12=2,17=6,18=5,40=1/2;
 3/5=4,6=6,7=1,11=2,16=1,25=1,30=1,70=2201,72=7,74=-7/1,2,8,3;
 4//1;
 5/5=2,38=5,53=7/2;
 8/6=1,10=90,11=11/1;
 10/13=100,45=16/2;
 6/7=2,8=2,9=2,10=2,28=1/1;
 99/9=1/99;
 --------------------
 P_ng_correct1ginp001
 --------------------
 Symbolic Z-matrix:
 Charge =  0 Multiplicity = 1
 C                     0.82629  -0.40366   0.37418 
 C                    -0.70745  -0.45493   0.51002 
 C                    -1.20776   0.60033   1.53701 
 C                    -0.70516   1.96601   1.06067 
 C                     0.78366   2.01365   0.91819 
 H                     1.29137  -0.91448   1.22617 
 H                    -1.13425  -0.18751  -0.46472 
 H                    -1.11152   2.22984   0.07824 
 H                    -1.0202    2.762     1.74441 
 O                     1.37455   0.9358    0.36418 
 O                     1.42767   3.02502   1.17701 
 C                     1.31892  -1.09634  -0.91056 
 C                     2.83968  -1.11959  -1.01853 
 C                    -1.19853  -1.87922   0.81383 
 O                    -2.64345   0.50187   1.6724 
 Si                   -3.84696   1.18635   0.73652 
 C                    -3.99518   3.03518   1.0371 
 C                    -3.61762   0.88077  -1.09989 
 C                    -5.50201   0.40982   1.2255 
 H                    -2.7221    1.38073  -1.47841 
 H                    -3.52868  -0.19013  -1.30508 
 H                    -4.47661   1.26252  -1.66012 
 H                    -5.4805   -0.66979   1.05105 
 H                    -5.70603   0.58697   2.28541 
 H                    -6.31614   0.84209   0.63667 
 H                    -4.06327   3.24477   2.10866 
 H                    -3.1337    3.57447   0.63478 
 H                    -4.89408   3.42948   0.55358 
 H                    -0.9951   -2.55279  -0.02416 
 H                    -0.70625  -2.29541   1.69837 
 H                    -2.27928  -1.90775   0.98166 
 H                     0.92397  -0.56794  -1.78684 
 H                     0.95792  -2.12831  -0.9566 
 H                     3.14369  -1.65654  -1.9228 
 H                     3.25401  -0.1084   -1.0763 
 H                     3.28498  -1.62716  -0.15702 
 C                    -0.66714   0.28847   2.97685 
 C                    -1.05359   1.31111   4.01678 
 C                    -0.17966   2.07126   4.68853 
 H                     0.42212   0.17412   2.97431 
 H                    -1.0807   -0.66765   3.32205 
 H                    -2.11718   1.41439   4.22581 
 H                    -0.52256   2.7882    5.42874 
 H                     0.89085   2.00796   4.51633 
 
                          Input orientation:                          
 ---------------------------------------------------------------------
 Center     Atomic      Atomic             Coordinates (Angstroms)
 Number     Number       Type             X           Y           Z
 ---------------------------------------------------------------------
      1          6           0        0.826286   -0.403664    0.374184
      2          6           0       -0.707454   -0.454926    0.510015
      3          6           0       -1.207755    0.600334    1.537013
      4          6           0       -0.705156    1.966013    1.060666
      5          6           0        0.783664    2.013653    0.918193
      6          1           0        1.291366   -0.914479    1.226173
      7          1           0       -1.134246   -0.187514   -0.464716
      8          1           0       -1.111515    2.229836    0.078237
      9          1           0       -1.020200    2.761999    1.744408
     10          8           0        1.374549    0.935802    0.364177
     11          8           0        1.427674    3.025022    1.177013
     12          6           0        1.318916   -1.096344   -0.910562
     13          6           0        2.839680   -1.119591   -1.018532
     14          6           0       -1.198530   -1.879218    0.813825
     15          8           0       -2.643453    0.501867    1.672400
     16         14           0       -3.846960    1.186349    0.736521
     17          6           0       -3.995181    3.035181    1.037098
     18          6           0       -3.617615    0.880765   -1.099888
     19          6           0       -5.502010    0.409821    1.225500
     20          1           0       -2.722102    1.380730   -1.478406
     21          1           0       -3.528678   -0.190128   -1.305077
     22          1           0       -4.476614    1.262523   -1.660117
     23          1           0       -5.480504   -0.669793    1.051046
     24          1           0       -5.706029    0.586966    2.285411
     25          1           0       -6.316144    0.842090    0.636665
     26          1           0       -4.063272    3.244771    2.108655
     27          1           0       -3.133697    3.574468    0.634777
     28          1           0       -4.894082    3.429479    0.553582
     29          1           0       -0.995097   -2.552792   -0.024157
     30          1           0       -0.706250   -2.295412    1.698365
     31          1           0       -2.279282   -1.907748    0.981659
     32          1           0        0.923972   -0.567944   -1.786840
     33          1           0        0.957915   -2.128305   -0.956598
     34          1           0        3.143694   -1.656541   -1.922801
     35          1           0        3.254006   -0.108395   -1.076302
     36          1           0        3.284982   -1.627156   -0.157017
     37          6           0       -0.667139    0.288472    2.976848
     38          6           0       -1.053590    1.311111    4.016783
     39          6           0       -0.179658    2.071259    4.688535
     40          1           0        0.422123    0.174118    2.974314
     41          1           0       -1.080701   -0.667652    3.322051
     42          1           0       -2.117181    1.414392    4.225806
     43          1           0       -0.522558    2.788204    5.428744
     44          1           0        0.890846    2.007960    4.516332
 ---------------------------------------------------------------------
                    Distance matrix (angstroms):
                    1          2          3          4          5
     1  C    0.000000
     2  C    1.540596   0.000000
     3  C    2.549021   1.555185   0.000000
     4  C    2.903781   2.482774   1.531206   0.000000
     5  C    2.478141   2.912718   2.519158   1.496380   0.000000
     6  H    1.096867   2.172407   2.938858   3.508665   2.987737
     7  H    2.143399   1.097160   2.152447   2.673684   3.230472
     8  H    3.282983   2.749117   2.189193   1.095398   2.084218
     9  H    3.912601   3.459789   2.179675   1.095605   2.120514
    10  O    1.447364   2.508013   2.855937   2.423139   1.348274
    11  O    3.572407   4.136870   3.599194   2.384114   1.226623
    12  C    1.540475   2.556488   3.905561   4.166610   3.647317
    13  C    2.550679   3.919234   5.086323   5.139054   4.218450
    14  C    2.543703   1.536901   2.582879   3.884604   4.369717
    15  O    3.813717   2.452485   1.445425   2.504982   3.820923
    16  Si   4.949612   3.549871   2.819504   3.253287   4.707453
    17  C    5.959166   4.823672   3.734721   3.459471   4.888253
    18  C    4.854987   3.583978   3.583199   3.785257   4.972660
    19  C    6.436911   4.924172   4.309752   5.045663   6.494337
    20  H    4.382603   3.373760   3.463382   3.295074   4.293562
    21  H    4.672390   3.365112   3.753530   4.268250   5.328778
    22  H    5.919063   4.676074   4.620127   4.703345   5.906133
    23  H    6.348588   4.808419   4.483946   5.454495   6.816035
    24  H    6.877883   5.405860   4.560126   5.330150   6.783866
    25  H    7.255006   5.758098   5.192756   5.738133   7.201326
    26  H    6.342495   5.244514   3.933675   3.743053   5.140588
    27  H    5.619155   4.705129   3.656331   2.943861   4.226368
    28  H    6.888235   5.711248   4.749758   4.466091   5.862960
    29  H    2.845147   2.183831   3.524866   4.656233   4.990434
    30  H    2.771431   2.190791   2.943278   4.308875   4.625641
    31  H    3.503691   2.191753   2.783355   4.182121   4.976249
    32  H    2.169460   2.819551   4.117904   4.145273   3.741862
    33  H    2.182360   2.779317   4.284121   4.857839   4.549837
    34  H    3.495171   4.711031   5.999909   6.069400   5.206852
    35  H    2.843399   4.281314   5.219102   4.954267   3.818859
    36  H    2.797194   4.214095   5.293027   5.505889   4.546225
    37  C    3.079485   2.576729   1.569283   2.547026   3.052727
    38  C    4.443300   3.941588   2.584227   3.047775   3.670194
    39  C    5.074524   4.911233   3.626664   3.667241   3.891887
    40  H    2.694041   2.782878   2.214497   2.853716   2.782487
    41  H    3.520825   2.844664   2.193238   3.491574   4.055094
    42  H    5.177289   4.391900   2.952855   3.509446   4.440081
    43  H    6.128293   5.894572   4.516840   4.448533   4.759329
    44  H    4.793484   4.966986   3.906645   3.806653   3.599740
                    6          7          8          9         10
     6  H    0.000000
     7  H    3.044861   0.000000
     8  H    4.120475   2.477679   0.000000
     9  H    4.373602   3.686850   1.751474   0.000000
    10  O    2.042914   2.871055   2.817233   3.312832   0.000000
    11  O    3.942165   4.424827   2.878734   2.526501   2.242402
    12  C    2.144638   2.653819   4.236531   5.235183   2.399515
    13  C    2.734602   4.119171   5.294668   6.131823   2.878043
    14  C    2.701913   2.121476   4.175283   4.736949   3.840216
    15  O    4.205705   2.705590   2.806077   2.783583   4.247833
    16  Si   5.572758   3.269448   3.000810   3.389555   5.240760
    17  C    6.601753   4.563568   3.143807   3.070086   5.804672
    18  C    5.721150   2.777010   3.080342   4.286680   5.202712
    19  C    6.921252   4.721335   4.889286   5.088087   6.950223
    20  H    5.356366   2.451172   2.395435   3.897551   4.513936
    21  H    5.492243   2.537621   3.689507   4.930200   5.300544
    22  H    6.807320   3.834451   3.909151   5.077993   6.200050
    23  H    6.778552   4.628184   5.333130   5.670296   7.074000
    24  H    7.234629   5.391124   5.355390   5.194271   7.344890
    25  H    7.829895   5.396776   5.415334   5.741095   7.696089
    26  H    6.837418   5.194421   3.723649   3.102585   6.159906
    27  H    6.331001   4.399909   2.491384   2.521558   5.230685
    28  H    7.588288   5.315631   3.996612   4.107378   6.749077
    29  H    3.078199   2.409978   4.785140   5.601380   4.235129
    30  H    2.473946   3.050465   4.823580   5.067355   4.068234
    31  H    3.714283   2.522363   4.393114   4.896285   4.670925
    32  H    3.055047   2.475682   3.930559   5.228579   2.662921
    33  H    2.519733   2.895817   4.934249   5.926504   3.362556
    34  H    3.727977   4.752349   6.100400   7.092949   3.883347
    35  H    3.130993   4.431371   5.085082   5.870639   2.587989
    36  H    2.528958   4.657985   5.853283   6.435425   3.238850
    37  C    2.889238   3.505583   3.516861   2.786018   3.378398
    38  C    4.270781   4.726121   4.044695   2.696271   4.402073
    39  C    4.802759   5.706951   4.706204   3.138713   4.733381
    40  H    2.235313   3.792096   3.868499   3.207817   2.880988
    41  H    3.174954   3.817460   4.349565   3.775596   4.165133
    42  H    5.102904   5.053045   4.344956   3.029315   5.228136
    43  H    5.887426   6.630379   5.411707   3.717885   5.716664
    44  H    4.418847   5.807921   4.873948   3.450251   4.315540
                   11         12         13         14         15
    11  O    0.000000
    12  C    4.621196   0.000000
    13  C    4.898162   1.524769   0.000000
    14  C    5.574982   3.150228   4.499078   0.000000
    15  O    4.815163   4.992628   6.319414   2.914536   0.000000
    16  Si   5.603259   5.883013   7.287573   4.051896   1.671172
    17  C    5.424669   7.007318   8.258515   5.658836   2.940826
    18  C    5.936081   5.321104   6.760525   4.139055   2.962792
    19  C    7.406899   7.304541   8.772604   4.891740   2.894744
    20  H    5.193803   4.773696   6.115268   4.266480   3.272028
    21  H    6.408072   4.947326   6.442204   3.573844   3.182428
    22  H    6.783533   6.301925   7.721027   5.170760   3.878756
    23  H    7.835206   7.089567   8.585507   4.455815   3.131729
    24  H    7.619868   7.899217   9.319738   5.344640   3.124483
    25  H    8.063739   8.027800   9.508784   5.798869   3.831078
    26  H    5.573754   7.545124   8.745153   6.011538   3.119251
    27  H    4.626231   6.635535   7.774886   5.789613   3.279920
    28  H    6.365285   7.824841   9.109152   6.473569   3.858497
    29  H    6.198761   2.874302   4.212880   1.094212   3.863460
    30  H    5.756080   3.513625   4.619275   1.094517   3.402675
    31  H    6.173484   4.145589   5.552092   1.094078   2.532980
    32  H    4.684821   1.096837   2.136480   3.603875   5.083046
    33  H    5.597298   1.094251   2.135973   2.801196   5.176803
    34  H    5.871167   2.160616   1.094734   5.137472   7.146696
    35  H    4.269803   2.179010   1.094313   5.151065   6.535121
    36  H    5.183820   2.171407   1.094589   4.594339   6.559409
    37  C    3.887975   4.579747   5.499407   3.108042   2.377591
    38  C    4.142277   5.975228   6.813242   4.523068   2.945959
    39  C    3.977935   6.605249   7.201982   5.626522   4.198851
    40  H    3.516970   4.184564   4.843664   3.392701   3.346663
    41  H    4.952673   4.884358   5.866370   2.788005   2.555644
    42  H    4.945226   6.670295   7.648178   4.830466   2.762163
    43  H    4.683664   7.659474   8.254870   6.598427   4.882177
    44  H    3.531806   6.266668   6.649380   5.760573   4.779909
                   16         17         18         19         20
    16  Si   0.000000
    17  C    1.878961   0.000000
    18  C    1.875734   3.057903   0.000000
    19  C    1.892429   3.032910   3.029878   0.000000
    20  H    2.491785   3.268899   1.093245   3.997707   0.000000
    21  H    2.482764   4.013231   1.093995   3.264628   1.774318
    22  H    2.479141   3.263290   1.094292   3.178887   1.767853
    23  H    2.492520   3.991643   3.240540   1.093830   4.267500
    24  H    2.492881   3.237135   3.988488   1.093808   4.868285
    25  H    2.495066   3.218208   3.209232   1.093799   4.204854
    26  H    2.483273   1.093983   4.010222   3.299526   4.259154
    27  H    2.494435   1.093091   3.240258   3.996605   3.073669
    28  H    2.482250   1.094204   3.295341   3.152679   3.611626
    29  H    4.763710   6.430568   4.452428   5.536333   4.535414
    30  H    4.786634   6.298378   5.137545   5.526409   5.260186
    31  H    3.477232   5.232583   3.728241   3.977004   4.130629
    32  H    5.675094   6.719762   4.816292   7.164039   4.145638
    33  H    6.077862   7.427622   5.478185   7.275594   5.111569
    34  H    8.001454   9.040840   7.268453   9.430262   6.620428
    35  H    7.442204   8.179196   6.942490   9.068333   6.171957
    36  H    7.718732   8.727203   7.404358   9.125341   6.846788
    37  C    3.992056   4.731057   5.067139   5.143727   5.026449
    38  C    4.310290   4.528123   5.739316   5.328417   5.743334
    39  C    5.463569   5.368459   6.836861   6.563568   6.706118
    40  H    4.925180   5.608125   5.780827   6.181364   5.582901
    41  H    4.215978   5.237001   5.327952   5.010434   5.471239
    42  H    3.901186   4.040012   5.558694   4.633364   5.736296
    43  H    5.969468   5.604165   7.472666   6.936779   7.384287
    44  H    6.116275   6.085517   7.289631   7.365611   7.027353
                   21         22         23         24         25
    21  H    0.000000
    22  H    1.770545   0.000000
    23  H    3.096937   3.477362   0.000000
    24  H    4.270402   4.187485   1.775940   0.000000
    25  H    3.550465   2.972514   1.776456   1.776427   0.000000
    26  H    4.872154   4.278294   4.295450   3.129508   3.607640
    27  H    4.253378   3.523500   4.867703   4.273950   4.194504
    28  H    4.291911   3.125770   4.170778   3.426130   2.953599
    29  H    3.693504   5.417929   4.982030   6.114333   6.346294
    30  H    4.628065   6.176888   5.084797   5.800906   6.514755
    31  H    3.120957   4.675240   3.432953   4.434632   4.896620
    32  H    4.494545   5.703770   7.005804   7.866000   7.764074
    33  H    4.899743   6.444126   6.900082   7.892494   8.017086
    34  H    6.859482   8.164498   9.175741  10.052859  10.113484
    35  H    6.787033   7.872912   9.007355   9.595148   9.768595
    36  H    7.057553   8.417359   8.899983   9.576329   9.945287
    37  C    5.172267   6.079664   5.272141   5.094860   6.139561
    38  C    6.058215   6.629227   5.684817   5.016694   6.272133
    39  C    7.228637   7.708649   6.988824   6.206360   7.455533
    40  H    5.835640   6.830827   6.265154   6.180556   7.163451
    41  H    5.256513   6.330861   4.951337   4.903300   6.074577
    42  H    5.929374   6.343034   5.072955   4.162883   5.553445
    43  H    7.953085   8.259190   7.463458   6.449369   7.766403
    44  H    7.632338   8.216680   7.731279   7.107390   8.267513
                   26         27         28         29         30
    26  H    0.000000
    27  H    1.773450   0.000000
    28  H    1.772742   1.768211   0.000000
    29  H    6.897414   6.523122   7.164037   0.000000
    30  H    6.490883   6.440436   7.184904   1.765435   0.000000
    31  H    5.567871   5.559231   5.958726   1.754103   1.771547
    32  H    7.388117   6.283986   7.436849   3.275591   4.217632
    33  H    7.967311   7.196901   8.210693   2.205423   3.137865
    34  H    9.602909   8.562143   9.828831   4.640873   5.323821
    35  H    8.656225   7.569281   9.031302   5.013678   5.307113
    36  H    9.103064   8.299595   9.642178   4.381042   4.451847
    37  C    4.585541   4.729374   5.796998   4.145645   2.883142
    38  C    4.054402   4.570295   5.588437   5.591276   4.301478
    39  C    4.807845   5.236310   6.416260   6.652537   5.318480
    40  H    5.504275   5.447905   6.687253   4.293644   2.999975
    41  H    5.067062   5.425110   6.244420   3.841639   2.329415
    42  H    3.408795   4.312160   5.025633   5.921132   4.705457
    43  H    4.875254   5.515286   6.579412   7.647461   6.308139
    44  H    5.645343   5.806665   7.154683   6.706212   5.386155
                   31         32         33         34         35
    31  H    0.000000
    32  H    4.440777   0.000000
    33  H    3.779541   1.767818   0.000000
    34  H    6.156920   2.476024   2.435927   0.000000
    35  H    6.171722   2.478933   3.060457   1.767904   0.000000
    36  H    5.686506   3.058206   2.511119   1.771671   1.775579
    37  C    3.376857   5.094880   4.894242   6.504774   5.653398
    38  C    4.590790   6.412772   6.372617   7.855114   6.819816
    39  C    5.829395   7.079115   7.127267   8.285585   7.055089
    40  H    3.949991   4.844698   4.586970   5.894065   4.950441
    41  H    2.907210   5.489027   4.959466   6.806753   6.200642
    42  H    4.646222   7.023545   6.990295   8.655218   7.699408
    43  H    6.701836   8.088314   8.193684   9.340363   8.060294
    44  H    6.154380   6.809285   6.860477   7.743793   6.429700
                   36         37         38         39         40
    36  H    0.000000
    37  C    5.395368   0.000000
    38  C    6.699047   1.508841   0.000000
    39  C    7.011518   2.519095   1.338967   0.000000
    40  H    4.609315   1.095251   2.134765   2.626754   0.000000
    41  H    5.664252   1.097439   2.097353   3.190735   1.757264
    42  H    7.592333   2.220408   1.088845   2.097519   3.090724
    43  H    8.074249   3.504477   2.111263   1.086048   3.708112
    44  H    6.386403   2.784595   2.125083   1.086112   2.441413
                   41         42         43         44
    41  H    0.000000
    42  H    2.495190   0.000000
    43  H    4.085660   2.424302   0.000000
    44  H    3.531601   3.079765   1.854451   0.000000
 Stoichiometry    C14H26O3Si
 Framework group  C1[X(C14H26O3Si)]
 Deg. of freedom   126
 Full point group                 C1      NOp   1
 Largest Abelian subgroup         C1      NOp   1
 Largest concise Abelian subgroup C1      NOp   1
                         Standard orientation:                         
 ---------------------------------------------------------------------
 Center     Atomic      Atomic             Coordinates (Angstroms)
 Number     Number       Type             X           Y           Z
 ---------------------------------------------------------------------
      1          6           0       -2.253644   -0.643447   -0.320382
      2          6           0       -0.771885   -0.973152   -0.583294
      3          6           0        0.116870    0.290106   -0.401928
      4          6           0       -0.126393    0.812065    1.016865
      5          6           0       -1.566949    1.122584    1.276731
      6          1           0       -2.681179   -0.135553   -1.193523
      7          1           0       -0.457028   -1.703236    0.172750
      8          1           0        0.166791    0.079360    1.776525
      9          1           0        0.469584    1.710070    1.213708
     10          8           0       -2.471919    0.242460    0.803178
     11          8           0       -1.909747    2.061973    1.987112
     12          6           0       -3.092650   -1.908807   -0.059620
     13          6           0       -4.574697   -1.602267    0.126094
     14          6           0       -0.580919   -1.660355   -1.944671
     15          8           0        1.493569   -0.040239   -0.693176
     16         14           0        2.656362   -0.713416    0.300584
     17          6           0        3.273978    0.515795    1.580462
     18          6           0        2.070877   -2.266108    1.175074
     19          6           0        4.143668   -1.202883   -0.762256
     20          1           0        1.266272   -2.046238    1.881794
     21          1           0        1.705188   -3.001707    0.452586
     22          1           0        2.893444   -2.721549    1.734925
     23          1           0        3.845607   -1.937130   -1.516247
     24          1           0        4.550524   -0.325343   -1.272950
     25          1           0        4.930259   -1.640666   -0.140953
     26          1           0        3.559760    1.456747    1.101153
     27          1           0        2.507290    0.729871    2.329601
     28          1           0        4.150047    0.117027    2.100816
     29          1           0       -1.066273   -2.640879   -1.962113
     30          1           0       -1.007471   -1.066812   -2.759367
     31          1           0        0.476536   -1.831770   -2.166961
     32          1           0       -2.732254   -2.407317    0.848484
     33          1           0       -2.992028   -2.617241   -0.887497
     34          1           0       -5.135647   -2.531841    0.266342
     35          1           0       -4.747951   -0.972819    1.004330
     36          1           0       -4.980973   -1.090332   -0.751964
     37          6           0       -0.242819    1.391107   -1.460734
     38          6           0        0.531225    2.676586   -1.302624
     39          6           0       -0.023959    3.861300   -1.017916
     40          1           0       -1.314914    1.614887   -1.450237
     41          1           0       -0.011432    1.018477   -2.466706
     42          1           0        1.609276    2.615706   -1.442920
     43          1           0        0.589554    4.752131   -0.920335
     44          1           0       -1.093496    3.975278   -0.867121
 ---------------------------------------------------------------------
 Rotational constants (GHZ):      0.4775560      0.2801512      0.2314652
 Standard basis: 6-311G(d) (5D, 7F)
 There are   428 symmetry adapted cartesian basis functions of A   symmetry.
 There are   410 symmetry adapted basis functions of A   symmetry.
   410 basis functions,   720 primitive gaussians,   428 cartesian basis functions
    74 alpha electrons       74 beta electrons
       nuclear repulsion energy      1630.6646700071 Hartrees.
 NAtoms=   44 NActive=   44 NUniq=   44 SFac= 1.00D+00 NAtFMM=   60 NAOKFM=F Big=F
 Integral buffers will be    131072 words long.
 Raffenetti 2 integral format.
 Two-electron integral symmetry is turned on.
 ------------------------------------------------------------------------------
 Polarizable Continuum Model (PCM)
 =================================
 Model                : PCM (using non-symmetric T matrix).
 Atomic radii         : UFF (Universal Force Field).
 Polarization charges : Total charges.
 Charge compensation  : None.
 Solution method      : On-the-fly selection.
 Cavity type          : Scaled VdW (van der Waals Surface) (Alpha=1.100).
 Cavity algorithm     : GePol (No added spheres)
                        Default sphere list used, NSphG=   44.
                        Lebedev-Laikov grids with approx.  5.0 points / Ang**2.
                        Smoothing algorithm: Karplus/York (Gamma=1.0000).
                        Polarization charges: spherical gaussians, with
                                              point-specific exponents (IZeta= 3).
                        Self-potential: point-specific (ISelfS= 7).
                        Self-field    : sphere-specific E.n sum rule (ISelfD= 2).
 Solvent              : Chloroform, Eps=   4.711300 Eps(inf)=   2.090627
 ------------------------------------------------------------------------------
 One-electron integrals computed using PRISM.
 NBasis=   410 RedAO= T EigKep=  1.06D-03  NBF=   410
 NBsUse=   410 1.00D-06 EigRej= -1.00D+00 NBFU=   410
 ExpMin= 6.54D-02 ExpMax= 6.94D+04 ExpMxC= 2.33D+03 IAcc=2 IRadAn=         4 AccDes= 0.00D+00
 Harris functional with IExCor=  908 and IRadAn=       4 diagonalized for initial guess.
 HarFok:  IExCor=  908 AccDes= 0.00D+00 IRadAn=         4 IDoV= 1 UseB2=F ITyADJ=14
 ICtDFT=  3500011 ScaDFX=  1.000000  1.000000  1.000000  1.000000
 FoFCou: FMM=F IPFlag=           0 FMFlag=      100000 FMFlg1=           0
         NFxFlg=           0 DoJE=T BraDBF=F KetDBF=T FulRan=T
         wScrn=  0.000000 ICntrl=     500 IOpCl=  0 I1Cent=   200000004 NGrid=           0
         NMat0=    1 NMatS0=      1 NMatT0=    0 NMatD0=    1 NMtDS0=    0 NMtDT0=    0
 Petite list used in FoFCou.
 Requested convergence on RMS density matrix=1.00D-08 within 128 cycles.
 Requested convergence on MAX density matrix=1.00D-06.
 Requested convergence on             energy=1.00D-06.
 No special actions if energy rises.
 Inv3:  Mode=1 IEnd=    25491675.
 Iteration    1 A*A^-1 deviation from unit magnitude is 1.08D-14 for   1899.
 Iteration    1 A*A^-1 deviation from orthogonality  is 8.22D-15 for   2851    819.
 Iteration    1 A^-1*A deviation from unit magnitude is 1.29D-14 for   1899.
 Iteration    1 A^-1*A deviation from orthogonality  is 3.61D-12 for   2483   2465.
 Error on total polarization charges =  0.01148
 SCF Done:  E(RmPW1PW91) =  -1064.37806514     A.U. after   13 cycles
            NFock= 13  Conv=0.37D-08     -V/T= 2.0036
 DoSCS=F DFT=T ScalE2(SS,OS)=  1.000000  1.000000
 Range of M.O.s used for correlation:     1   410
 NBasis=   410 NAE=    74 NBE=    74 NFC=     0 NFV=     0
 NROrb=    410 NOA=    74 NOB=    74 NVA=   336 NVB=   336
 NEqPCM:  Using equilibrium solvation (IEInf=0, Eps=   4.7113, EpsInf=   2.0906)
          Differentiating once with respect to magnetic field using GIAOs.
          Electric field/nuclear overlap derivatives assumed to be zero.
 FoFJK:  IHMeth= 1 ICntrl=    6127 DoSepK=F KAlg= 0 I1Cent=   0 FoldK=F
 IRaf=         1 NMat=   1 IRICut=       1 DoRegI=T DoRafI=F ISym2E= 0.
          There are     3 degrees of freedom in the 1st order CPHF.  IDoFFX=0 NUNeed=     3.
      3 vectors produced by pass  0 Test12= 8.29D-13 3.33D-08 XBig12= 3.63D+01 1.16D+00.
 AX will form     3 AO Fock derivatives at one time.
      3 vectors produced by pass  1 Test12= 8.29D-13 3.33D-08 XBig12= 6.97D-02 1.01D-01.
      3 vectors produced by pass  2 Test12= 8.29D-13 3.33D-08 XBig12= 7.90D-04 1.06D-02.
      3 vectors produced by pass  3 Test12= 8.29D-13 3.33D-08 XBig12= 3.03D-06 4.64D-04.
      3 vectors produced by pass  4 Test12= 8.29D-13 3.33D-08 XBig12= 1.17D-08 3.72D-05.
      3 vectors produced by pass  5 Test12= 8.29D-13 3.33D-08 XBig12= 4.62D-11 1.57D-06.
      2 vectors produced by pass  6 Test12= 8.29D-13 3.33D-08 XBig12= 1.36D-13 8.21D-08.
 InvSVY:  IOpt=1 It=  1 EMax= 3.10D-17
 Solved reduced A of dimension    20 with     3 vectors.
 Calculating GIAO nuclear magnetic shielding tensors.
 SCF GIAO Magnetic shielding tensor (ppm):
      1  C    Isotropic =   101.3796   Anisotropy =    48.0588
   XX=    94.5270   YX=    -3.7083   ZX=   -15.5646
   XY=     6.2000   YY=    93.8163   ZY=    23.4623
   XZ=    -3.2806   YZ=    26.4122   ZZ=   115.7956
   Eigenvalues:    75.4447    95.2753   133.4188
      2  C    Isotropic =   140.5973   Anisotropy =    25.2241
   XX=   151.3349   YX=    11.5946   ZX=     2.6810
   XY=     9.5748   YY=   138.8452   ZY=    -9.2517
   XZ=     1.2890   YZ=    -1.3670   ZZ=   131.6117
   Eigenvalues:   126.5649   137.8136   157.4133
      3  C    Isotropic =   105.1343   Anisotropy =    57.7282
   XX=   140.4536   YX=   -14.0993   ZX=    -1.5460
   XY=   -10.7561   YY=    94.8375   ZY=    -0.2097
   XZ=     1.8385   YZ=     1.9913   ZZ=    80.1119
   Eigenvalues:    80.0423    91.7410   143.6198
      4  C    Isotropic =   143.4808   Anisotropy =    27.5635
   XX=   154.9725   YX=    -6.7825   ZX=    -9.4321
   XY=    -5.2680   YY=   135.8308   ZY=    11.7733
   XZ=    -7.7374   YZ=     4.1113   ZZ=   139.6391
   Eigenvalues:   129.5494   139.0366   161.8565
      5  C    Isotropic =    10.3144   Anisotropy =    92.7381
   XX=   -59.4563   YX=   -42.1080   ZX=   -19.6755
   XY=   -54.4547   YY=    33.2295   ZY=   -21.5222
   XZ=   -24.2968   YZ=   -25.5589   ZZ=    57.1699
   Eigenvalues:   -86.1429    44.9463    72.1397
      6  H    Isotropic =    28.1993   Anisotropy =     2.0486
   XX=    29.1347   YX=     0.6916   ZX=     0.2984
   XY=     0.3604   YY=    26.7583   ZY=     0.2569
   XZ=     0.8500   YZ=    -0.7590   ZZ=    28.7049
   Eigenvalues:    26.5816    28.4514    29.5650
      7  H    Isotropic =    30.0770   Anisotropy =     5.7611
   XX=    31.8766   YX=    -0.2189   ZX=     2.5387
   XY=    -0.0928   YY=    29.3022   ZY=    -2.6909
   XZ=     2.6371   YZ=    -2.3153   ZZ=    29.0521
   Eigenvalues:    26.0665    30.2467    33.9177
      8  H    Isotropic =    29.7446   Anisotropy =     5.0459
   XX=    31.0275   YX=    -2.1989   ZX=     1.3334
   XY=    -2.1173   YY=    27.6696   ZY=    -0.3000
   XZ=     1.6397   YZ=    -1.0140   ZZ=    30.5367
   Eigenvalues:    26.6132    29.5121    33.1086
      9  H    Isotropic =    29.0993   Anisotropy =     3.3591
   XX=    28.9535   YX=     1.1580   ZX=     0.9424
   XY=    -0.2736   YY=    30.2699   ZY=     1.8948
   XZ=    -0.2445   YZ=     1.5371   ZZ=    28.0744
   Eigenvalues:    27.1301    28.8290    31.3387
     10  O    Isotropic =   107.4650   Anisotropy =   197.3319
   XX=   150.9287   YX=    73.2011   ZX=    68.3007
   XY=    85.7222   YY=    68.2948   ZY=  -180.1154
   XZ=    68.8499   YZ=  -124.3532   ZZ=   103.1716
   Eigenvalues:  -109.7486   193.1240   239.0196
     11  O    Isotropic =  -127.1813   Anisotropy =   577.4743
   XX=  -233.2670   YX=   -74.3083   ZX=   -12.9571
   XY=   -64.8654   YY=  -193.5358   ZY=  -322.0924
   XZ=   -10.4637   YZ=  -293.4659   ZZ=    45.2590
   Eigenvalues:  -425.7151  -213.6303   257.8016
     12  C    Isotropic =   155.7140   Anisotropy =    26.8742
   XX=   158.7915   YX=    11.9674   ZX=    -1.1986
   XY=     9.5439   YY=   163.6146   ZY=    -4.5998
   XZ=    -3.1780   YZ=    -8.1542   ZZ=   144.7360
   Eigenvalues:   142.6815   150.8305   173.6302
     13  C    Isotropic =   174.8879   Anisotropy =    21.9403
   XX=   189.2774   YX=    -0.6111   ZX=     0.3266
   XY=    -3.6656   YY=   169.2363   ZY=    -5.2939
   XZ=    -0.5559   YZ=    -6.4838   ZZ=   166.1499
   Eigenvalues:   161.5345   173.6143   189.5147
     14  C    Isotropic =   176.0736   Anisotropy =    20.7168
   XX=   169.9339   YX=     1.2740   ZX=     0.0219
   XY=    -1.4331   YY=   170.5268   ZY=     6.2658
   XZ=    -3.4038   YZ=     6.1068   ZZ=   187.7602
   Eigenvalues:   168.3975   169.9386   189.8848
     15  O    Isotropic =   247.1079   Anisotropy =    18.9793
   XX=   235.2080   YX=    -5.2278   ZX=   -14.3270
   XY=   -11.9556   YY=   247.1212   ZY=     7.4332
   XZ=     7.3508   YZ=    -6.6447   ZZ=   258.9946
   Eigenvalues:   230.4124   251.1506   259.7608
     16  Si   Isotropic =   335.2900   Anisotropy =    52.4800
   XX=   343.2123   YX=   -20.1003   ZX=    26.4428
   XY=   -16.4155   YY=   323.5129   ZY=   -13.3124
   XZ=    12.6165   YZ=    -8.7918   ZZ=   339.1447
   Eigenvalues:   312.5988   322.9945   370.2766
     17  C    Isotropic =   185.0692   Anisotropy =    11.1632
   XX=   183.7398   YX=    -0.3809   ZX=     6.7044
   XY=    -3.1267   YY=   187.3408   ZY=     4.8643
   XZ=     6.0121   YZ=     6.2098   ZZ=   184.1271
   Eigenvalues:   175.3041   187.3922   192.5114
     18  C    Isotropic =   185.4404   Anisotropy =     7.3823
   XX=   188.7213   YX=     0.5953   ZX=     2.2848
   XY=     4.0901   YY=   185.9423   ZY=    -5.3372
   XZ=     2.5676   YZ=    -6.2808   ZZ=   181.6577
   Eigenvalues:   176.6855   189.2739   190.3619
     19  C    Isotropic =   186.4374   Anisotropy =    13.1523
   XX=   189.3280   YX=    -4.8846   ZX=    -4.9779
   XY=    -5.5118   YY=   177.6406   ZY=    -0.1698
   XZ=    -2.3766   YZ=    -0.9385   ZZ=   192.3435
   Eigenvalues:   175.4577   188.6488   195.2056
     20  H    Isotropic =    32.1157   Anisotropy =     6.0299
   XX=    34.0068   YX=    -1.7991   ZX=    -2.7516
   XY=    -0.6297   YY=    29.9413   ZY=    -1.5293
   XZ=    -2.8788   YZ=    -1.1307   ZZ=    32.3991
   Eigenvalues:    28.3054    31.9061    36.1357
     21  H    Isotropic =    31.9717   Anisotropy =     6.8848
   XX=    30.8578   YX=     1.2005   ZX=     2.6007
   XY=     1.3228   YY=    34.6714   ZY=     2.7618
   XZ=     2.1669   YZ=     1.9609   ZZ=    30.3859
   Eigenvalues:    28.0729    31.2806    36.5616
     22  H    Isotropic =    32.2100   Anisotropy =    10.6736
   XX=    33.4208   YX=    -3.6002   ZX=     3.6376
   XY=    -3.0162   YY=    31.9274   ZY=    -3.4888
   XZ=     3.5622   YZ=    -3.8677   ZZ=    31.2819
   Eigenvalues:    27.8388    29.4654    39.3257
     23  H    Isotropic =    32.0009   Anisotropy =     8.3950
   XX=    30.8481   YX=    -0.2175   ZX=    -0.7954
   XY=     0.0934   YY=    31.7593   ZY=     4.6787
   XZ=     0.0104   YZ=     5.1929   ZZ=    33.3954
   Eigenvalues:    27.5612    30.8440    37.5975
     24  H    Isotropic =    31.9519   Anisotropy =     8.9588
   XX=    32.4418   YX=     2.6375   ZX=    -3.5433
   XY=     2.2175   YY=    32.4165   ZY=    -2.4915
   XZ=    -3.5077   YZ=    -3.4771   ZZ=    30.9975
   Eigenvalues:    27.8898    30.0415    37.9245
     25  H    Isotropic =    32.3620   Anisotropy =     9.7107
   XX=    36.2910   YX=    -3.5184   ZX=     2.0911
   XY=    -3.6186   YY=    30.1033   ZY=    -1.2072
   XZ=     2.6988   YZ=    -1.4485   ZZ=    30.6916
   Eigenvalues:    28.4431    29.8070    38.8358
     26  H    Isotropic =    31.9344   Anisotropy =     8.1260
   XX=    30.8808   YX=     3.0208   ZX=     0.2330
   XY=     2.7672   YY=    35.8387   ZY=    -1.9862
   XZ=     0.4810   YZ=    -1.0195   ZZ=    29.0837
   Eigenvalues:    28.2303    30.2212    37.3517
     27  H    Isotropic =    32.0787   Anisotropy =     6.2556
   XX=    33.8018   YX=    -0.5668   ZX=    -1.1592
   XY=    -1.6486   YY=    29.0825   ZY=     2.8578
   XZ=    -2.0149   YZ=     2.7630   ZZ=    33.3517
   Eigenvalues:    27.6733    32.3136    36.2490
     28  H    Isotropic =    32.3229   Anisotropy =    10.3494
   XX=    35.5812   YX=    -1.3342   ZX=     4.8872
   XY=    -1.8376   YY=    29.4265   ZY=    -0.3246
   XZ=     4.9711   YZ=    -0.0136   ZZ=    31.9609
   Eigenvalues:    28.0334    29.7128    39.2225
     29  H    Isotropic =    31.2494   Anisotropy =     9.3643
   XX=    29.6995   YX=     3.2774   ZX=    -0.9952
   XY=     3.0955   YY=    35.0818   ZY=     3.2078
   XZ=    -0.6494   YZ=     3.5792   ZZ=    28.9670
   Eigenvalues:    26.0630    30.1930    37.4923
     30  H    Isotropic =    31.4669   Anisotropy =     8.6141
   XX=    28.4325   YX=     0.0529   ZX=     2.6328
   XY=    -0.2277   YY=    29.6365   ZY=    -0.6105
   XZ=     2.5009   YZ=    -1.3015   ZZ=    36.3318
   Eigenvalues:    27.6530    29.5381    37.2097
     31  H    Isotropic =    30.4642   Anisotropy =     7.3694
   XX=    34.2963   YX=    -1.1371   ZX=    -0.8851
   XY=    -1.3914   YY=    27.9267   ZY=     3.9120
   XZ=    -1.6851   YZ=     3.6541   ZZ=    29.1696
   Eigenvalues:    24.7125    31.3030    35.3771
     32  H    Isotropic =    30.5561   Anisotropy =     5.0414
   XX=    32.4298   YX=     0.2417   ZX=     0.4984
   XY=     0.0286   YY=    29.8859   ZY=    -4.4280
   XZ=     0.5894   YZ=    -4.0480   ZZ=    29.3526
   Eigenvalues:    25.3391    32.4121    33.9170
     33  H    Isotropic =    30.1998   Anisotropy =     5.6687
   XX=    32.2051   YX=     1.6274   ZX=    -2.4257
   XY=     1.7924   YY=    30.5683   ZY=     4.6056
   XZ=    -2.1662   YZ=     4.5564   ZZ=    27.8258
   Eigenvalues:    23.4764    33.1440    33.9789
     34  H    Isotropic =    30.9903   Anisotropy =    11.2979
   XX=    34.4586   YX=     5.1207   ZX=    -1.3495
   XY=     4.4371   YY=    32.1967   ZY=    -0.9986
   XZ=    -1.5370   YZ=    -1.3519   ZZ=    26.3157
   Eigenvalues:    26.0317    28.4171    38.5223
     35  H    Isotropic =    30.5211   Anisotropy =     7.9186
   XX=    32.6001   YX=    -0.6619   ZX=    -3.3059
   XY=     0.2604   YY=    28.3341   ZY=     3.8188
   XZ=    -3.0958   YZ=     3.4421   ZZ=    30.6291
   Eigenvalues:    25.2126    30.5505    35.8001
     36  H    Isotropic =    31.2126   Anisotropy =     9.1643
   XX=    34.3438   YX=    -1.8921   ZX=     3.8463
   XY=    -1.1988   YY=    28.2385   ZY=    -2.7190
   XZ=     3.1407   YZ=    -2.1315   ZZ=    31.0554
   Eigenvalues:    26.8097    29.5060    37.3221
     37  C    Isotropic =   144.1807   Anisotropy =    18.7199
   XX=   141.7969   YX=     5.0856   ZX=     4.5902
   XY=    -3.3719   YY=   151.4198   ZY=    -9.2294
   XZ=     8.4320   YZ=    -8.8634   ZZ=   139.3253
   Eigenvalues:   130.9417   144.9397   156.6606
     38  C    Isotropic =    44.5265   Anisotropy =   178.9753
   XX=   -62.6045   YX=   -43.8331   ZX=    20.8460
   XY=   -46.8831   YY=    38.7392   ZY=   -18.4889
   XZ=    18.4902   YZ=   -20.2867   ZZ=   157.4448
   Eigenvalues:   -80.5019    50.2380   163.8434
     39  C    Isotropic =    63.0930   Anisotropy =   142.8227
   XX=   -28.0404   YX=   -55.7571   ZX=    11.1389
   XY=   -53.0522   YY=    63.0161   ZY=   -11.5709
   XZ=    10.5287   YZ=   -14.8451   ZZ=   154.3032
   Eigenvalues:   -53.5403    84.5111   158.3081
     40  H    Isotropic =    30.1638   Anisotropy =     6.1237
   XX=    31.5683   YX=    -1.5642   ZX=     1.4226
   XY=    -0.3278   YY=    32.1728   ZY=    -3.2287
   XZ=     1.8123   YZ=    -2.3630   ZZ=    26.7503
   Eigenvalues:    25.3552    30.8899    34.2462
     41  H    Isotropic =    29.4342   Anisotropy =     4.2557
   XX=    25.4133   YX=     1.3694   ZX=     0.3817
   XY=     1.1338   YY=    30.6505   ZY=    -1.0911
   XZ=    -0.3623   YZ=     0.6618   ZZ=    32.2388
   Eigenvalues:    25.1291    30.9021    32.2713
     42  H    Isotropic =    25.6837   Anisotropy =     6.8704
   XX=    23.1658   YX=     0.8497   ZX=    -0.4179
   XY=    -0.6206   YY=    29.8501   ZY=    -1.2160
   XZ=    -0.8677   YZ=    -1.9523   ZZ=    24.0353
   Eigenvalues:    22.7535    24.0337    30.2640
     43  H    Isotropic =    26.6726   Anisotropy =     6.8691
   XX=    23.4868   YX=    -2.4975   ZX=    -0.1978
   XY=     0.0764   YY=    31.0632   ZY=    -0.0294
   XZ=     0.0075   YZ=    -0.0397   ZZ=    25.4678
   Eigenvalues:    23.2935    25.4723    31.2520
     44  H    Isotropic =    26.7948   Anisotropy =     7.3518
   XX=    23.7103   YX=    -1.5083   ZX=     0.2268
   XY=    -3.8611   YY=    30.7411   ZY=    -0.5006
   XZ=    -0.7191   YZ=    -0.7623   ZZ=    25.9329
   Eigenvalues:    22.7424    25.9459    31.6960
 End of Minotr F.D. properties file   721 does not exist.
 End of Minotr F.D. properties file   722 does not exist.
 End of Minotr F.D. properties file   788 does not exist.

 **********************************************************************

            Population analysis using the SCF density.

 **********************************************************************

 Orbital symmetries:
       Occupied  (A) (A) (A) (A) (A) (A) (A) (A) (A) (A) (A) (A)
                 (A) (A) (A) (A) (A) (A) (A) (A) (A) (A) (A) (A)
                 (A) (A) (A) (A) (A) (A) (A) (A) (A) (A) (A) (A)
                 (A) (A) (A) (A) (A) (A) (A) (A) (A) (A) (A) (A)
                 (A) (A) (A) (A) (A) (A) (A) (A) (A) (A) (A) (A)
                 (A) (A) (A) (A) (A) (A) (A) (A) (A) (A) (A) (A)
                 (A) (A)
       Virtual   (A) (A) (A) (A) (A) (A) (A) (A) (A) (A) (A) (A)
                 (A) (A) (A) (A) (A) (A) (A) (A) (A) (A) (A) (A)
                 (A) (A) (A) (A) (A) (A) (A) (A) (A) (A) (A) (A)
                 (A) (A) (A) (A) (A) (A) (A) (A) (A) (A) (A) (A)
                 (A) (A) (A) (A) (A) (A) (A) (A) (A) (A) (A) (A)
                 (A) (A) (A) (A) (A) (A) (A) (A) (A) (A) (A) (A)
                 (A) (A) (A) (A) (A) (A) (A) (A) (A) (A) (A) (A)
                 (A) (A) (A) (A) (A) (A) (A) (A) (A) (A) (A) (A)
                 (A) (A) (A) (A) (A) (A) (A) (A) (A) (A) (A) (A)
                 (A) (A) (A) (A) (A) (A) (A) (A) (A) (A) (A) (A)
                 (A) (A) (A) (A) (A) (A) (A) (A) (A) (A) (A) (A)
                 (A) (A) (A) (A) (A) (A) (A) (A) (A) (A) (A) (A)
                 (A) (A) (A) (A) (A) (A) (A) (A) (A) (A) (A) (A)
                 (A) (A) (A) (A) (A) (A) (A) (A) (A) (A) (A) (A)
                 (A) (A) (A) (A) (A) (A) (A) (A) (A) (A) (A) (A)
                 (A) (A) (A) (A) (A) (A) (A) (A) (A) (A) (A) (A)
                 (A) (A) (A) (A) (A) (A) (A) (A) (A) (A) (A) (A)
                 (A) (A) (A) (A) (A) (A) (A) (A) (A) (A) (A) (A)
                 (A) (A) (A) (A) (A) (A) (A) (A) (A) (A) (A) (A)
                 (A) (A) (A) (A) (A) (A) (A) (A) (A) (A) (A) (A)
                 (A) (A) (A) (A) (A) (A) (A) (A) (A) (A) (A) (A)
                 (A) (A) (A) (A) (A) (A) (A) (A) (A) (A) (A) (A)
                 (A) (A) (A) (A) (A) (A) (A) (A) (A) (A) (A) (A)
                 (A) (A) (A) (A) (A) (A) (A) (A) (A) (A) (A) (A)
                 (A) (A) (A) (A) (A) (A) (A) (A) (A) (A) (A) (A)
                 (A) (A) (A) (A) (A) (A) (A) (A) (A) (A) (A) (A)
                 (A) (A) (A) (A) (A) (A) (A) (A) (A) (A) (A) (A)
                 (A) (A) (A) (A) (A) (A) (A) (A) (A) (A) (A) (A)
 The electronic state is 1-A.
 Alpha  occ. eigenvalues --  -66.27031 -19.26408 -19.21387 -19.20125 -10.37518
 Alpha  occ. eigenvalues --  -10.32240 -10.31027 -10.25547 -10.25260 -10.24271
 Alpha  occ. eigenvalues --  -10.24012 -10.23958 -10.22851 -10.22660 -10.22022
 Alpha  occ. eigenvalues --  -10.20925 -10.20649 -10.20527  -5.32867  -3.66717
 Alpha  occ. eigenvalues --   -3.66482  -3.66446  -1.13555  -1.04978  -1.04196
 Alpha  occ. eigenvalues --   -0.86139  -0.83586  -0.80631  -0.78071  -0.74244
 Alpha  occ. eigenvalues --   -0.72553  -0.72096  -0.70423  -0.70007  -0.66531
 Alpha  occ. eigenvalues --   -0.64139  -0.61888  -0.58703  -0.56456  -0.53895
 Alpha  occ. eigenvalues --   -0.52767  -0.50174  -0.49519  -0.48688  -0.47781
 Alpha  occ. eigenvalues --   -0.46415  -0.45600  -0.44998  -0.44411  -0.43497
 Alpha  occ. eigenvalues --   -0.42825  -0.42586  -0.42120  -0.41797  -0.41402
 Alpha  occ. eigenvalues --   -0.40961  -0.40564  -0.39854  -0.39723  -0.38843
 Alpha  occ. eigenvalues --   -0.38255  -0.38016  -0.36942  -0.36666  -0.36241
 Alpha  occ. eigenvalues --   -0.35755  -0.34360  -0.33664  -0.32375  -0.31449
 Alpha  occ. eigenvalues --   -0.30423  -0.29109  -0.28503  -0.27167
 Alpha virt. eigenvalues --   -0.00466   0.01208   0.03934   0.05642   0.05881
 Alpha virt. eigenvalues --    0.06627   0.07621   0.07925   0.08165   0.08793
 Alpha virt. eigenvalues --    0.09900   0.09961   0.10256   0.10383   0.11229
 Alpha virt. eigenvalues --    0.11554   0.11884   0.12998   0.13663   0.13736
 Alpha virt. eigenvalues --    0.14021   0.14512   0.14934   0.15439   0.15530
 Alpha virt. eigenvalues --    0.16582   0.16640   0.17189   0.17909   0.18268
 Alpha virt. eigenvalues --    0.18861   0.19290   0.19520   0.20538   0.20936
 Alpha virt. eigenvalues --    0.21568   0.22492   0.24072   0.24279   0.24716
 Alpha virt. eigenvalues --    0.25138   0.25899   0.26401   0.26784   0.28092
 Alpha virt. eigenvalues --    0.29172   0.29717   0.30483   0.31870   0.32566
 Alpha virt. eigenvalues --    0.32772   0.33448   0.34453   0.35676   0.36327
 Alpha virt. eigenvalues --    0.36594   0.37678   0.38194   0.39360   0.40034
 Alpha virt. eigenvalues --    0.41249   0.41566   0.42283   0.43688   0.44317
 Alpha virt. eigenvalues --    0.44968   0.45325   0.46560   0.47268   0.48913
 Alpha virt. eigenvalues --    0.49506   0.50113   0.51226   0.52184   0.52717
 Alpha virt. eigenvalues --    0.53848   0.54789   0.54900   0.55718   0.56307
 Alpha virt. eigenvalues --    0.57089   0.57519   0.58103   0.58301   0.59345
 Alpha virt. eigenvalues --    0.59573   0.59981   0.60304   0.60617   0.61245
 Alpha virt. eigenvalues --    0.61435   0.61881   0.62114   0.62417   0.63022
 Alpha virt. eigenvalues --    0.63196   0.63618   0.64561   0.64956   0.66006
 Alpha virt. eigenvalues --    0.66694   0.66880   0.67675   0.67947   0.68649
 Alpha virt. eigenvalues --    0.69296   0.69439   0.69963   0.70417   0.70913
 Alpha virt. eigenvalues --    0.72189   0.72440   0.72870   0.73956   0.74719
 Alpha virt. eigenvalues --    0.76433   0.77529   0.77810   0.78461   0.81646
 Alpha virt. eigenvalues --    0.82435   0.83777   0.84700   0.88088   0.88790
 Alpha virt. eigenvalues --    0.89850   0.90695   0.92018   0.93459   0.94749
 Alpha virt. eigenvalues --    0.95547   0.96178   0.96934   0.97705   1.00848
 Alpha virt. eigenvalues --    1.01169   1.03299   1.06358   1.07664   1.09354
 Alpha virt. eigenvalues --    1.12647   1.13878   1.14897   1.16978   1.18117
 Alpha virt. eigenvalues --    1.20998   1.24175   1.25747   1.26851   1.27335
 Alpha virt. eigenvalues --    1.27786   1.29018   1.31318   1.32486   1.33002
 Alpha virt. eigenvalues --    1.34553   1.37051   1.38846   1.39294   1.41479
 Alpha virt. eigenvalues --    1.43035   1.43487   1.46441   1.47096   1.48858
 Alpha virt. eigenvalues --    1.50005   1.50871   1.52398   1.52578   1.52789
 Alpha virt. eigenvalues --    1.54116   1.54947   1.55525   1.57561   1.58194
 Alpha virt. eigenvalues --    1.59006   1.59490   1.60098   1.60487   1.60791
 Alpha virt. eigenvalues --    1.61171   1.62234   1.62448   1.63490   1.64583
 Alpha virt. eigenvalues --    1.65294   1.65551   1.66966   1.68765   1.68796
 Alpha virt. eigenvalues --    1.69836   1.70586   1.72320   1.73289   1.73770
 Alpha virt. eigenvalues --    1.74318   1.77042   1.78362   1.80224   1.80958
 Alpha virt. eigenvalues --    1.81671   1.82227   1.83237   1.84538   1.87766
 Alpha virt. eigenvalues --    1.88240   1.92660   1.93075   1.96110   1.96755
 Alpha virt. eigenvalues --    1.99153   2.03234   2.06521   2.08028   2.13059
 Alpha virt. eigenvalues --    2.15251   2.17124   2.20279   2.22554   2.25118
 Alpha virt. eigenvalues --    2.28516   2.30981   2.33700   2.36566   2.40306
 Alpha virt. eigenvalues --    2.41065   2.41628   2.42252   2.42720   2.43182
 Alpha virt. eigenvalues --    2.44094   2.44800   2.46253   2.46661   2.47625
 Alpha virt. eigenvalues --    2.48155   2.48833   2.49629   2.50232   2.51551
 Alpha virt. eigenvalues --    2.51936   2.53217   2.57863   2.58917   2.60695
 Alpha virt. eigenvalues --    2.61765   2.63346   2.67956   2.72845   2.80489
 Alpha virt. eigenvalues --    2.82681   2.87461   2.88502   2.90386   2.91688
 Alpha virt. eigenvalues --    2.92962   2.94033   2.95076   2.95510   2.97170
 Alpha virt. eigenvalues --    2.99748   3.00749   3.00892   3.03603   3.05123
 Alpha virt. eigenvalues --    3.08111   3.10533   3.12097   3.13606   3.14516
 Alpha virt. eigenvalues --    3.16095   3.17116   3.17824   3.20347   3.21398
 Alpha virt. eigenvalues --    3.22466   3.22875   3.22968   3.24444   3.25166
 Alpha virt. eigenvalues --    3.25666   3.27647   3.28549   3.29947   3.30528
 Alpha virt. eigenvalues --    3.32921   3.33782   3.35158   3.38399   3.39969
 Alpha virt. eigenvalues --    3.42899   3.50644   3.56859   3.59987   3.63153
 Alpha virt. eigenvalues --    3.78208   3.88322   3.90527   3.97847   4.04885
 Alpha virt. eigenvalues --    4.09237   4.10819   4.19411   4.21324   4.24902
 Alpha virt. eigenvalues --    4.94297   5.00091   5.02076   5.09002   5.14293
 Alpha virt. eigenvalues --    5.23508   5.49759   5.55020   5.77862   5.85622
 Alpha virt. eigenvalues --   11.52250  11.54088  11.59474  23.42174  23.49819
 Alpha virt. eigenvalues --   23.54575  23.55227  23.57319  23.60417  23.70549
 Alpha virt. eigenvalues --   23.73627  23.78644  23.79638  23.82502  23.84349
 Alpha virt. eigenvalues --   23.89727  24.27405  49.98643  50.05496  50.11988
 Alpha virt. eigenvalues --  141.29673
          Condensed to atoms (all electrons):
               1          2          3          4          5          6
     1  C    5.192458   0.281759  -0.047259  -0.007591  -0.049555   0.384881
     2  C    0.281759   5.525018   0.311945  -0.092316  -0.009716  -0.041626
     3  C   -0.047259   0.311945   5.226422   0.229574  -0.009274  -0.016827
     4  C   -0.007591  -0.092316   0.229574   5.866469   0.238548   0.003031
     5  C   -0.049555  -0.009716  -0.009274   0.238548   4.410593  -0.002046
     6  H    0.384881  -0.041626  -0.016827   0.003031  -0.002046   0.488366
     7  H   -0.049720   0.411535  -0.056986  -0.006635   0.001027   0.007998
     8  H    0.000307  -0.005950  -0.032671   0.364154  -0.030466   0.000191
     9  H   -0.000623   0.007500  -0.034272   0.366567  -0.025866   0.000128
    10  O    0.220384  -0.034110   0.004938  -0.111786   0.338034  -0.036491
    11  O    0.001276  -0.000039   0.002348  -0.098135   0.661459   0.000187
    12  C    0.326012  -0.071184   0.009502  -0.002570   0.002434  -0.050210
    13  C   -0.073577   0.008118  -0.000115   0.000062  -0.000004  -0.006181
    14  C   -0.066371   0.299237  -0.062761   0.007790  -0.000026  -0.001494
    15  O    0.004082  -0.049944   0.226028  -0.024511   0.001700  -0.000083
    16  Si   0.002779  -0.012115  -0.044259  -0.009235   0.001568  -0.000285
    17  C    0.000009  -0.000355  -0.001915  -0.000967   0.000088   0.000001
    18  C   -0.000112  -0.002006  -0.001254  -0.002090  -0.000068  -0.000007
    19  C   -0.000001  -0.000246   0.002408  -0.000150   0.000001   0.000000
    20  H   -0.000095  -0.001024   0.000740   0.000281   0.000014  -0.000010
    21  H   -0.000057  -0.000467   0.000183   0.000275   0.000006  -0.000003
    22  H   -0.000003   0.000292  -0.000067   0.000055   0.000002   0.000000
    23  H   -0.000001  -0.000005  -0.000061  -0.000020   0.000000   0.000000
    24  H    0.000000  -0.000018  -0.000129  -0.000037   0.000000   0.000000
    25  H    0.000000   0.000000  -0.000069   0.000000   0.000000   0.000000
    26  H    0.000003  -0.000045   0.000600  -0.000400  -0.000035   0.000000
    27  H    0.000007  -0.000012  -0.000373   0.001692   0.000088   0.000000
    28  H    0.000000   0.000007  -0.000016   0.000132  -0.000002   0.000000
    29  H   -0.005879  -0.036633   0.007553  -0.000248   0.000003  -0.000983
    30  H   -0.005277  -0.037288  -0.010076  -0.000169   0.000013   0.005314
    31  H    0.005654  -0.030652  -0.007964   0.000441  -0.000070  -0.000053
    32  H   -0.042605  -0.007175  -0.000941   0.000258  -0.000279   0.007931
    33  H   -0.039216  -0.005343  -0.000143   0.000104   0.000006   0.000184
    34  H    0.008397  -0.000259   0.000013  -0.000001   0.000007  -0.000294
    35  H   -0.011368   0.000437  -0.000065   0.000350   0.000657   0.000333
    36  H   -0.004380  -0.000079  -0.000003  -0.000003  -0.000105   0.005061
    37  C   -0.000721  -0.093544   0.271267  -0.095563  -0.004513   0.006383
    38  C   -0.000803   0.009636  -0.058938  -0.014351  -0.000835   0.000030
    39  C   -0.000038   0.000044  -0.003277  -0.000387   0.000685   0.000053
    40  H    0.004307  -0.009736  -0.023877  -0.003256   0.002633  -0.001944
    41  H   -0.000213  -0.007089  -0.040078   0.006567  -0.000206   0.000048
    42  H    0.000009  -0.000241  -0.001528  -0.000010   0.000131  -0.000007
    43  H    0.000000   0.000018  -0.000296   0.000051   0.000012   0.000000
    44  H   -0.000046   0.000000  -0.000402  -0.000025   0.001032   0.000116
               7          8          9         10         11         12
     1  C   -0.049720   0.000307  -0.000623   0.220384   0.001276   0.326012
     2  C    0.411535  -0.005950   0.007500  -0.034110  -0.000039  -0.071184
     3  C   -0.056986  -0.032671  -0.034272   0.004938   0.002348   0.009502
     4  C   -0.006635   0.364154   0.366567  -0.111786  -0.098135  -0.002570
     5  C    0.001027  -0.030466  -0.025866   0.338034   0.661459   0.002434
     6  H    0.007998   0.000191   0.000128  -0.036491   0.000187  -0.050210
     7  H    0.476708   0.001980   0.000139   0.002624  -0.000022  -0.008995
     8  H    0.001980   0.420705  -0.016476   0.003413   0.001594  -0.000190
     9  H    0.000139  -0.016476   0.403023   0.004636   0.009779   0.000072
    10  O    0.002624   0.003413   0.004636   8.037853  -0.069659  -0.049874
    11  O   -0.000022   0.001594   0.009779  -0.069659   7.872847  -0.000133
    12  C   -0.008995  -0.000190   0.000072  -0.049874  -0.000133   5.324305
    13  C   -0.000112  -0.000003  -0.000003  -0.004367  -0.000015   0.314763
    14  C   -0.041901   0.000206  -0.000136   0.003146   0.000005  -0.003749
    15  O   -0.001753  -0.003611  -0.000339  -0.000028  -0.000017  -0.000074
    16  Si  -0.003870   0.003110  -0.004529  -0.000789  -0.000475  -0.000265
    17  C   -0.000153  -0.000257  -0.002359  -0.000001  -0.000002   0.000000
    18  C   -0.003371   0.002365   0.000323   0.000007   0.000001   0.000003
    19  C   -0.000056  -0.000003  -0.000042   0.000000   0.000000   0.000000
    20  H   -0.000425   0.005118   0.000009  -0.000038   0.000004   0.000095
    21  H   -0.000984  -0.000369   0.000004  -0.000004   0.000000   0.000055
    22  H    0.000582  -0.000026  -0.000004   0.000000   0.000000  -0.000001
    23  H   -0.000027  -0.000005  -0.000005   0.000000   0.000000   0.000000
    24  H   -0.000005   0.000000  -0.000018   0.000000   0.000000   0.000000
    25  H   -0.000003   0.000005  -0.000002   0.000000   0.000000   0.000000
    26  H   -0.000001   0.000032   0.000285   0.000000   0.000001   0.000000
    27  H   -0.000054   0.001099  -0.000920  -0.000003  -0.000054   0.000000
    28  H    0.000003  -0.000047   0.000219   0.000000   0.000000   0.000000
    29  H   -0.008360  -0.000036   0.000014  -0.000001   0.000000   0.001833
    30  H    0.007456  -0.000010   0.000013   0.000032   0.000001  -0.000256
    31  H   -0.003422   0.000043  -0.000027  -0.000102   0.000000   0.000027
    32  H    0.006165   0.000198   0.000012   0.002634  -0.000058   0.387606
    33  H    0.000090  -0.000001  -0.000002   0.003256   0.000007   0.389041
    34  H   -0.000038  -0.000001   0.000000  -0.000142   0.000000  -0.038415
    35  H    0.000007  -0.000015  -0.000007   0.012053   0.000156  -0.038357
    36  H    0.000016   0.000001   0.000000  -0.000341  -0.000002  -0.042674
    37  C    0.008526   0.006337  -0.008107  -0.003923   0.000899  -0.000178
    38  C   -0.000209   0.000059   0.007685   0.000204  -0.000540   0.000009
    39  C   -0.000005   0.000052   0.004054  -0.000076   0.000216   0.000000
    40  H   -0.000241  -0.000034  -0.000351   0.002475  -0.000772   0.000905
    41  H   -0.000186  -0.000124   0.000262   0.000023  -0.000001  -0.000083
    42  H    0.000006   0.000018  -0.000266   0.000000  -0.000005   0.000001
    43  H   -0.000001  -0.000003   0.000160  -0.000001   0.000017   0.000000
    44  H    0.000008   0.000031   0.000020  -0.000201   0.001841  -0.000002
              13         14         15         16         17         18
     1  C   -0.073577  -0.066371   0.004082   0.002779   0.000009  -0.000112
     2  C    0.008118   0.299237  -0.049944  -0.012115  -0.000355  -0.002006
     3  C   -0.000115  -0.062761   0.226028  -0.044259  -0.001915  -0.001254
     4  C    0.000062   0.007790  -0.024511  -0.009235  -0.000967  -0.002090
     5  C   -0.000004  -0.000026   0.001700   0.001568   0.000088  -0.000068
     6  H   -0.006181  -0.001494  -0.000083  -0.000285   0.000001  -0.000007
     7  H   -0.000112  -0.041901  -0.001753  -0.003870  -0.000153  -0.003371
     8  H   -0.000003   0.000206  -0.003611   0.003110  -0.000257   0.002365
     9  H   -0.000003  -0.000136  -0.000339  -0.004529  -0.002359   0.000323
    10  O   -0.004367   0.003146  -0.000028  -0.000789  -0.000001   0.000007
    11  O   -0.000015   0.000005  -0.000017  -0.000475  -0.000002   0.000001
    12  C    0.314763  -0.003749  -0.000074  -0.000265   0.000000   0.000003
    13  C    5.341120  -0.000337   0.000001   0.000023   0.000000   0.000000
    14  C   -0.000337   5.389797  -0.005374  -0.000963   0.000010   0.000860
    15  O    0.000001  -0.005374   8.260122   0.349915  -0.023838  -0.023315
    16  Si   0.000023  -0.000963   0.349915  11.527716   0.322992   0.313636
    17  C    0.000000   0.000010  -0.023838   0.322992   5.769572  -0.058252
    18  C    0.000000   0.000860  -0.023315   0.313636  -0.058252   5.800703
    19  C    0.000000  -0.000141  -0.021187   0.335598  -0.053166  -0.050856
    20  H   -0.000002   0.000244  -0.001143  -0.030564  -0.001413   0.366258
    21  H   -0.000001   0.000522  -0.002000  -0.027545   0.002397   0.370072
    22  H    0.000000  -0.000031   0.000800  -0.010021   0.000321   0.365945
    23  H    0.000000   0.000066  -0.001328  -0.028314   0.002547  -0.000516
    24  H    0.000000  -0.000009  -0.001297  -0.026208  -0.000529   0.002589
    25  H    0.000000  -0.000002   0.000888  -0.013413   0.000470  -0.000034
    26  H    0.000000   0.000001  -0.002231  -0.025196   0.370197   0.002217
    27  H    0.000000   0.000001  -0.001087  -0.029225   0.370030  -0.001735
    28  H    0.000000   0.000001   0.000908  -0.012092   0.364346   0.000887
    29  H    0.000079   0.391607   0.000140  -0.000223   0.000001   0.000127
    30  H   -0.000097   0.385078  -0.000102  -0.000159   0.000000   0.000011
    31  H    0.000016   0.383931   0.007126   0.003551   0.000041  -0.000168
    32  H   -0.043892   0.001223  -0.000006  -0.000146   0.000001   0.000050
    33  H   -0.039179   0.000834  -0.000006  -0.000022   0.000000  -0.000002
    34  H    0.392514  -0.000001   0.000000  -0.000001   0.000000   0.000000
    35  H    0.385977  -0.000075   0.000000   0.000003   0.000000   0.000000
    36  H    0.385909   0.000058   0.000000  -0.000001   0.000000   0.000000
    37  C   -0.000016  -0.008564  -0.078574   0.000287  -0.000038  -0.000348
    38  C   -0.000001  -0.000262   0.007921   0.001140  -0.000066   0.000028
    39  C    0.000000  -0.000004   0.000782   0.000538  -0.000020   0.000001
    40  H   -0.000012   0.001152   0.003365   0.000026   0.000005   0.000013
    41  H    0.000002   0.001281   0.002291   0.000033   0.000022   0.000010
    42  H    0.000000   0.000014   0.003415   0.000677   0.000230   0.000017
    43  H    0.000000   0.000000   0.000009   0.000006   0.000003   0.000000
    44  H    0.000000  -0.000007   0.000001  -0.000004  -0.000001   0.000000
              19         20         21         22         23         24
     1  C   -0.000001  -0.000095  -0.000057  -0.000003  -0.000001   0.000000
     2  C   -0.000246  -0.001024  -0.000467   0.000292  -0.000005  -0.000018
     3  C    0.002408   0.000740   0.000183  -0.000067  -0.000061  -0.000129
     4  C   -0.000150   0.000281   0.000275   0.000055  -0.000020  -0.000037
     5  C    0.000001   0.000014   0.000006   0.000002   0.000000   0.000000
     6  H    0.000000  -0.000010  -0.000003   0.000000   0.000000   0.000000
     7  H   -0.000056  -0.000425  -0.000984   0.000582  -0.000027  -0.000005
     8  H   -0.000003   0.005118  -0.000369  -0.000026  -0.000005   0.000000
     9  H   -0.000042   0.000009   0.000004  -0.000004  -0.000005  -0.000018
    10  O    0.000000  -0.000038  -0.000004   0.000000   0.000000   0.000000
    11  O    0.000000   0.000004   0.000000   0.000000   0.000000   0.000000
    12  C    0.000000   0.000095   0.000055  -0.000001   0.000000   0.000000
    13  C    0.000000  -0.000002  -0.000001   0.000000   0.000000   0.000000
    14  C   -0.000141   0.000244   0.000522  -0.000031   0.000066  -0.000009
    15  O   -0.021187  -0.001143  -0.002000   0.000800  -0.001328  -0.001297
    16  Si   0.335598  -0.030564  -0.027545  -0.010021  -0.028314  -0.026208
    17  C   -0.053166  -0.001413   0.002397   0.000321   0.002547  -0.000529
    18  C   -0.050856   0.366258   0.370072   0.365945  -0.000516   0.002589
    19  C    5.723743   0.002993  -0.000490  -0.000957   0.368929   0.369387
    20  H    0.002993   0.451791  -0.019157  -0.020154  -0.000095  -0.000107
    21  H   -0.000490  -0.019157   0.449996  -0.020623   0.001216  -0.000076
    22  H   -0.000957  -0.020154  -0.020623   0.435529  -0.000072  -0.000045
    23  H    0.368929  -0.000095   0.001216  -0.000072   0.458475  -0.018156
    24  H    0.369387  -0.000107  -0.000076  -0.000045  -0.018156   0.455945
    25  H    0.364030  -0.000079  -0.000075   0.000643  -0.020534  -0.020561
    26  H   -0.000387  -0.000031  -0.000100  -0.000036  -0.000096   0.001102
    27  H    0.002779   0.000941  -0.000022   0.000058  -0.000116  -0.000087
    28  H   -0.000784   0.000064  -0.000043   0.000318   0.000001  -0.000098
    29  H   -0.000003   0.000026   0.000247  -0.000004  -0.000002   0.000000
    30  H    0.000001  -0.000010  -0.000008   0.000001  -0.000008   0.000000
    31  H    0.000199  -0.000028   0.000358   0.000011   0.000608  -0.000016
    32  H    0.000000   0.000054   0.000019  -0.000003   0.000000   0.000000
    33  H    0.000000  -0.000002   0.000001   0.000000   0.000000   0.000000
    34  H    0.000000   0.000000   0.000000   0.000000   0.000000   0.000000
    35  H    0.000000   0.000000   0.000000   0.000000   0.000000   0.000000
    36  H    0.000000   0.000000   0.000000   0.000000   0.000000   0.000000
    37  C    0.000001  -0.000097  -0.000098   0.000007  -0.000008   0.000064
    38  C   -0.000035   0.000009   0.000007   0.000000   0.000003  -0.000027
    39  C   -0.000001   0.000000   0.000000   0.000000   0.000000  -0.000001
    40  H    0.000002   0.000005   0.000001   0.000000  -0.000001   0.000000
    41  H   -0.000042   0.000001   0.000000   0.000000  -0.000007  -0.000009
    42  H    0.000026   0.000001   0.000000   0.000000  -0.000009   0.000058
    43  H    0.000000   0.000000   0.000000   0.000000   0.000000   0.000000
    44  H    0.000000   0.000000   0.000000   0.000000   0.000000   0.000000
              25         26         27         28         29         30
     1  C    0.000000   0.000003   0.000007   0.000000  -0.005879  -0.005277
     2  C    0.000000  -0.000045  -0.000012   0.000007  -0.036633  -0.037288
     3  C   -0.000069   0.000600  -0.000373  -0.000016   0.007553  -0.010076
     4  C    0.000000  -0.000400   0.001692   0.000132  -0.000248  -0.000169
     5  C    0.000000  -0.000035   0.000088  -0.000002   0.000003   0.000013
     6  H    0.000000   0.000000   0.000000   0.000000  -0.000983   0.005314
     7  H   -0.000003  -0.000001  -0.000054   0.000003  -0.008360   0.007456
     8  H    0.000005   0.000032   0.001099  -0.000047  -0.000036  -0.000010
     9  H   -0.000002   0.000285  -0.000920   0.000219   0.000014   0.000013
    10  O    0.000000   0.000000  -0.000003   0.000000  -0.000001   0.000032
    11  O    0.000000   0.000001  -0.000054   0.000000   0.000000   0.000001
    12  C    0.000000   0.000000   0.000000   0.000000   0.001833  -0.000256
    13  C    0.000000   0.000000   0.000000   0.000000   0.000079  -0.000097
    14  C   -0.000002   0.000001   0.000001   0.000001   0.391607   0.385078
    15  O    0.000888  -0.002231  -0.001087   0.000908   0.000140  -0.000102
    16  Si  -0.013413  -0.025196  -0.029225  -0.012092  -0.000223  -0.000159
    17  C    0.000470   0.370197   0.370030   0.364346   0.000001   0.000000
    18  C   -0.000034   0.002217  -0.001735   0.000887   0.000127   0.000011
    19  C    0.364030  -0.000387   0.002779  -0.000784  -0.000003   0.000001
    20  H   -0.000079  -0.000031   0.000941   0.000064   0.000026  -0.000010
    21  H   -0.000075  -0.000100  -0.000022  -0.000043   0.000247  -0.000008
    22  H    0.000643  -0.000036   0.000058   0.000318  -0.000004   0.000001
    23  H   -0.020534  -0.000096  -0.000116   0.000001  -0.000002  -0.000008
    24  H   -0.020561   0.001102  -0.000087  -0.000098   0.000000   0.000000
    25  H    0.452286  -0.000024  -0.000082   0.000818   0.000000   0.000000
    26  H   -0.000024   0.448238  -0.018537  -0.020296   0.000000   0.000000
    27  H   -0.000082  -0.018537   0.455024  -0.022497   0.000000   0.000000
    28  H    0.000818  -0.020296  -0.022497   0.450118   0.000000   0.000000
    29  H    0.000000   0.000000   0.000000   0.000000   0.459578  -0.026615
    30  H    0.000000   0.000000   0.000000   0.000000  -0.026615   0.468544
    31  H   -0.000014   0.000003   0.000001   0.000000  -0.024836  -0.023844
    32  H    0.000000   0.000000   0.000000   0.000000   0.000199   0.000010
    33  H    0.000000   0.000000   0.000000   0.000000   0.001900   0.000254
    34  H    0.000000   0.000000   0.000000   0.000000   0.000007   0.000001
    35  H    0.000000   0.000000   0.000000   0.000000  -0.000023   0.000004
    36  H    0.000000   0.000000   0.000000   0.000000   0.000052  -0.000019
    37  C    0.000001   0.000117  -0.000031  -0.000001  -0.000243   0.004390
    38  C    0.000000   0.000383  -0.000057   0.000004   0.000013   0.000160
    39  C    0.000000   0.000042  -0.000021   0.000000   0.000000  -0.000011
    40  H    0.000000   0.000002   0.000004   0.000000  -0.000066  -0.000216
    41  H    0.000001   0.000008  -0.000001   0.000000   0.000228   0.000165
    42  H   -0.000004   0.000497  -0.000013  -0.000001  -0.000001   0.000006
    43  H    0.000000  -0.000001   0.000002   0.000000   0.000000   0.000000
    44  H    0.000000   0.000001  -0.000001   0.000000   0.000000   0.000004
              31         32         33         34         35         36
     1  C    0.005654  -0.042605  -0.039216   0.008397  -0.011368  -0.004380
     2  C   -0.030652  -0.007175  -0.005343  -0.000259   0.000437  -0.000079
     3  C   -0.007964  -0.000941  -0.000143   0.000013  -0.000065  -0.000003
     4  C    0.000441   0.000258   0.000104  -0.000001   0.000350  -0.000003
     5  C   -0.000070  -0.000279   0.000006   0.000007   0.000657  -0.000105
     6  H   -0.000053   0.007931   0.000184  -0.000294   0.000333   0.005061
     7  H   -0.003422   0.006165   0.000090  -0.000038   0.000007   0.000016
     8  H    0.000043   0.000198  -0.000001  -0.000001  -0.000015   0.000001
     9  H   -0.000027   0.000012  -0.000002   0.000000  -0.000007   0.000000
    10  O   -0.000102   0.002634   0.003256  -0.000142   0.012053  -0.000341
    11  O    0.000000  -0.000058   0.000007   0.000000   0.000156  -0.000002
    12  C    0.000027   0.387606   0.389041  -0.038415  -0.038357  -0.042674
    13  C    0.000016  -0.043892  -0.039179   0.392514   0.385977   0.385909
    14  C    0.383931   0.001223   0.000834  -0.000001  -0.000075   0.000058
    15  O    0.007126  -0.000006  -0.000006   0.000000   0.000000   0.000000
    16  Si   0.003551  -0.000146  -0.000022  -0.000001   0.000003  -0.000001
    17  C    0.000041   0.000001   0.000000   0.000000   0.000000   0.000000
    18  C   -0.000168   0.000050  -0.000002   0.000000   0.000000   0.000000
    19  C    0.000199   0.000000   0.000000   0.000000   0.000000   0.000000
    20  H   -0.000028   0.000054  -0.000002   0.000000   0.000000   0.000000
    21  H    0.000358   0.000019   0.000001   0.000000   0.000000   0.000000
    22  H    0.000011  -0.000003   0.000000   0.000000   0.000000   0.000000
    23  H    0.000608   0.000000   0.000000   0.000000   0.000000   0.000000
    24  H   -0.000016   0.000000   0.000000   0.000000   0.000000   0.000000
    25  H   -0.000014   0.000000   0.000000   0.000000   0.000000   0.000000
    26  H    0.000003   0.000000   0.000000   0.000000   0.000000   0.000000
    27  H    0.000001   0.000000   0.000000   0.000000   0.000000   0.000000
    28  H    0.000000   0.000000   0.000000   0.000000   0.000000   0.000000
    29  H   -0.024836   0.000199   0.001900   0.000007  -0.000023   0.000052
    30  H   -0.023844   0.000010   0.000254   0.000001   0.000004  -0.000019
    31  H    0.428433  -0.000078   0.000313  -0.000001   0.000004  -0.000005
    32  H   -0.000078   0.484321  -0.024704  -0.004683  -0.004829   0.007358
    33  H    0.000313  -0.024704   0.470809  -0.005581   0.007174  -0.004520
    34  H   -0.000001  -0.004683  -0.005581   0.473805  -0.026542  -0.026915
    35  H    0.000004  -0.004829   0.007174  -0.026542   0.462674  -0.026964
    36  H   -0.000005   0.007358  -0.004520  -0.026915  -0.026964   0.485055
    37  C   -0.000410   0.000029   0.000003   0.000000  -0.000001  -0.000017
    38  C   -0.000138   0.000000   0.000000   0.000000   0.000000   0.000000
    39  C    0.000003   0.000000   0.000000   0.000000   0.000000   0.000000
    40  H    0.000003  -0.000052  -0.000027   0.000002  -0.000007  -0.000030
    41  H    0.000456   0.000002  -0.000005   0.000000   0.000000   0.000001
    42  H    0.000003   0.000000   0.000000   0.000000   0.000000   0.000000
    43  H    0.000000   0.000000   0.000000   0.000000   0.000000   0.000000
    44  H    0.000000   0.000000   0.000000   0.000000   0.000000   0.000000
              37         38         39         40         41         42
     1  C   -0.000721  -0.000803  -0.000038   0.004307  -0.000213   0.000009
     2  C   -0.093544   0.009636   0.000044  -0.009736  -0.007089  -0.000241
     3  C    0.271267  -0.058938  -0.003277  -0.023877  -0.040078  -0.001528
     4  C   -0.095563  -0.014351  -0.000387  -0.003256   0.006567  -0.000010
     5  C   -0.004513  -0.000835   0.000685   0.002633  -0.000206   0.000131
     6  H    0.006383   0.000030   0.000053  -0.001944   0.000048  -0.000007
     7  H    0.008526  -0.000209  -0.000005  -0.000241  -0.000186   0.000006
     8  H    0.006337   0.000059   0.000052  -0.000034  -0.000124   0.000018
     9  H   -0.008107   0.007685   0.004054  -0.000351   0.000262  -0.000266
    10  O   -0.003923   0.000204  -0.000076   0.002475   0.000023   0.000000
    11  O    0.000899  -0.000540   0.000216  -0.000772  -0.000001  -0.000005
    12  C   -0.000178   0.000009   0.000000   0.000905  -0.000083   0.000001
    13  C   -0.000016  -0.000001   0.000000  -0.000012   0.000002   0.000000
    14  C   -0.008564  -0.000262  -0.000004   0.001152   0.001281   0.000014
    15  O   -0.078574   0.007921   0.000782   0.003365   0.002291   0.003415
    16  Si   0.000287   0.001140   0.000538   0.000026   0.000033   0.000677
    17  C   -0.000038  -0.000066  -0.000020   0.000005   0.000022   0.000230
    18  C   -0.000348   0.000028   0.000001   0.000013   0.000010   0.000017
    19  C    0.000001  -0.000035  -0.000001   0.000002  -0.000042   0.000026
    20  H   -0.000097   0.000009   0.000000   0.000005   0.000001   0.000001
    21  H   -0.000098   0.000007   0.000000   0.000001   0.000000   0.000000
    22  H    0.000007   0.000000   0.000000   0.000000   0.000000   0.000000
    23  H   -0.000008   0.000003   0.000000  -0.000001  -0.000007  -0.000009
    24  H    0.000064  -0.000027  -0.000001   0.000000  -0.000009   0.000058
    25  H    0.000001   0.000000   0.000000   0.000000   0.000001  -0.000004
    26  H    0.000117   0.000383   0.000042   0.000002   0.000008   0.000497
    27  H   -0.000031  -0.000057  -0.000021   0.000004  -0.000001  -0.000013
    28  H   -0.000001   0.000004   0.000000   0.000000   0.000000  -0.000001
    29  H   -0.000243   0.000013   0.000000  -0.000066   0.000228  -0.000001
    30  H    0.004390   0.000160  -0.000011  -0.000216   0.000165   0.000006
    31  H   -0.000410  -0.000138   0.000003   0.000003   0.000456   0.000003
    32  H    0.000029   0.000000   0.000000  -0.000052   0.000002   0.000000
    33  H    0.000003   0.000000   0.000000  -0.000027  -0.000005   0.000000
    34  H    0.000000   0.000000   0.000000   0.000002   0.000000   0.000000
    35  H   -0.000001   0.000000   0.000000  -0.000007   0.000000   0.000000
    36  H   -0.000017   0.000000   0.000000  -0.000030   0.000001   0.000000
    37  C    5.509521   0.330225  -0.063651   0.379192   0.394179  -0.045186
    38  C    0.330225   5.060032   0.615303  -0.047068  -0.041566   0.398692
    39  C   -0.063651   0.615303   5.153254   0.001475   0.001399  -0.041117
    40  H    0.379192  -0.047068   0.001475   0.452447  -0.020942   0.005157
    41  H    0.394179  -0.041566   0.001399  -0.020942   0.442567  -0.002426
    42  H   -0.045186   0.398692  -0.041117   0.005157  -0.002426   0.461984
    43  H    0.006450  -0.039862   0.391781   0.000110  -0.000383  -0.007910
    44  H   -0.008630  -0.038506   0.386453   0.004154   0.000111   0.005645
              43         44
     1  C    0.000000  -0.000046
     2  C    0.000018   0.000000
     3  C   -0.000296  -0.000402
     4  C    0.000051  -0.000025
     5  C    0.000012   0.001032
     6  H    0.000000   0.000116
     7  H   -0.000001   0.000008
     8  H   -0.000003   0.000031
     9  H    0.000160   0.000020
    10  O   -0.000001  -0.000201
    11  O    0.000017   0.001841
    12  C    0.000000  -0.000002
    13  C    0.000000   0.000000
    14  C    0.000000  -0.000007
    15  O    0.000009   0.000001
    16  Si   0.000006  -0.000004
    17  C    0.000003  -0.000001
    18  C    0.000000   0.000000
    19  C    0.000000   0.000000
    20  H    0.000000   0.000000
    21  H    0.000000   0.000000
    22  H    0.000000   0.000000
    23  H    0.000000   0.000000
    24  H    0.000000   0.000000
    25  H    0.000000   0.000000
    26  H   -0.000001   0.000001
    27  H    0.000002  -0.000001
    28  H    0.000000   0.000000
    29  H    0.000000   0.000000
    30  H    0.000000   0.000004
    31  H    0.000000   0.000000
    32  H    0.000000   0.000000
    33  H    0.000000   0.000000
    34  H    0.000000   0.000000
    35  H    0.000000   0.000000
    36  H    0.000000   0.000000
    37  C    0.006450  -0.008630
    38  C   -0.039862  -0.038506
    39  C    0.391781   0.386453
    40  H    0.000110   0.004154
    41  H   -0.000383   0.000111
    42  H   -0.007910   0.005645
    43  H    0.457046  -0.032809
    44  H   -0.032809   0.457367
 Mulliken charges:
               1
     1  C   -0.026811
     2  C   -0.306328
     3  C    0.162375
     4  C   -0.615942
     5  C    0.472326
     6  H    0.248310
     7  H    0.262665
     8  H    0.279278
     9  H    0.289446
    10  O   -0.323778
    11  O   -0.382709
    12  C   -0.449456
    13  C   -0.660670
    14  C   -0.674858
    15  O   -0.627645
    16  Si   1.416319
    17  C   -1.059952
    18  C   -1.081988
    19  C   -1.041554
    20  H    0.245826
    21  H    0.246763
    22  H    0.247480
    23  H    0.237540
    24  H    0.238289
    25  H    0.235757
    26  H    0.243690
    27  H    0.243203
    28  H    0.238052
    29  H    0.240546
    30  H    0.232705
    31  H    0.260604
    32  H    0.231383
    33  H    0.244779
    34  H    0.228128
    35  H    0.238422
    36  H    0.222547
    37  C   -0.505419
    38  C   -0.188281
    39  C   -0.447529
    40  H    0.251196
    41  H    0.263704
    42  H    0.222134
    43  H    0.225602
    44  H    0.223849
 Sum of Mulliken charges =   0.00000
 Mulliken charges with hydrogens summed into heavy atoms:
               1
     1  C    0.221499
     2  C   -0.043663
     3  C    0.162375
     4  C   -0.047217
     5  C    0.472326
    10  O   -0.323778
    11  O   -0.382709
    12  C    0.026706
    13  C    0.028426
    14  C    0.058998
    15  O   -0.627645
    16  Si   1.416319
    17  C   -0.335007
    18  C   -0.341919
    19  C   -0.329968
    37  C    0.009481
    38  C    0.033853
    39  C    0.001922
 Electronic spatial extent (au):  <R**2>=           5472.0924
 Charge=              0.0000 electrons
 Dipole moment (field-independent basis, Debye):
    X=              1.8142    Y=             -4.2154    Z=             -2.3586  Tot=              5.1598
 Quadrupole moment (field-independent basis, Debye-Ang):
   XX=           -121.0798   YY=           -121.5864   ZZ=           -124.7020
   XY=              8.2921   XZ=             11.3842   YZ=             -6.3072
 Traceless Quadrupole moment (field-independent basis, Debye-Ang):
   XX=              1.3763   YY=              0.8696   ZZ=             -2.2459
   XY=              8.2921   XZ=             11.3842   YZ=             -6.3072
 Octapole moment (field-independent basis, Debye-Ang**2):
  XXX=             10.7071  YYY=             -7.4126  ZZZ=             -2.0451  XYY=              7.0570
  XXY=            -21.5765  XXZ=            -12.7755  XZZ=              5.5146  YZZ=            -22.3478
  YYZ=            -14.7654  XYZ=              9.3741
 Hexadecapole moment (field-independent basis, Debye-Ang**3):
 XXXX=          -4230.0632 YYYY=          -2134.3248 ZZZZ=          -1109.1745 XXXY=             35.0674
 XXXZ=             72.5292 YYYX=             50.8368 YYYZ=              4.9199 ZZZX=              6.7652
 ZZZY=              0.5645 XXYY=          -1042.2496 XXZZ=           -907.9537 YYZZ=           -608.3372
 XXYZ=            -58.0471 YYXZ=             21.8782 ZZXY=             22.8226
 N-N= 1.630664670007D+03 E-N=-5.756358093379D+03  KE= 1.060530570863D+03
 1\1\GINC-SWANNODE-0-9\SP\RmPW1PW91\6-311G(d)\C14H26O3Si1\ROOT\08-Mar-2
 018\0\\#mPW1PW91/6-311g(d) nmr=(giao) scrf=(solvent=chloroform)\\P_ng_
 correct1ginp001\\0,1\C,0,0.826286,-0.403664,0.374184\C,0,-0.707454,-0.
 454926,0.510015\C,0,-1.207755,0.600334,1.537013\C,0,-0.705156,1.966013
 ,1.060666\C,0,0.783664,2.013653,0.918193\H,0,1.291366,-0.914479,1.2261
 73\H,0,-1.134246,-0.187514,-0.464716\H,0,-1.111515,2.229836,0.078237\H
 ,0,-1.0202,2.761999,1.744408\O,0,1.374549,0.935802,0.364177\O,0,1.4276
 74,3.025022,1.177013\C,0,1.318916,-1.096344,-0.910562\C,0,2.83968,-1.1
 19591,-1.018532\C,0,-1.19853,-1.879218,0.813825\O,0,-2.643453,0.501867
 ,1.6724\Si,0,-3.84696,1.186349,0.736521\C,0,-3.995181,3.035181,1.03709
 8\C,0,-3.617615,0.880765,-1.099888\C,0,-5.50201,0.409821,1.2255\H,0,-2
 .722102,1.38073,-1.478406\H,0,-3.528678,-0.190128,-1.305077\H,0,-4.476
 614,1.262523,-1.660117\H,0,-5.480504,-0.669793,1.051046\H,0,-5.706029,
 0.586966,2.285411\H,0,-6.316144,0.84209,0.636665\H,0,-4.063272,3.24477
 1,2.108655\H,0,-3.133697,3.574468,0.634777\H,0,-4.894082,3.429479,0.55
 3582\H,0,-0.995097,-2.552792,-0.024157\H,0,-0.70625,-2.295412,1.698365
 \H,0,-2.279282,-1.907748,0.981659\H,0,0.923972,-0.567944,-1.78684\H,0,
 0.957915,-2.128305,-0.956598\H,0,3.143694,-1.656541,-1.922801\H,0,3.25
 4006,-0.108395,-1.076302\H,0,3.284982,-1.627156,-0.157017\C,0,-0.66713
 9,0.288472,2.976848\C,0,-1.05359,1.311111,4.016783\C,0,-0.179658,2.071
 259,4.688535\H,0,0.422123,0.174118,2.974314\H,0,-1.080701,-0.667652,3.
 322051\H,0,-2.117181,1.414392,4.225806\H,0,-0.522558,2.788204,5.428744
 \H,0,0.890846,2.00796,4.516332\\Version=EM64L-G09RevD.01\State=1-A\HF=
 -1064.3780651\RMSD=3.699e-09\Dipole=-1.2111604,-1.5005505,-0.6343558\Q
 uadrupole=-3.8940388,-0.2698274,4.1638663,-10.7034936,1.065876,1.33103
 38\PG=C01 [X(C14H26O3Si1)]\\@


 Experience is what you get when you don't get what you want.
 -- Dan Stanford
 Job cpu time:       0 days  1 hours 18 minutes  5.3 seconds.
 File lengths (MBytes):  RWF=    240 Int=      0 D2E=      0 Chk=     11 Scr=      1
 Normal termination of Gaussian 09 at Thu Mar  8 13:18:49 2018.
