 Entering Gaussian System, Link 0=/usr/local/shared/gaussian/em64t/09-D01/g09/g09
 Initial command:
 /usr/local/shared/gaussian/em64t/09-D01/g09/l1.exe "/scratch/ah809/P_ng_correct1ginp008/Gau-3060.inp" -scrdir="/scratch/ah809/P_ng_correct1ginp008/"
 Entering Link 1 = /usr/local/shared/gaussian/em64t/09-D01/g09/l1.exe PID=      3072.
  
 Copyright (c) 1988,1990,1992,1993,1995,1998,2003,2009,2013,
            Gaussian, Inc.  All Rights Reserved.
  
 This is part of the Gaussian(R) 09 program.  It is based on
 the Gaussian(R) 03 system (copyright 2003, Gaussian, Inc.),
 the Gaussian(R) 98 system (copyright 1998, Gaussian, Inc.),
 the Gaussian(R) 94 system (copyright 1995, Gaussian, Inc.),
 the Gaussian 92(TM) system (copyright 1992, Gaussian, Inc.),
 the Gaussian 90(TM) system (copyright 1990, Gaussian, Inc.),
 the Gaussian 88(TM) system (copyright 1988, Gaussian, Inc.),
 the Gaussian 86(TM) system (copyright 1986, Carnegie Mellon
 University), and the Gaussian 82(TM) system (copyright 1983,
 Carnegie Mellon University). Gaussian is a federally registered
 trademark of Gaussian, Inc.
  
 This software contains proprietary and confidential information,
 including trade secrets, belonging to Gaussian, Inc.
  
 This software is provided under written license and may be
 used, copied, transmitted, or stored only in accord with that
 written license.
  
 The following legend is applicable only to US Government
 contracts under FAR:
  
                    RESTRICTED RIGHTS LEGEND
  
 Use, reproduction and disclosure by the US Government is
 subject to restrictions as set forth in subparagraphs (a)
 and (c) of the Commercial Computer Software - Restricted
 Rights clause in FAR 52.227-19.
  
 Gaussian, Inc.
 340 Quinnipiac St., Bldg. 40, Wallingford CT 06492
  
  
 ---------------------------------------------------------------
 Warning -- This program may not be used in any manner that
 competes with the business of Gaussian, Inc. or will provide
 assistance to any competitor of Gaussian, Inc.  The licensee
 of this program is prohibited from giving any competitor of
 Gaussian, Inc. access to this program.  By using this program,
 the user acknowledges that Gaussian, Inc. is engaged in the
 business of creating and licensing software in the field of
 computational chemistry and represents and warrants to the
 licensee that it is not a competitor of Gaussian, Inc. and that
 it will not use this program in any manner prohibited above.
 ---------------------------------------------------------------
  

 Cite this work as:
 Gaussian 09, Revision D.01,
 M. J. Frisch, G. W. Trucks, H. B. Schlegel, G. E. Scuseria, 
 M. A. Robb, J. R. Cheeseman, G. Scalmani, V. Barone, B. Mennucci, 
 G. A. Petersson, H. Nakatsuji, M. Caricato, X. Li, H. P. Hratchian, 
 A. F. Izmaylov, J. Bloino, G. Zheng, J. L. Sonnenberg, M. Hada, 
 M. Ehara, K. Toyota, R. Fukuda, J. Hasegawa, M. Ishida, T. Nakajima, 
 Y. Honda, O. Kitao, H. Nakai, T. Vreven, J. A. Montgomery, Jr., 
 J. E. Peralta, F. Ogliaro, M. Bearpark, J. J. Heyd, E. Brothers, 
 K. N. Kudin, V. N. Staroverov, T. Keith, R. Kobayashi, J. Normand, 
 K. Raghavachari, A. Rendell, J. C. Burant, S. S. Iyengar, J. Tomasi, 
 M. Cossi, N. Rega, J. M. Millam, M. Klene, J. E. Knox, J. B. Cross, 
 V. Bakken, C. Adamo, J. Jaramillo, R. Gomperts, R. E. Stratmann, 
 O. Yazyev, A. J. Austin, R. Cammi, C. Pomelli, J. W. Ochterski, 
 R. L. Martin, K. Morokuma, V. G. Zakrzewski, G. A. Voth, 
 P. Salvador, J. J. Dannenberg, S. Dapprich, A. D. Daniels, 
 O. Farkas, J. B. Foresman, J. V. Ortiz, J. Cioslowski, 
 and D. J. Fox, Gaussian, Inc., Wallingford CT, 2013.
 
 ******************************************
 Gaussian 09:  EM64L-G09RevD.01 24-Apr-2013
                 8-Mar-2018 
 ******************************************
 %mem=6000MB
 %chk=P_ng_correct1ginp008.chk
 --------------------------------------------------------
 #mPW1PW91/6-311g(d) nmr=(giao) scrf=(solvent=chloroform)
 --------------------------------------------------------
 1/38=1/1;
 2/12=2,17=6,18=5,40=1/2;
 3/5=4,6=6,7=1,11=2,16=1,25=1,30=1,70=2201,72=7,74=-7/1,2,8,3;
 4//1;
 5/5=2,38=5,53=7/2;
 8/6=1,10=90,11=11/1;
 10/13=100,45=16/2;
 6/7=2,8=2,9=2,10=2,28=1/1;
 99/9=1/99;
 --------------------
 P_ng_correct1ginp008
 --------------------
 Symbolic Z-matrix:
 Charge =  0 Multiplicity = 1
 C                     0.7405   -0.36618   0.44331 
 C                    -0.75715  -0.44964   0.77952 
 C                    -1.09603   0.67341   1.81634 
 C                    -0.25023   1.94668   1.58043 
 C                     0.41132   2.0287    0.23394 
 H                     1.36125  -0.38246   1.34701 
 H                    -1.29535  -0.22733  -0.14964 
 H                    -0.85908   2.84698   1.72139 
 H                     0.586     2.01109   2.28821 
 O                     0.96724   0.88869  -0.23459 
 O                     0.52233   3.08649  -0.3764 
 C                     1.2259   -1.47962  -0.49788 
 C                     2.6982   -1.33176  -0.86514 
 C                    -1.2248   -1.84628   1.20284 
 O                    -2.51168   0.95302   1.87343 
 Si                   -3.55834   1.41826   0.65742 
 C                    -4.36716  -0.09546  -0.1229 
 C                    -4.94303   2.45775   1.41798 
 C                    -2.78542   2.43554  -0.70676 
 H                    -5.46673   1.88695   2.19022 
 H                    -4.53123   3.3627    1.87403 
 H                    -5.6661    2.75185   0.65175 
 H                    -2.32252   3.3421   -0.30756 
 H                    -2.02951   1.86368  -1.25102 
 H                    -3.54812   2.74358  -1.42896 
 H                    -4.84011  -0.71357   0.64578 
 H                    -5.13446   0.20933  -0.84069 
 H                    -3.62895  -0.70552  -0.65034 
 H                    -1.20338  -2.53649   0.3528 
 H                    -0.58752  -2.26772   1.9868 
 H                    -2.25703  -1.82705   1.56665 
 H                     0.63924  -1.46514  -1.42439 
 H                     1.08926  -2.46026  -0.03009 
 H                     3.01333  -2.16767  -1.49787 
 H                     2.88273  -0.40605  -1.41885 
 H                     3.32638  -1.32929   0.03128 
 C                    -0.78252   0.16836   3.27891 
 C                    -0.99195   1.19956   4.36396 
 C                    -0.05091   1.58439   5.23538 
 H                     0.24167  -0.21987   3.33188 
 H                    -1.45542  -0.66071   3.53231 
 H                    -1.98805   1.63513   4.43237 
 H                    -0.27351   2.32634   5.99689 
 H                     0.95335   1.17333   5.21721 
 
                          Input orientation:                          
 ---------------------------------------------------------------------
 Center     Atomic      Atomic             Coordinates (Angstroms)
 Number     Number       Type             X           Y           Z
 ---------------------------------------------------------------------
      1          6           0        0.740499   -0.366175    0.443306
      2          6           0       -0.757147   -0.449641    0.779522
      3          6           0       -1.096033    0.673405    1.816339
      4          6           0       -0.250232    1.946678    1.580433
      5          6           0        0.411316    2.028703    0.233936
      6          1           0        1.361254   -0.382456    1.347008
      7          1           0       -1.295346   -0.227330   -0.149642
      8          1           0       -0.859076    2.846982    1.721392
      9          1           0        0.585998    2.011086    2.288214
     10          8           0        0.967244    0.888692   -0.234593
     11          8           0        0.522330    3.086488   -0.376397
     12          6           0        1.225903   -1.479624   -0.497875
     13          6           0        2.698196   -1.331760   -0.865144
     14          6           0       -1.224795   -1.846277    1.202844
     15          8           0       -2.511680    0.953023    1.873434
     16         14           0       -3.558339    1.418257    0.657422
     17          6           0       -4.367163   -0.095462   -0.122901
     18          6           0       -4.943026    2.457753    1.417976
     19          6           0       -2.785423    2.435544   -0.706758
     20          1           0       -5.466726    1.886954    2.190224
     21          1           0       -4.531232    3.362697    1.874027
     22          1           0       -5.666099    2.751848    0.651750
     23          1           0       -2.322520    3.342099   -0.307556
     24          1           0       -2.029515    1.863681   -1.251024
     25          1           0       -3.548120    2.743580   -1.428957
     26          1           0       -4.840113   -0.713574    0.645775
     27          1           0       -5.134456    0.209326   -0.840688
     28          1           0       -3.628950   -0.705518   -0.650337
     29          1           0       -1.203380   -2.536486    0.352803
     30          1           0       -0.587522   -2.267719    1.986799
     31          1           0       -2.257033   -1.827046    1.566653
     32          1           0        0.639244   -1.465140   -1.424385
     33          1           0        1.089257   -2.460257   -0.030085
     34          1           0        3.013327   -2.167673   -1.497865
     35          1           0        2.882734   -0.406052   -1.418850
     36          1           0        3.326378   -1.329287    0.031279
     37          6           0       -0.782523    0.168359    3.278911
     38          6           0       -0.991950    1.199558    4.363957
     39          6           0       -0.050908    1.584387    5.235375
     40          1           0        0.241674   -0.219868    3.331877
     41          1           0       -1.455417   -0.660705    3.532309
     42          1           0       -1.988047    1.635134    4.432372
     43          1           0       -0.273512    2.326339    5.996887
     44          1           0        0.953354    1.173326    5.217214
 ---------------------------------------------------------------------
                    Distance matrix (angstroms):
                    1          2          3          4          5
     1  C    0.000000
     2  C    1.537189   0.000000
     3  C    2.517697   1.565588   0.000000
     4  C    2.761140   2.576968   1.546692   0.000000
     5  C    2.426446   2.793771   2.571562   1.502474   0.000000
     6  H    1.096485   2.194123   2.715396   2.841873   2.820461
     7  H    2.124978   1.096552   2.171665   2.968456   2.854735
     8  H    3.810055   3.430048   2.188516   1.095951   2.120378
     9  H    3.013126   3.183609   2.200292   1.097444   2.061767
    10  O    1.444178   2.406884   2.917153   2.428148   1.352110
    11  O    3.555333   3.934135   3.640077   2.392740   1.226271
    12  C    1.536622   2.573926   3.922054   4.270584   3.675249
    13  C    2.544990   3.927143   5.060357   5.042046   4.210761
    14  C    2.574875   1.532478   2.596489   3.934317   4.316377
    15  O    3.789752   2.498499   1.444127   2.487438   3.519794
    16  Si   4.659405   3.369069   2.821497   3.474874   4.038582
    17  C    5.146075   3.737917   3.879704   4.901102   5.241495
    18  C    6.420826   5.136355   4.259336   4.723336   5.500456
    19  C    4.648054   3.827169   3.510725   3.449265   3.357017
    20  H    6.830663   5.443335   4.551423   5.252354   6.196655
    21  H    6.613819   5.474996   4.363051   4.518658   5.375706
    22  H    7.128114   5.862053   5.153804   5.553590   6.134532
    23  H    4.867974   4.243751   3.624518   3.131466   3.080922
    24  H    3.939034   3.330690   3.420067   3.345129   2.861817
    25  H    5.618558   4.781587   4.564022   4.535146   4.353550
    26  H    5.595079   4.093673   4.160777   5.386793   5.938619
    27  H    6.041104   4.713826   4.856338   5.721526   5.934689
    28  H    4.517000   3.218264   3.794942   4.840063   4.957989
    29  H    2.914980   2.176266   3.529428   4.744926   4.843792
    30  H    2.786015   2.188995   2.989624   4.247357   4.746520
    31  H    3.518700   2.183226   2.768126   4.274159   4.874733
    32  H    2.169388   2.799706   4.252864   4.632559   3.874135
    33  H    2.175066   2.847323   4.243184   4.879454   4.547535
    34  H    3.489884   4.728065   5.995207   6.087251   5.232511
    35  H    2.838730   4.252467   5.240445   4.934219   3.842869
    36  H    2.790004   4.243680   5.172517   5.091558   4.451377
    37  C    3.262818   2.574784   1.578758   2.516064   3.762712
    38  C    4.563376   3.952615   2.603465   2.975960   4.440012
    39  C    5.234018   4.948805   3.689442   3.678259   5.042366
    40  H    2.934974   2.750446   2.210034   2.829037   3.831721
    41  H    3.801412   2.847800   2.203080   3.472857   4.647243
    42  H    5.230951   4.382318   2.926472   3.354194   4.851670
    43  H    6.254607   5.929660   4.570089   4.432804   5.811126
    44  H    5.020515   5.025231   4.001982   3.908052   5.085129
                    6          7          8          9         10
     6  H    0.000000
     7  H    3.053121   0.000000
     8  H    3.936915   3.625258   0.000000
     9  H    2.686249   3.806981   1.763022   0.000000
    10  O    2.067008   2.524289   3.316055   2.787413   0.000000
    11  O    3.963268   3.786391   2.523166   2.874142   2.246856
    12  C    2.150742   2.836583   5.290728   4.511854   2.396903
    13  C    2.753581   4.204769   6.066814   5.057634   2.885168
    14  C    2.975097   2.110731   4.735961   4.397300   3.788313
    15  O    4.130405   2.639231   2.518193   3.299568   4.068271
    16  Si   5.283984   2.912121   3.234085   4.492934   4.642955
    17  C    5.920959   3.074762   4.936200   5.897866   5.425581
    18  C    6.914895   4.792981   4.113661   5.614885   6.334369
    19  C    5.417934   3.101871   3.126661   4.529514   4.086343
    20  H    7.244484   5.229300   4.729894   6.054790   6.947822
    21  H    7.001808   5.239703   3.711333   5.308903   6.387505
    22  H    7.725991   5.349880   4.925511   6.505033   6.946812
    23  H    5.493640   3.717640   2.550184   4.119356   4.104519
    24  H    4.826201   2.474747   3.342464   4.403276   3.311238
    25  H    6.448258   3.941820   4.143229   5.607570   5.025498
    26  H    6.249666   3.665310   5.448226   6.289997   6.088325
    27  H    6.879714   3.925172   5.639181   6.764611   6.169249
    28  H    5.384783   2.434146   5.090929   5.812126   4.882555
    29  H    3.493657   2.364976   5.565367   5.256244   4.097376
    30  H    2.785907   3.037858   5.128777   4.447041   4.161107
    31  H    3.902190   2.535666   4.881062   4.830604   4.584286
    32  H    3.061719   2.626744   5.543940   5.086293   2.657765
    33  H    2.507514   3.269035   5.918653   5.061688   3.357405
    34  H    3.742946   4.913990   7.106749   6.139084   3.888917
    35  H    3.156807   4.370261   5.868943   4.985968   2.597678
    36  H    2.547419   4.754721   6.149450   4.874580   3.248943
    37  C    2.937929   3.489202   3.099475   2.499995   3.990648
    38  C    4.140328   4.743483   3.116859   2.730789   5.008167
    39  C    4.580619   5.816301   3.820387   3.045239   5.607243
    40  H    2.284644   3.805714   3.634678   2.486955   3.804611
    41  H    3.575835   3.710822   3.992357   3.585194   4.739142
    42  H    4.980759   4.994343   3.176880   3.371122   5.574180
    43  H    5.624180   6.733884   4.346701   3.820000   6.514418
    44  H    4.191102   5.985118   4.278644   3.068523   5.459250
                   11         12         13         14         15
    11  O    0.000000
    12  C    4.621596   0.000000
    13  C    4.949160   1.524597   0.000000
    14  C    5.466134   3.005462   4.464433   0.000000
    15  O    4.338044   5.050783   6.313703   3.153069   0.000000
    16  Si   4.528094   5.711514   7.001788   4.049703   1.670516
    17  C    5.839196   5.773985   7.211009   3.833723   2.920187
    18  C    5.786640   7.564992   8.829571   5.691766   2.895358
    19  C    3.387344   5.609181   6.654904   4.941268   2.988343
    20  H    6.625347   7.959335   9.293080   5.736367   3.115266
    21  H    5.538880   7.887876   9.044646   6.206160   3.144061
    22  H    6.282175   8.168640   9.430708   6.416513   3.831272
    23  H    2.857140   5.989703   6.882111   5.514123   3.240399
    24  H    2.961780   4.726803   5.719353   4.520269   3.289988
    25  H    4.218297   6.441557   7.479488   5.778495   3.896933
    26  H    6.651398   6.220235   7.713050   3.829343   3.115492
    27  H    6.363400   6.589707   7.982855   4.866927   3.846882
    28  H    5.629163   4.918545   6.361690   3.242772   3.220011
    29  H    5.926858   2.782450   4.261110   1.095179   4.025002
    30  H    5.956845   3.175407   4.450342   1.094676   3.753454
    31  H    5.970186   4.063720   5.541953   1.094642   2.808513
    32  H    4.672180   1.096722   2.137715   3.243800   5.162504
    33  H    5.586387   1.095053   2.135302   2.692939   5.314190
    34  H    5.921905   2.160619   1.094712   5.035752   7.185409
    35  H    4.342355   2.178495   1.094340   5.081272   6.464203
    36  H    5.246709   2.171313   1.094620   4.727898   6.533406
    37  C    4.855862   4.584074   5.615955   2.926503   2.362424
    38  C    5.322077   5.977817   6.882459   4.395903   2.927979
    39  C    5.837542   6.624845   7.299166   5.422986   4.213866
    40  H    4.976148   4.150023   4.988566   3.054262   3.329217
    41  H    5.764627   4.909429   6.086083   2.623962   2.543949
    42  H    5.615397   6.658718   7.669877   4.809639   2.699561
    43  H    6.467607   7.675645   8.324675   6.426392   4.888584
    44  H    5.927432   6.306716   6.805513   5.475171   4.820359
                   16         17         18         19         20
    16  Si   0.000000
    17  C    1.885324   0.000000
    18  C    1.891125   3.037240   0.000000
    19  C    1.869026   3.041181   3.028240   0.000000
    20  H    2.492208   3.238759   1.093819   3.985328   0.000000
    21  H    2.491485   3.996687   1.093837   3.250833   1.775654
    22  H    2.494223   3.224049   1.093814   3.200607   1.776146
    23  H    2.481854   4.003934   3.259844   1.093382   4.271110
    24  H    2.485532   3.252000   3.995626   1.093000   4.863862
    25  H    2.471753   3.230600   3.183157   1.094607   4.184893
    26  H    2.487526   1.093895   3.265609   3.996003   3.088804
    27  H    2.487970   1.094008   3.192747   3.239126   3.480125
    28  H    2.495123   1.093305   4.001374   3.252844   4.262290
    29  H    4.612875   4.024229   6.329452   5.324154   6.412414
    30  H    4.917257   4.843059   6.451671   5.848649   6.411655
    31  H    3.612768   3.210237   5.059265   4.859760   4.948208
    32  H    5.501600   5.351074   7.391200   5.240102   7.847598
    33  H    6.092264   5.947553   7.916574   6.280119   8.173673
    34  H    7.790440   7.788210   9.654028   7.445869  10.097193
    35  H    7.009025   7.371361   8.802925   6.380419   9.380660
    36  H    7.439112   7.793373   9.200415   7.216146   9.608534
    37  C    4.017413   4.948896   5.100411   5.003728   5.106914
    38  C    4.513600   5.762034   5.086537   5.518728   5.022076
    39  C    5.769517   7.082589   6.266428   6.596286   6.220577
    40  H    4.927095   5.761280   6.141155   5.703078   6.190953
    41  H    4.124238   4.707263   5.134063   5.415290   4.937850
    42  H    4.094277   5.422699   4.300603   5.261855   4.146305
    43  H    6.334397   7.750800   6.541258   7.159642   6.453930
    44  H    6.419273   7.644250   7.131007   7.117942   7.133678
                   21         22         23         24         25
    21  H    0.000000
    22  H    1.776238   0.000000
    23  H    3.104535   3.528199   0.000000
    24  H    4.274527   4.199301   1.778118   0.000000
    25  H    3.501360   2.969048   1.765746   1.764099   0.000000
    26  H    4.268489   3.562504   4.867812   4.259055   4.233872
    27  H    4.204439   2.995736   4.243287   3.542023   3.047124
    28  H    4.872053   4.218861   4.267020   3.085417   3.536815
    29  H    6.941836   6.926161   6.020491   4.755652   6.045790
    30  H    6.875111   7.264321   6.304311   5.443465   6.748752
    31  H    5.674495   5.781440   5.498819   4.648928   5.615266
    32  H    7.805213   7.864520   5.755771   4.270056   5.936949
    33  H    8.313984   8.559543   6.736805   5.469357   7.109292
    34  H    9.943592  10.205634   7.761809   6.460882   8.196203
    35  H    8.945021   9.345708   6.509860   5.413875   7.160738
    36  H    9.335549   9.894710   7.338031   6.365920   8.122762
    37  C    5.121554   6.117655   5.030603   4.994939   6.036912
    38  C    4.837917   6.167475   5.308854   5.748531   6.517351
    39  C    5.876593   7.341863   6.242905   6.787213   7.614955
    40  H    6.143348   7.135542   5.701594   5.522903   6.768316
    41  H    5.329006   6.137832   5.614167   5.438969   6.370457
    42  H    3.999674   5.391495   5.049012   5.688141   6.165846
    43  H    6.016660   7.604705   6.706430   7.471935   8.126519
    44  H    6.786083   8.194654   6.779234   7.156270   8.179276
                   26         27         28         29         30
    26  H    0.000000
    27  H    1.774248   0.000000
    28  H    1.773947   1.771926   0.000000
    29  H    4.078562   4.941383   3.200332   0.000000
    30  H    4.722101   5.899580   4.318014   1.766765   0.000000
    31  H    2.959753   4.268684   2.838138   1.756964   1.777071
    32  H    5.905402   6.039880   4.403823   2.775147   3.712851
    33  H    6.218128   6.820437   5.072011   2.325639   2.629920
    34  H    8.269590   8.512836   6.853907   4.619698   5.011886
    35  H    7.999976   8.061532   6.563712   4.936986   5.206431
    36  H    8.212690   8.643690   7.016429   4.698874   4.474743
    37  C    4.916833   5.992670   4.929990   4.006921   2.764427
    38  C    5.682720   6.725269   5.977142   5.485625   4.223322
    39  C    7.020081   8.040634   7.258626   6.492249   5.067536
    40  H    5.769181   6.818891   5.574551   4.041012   2.586599
    41  H    4.448712   5.780604   4.713892   3.700180   2.392559
    42  H    5.290466   6.303807   5.831393   5.887359   4.813996
    43  H    7.663505   8.652338   8.039696   7.507823   6.106126
    44  H    7.617264   8.642274   7.678263   6.486656   4.964944
                   31         32         33         34         35
    31  H    0.000000
    32  H    4.179199   0.000000
    33  H    3.761407   1.771113   0.000000
    34  H    6.106062   2.476938   2.437628   0.000000
    35  H    6.111437   2.480916   3.060226   1.768221   0.000000
    36  H    5.812023   3.059102   2.507503   1.771771   1.775403
    37  C    3.014573   5.177908   4.621973   6.533231   5.986068
    38  C    4.311111   6.577713   6.085497   7.857573   7.143670
    39  C    5.473973   7.357196   6.736779   8.294818   7.539683
    40  H    3.455803   4.932625   4.128017   5.899357   5.438683
    41  H    2.422136   5.440913   4.733329   6.895163   6.587745
    42  H    4.502376   7.128531   6.793788   8.639606   7.882116
    43  H    6.388422   8.383538   7.816203   9.336528   8.510053
    44  H    5.712741   7.153391   6.384007   7.778049   7.089026
                   36         37         38         39         40
    36  H    0.000000
    37  C    5.447304   0.000000
    38  C    6.619298   1.511475   0.000000
    39  C    6.854062   2.523519   1.339038   0.000000
    40  H    4.651898   1.096588   2.145178   2.638986   0.000000
    41  H    5.964040   1.097426   2.089741   3.148574   1.764831
    42  H    7.510028   2.221529   1.089319   2.097593   3.102221
    43  H    7.868373   3.507615   2.110035   1.086253   3.721675
    44  H    6.228020   2.789309   2.124369   1.085285   2.449893
                   41         42         43         44
    41  H    0.000000
    42  H    2.522833   0.000000
    43  H    4.048886   2.421797   0.000000
    44  H    3.464787   3.079137   1.855405   0.000000
 Stoichiometry    C14H26O3Si
 Framework group  C1[X(C14H26O3Si)]
 Deg. of freedom   126
 Full point group                 C1      NOp   1
 Largest Abelian subgroup         C1      NOp   1
 Largest concise Abelian subgroup C1      NOp   1
                         Standard orientation:                         
 ---------------------------------------------------------------------
 Center     Atomic      Atomic             Coordinates (Angstroms)
 Number     Number       Type             X           Y           Z
 ---------------------------------------------------------------------
      1          6           0       -2.209856   -0.239073   -0.281187
      2          6           0       -0.815069   -0.319496   -0.922322
      3          6           0        0.116298    0.721937   -0.215896
      4          6           0       -0.226420    0.873507    1.284712
      5          6           0       -1.066119   -0.232287    1.858780
      6          1           0       -2.597587    0.786568   -0.279337
      7          1           0       -0.430994   -1.322660   -0.701926
      8          1           0        0.687556    0.959359    1.883364
      9          1           0       -0.818982    1.777883    1.472746
     10          8           0       -2.086615   -0.674947    1.090118
     11          8           0       -0.897374   -0.657919    2.996366
     12          6           0       -3.251365   -1.149420   -0.950317
     13          6           0       -4.605531   -1.097473   -0.251795
     14          6           0       -0.823414   -0.207768   -2.450699
     15          8           0        1.515231    0.440254   -0.437580
     16         14           0        2.392895   -0.940863   -0.101652
     17          6           0        2.409148   -2.085065   -1.599978
     18          6           0        4.186362   -0.447914    0.240150
     19          6           0        1.795116   -1.919851    1.373984
     20          1           0        4.604780    0.084348   -0.618956
     21          1           0        4.239616    0.207339    1.114386
     22          1           0        4.797383   -1.334697    0.431714
     23          1           0        1.791210   -1.305444    2.278402
     24          1           0        0.788531   -2.313060    1.210204
     25          1           0        2.456069   -2.773152    1.556144
     26          1           0        2.763296   -1.548734   -2.485153
     27          1           0        3.073951   -2.935743   -1.423244
     28          1           0        1.407839   -2.471473   -1.808267
     29          1           0       -1.269045   -1.100479   -2.902248
     30          1           0       -1.400240    0.657926   -2.791525
     31          1           0        0.192859   -0.127356   -2.849403
     32          1           0       -2.899798   -2.188190   -0.937822
     33          1           0       -3.396877   -0.857505   -1.995665
     34          1           0       -5.327924   -1.723099   -0.785775
     35          1           0       -4.541036   -1.465828    0.776667
     36          1           0       -4.994510   -0.074558   -0.228711
     37          6           0       -0.061738    2.142284   -0.881775
     38          6           0        0.727869    3.252526   -0.227221
     39          6           0        0.191776    4.380248    0.256380
     40          1           0       -1.123809    2.413548   -0.912198
     41          1           0        0.292233    2.107144   -1.919953
     42          1           0        1.806345    3.110618   -0.169185
     43          1           0        0.821280    5.141879    0.707587
     44          1           0       -0.874942    4.575405    0.213153
 ---------------------------------------------------------------------
 Rotational constants (GHZ):      0.4305395      0.2919412      0.2522807
 Standard basis: 6-311G(d) (5D, 7F)
 There are   428 symmetry adapted cartesian basis functions of A   symmetry.
 There are   410 symmetry adapted basis functions of A   symmetry.
   410 basis functions,   720 primitive gaussians,   428 cartesian basis functions
    74 alpha electrons       74 beta electrons
       nuclear repulsion energy      1636.8572893382 Hartrees.
 NAtoms=   44 NActive=   44 NUniq=   44 SFac= 1.00D+00 NAtFMM=   60 NAOKFM=F Big=F
 Integral buffers will be    131072 words long.
 Raffenetti 2 integral format.
 Two-electron integral symmetry is turned on.
 ------------------------------------------------------------------------------
 Polarizable Continuum Model (PCM)
 =================================
 Model                : PCM (using non-symmetric T matrix).
 Atomic radii         : UFF (Universal Force Field).
 Polarization charges : Total charges.
 Charge compensation  : None.
 Solution method      : On-the-fly selection.
 Cavity type          : Scaled VdW (van der Waals Surface) (Alpha=1.100).
 Cavity algorithm     : GePol (No added spheres)
                        Default sphere list used, NSphG=   44.
                        Lebedev-Laikov grids with approx.  5.0 points / Ang**2.
                        Smoothing algorithm: Karplus/York (Gamma=1.0000).
                        Polarization charges: spherical gaussians, with
                                              point-specific exponents (IZeta= 3).
                        Self-potential: point-specific (ISelfS= 7).
                        Self-field    : sphere-specific E.n sum rule (ISelfD= 2).
 Solvent              : Chloroform, Eps=   4.711300 Eps(inf)=   2.090627
 ------------------------------------------------------------------------------
 One-electron integrals computed using PRISM.
 NBasis=   410 RedAO= T EigKep=  6.58D-04  NBF=   410
 NBsUse=   410 1.00D-06 EigRej= -1.00D+00 NBFU=   410
 ExpMin= 6.54D-02 ExpMax= 6.94D+04 ExpMxC= 2.33D+03 IAcc=2 IRadAn=         4 AccDes= 0.00D+00
 Harris functional with IExCor=  908 and IRadAn=       4 diagonalized for initial guess.
 HarFok:  IExCor=  908 AccDes= 0.00D+00 IRadAn=         4 IDoV= 1 UseB2=F ITyADJ=14
 ICtDFT=  3500011 ScaDFX=  1.000000  1.000000  1.000000  1.000000
 FoFCou: FMM=F IPFlag=           0 FMFlag=      100000 FMFlg1=           0
         NFxFlg=           0 DoJE=T BraDBF=F KetDBF=T FulRan=T
         wScrn=  0.000000 ICntrl=     500 IOpCl=  0 I1Cent=   200000004 NGrid=           0
         NMat0=    1 NMatS0=      1 NMatT0=    0 NMatD0=    1 NMtDS0=    0 NMtDT0=    0
 Petite list used in FoFCou.
 Requested convergence on RMS density matrix=1.00D-08 within 128 cycles.
 Requested convergence on MAX density matrix=1.00D-06.
 Requested convergence on             energy=1.00D-06.
 No special actions if energy rises.
 Inv3:  Mode=1 IEnd=    24043683.
 Iteration    1 A*A^-1 deviation from unit magnitude is 7.77D-15 for   1820.
 Iteration    1 A*A^-1 deviation from orthogonality  is 8.22D-15 for   1882    919.
 Iteration    1 A^-1*A deviation from unit magnitude is 6.99D-15 for    200.
 Iteration    1 A^-1*A deviation from orthogonality  is 1.21D-09 for   2465   2440.
 Iteration    2 A*A^-1 deviation from unit magnitude is 1.04D-14 for    200.
 Iteration    2 A*A^-1 deviation from orthogonality  is 1.04D-14 for   2077    703.
 Iteration    2 A^-1*A deviation from unit magnitude is 1.78D-15 for    157.
 Iteration    2 A^-1*A deviation from orthogonality  is 1.33D-15 for   2031    112.
 Error on total polarization charges =  0.01140
 SCF Done:  E(RmPW1PW91) =  -1064.37587149     A.U. after   13 cycles
            NFock= 13  Conv=0.37D-08     -V/T= 2.0036
 DoSCS=F DFT=T ScalE2(SS,OS)=  1.000000  1.000000
 Range of M.O.s used for correlation:     1   410
 NBasis=   410 NAE=    74 NBE=    74 NFC=     0 NFV=     0
 NROrb=    410 NOA=    74 NOB=    74 NVA=   336 NVB=   336
 NEqPCM:  Using equilibrium solvation (IEInf=0, Eps=   4.7113, EpsInf=   2.0906)
          Differentiating once with respect to magnetic field using GIAOs.
          Electric field/nuclear overlap derivatives assumed to be zero.
 FoFJK:  IHMeth= 1 ICntrl=    6127 DoSepK=F KAlg= 0 I1Cent=   0 FoldK=F
 IRaf=         1 NMat=   1 IRICut=       1 DoRegI=T DoRafI=F ISym2E= 0.
          There are     3 degrees of freedom in the 1st order CPHF.  IDoFFX=0 NUNeed=     3.
      3 vectors produced by pass  0 Test12= 8.29D-13 3.33D-08 XBig12= 3.35D+01 1.10D+00.
 AX will form     3 AO Fock derivatives at one time.
      3 vectors produced by pass  1 Test12= 8.29D-13 3.33D-08 XBig12= 7.69D-02 9.56D-02.
      3 vectors produced by pass  2 Test12= 8.29D-13 3.33D-08 XBig12= 6.67D-04 8.36D-03.
      3 vectors produced by pass  3 Test12= 8.29D-13 3.33D-08 XBig12= 3.43D-06 4.32D-04.
      3 vectors produced by pass  4 Test12= 8.29D-13 3.33D-08 XBig12= 7.54D-09 2.03D-05.
      3 vectors produced by pass  5 Test12= 8.29D-13 3.33D-08 XBig12= 2.58D-11 7.52D-07.
      3 vectors produced by pass  6 Test12= 8.29D-13 3.33D-08 XBig12= 7.25D-14 5.68D-08.
 InvSVY:  IOpt=1 It=  1 EMax= 8.88D-16
 Solved reduced A of dimension    21 with     3 vectors.
 Calculating GIAO nuclear magnetic shielding tensors.
 SCF GIAO Magnetic shielding tensor (ppm):
      1  C    Isotropic =   106.0896   Anisotropy =    43.2422
   XX=   101.3965   YX=    12.2595   ZX=    -3.6125
   XY=     4.3641   YY=    85.7522   ZY=   -14.4708
   XZ=     9.7404   YZ=   -12.7930   ZZ=   131.1201
   Eigenvalues:    78.5573   104.7938   134.9177
      2  C    Isotropic =   138.4202   Anisotropy =    23.7406
   XX=   154.0888   YX=     1.0862   ZX=     0.0212
   XY=     1.6373   YY=   135.5568   ZY=   -10.7536
   XZ=     3.2480   YZ=     0.8300   ZZ=   125.6151
   Eigenvalues:   123.4279   137.5855   154.2473
      3  C    Isotropic =   104.5649   Anisotropy =    59.5109
   XX=   140.8893   YX=   -16.3760   ZX=    -1.9076
   XY=   -10.8386   YY=    88.2297   ZY=     4.1427
   XZ=     0.7215   YZ=     4.2271   ZZ=    84.5758
   Eigenvalues:    80.7982    88.6577   144.2389
      4  C    Isotropic =   140.6665   Anisotropy =    25.9756
   XX=   144.9846   YX=     8.9580   ZX=    -4.5632
   XY=     8.2076   YY=   126.0663   ZY=   -11.9351
   XZ=    -5.7892   YZ=    -4.0824   ZZ=   150.9487
   Eigenvalues:   121.5939   142.4222   157.9836
      5  C    Isotropic =     6.3846   Anisotropy =   103.1275
   XX=   -31.7621   YX=   -71.3113   ZX=   -34.2341
   XY=   -66.8497   YY=    20.3564   ZY=    -2.0933
   XZ=   -43.7987   YZ=   -13.2588   ZZ=    30.5594
   Eigenvalues:   -90.6460    34.6635    75.1362
      6  H    Isotropic =    28.2873   Anisotropy =     3.0255
   XX=    30.1486   YX=     0.6518   ZX=     0.8570
   XY=     0.0707   YY=    29.1216   ZY=    -0.0331
   XZ=     0.4202   YZ=    -1.2332   ZZ=    25.5916
   Eigenvalues:    25.3810    29.1766    30.3043
      7  H    Isotropic =    30.2109   Anisotropy =     5.4495
   XX=    31.8541   YX=    -2.0223   ZX=     1.2297
   XY=    -2.3076   YY=    30.6311   ZY=    -0.3977
   XZ=     1.4330   YZ=    -0.7642   ZZ=    28.1474
   Eigenvalues:    27.7121    29.0767    33.8438
      8  H    Isotropic =    29.5102   Anisotropy =     4.5687
   XX=    29.1733   YX=    -0.2470   ZX=     2.1346
   XY=     0.0388   YY=    27.6234   ZY=     0.7780
   XZ=     1.1990   YZ=    -0.8014   ZZ=    31.7340
   Eigenvalues:    27.6123    28.3624    32.5560
      9  H    Isotropic =    29.2558   Anisotropy =     4.8386
   XX=    26.9729   YX=    -1.4986   ZX=    -2.5603
   XY=    -0.5828   YY=    31.6931   ZY=     0.5885
   XZ=    -2.0972   YZ=     0.9131   ZZ=    29.1014
   Eigenvalues:    25.4398    29.8460    32.4815
     10  O    Isotropic =    89.3201   Anisotropy =   189.9175
   XX=   190.3810   YX=   -10.5632   ZX=   -22.9921
   XY=   -39.5294   YY=   147.5186   ZY=    95.9290
   XZ=    10.4275   YZ=   115.1016   ZZ=   -69.9392
   Eigenvalues:  -112.7637   164.7922   215.9318
     11  O    Isotropic =  -116.4729   Anisotropy =   581.8498
   XX=  -100.6920   YX=  -201.8138   ZX=  -214.9663
   XY=  -212.6130   YY=    29.6674   ZY=   123.3188
   XZ=  -200.0136   YZ=   114.0539   ZZ=  -278.3940
   Eigenvalues:  -415.9615  -204.8841   271.4270
     12  C    Isotropic =   158.1416   Anisotropy =    19.9405
   XX=   162.6061   YX=     8.5804   ZX=     7.3923
   XY=     8.7584   YY=   158.0613   ZY=     7.0662
   XZ=     0.4800   YZ=     2.8002   ZZ=   153.7574
   Eigenvalues:   150.0707   152.9188   171.4352
     13  C    Isotropic =   175.5389   Anisotropy =    21.3049
   XX=   187.2468   YX=    -0.1655   ZX=    -5.8907
   XY=    -0.9787   YY=   173.6010   ZY=     4.0030
   XZ=    -9.0764   YZ=     2.4627   ZZ=   165.7688
   Eigenvalues:   162.6385   174.2360   189.7421
     14  C    Isotropic =   175.8155   Anisotropy =     9.5593
   XX=   173.5927   YX=     2.0272   ZX=     1.4065
   XY=     4.2487   YY=   172.2402   ZY=    -2.6200
   XZ=     0.0417   YZ=    -2.1614   ZZ=   181.6137
   Eigenvalues:   169.2678   175.9904   182.1884
     15  O    Isotropic =   243.0895   Anisotropy =    23.1912
   XX=   250.8521   YX=     7.8208   ZX=    -5.8986
   XY=    -9.3298   YY=   227.6873   ZY=     8.1251
   XZ=    -8.5697   YZ=     1.6823   ZZ=   250.7290
   Eigenvalues:   226.6646   244.0537   258.5503
     16  Si   Isotropic =   334.7715   Anisotropy =    51.6388
   XX=   334.6060   YX=   -27.7434   ZX=    12.7574
   XY=   -11.9012   YY=   354.0713   ZY=   -10.5961
   XZ=     3.8618   YZ=    -7.7547   ZZ=   315.6372
   Eigenvalues:   312.3989   322.7182   369.1974
     17  C    Isotropic =   184.8283   Anisotropy =    10.5493
   XX=   180.7511   YX=    -4.2392   ZX=     1.6659
   XY=    -4.9034   YY=   186.0104   ZY=     5.2952
   XZ=     4.0589   YZ=     4.4084   ZZ=   187.7234
   Eigenvalues:   175.9513   186.6724   191.8611
     18  C    Isotropic =   185.9271   Anisotropy =    13.4754
   XX=   192.8942   YX=     3.9668   ZX=     3.8744
   XY=     1.3791   YY=   188.8555   ZY=     0.7707
   XZ=     3.1668   YZ=     1.2073   ZZ=   176.0317
   Eigenvalues:   175.3111   187.5596   194.9107
     19  C    Isotropic =   185.2556   Anisotropy =    11.6414
   XX=   188.8717   YX=    -5.5908   ZX=    -4.3973
   XY=    -1.9453   YY=   181.4631   ZY=    -2.6135
   XZ=    -6.0416   YZ=    -1.1404   ZZ=   185.4320
   Eigenvalues:   177.6962   185.0540   193.0165
     20  H    Isotropic =    31.9751   Anisotropy =     8.8434
   XX=    33.5341   YX=     2.9559   ZX=    -3.1325
   XY=     2.5983   YY=    30.2869   ZY=    -3.2632
   XZ=    -2.5418   YZ=    -2.6321   ZZ=    32.1044
   Eigenvalues:    28.0123    30.0423    37.8707
     21  H    Isotropic =    32.0706   Anisotropy =     8.4865
   XX=    31.6907   YX=     1.9866   ZX=     2.3923
   XY=     1.1675   YY=    31.4838   ZY=     4.5293
   XZ=     1.7508   YZ=     4.0249   ZZ=    33.0373
   Eigenvalues:    27.9089    30.5746    37.7283
     22  H    Isotropic =    32.3686   Anisotropy =     9.6834
   XX=    35.2777   YX=    -3.8142   ZX=     1.5893
   XY=    -4.4074   YY=    33.1581   ZY=    -1.1854
   XZ=     1.5069   YZ=    -1.0706   ZZ=    28.6700
   Eigenvalues:    28.3071    29.9746    38.8242
     23  H    Isotropic =    31.8549   Anisotropy =     7.3045
   XX=    30.1191   YX=    -1.5773   ZX=    -0.0362
   XY=    -1.7848   YY=    29.5166   ZY=     2.0134
   XZ=     0.0654   YZ=     2.6389   ZZ=    35.9291
   Eigenvalues:    27.6905    31.1497    36.7246
     24  H    Isotropic =    32.2023   Anisotropy =     7.0786
   XX=    36.7453   YX=     0.9177   ZX=     0.5444
   XY=     1.1163   YY=    31.0411   ZY=    -0.8936
   XZ=    -0.0618   YZ=    -1.5161   ZZ=    28.8205
   Eigenvalues:    28.2447    31.4409    36.9214
     25  H    Isotropic =    32.1997   Anisotropy =    10.4150
   XX=    32.0729   YX=    -4.7366   ZX=     1.4750
   XY=    -4.2768   YY=    34.7323   ZY=    -3.2649
   XZ=     0.8634   YZ=    -2.7496   ZZ=    29.7939
   Eigenvalues:    27.9078    29.5483    39.1430
     26  H    Isotropic =    31.9786   Anisotropy =     7.9948
   XX=    30.6296   YX=     0.0404   ZX=    -2.7576
   XY=     0.0216   YY=    29.5358   ZY=    -1.0401
   XZ=    -2.9908   YZ=    -1.9935   ZZ=    35.7703
   Eigenvalues:    28.7313    29.8960    37.3085
     27  H    Isotropic =    32.3615   Anisotropy =    10.2401
   XX=    32.3675   YX=    -5.0151   ZX=    -0.1235
   XY=    -5.0681   YY=    35.3647   ZY=     1.1289
   XZ=     0.1452   YZ=     0.8405   ZZ=    29.3524
   Eigenvalues:    28.2614    29.6349    39.1883
     28  H    Isotropic =    32.1474   Anisotropy =     6.9082
   XX=    35.9098   YX=     0.4724   ZX=     1.2467
   XY=     1.0180   YY=    30.9501   ZY=     2.6286
   XZ=     2.3216   YZ=     2.5752   ZZ=    29.5823
   Eigenvalues:    27.4603    32.2290    36.7529
     29  H    Isotropic =    31.0719   Anisotropy =     8.6661
   XX=    29.6786   YX=     2.9949   ZX=     0.8471
   XY=     2.6722   YY=    30.7777   ZY=     3.8297
   XZ=     1.2185   YZ=     4.1896   ZZ=    32.7592
   Eigenvalues:    26.5780    29.7883    36.8493
     30  H    Isotropic =    31.3897   Anisotropy =     8.3192
   XX=    29.7846   YX=    -1.8252   ZX=     3.2003
   XY=    -1.8619   YY=    31.6026   ZY=    -2.8390
   XZ=     2.7687   YZ=    -3.1400   ZZ=    32.7817
   Eigenvalues:    27.9436    29.2896    36.9358
     31  H    Isotropic =    30.7941   Anisotropy =     7.1308
   XX=    33.6129   YX=    -0.3945   ZX=    -2.2093
   XY=    -0.0717   YY=    26.2562   ZY=     0.3925
   XZ=    -2.6001   YZ=     0.3412   ZZ=    32.5133
   Eigenvalues:    26.2334    30.6010    35.5480
     32  H    Isotropic =    30.5073   Anisotropy =     5.3640
   XX=    31.8579   YX=     0.3399   ZX=    -1.2709
   XY=     0.1655   YY=    33.6727   ZY=     1.6512
   XZ=    -1.0206   YZ=     1.9942   ZZ=    25.9913
   Eigenvalues:    25.3686    32.0700    34.0833
     33  H    Isotropic =    30.3158   Anisotropy =     5.6468
   XX=    32.8184   YX=     2.1820   ZX=     0.2336
   XY=     1.8820   YY=    24.1777   ZY=    -0.8984
   XZ=     0.5510   YZ=    -0.7991   ZZ=    33.9514
   Eigenvalues:    23.6427    33.2245    34.0804
     34  H    Isotropic =    30.9676   Anisotropy =    11.3820
   XX=    35.7819   YX=     4.5678   ZX=     2.0421
   XY=     4.2862   YY=    29.1572   ZY=     2.2943
   XZ=     1.2455   YZ=     1.9313   ZZ=    27.9638
   Eigenvalues:    26.0245    28.3228    38.5556
     35  H    Isotropic =    30.5986   Anisotropy =     8.0441
   XX=    31.7655   YX=     1.7744   ZX=    -2.1701
   XY=     1.8000   YY=    26.6240   ZY=    -2.9803
   XZ=    -1.5336   YZ=    -3.1630   ZZ=    33.4063
   Eigenvalues:    25.2695    30.5650    35.9613
     36  H    Isotropic =    31.3151   Anisotropy =     9.2282
   XX=    34.2396   YX=    -4.0890   ZX=    -0.9880
   XY=    -3.4056   YY=    32.8628   ZY=     0.0213
   XZ=    -1.0310   YZ=     0.8688   ZZ=    26.8428
   Eigenvalues:    26.7068    29.7713    37.4672
     37  C    Isotropic =   137.8295   Anisotropy =    18.8621
   XX=   130.7505   YX=     0.4589   ZX=     1.8121
   XY=    -7.2390   YY=   147.9424   ZY=    -9.4550
   XZ=     6.4486   YZ=     0.3595   ZZ=   134.7957
   Eigenvalues:   128.1606   134.9237   150.4043
     38  C    Isotropic =    42.6777   Anisotropy =   181.6359
   XX=   -68.0946   YX=   -22.5162   ZX=   -35.4265
   XY=   -26.3788   YY=    63.0582   ZY=   -52.4563
   XZ=   -38.4886   YZ=   -54.0179   ZZ=   133.0695
   Eigenvalues:   -82.8969    47.1616   163.7683
     39  C    Isotropic =    64.9732   Anisotropy =   139.4515
   XX=   -27.5354   YX=   -33.7599   ZX=   -40.7314
   XY=   -34.0810   YY=    90.5181   ZY=   -37.2289
   XZ=   -42.1455   YZ=   -41.9647   ZZ=   131.9368
   Eigenvalues:   -50.7975    87.7761   157.9409
     40  H    Isotropic =    30.1441   Anisotropy =     6.4861
   XX=    30.6809   YX=    -1.7663   ZX=     1.7407
   XY=    -1.1404   YY=    33.7760   ZY=    -0.0738
   XZ=     2.1732   YZ=    -0.4301   ZZ=    25.9754
   Eigenvalues:    25.2598    30.7043    34.4681
     41  H    Isotropic =    29.4380   Anisotropy =     3.6671
   XX=    25.6470   YX=     1.5306   ZX=    -0.2802
   XY=     1.9738   YY=    31.1738   ZY=    -1.1585
   XZ=    -0.4469   YZ=     0.7979   ZZ=    31.4930
   Eigenvalues:    25.1243    31.3069    31.8827
     42  H    Isotropic =    25.5834   Anisotropy =     7.5657
   XX=    23.2600   YX=     1.7202   ZX=    -0.2966
   XY=    -0.0245   YY=    30.4314   ZY=     1.0805
   XZ=    -0.8102   YZ=     0.7668   ZZ=    23.0589
   Eigenvalues:    22.4016    23.7215    30.6272
     43  H    Isotropic =    26.6922   Anisotropy =     7.0146
   XX=    23.5407   YX=    -1.6445   ZX=    -1.1466
   XY=     0.5207   YY=    30.8537   ZY=     1.8709
   XZ=    -0.1184   YZ=     1.3092   ZZ=    25.6823
   Eigenvalues:    23.3655    25.3425    31.3686
     44  H    Isotropic =    26.7814   Anisotropy =     7.3686
   XX=    23.9408   YX=    -1.3542   ZX=    -0.3927
   XY=    -3.3902   YY=    30.7374   ZY=     0.6890
   XZ=    -1.7657   YZ=     0.9790   ZZ=    25.6659
   Eigenvalues:    22.9577    25.6926    31.6938
 End of Minotr F.D. properties file   721 does not exist.
 End of Minotr F.D. properties file   722 does not exist.
 End of Minotr F.D. properties file   788 does not exist.

 **********************************************************************

            Population analysis using the SCF density.

 **********************************************************************

 Orbital symmetries:
       Occupied  (A) (A) (A) (A) (A) (A) (A) (A) (A) (A) (A) (A)
                 (A) (A) (A) (A) (A) (A) (A) (A) (A) (A) (A) (A)
                 (A) (A) (A) (A) (A) (A) (A) (A) (A) (A) (A) (A)
                 (A) (A) (A) (A) (A) (A) (A) (A) (A) (A) (A) (A)
                 (A) (A) (A) (A) (A) (A) (A) (A) (A) (A) (A) (A)
                 (A) (A) (A) (A) (A) (A) (A) (A) (A) (A) (A) (A)
                 (A) (A)
       Virtual   (A) (A) (A) (A) (A) (A) (A) (A) (A) (A) (A) (A)
                 (A) (A) (A) (A) (A) (A) (A) (A) (A) (A) (A) (A)
                 (A) (A) (A) (A) (A) (A) (A) (A) (A) (A) (A) (A)
                 (A) (A) (A) (A) (A) (A) (A) (A) (A) (A) (A) (A)
                 (A) (A) (A) (A) (A) (A) (A) (A) (A) (A) (A) (A)
                 (A) (A) (A) (A) (A) (A) (A) (A) (A) (A) (A) (A)
                 (A) (A) (A) (A) (A) (A) (A) (A) (A) (A) (A) (A)
                 (A) (A) (A) (A) (A) (A) (A) (A) (A) (A) (A) (A)
                 (A) (A) (A) (A) (A) (A) (A) (A) (A) (A) (A) (A)
                 (A) (A) (A) (A) (A) (A) (A) (A) (A) (A) (A) (A)
                 (A) (A) (A) (A) (A) (A) (A) (A) (A) (A) (A) (A)
                 (A) (A) (A) (A) (A) (A) (A) (A) (A) (A) (A) (A)
                 (A) (A) (A) (A) (A) (A) (A) (A) (A) (A) (A) (A)
                 (A) (A) (A) (A) (A) (A) (A) (A) (A) (A) (A) (A)
                 (A) (A) (A) (A) (A) (A) (A) (A) (A) (A) (A) (A)
                 (A) (A) (A) (A) (A) (A) (A) (A) (A) (A) (A) (A)
                 (A) (A) (A) (A) (A) (A) (A) (A) (A) (A) (A) (A)
                 (A) (A) (A) (A) (A) (A) (A) (A) (A) (A) (A) (A)
                 (A) (A) (A) (A) (A) (A) (A) (A) (A) (A) (A) (A)
                 (A) (A) (A) (A) (A) (A) (A) (A) (A) (A) (A) (A)
                 (A) (A) (A) (A) (A) (A) (A) (A) (A) (A) (A) (A)
                 (A) (A) (A) (A) (A) (A) (A) (A) (A) (A) (A) (A)
                 (A) (A) (A) (A) (A) (A) (A) (A) (A) (A) (A) (A)
                 (A) (A) (A) (A) (A) (A) (A) (A) (A) (A) (A) (A)
                 (A) (A) (A) (A) (A) (A) (A) (A) (A) (A) (A) (A)
                 (A) (A) (A) (A) (A) (A) (A) (A) (A) (A) (A) (A)
                 (A) (A) (A) (A) (A) (A) (A) (A) (A) (A) (A) (A)
                 (A) (A) (A) (A) (A) (A) (A) (A) (A) (A) (A) (A)
 The electronic state is 1-A.
 Alpha  occ. eigenvalues --  -66.26767 -19.26460 -19.21313 -19.19767 -10.37044
 Alpha  occ. eigenvalues --  -10.32447 -10.31032 -10.25995 -10.25264 -10.24179
 Alpha  occ. eigenvalues --  -10.24141 -10.24112 -10.23149 -10.22795 -10.22169
 Alpha  occ. eigenvalues --  -10.20435 -10.20401 -10.20375  -5.32618  -3.66466
 Alpha  occ. eigenvalues --   -3.66228  -3.66199  -1.13595  -1.04866  -1.04163
 Alpha  occ. eigenvalues --   -0.86113  -0.83346  -0.80508  -0.78164  -0.74004
 Alpha  occ. eigenvalues --   -0.72460  -0.72238  -0.70036  -0.69808  -0.66902
 Alpha  occ. eigenvalues --   -0.63518  -0.62100  -0.58813  -0.56902  -0.54012
 Alpha  occ. eigenvalues --   -0.51937  -0.51101  -0.49272  -0.48840  -0.47180
 Alpha  occ. eigenvalues --   -0.46181  -0.45149  -0.44867  -0.44128  -0.43686
 Alpha  occ. eigenvalues --   -0.42986  -0.42488  -0.42206  -0.41809  -0.41387
 Alpha  occ. eigenvalues --   -0.40548  -0.40472  -0.39515  -0.39470  -0.39135
 Alpha  occ. eigenvalues --   -0.38714  -0.38141  -0.36915  -0.36586  -0.36269
 Alpha  occ. eigenvalues --   -0.35901  -0.35345  -0.33419  -0.32207  -0.31261
 Alpha  occ. eigenvalues --   -0.30390  -0.28582  -0.28377  -0.27168
 Alpha virt. eigenvalues --    0.00225   0.01209   0.04031   0.04903   0.05759
 Alpha virt. eigenvalues --    0.06548   0.07574   0.07796   0.08587   0.08978
 Alpha virt. eigenvalues --    0.09361   0.10134   0.10497   0.10782   0.11598
 Alpha virt. eigenvalues --    0.11914   0.12255   0.13030   0.13315   0.13448
 Alpha virt. eigenvalues --    0.13831   0.14122   0.14587   0.15118   0.15319
 Alpha virt. eigenvalues --    0.15569   0.16157   0.17152   0.17538   0.18071
 Alpha virt. eigenvalues --    0.18819   0.19134   0.20082   0.20498   0.20929
 Alpha virt. eigenvalues --    0.21784   0.22112   0.22805   0.23724   0.24120
 Alpha virt. eigenvalues --    0.25621   0.25773   0.26660   0.27424   0.27749
 Alpha virt. eigenvalues --    0.28923   0.30673   0.30865   0.31999   0.33119
 Alpha virt. eigenvalues --    0.33597   0.34357   0.34739   0.35650   0.36153
 Alpha virt. eigenvalues --    0.36309   0.37358   0.38820   0.40057   0.40233
 Alpha virt. eigenvalues --    0.40917   0.42279   0.42720   0.43272   0.45422
 Alpha virt. eigenvalues --    0.45574   0.45735   0.46287   0.46971   0.48611
 Alpha virt. eigenvalues --    0.49964   0.50711   0.51528   0.52444   0.52777
 Alpha virt. eigenvalues --    0.53447   0.53747   0.54470   0.55246   0.55658
 Alpha virt. eigenvalues --    0.56076   0.56897   0.57982   0.58102   0.58936
 Alpha virt. eigenvalues --    0.58972   0.59550   0.60652   0.60898   0.61069
 Alpha virt. eigenvalues --    0.61525   0.61700   0.62110   0.62353   0.62719
 Alpha virt. eigenvalues --    0.63048   0.63672   0.64267   0.64791   0.65281
 Alpha virt. eigenvalues --    0.66177   0.66615   0.66764   0.68035   0.68199
 Alpha virt. eigenvalues --    0.69078   0.69539   0.69751   0.69911   0.71122
 Alpha virt. eigenvalues --    0.71466   0.71890   0.72644   0.74038   0.74787
 Alpha virt. eigenvalues --    0.75422   0.77381   0.78566   0.79913   0.81959
 Alpha virt. eigenvalues --    0.83204   0.84510   0.86910   0.87894   0.88714
 Alpha virt. eigenvalues --    0.89975   0.91200   0.92184   0.93543   0.94601
 Alpha virt. eigenvalues --    0.95375   0.96579   0.97605   0.99021   0.99660
 Alpha virt. eigenvalues --    1.01258   1.03333   1.04795   1.08606   1.10449
 Alpha virt. eigenvalues --    1.11397   1.13626   1.16113   1.18753   1.19684
 Alpha virt. eigenvalues --    1.22218   1.22660   1.25801   1.27206   1.28115
 Alpha virt. eigenvalues --    1.29153   1.29878   1.31781   1.32919   1.33629
 Alpha virt. eigenvalues --    1.34547   1.37338   1.39446   1.40770   1.41667
 Alpha virt. eigenvalues --    1.43004   1.45112   1.45758   1.46853   1.48387
 Alpha virt. eigenvalues --    1.49496   1.50337   1.51238   1.52223   1.53339
 Alpha virt. eigenvalues --    1.54303   1.54944   1.56982   1.57462   1.57794
 Alpha virt. eigenvalues --    1.59111   1.59462   1.60190   1.60281   1.60398
 Alpha virt. eigenvalues --    1.62173   1.62369   1.63391   1.64437   1.64932
 Alpha virt. eigenvalues --    1.65669   1.66016   1.67099   1.68550   1.69518
 Alpha virt. eigenvalues --    1.69980   1.71353   1.73343   1.73998   1.74796
 Alpha virt. eigenvalues --    1.76403   1.78136   1.78936   1.79496   1.81281
 Alpha virt. eigenvalues --    1.81907   1.82560   1.83747   1.84787   1.86367
 Alpha virt. eigenvalues --    1.88336   1.89702   1.91832   1.95372   1.97204
 Alpha virt. eigenvalues --    1.99455   2.01047   2.03357   2.07259   2.11318
 Alpha virt. eigenvalues --    2.16915   2.17371   2.18395   2.22680   2.26145
 Alpha virt. eigenvalues --    2.27517   2.31347   2.34290   2.37748   2.40294
 Alpha virt. eigenvalues --    2.41942   2.42109   2.42949   2.43256   2.43752
 Alpha virt. eigenvalues --    2.44748   2.45235   2.46026   2.46893   2.48140
 Alpha virt. eigenvalues --    2.48692   2.49524   2.50052   2.50821   2.51946
 Alpha virt. eigenvalues --    2.53647   2.54674   2.55616   2.56381   2.56757
 Alpha virt. eigenvalues --    2.60362   2.62887   2.68863   2.71836   2.79882
 Alpha virt. eigenvalues --    2.82787   2.87871   2.89260   2.90329   2.91007
 Alpha virt. eigenvalues --    2.92179   2.92844   2.94467   2.96128   2.97325
 Alpha virt. eigenvalues --    2.99834   3.00568   3.02495   3.04928   3.06091
 Alpha virt. eigenvalues --    3.07770   3.10355   3.11181   3.13252   3.14352
 Alpha virt. eigenvalues --    3.15445   3.16870   3.18050   3.18898   3.20683
 Alpha virt. eigenvalues --    3.22286   3.23009   3.23230   3.24574   3.25409
 Alpha virt. eigenvalues --    3.26814   3.27768   3.28722   3.29596   3.30641
 Alpha virt. eigenvalues --    3.33532   3.33759   3.34758   3.39351   3.40947
 Alpha virt. eigenvalues --    3.44923   3.51604   3.55423   3.59439   3.62075
 Alpha virt. eigenvalues --    3.76033   3.87452   3.91523   3.95009   4.04035
 Alpha virt. eigenvalues --    4.08870   4.10200   4.19297   4.23487   4.25927
 Alpha virt. eigenvalues --    4.96405   5.00763   5.01609   5.08741   5.15326
 Alpha virt. eigenvalues --    5.25837   5.51424   5.53229   5.78237   5.85379
 Alpha virt. eigenvalues --   11.52669  11.54059  11.60341  23.41465  23.49531
 Alpha virt. eigenvalues --   23.54859  23.55682  23.58694  23.62233  23.71141
 Alpha virt. eigenvalues --   23.73734  23.78450  23.79662  23.81128  23.83850
 Alpha virt. eigenvalues --   23.90327  24.27162  49.99123  50.04950  50.12232
 Alpha virt. eigenvalues --  141.30491
          Condensed to atoms (all electrons):
               1          2          3          4          5          6
     1  C    5.240136   0.300269  -0.067017  -0.022540  -0.064531   0.378579
     2  C    0.300269   5.476398   0.356872  -0.050522  -0.015809  -0.046981
     3  C   -0.067017   0.356872   5.120740   0.202288  -0.025519  -0.009675
     4  C   -0.022540  -0.050522   0.202288   5.864264   0.255823   0.002239
     5  C   -0.064531  -0.015809  -0.025519   0.255823   4.423790  -0.005818
     6  H    0.378579  -0.046981  -0.009675   0.002239  -0.005818   0.482828
     7  H   -0.054459   0.396848  -0.046959  -0.002618   0.000878   0.008522
     8  H    0.000181   0.004440  -0.026310   0.368337  -0.026819  -0.000266
     9  H   -0.000318   0.003969  -0.037311   0.366878  -0.030298   0.000193
    10  O    0.190943  -0.027601   0.000589  -0.101882   0.334830  -0.029388
    11  O    0.003434  -0.001609   0.005442  -0.099718   0.654317  -0.000226
    12  C    0.320420  -0.056636   0.006470  -0.000783   0.002830  -0.044562
    13  C   -0.072716   0.007330  -0.000218  -0.000004  -0.000056  -0.005609
    14  C   -0.057293   0.269840  -0.058053   0.006292   0.000225   0.001525
    15  O    0.004305  -0.035555   0.223116  -0.040710   0.000994   0.000111
    16  Si   0.003100  -0.001939  -0.049663  -0.007697  -0.000015   0.000070
    17  C    0.000026  -0.002342   0.000610  -0.000198  -0.000088  -0.000007
    18  C    0.000005  -0.000094   0.002345  -0.000359  -0.000002   0.000000
    19  C   -0.000240  -0.002209  -0.003687  -0.002972  -0.005129  -0.000034
    20  H    0.000000  -0.000017  -0.000078  -0.000026   0.000001   0.000000
    21  H    0.000001  -0.000009  -0.000033   0.000031   0.000003   0.000000
    22  H    0.000000   0.000007  -0.000059  -0.000001  -0.000001   0.000000
    23  H    0.000022   0.000319   0.000278  -0.002033  -0.001508  -0.000002
    24  H   -0.000494  -0.000304  -0.000293   0.001230   0.002159   0.000016
    25  H    0.000004   0.000082   0.000006   0.000093   0.000182   0.000000
    26  H   -0.000024   0.000001   0.000299  -0.000037   0.000000   0.000001
    27  H    0.000000   0.000083  -0.000077   0.000008  -0.000003   0.000000
    28  H    0.000075  -0.000542   0.000374  -0.000001   0.000002  -0.000016
    29  H   -0.007255  -0.030856   0.006556  -0.000190  -0.000036  -0.000563
    30  H   -0.003580  -0.040433  -0.008215  -0.000181   0.000016   0.002435
    31  H    0.006234  -0.035614  -0.004693   0.000661  -0.000082  -0.000247
    32  H   -0.047875  -0.003204  -0.000158   0.000103  -0.000351   0.007504
    33  H   -0.035346  -0.010061  -0.000313   0.000067  -0.000021   0.000236
    34  H    0.008392  -0.000206   0.000010   0.000000   0.000012  -0.000292
    35  H   -0.011625   0.000179  -0.000077   0.000323   0.000564   0.000614
    36  H   -0.004665   0.000074   0.000016  -0.000004  -0.000122   0.005005
    37  C   -0.000690  -0.084521   0.307402  -0.082483   0.004173   0.005342
    38  C   -0.000368   0.007964  -0.049208  -0.024919   0.000470  -0.000155
    39  C   -0.000028  -0.000075  -0.002970   0.001275   0.000028  -0.000035
    40  H    0.000721  -0.002342  -0.038699   0.001037  -0.000192   0.005240
    41  H    0.000765  -0.010893  -0.036467   0.006940  -0.000161  -0.000037
    42  H   -0.000037   0.000106  -0.002348  -0.000204  -0.000006  -0.000001
    43  H   -0.000001   0.000017  -0.000326   0.000078  -0.000001  -0.000004
    44  H   -0.000006  -0.000056   0.000081   0.000036  -0.000005   0.000026
               7          8          9         10         11         12
     1  C   -0.054459   0.000181  -0.000318   0.190943   0.003434   0.320420
     2  C    0.396848   0.004440   0.003969  -0.027601  -0.001609  -0.056636
     3  C   -0.046959  -0.026310  -0.037311   0.000589   0.005442   0.006470
     4  C   -0.002618   0.368337   0.366878  -0.101882  -0.099718  -0.000783
     5  C    0.000878  -0.026819  -0.030298   0.334830   0.654317   0.002830
     6  H    0.008522  -0.000266   0.000193  -0.029388  -0.000226  -0.044562
     7  H    0.468926  -0.000456  -0.000227   0.004580  -0.001039  -0.006325
     8  H   -0.000456   0.394471  -0.011839   0.004284   0.007136   0.000101
     9  H   -0.000227  -0.011839   0.407937   0.000695   0.000965   0.000163
    10  O    0.004580   0.004284   0.000695   8.036707  -0.068108  -0.045829
    11  O   -0.001039   0.007136   0.000965  -0.068108   7.883973  -0.000132
    12  C   -0.006325   0.000101   0.000163  -0.045829  -0.000132   5.323916
    13  C   -0.000572  -0.000002  -0.000019  -0.003408  -0.000012   0.311726
    14  C   -0.039248  -0.000145  -0.000266   0.004823  -0.000007  -0.009395
    15  O   -0.005248  -0.002875   0.002683  -0.000036  -0.000004  -0.000078
    16  Si   0.006745  -0.000056   0.000504  -0.000772  -0.002151  -0.000444
    17  C    0.002467   0.000035   0.000009   0.000007  -0.000001   0.000004
    18  C   -0.000032  -0.000112  -0.000011   0.000000   0.000002   0.000000
    19  C    0.001303  -0.000291   0.000164  -0.000484  -0.000745   0.000018
    20  H    0.000001  -0.000024   0.000000   0.000000   0.000000   0.000000
    21  H   -0.000006   0.000138  -0.000009   0.000000   0.000001   0.000000
    22  H    0.000016   0.000009   0.000000   0.000000   0.000000   0.000000
    23  H   -0.000431   0.003261   0.000075   0.000202   0.008672   0.000005
    24  H    0.003909  -0.000520   0.000013   0.000341   0.000634   0.000029
    25  H    0.000070   0.000080  -0.000003   0.000000   0.000016   0.000000
    26  H   -0.000037  -0.000006   0.000001   0.000000   0.000000   0.000000
    27  H   -0.000021   0.000000   0.000000   0.000000   0.000000   0.000000
    28  H    0.003331   0.000005   0.000002  -0.000035   0.000002   0.000051
    29  H   -0.008418   0.000014   0.000020   0.000013   0.000000   0.002360
    30  H    0.006824  -0.000005  -0.000026   0.000039   0.000000  -0.002053
    31  H   -0.004171  -0.000016  -0.000035  -0.000135   0.000000   0.000325
    32  H    0.005075  -0.000003  -0.000003   0.002111  -0.000053   0.392309
    33  H    0.000889  -0.000006  -0.000003   0.003168   0.000005   0.387954
    34  H   -0.000007   0.000000   0.000000  -0.000101   0.000000  -0.038418
    35  H    0.000116  -0.000008  -0.000015   0.012139   0.000105  -0.039130
    36  H    0.000006   0.000000   0.000003  -0.000463   0.000001  -0.041769
    37  C    0.005707  -0.002198  -0.009999  -0.000387  -0.000091  -0.000419
    38  C   -0.000057   0.000971   0.002864  -0.000033  -0.000015   0.000008
    39  C   -0.000002   0.000425   0.005497   0.000000   0.000001   0.000000
    40  H    0.000256   0.000124  -0.001661  -0.000091   0.000014   0.000258
    41  H   -0.000239  -0.000146   0.001267  -0.000028   0.000005  -0.000044
    42  H    0.000017   0.000266   0.000139   0.000002   0.000002   0.000001
    43  H   -0.000001   0.000019   0.000069   0.000000   0.000000   0.000000
    44  H    0.000001  -0.000003   0.000313   0.000002   0.000000   0.000000
              13         14         15         16         17         18
     1  C   -0.072716  -0.057293   0.004305   0.003100   0.000026   0.000005
     2  C    0.007330   0.269840  -0.035555  -0.001939  -0.002342  -0.000094
     3  C   -0.000218  -0.058053   0.223116  -0.049663   0.000610   0.002345
     4  C   -0.000004   0.006292  -0.040710  -0.007697  -0.000198  -0.000359
     5  C   -0.000056   0.000225   0.000994  -0.000015  -0.000088  -0.000002
     6  H   -0.005609   0.001525   0.000111   0.000070  -0.000007   0.000000
     7  H   -0.000572  -0.039248  -0.005248   0.006745   0.002467  -0.000032
     8  H   -0.000002  -0.000145  -0.002875  -0.000056   0.000035  -0.000112
     9  H   -0.000019  -0.000266   0.002683   0.000504   0.000009  -0.000011
    10  O   -0.003408   0.004823  -0.000036  -0.000772   0.000007   0.000000
    11  O   -0.000012  -0.000007  -0.000004  -0.002151  -0.000001   0.000002
    12  C    0.311726  -0.009395  -0.000078  -0.000444   0.000004   0.000000
    13  C    5.341149  -0.000140   0.000001   0.000022   0.000000   0.000000
    14  C   -0.000140   5.437132  -0.001353  -0.002230  -0.000432  -0.000010
    15  O    0.000001  -0.001353   8.253320   0.350736  -0.025748  -0.022987
    16  Si   0.000022  -0.002230   0.350736  11.546455   0.314857   0.327752
    17  C    0.000000  -0.000432  -0.025748   0.314857   5.778650  -0.055980
    18  C    0.000000  -0.000010  -0.022987   0.327752  -0.055980   5.732103
    19  C    0.000000   0.000172  -0.020429   0.324097  -0.058114  -0.050361
    20  H    0.000000  -0.000002  -0.001483  -0.025259  -0.001152   0.369211
    21  H    0.000000   0.000000  -0.001442  -0.027351   0.002515   0.369390
    22  H    0.000000   0.000000   0.000923  -0.012791   0.000706   0.364116
    23  H    0.000000  -0.000018  -0.001940  -0.029585   0.002163  -0.000122
    24  H   -0.000005   0.000163  -0.000663  -0.029844  -0.001033   0.002849
    25  H    0.000000  -0.000006   0.000695  -0.009587  -0.000304  -0.000920
    26  H    0.000000   0.000326  -0.002566  -0.026011   0.371103  -0.000787
    27  H    0.000000   0.000066   0.001025  -0.012701   0.363896   0.000189
    28  H   -0.000001  -0.000676  -0.001563  -0.030480   0.368210   0.002723
    29  H    0.000224   0.391220  -0.000085  -0.000497   0.000178   0.000000
    30  H   -0.000141   0.388841  -0.000043   0.000075   0.000021   0.000000
    31  H    0.000017   0.385927   0.006167   0.001755  -0.001137  -0.000020
    32  H   -0.043225  -0.000546   0.000000  -0.000116  -0.000014   0.000000
    33  H   -0.038171   0.003158  -0.000005  -0.000031  -0.000001   0.000000
    34  H    0.393050  -0.000015   0.000000  -0.000001   0.000000   0.000000
    35  H    0.386286  -0.000041   0.000000  -0.000001   0.000000   0.000000
    36  H    0.384799  -0.000034   0.000000  -0.000001   0.000000   0.000000
    37  C    0.000019  -0.019192  -0.076267   0.003647  -0.000212   0.000050
    38  C    0.000000  -0.000097   0.004362   0.000055   0.000019  -0.000065
    39  C    0.000000  -0.000024   0.000752   0.000158   0.000000  -0.000002
    40  H   -0.000033  -0.000561   0.003934   0.000128   0.000002   0.000003
    41  H    0.000002   0.002381   0.001502   0.000470  -0.000021  -0.000008
    42  H    0.000000  -0.000073   0.006450   0.000745   0.000003   0.000104
    43  H    0.000000   0.000000   0.000006  -0.000001   0.000000   0.000000
    44  H    0.000000  -0.000011  -0.000002  -0.000002   0.000000   0.000000
              19         20         21         22         23         24
     1  C   -0.000240   0.000000   0.000001   0.000000   0.000022  -0.000494
     2  C   -0.002209  -0.000017  -0.000009   0.000007   0.000319  -0.000304
     3  C   -0.003687  -0.000078  -0.000033  -0.000059   0.000278  -0.000293
     4  C   -0.002972  -0.000026   0.000031  -0.000001  -0.002033   0.001230
     5  C   -0.005129   0.000001   0.000003  -0.000001  -0.001508   0.002159
     6  H   -0.000034   0.000000   0.000000   0.000000  -0.000002   0.000016
     7  H    0.001303   0.000001  -0.000006   0.000016  -0.000431   0.003909
     8  H   -0.000291  -0.000024   0.000138   0.000009   0.003261  -0.000520
     9  H    0.000164   0.000000  -0.000009   0.000000   0.000075   0.000013
    10  O   -0.000484   0.000000   0.000000   0.000000   0.000202   0.000341
    11  O   -0.000745   0.000000   0.000001   0.000000   0.008672   0.000634
    12  C    0.000018   0.000000   0.000000   0.000000   0.000005   0.000029
    13  C    0.000000   0.000000   0.000000   0.000000   0.000000  -0.000005
    14  C    0.000172  -0.000002   0.000000   0.000000  -0.000018   0.000163
    15  O   -0.020429  -0.001483  -0.001442   0.000923  -0.001940  -0.000663
    16  Si   0.324097  -0.025259  -0.027351  -0.012791  -0.029585  -0.029844
    17  C   -0.058114  -0.001152   0.002515   0.000706   0.002163  -0.001033
    18  C   -0.050361   0.369211   0.369390   0.364116  -0.000122   0.002849
    19  C    5.800713   0.002575  -0.000472  -0.000483   0.365399   0.364713
    20  H    0.002575   0.458024  -0.018434  -0.021074  -0.000039  -0.000100
    21  H   -0.000472  -0.018434   0.459203  -0.020958   0.001275  -0.000121
    22  H   -0.000483  -0.021074  -0.020958   0.454014  -0.000051  -0.000078
    23  H    0.365399  -0.000039   0.001275  -0.000051   0.438752  -0.017930
    24  H    0.364713  -0.000100  -0.000121  -0.000078  -0.017930   0.441100
    25  H    0.366303  -0.000059  -0.000099   0.000522  -0.019732  -0.019486
    26  H    0.002342   0.001245  -0.000091   0.000010  -0.000112   0.000014
    27  H    0.000181  -0.000065  -0.000015   0.000718  -0.000063   0.000093
    28  H   -0.001758  -0.000109  -0.000116  -0.000076  -0.000067   0.000771
    29  H    0.000003   0.000000   0.000000   0.000000   0.000000  -0.000002
    30  H   -0.000008   0.000000   0.000000   0.000000   0.000001  -0.000006
    31  H    0.000052  -0.000012   0.000003   0.000000   0.000005   0.000015
    32  H   -0.000032   0.000000   0.000000   0.000000  -0.000002   0.000042
    33  H   -0.000001   0.000000   0.000000   0.000000  -0.000001   0.000003
    34  H    0.000000   0.000000   0.000000   0.000000   0.000000   0.000000
    35  H   -0.000001   0.000000   0.000000   0.000000  -0.000001   0.000006
    36  H    0.000000   0.000000   0.000000   0.000000   0.000000   0.000000
    37  C   -0.000228   0.000053   0.000003   0.000001  -0.000088  -0.000051
    38  C   -0.000016  -0.000013   0.000005   0.000000  -0.000029   0.000003
    39  C    0.000001  -0.000001  -0.000001   0.000000  -0.000001   0.000000
    40  H    0.000017  -0.000001   0.000000   0.000000   0.000002   0.000002
    41  H    0.000032  -0.000002   0.000002   0.000000   0.000007  -0.000001
    42  H    0.000017   0.000039   0.000105  -0.000003   0.000007   0.000000
    43  H    0.000000   0.000000   0.000000   0.000000   0.000000   0.000000
    44  H    0.000000   0.000000   0.000000   0.000000   0.000000   0.000000
              25         26         27         28         29         30
     1  C    0.000004  -0.000024   0.000000   0.000075  -0.007255  -0.003580
     2  C    0.000082   0.000001   0.000083  -0.000542  -0.030856  -0.040433
     3  C    0.000006   0.000299  -0.000077   0.000374   0.006556  -0.008215
     4  C    0.000093  -0.000037   0.000008  -0.000001  -0.000190  -0.000181
     5  C    0.000182   0.000000  -0.000003   0.000002  -0.000036   0.000016
     6  H    0.000000   0.000001   0.000000  -0.000016  -0.000563   0.002435
     7  H    0.000070  -0.000037  -0.000021   0.003331  -0.008418   0.006824
     8  H    0.000080  -0.000006   0.000000   0.000005   0.000014  -0.000005
     9  H   -0.000003   0.000001   0.000000   0.000002   0.000020  -0.000026
    10  O    0.000000   0.000000   0.000000  -0.000035   0.000013   0.000039
    11  O    0.000016   0.000000   0.000000   0.000002   0.000000   0.000000
    12  C    0.000000   0.000000   0.000000   0.000051   0.002360  -0.002053
    13  C    0.000000   0.000000   0.000000  -0.000001   0.000224  -0.000141
    14  C   -0.000006   0.000326   0.000066  -0.000676   0.391220   0.388841
    15  O    0.000695  -0.002566   0.001025  -0.001563  -0.000085  -0.000043
    16  Si  -0.009587  -0.026011  -0.012701  -0.030480  -0.000497   0.000075
    17  C   -0.000304   0.371103   0.363896   0.368210   0.000178   0.000021
    18  C   -0.000920  -0.000787   0.000189   0.002723   0.000000   0.000000
    19  C    0.366303   0.002342   0.000181  -0.001758   0.000003  -0.000008
    20  H   -0.000059   0.001245  -0.000065  -0.000109   0.000000   0.000000
    21  H   -0.000099  -0.000091  -0.000015  -0.000116   0.000000   0.000000
    22  H    0.000522   0.000010   0.000718  -0.000076   0.000000   0.000000
    23  H   -0.019732  -0.000112  -0.000063  -0.000067   0.000000   0.000001
    24  H   -0.019486   0.000014   0.000093   0.000771  -0.000002  -0.000006
    25  H    0.434385  -0.000033   0.000456   0.000028   0.000000   0.000000
    26  H   -0.000033   0.455462  -0.021616  -0.018891   0.000026  -0.000008
    27  H    0.000456  -0.021616   0.453198  -0.021977  -0.000014  -0.000002
    28  H    0.000028  -0.018891  -0.021977   0.456740   0.000629   0.000046
    29  H    0.000000   0.000026  -0.000014   0.000629   0.451704  -0.026868
    30  H    0.000000  -0.000008  -0.000002   0.000046  -0.026868   0.462001
    31  H    0.000001   0.000221   0.000171  -0.000815  -0.025011  -0.023611
    32  H    0.000001   0.000001   0.000001  -0.000036   0.000544   0.000171
    33  H    0.000000   0.000000   0.000000  -0.000003  -0.002330   0.000770
    34  H    0.000000   0.000000   0.000000   0.000000   0.000001   0.000005
    35  H    0.000000   0.000000   0.000000   0.000000  -0.000039  -0.000002
    36  H    0.000000   0.000000   0.000000   0.000000   0.000015   0.000014
    37  C    0.000003   0.000054   0.000005  -0.000011   0.000412   0.002752
    38  C    0.000000   0.000002   0.000000   0.000003   0.000005   0.000350
    39  C    0.000000   0.000000   0.000000   0.000000   0.000001  -0.000012
    40  H    0.000000  -0.000003   0.000000  -0.000002  -0.000130   0.000339
    41  H    0.000000  -0.000021  -0.000001  -0.000003   0.000432  -0.002149
    42  H    0.000000  -0.000004   0.000000   0.000001   0.000001  -0.000002
    43  H    0.000000   0.000000   0.000000   0.000000   0.000000   0.000000
    44  H    0.000000   0.000000   0.000000   0.000000   0.000000  -0.000004
              31         32         33         34         35         36
     1  C    0.006234  -0.047875  -0.035346   0.008392  -0.011625  -0.004665
     2  C   -0.035614  -0.003204  -0.010061  -0.000206   0.000179   0.000074
     3  C   -0.004693  -0.000158  -0.000313   0.000010  -0.000077   0.000016
     4  C    0.000661   0.000103   0.000067   0.000000   0.000323  -0.000004
     5  C   -0.000082  -0.000351  -0.000021   0.000012   0.000564  -0.000122
     6  H   -0.000247   0.007504   0.000236  -0.000292   0.000614   0.005005
     7  H   -0.004171   0.005075   0.000889  -0.000007   0.000116   0.000006
     8  H   -0.000016  -0.000003  -0.000006   0.000000  -0.000008   0.000000
     9  H   -0.000035  -0.000003  -0.000003   0.000000  -0.000015   0.000003
    10  O   -0.000135   0.002111   0.003168  -0.000101   0.012139  -0.000463
    11  O    0.000000  -0.000053   0.000005   0.000000   0.000105   0.000001
    12  C    0.000325   0.392309   0.387954  -0.038418  -0.039130  -0.041769
    13  C    0.000017  -0.043225  -0.038171   0.393050   0.386286   0.384799
    14  C    0.385927  -0.000546   0.003158  -0.000015  -0.000041  -0.000034
    15  O    0.006167   0.000000  -0.000005   0.000000   0.000000   0.000000
    16  Si   0.001755  -0.000116  -0.000031  -0.000001  -0.000001  -0.000001
    17  C   -0.001137  -0.000014  -0.000001   0.000000   0.000000   0.000000
    18  C   -0.000020   0.000000   0.000000   0.000000   0.000000   0.000000
    19  C    0.000052  -0.000032  -0.000001   0.000000  -0.000001   0.000000
    20  H   -0.000012   0.000000   0.000000   0.000000   0.000000   0.000000
    21  H    0.000003   0.000000   0.000000   0.000000   0.000000   0.000000
    22  H    0.000000   0.000000   0.000000   0.000000   0.000000   0.000000
    23  H    0.000005  -0.000002  -0.000001   0.000000  -0.000001   0.000000
    24  H    0.000015   0.000042   0.000003   0.000000   0.000006   0.000000
    25  H    0.000001   0.000001   0.000000   0.000000   0.000000   0.000000
    26  H    0.000221   0.000001   0.000000   0.000000   0.000000   0.000000
    27  H    0.000171   0.000001   0.000000   0.000000   0.000000   0.000000
    28  H   -0.000815  -0.000036  -0.000003   0.000000   0.000000   0.000000
    29  H   -0.025011   0.000544  -0.002330   0.000001  -0.000039   0.000015
    30  H   -0.023611   0.000171   0.000770   0.000005  -0.000002   0.000014
    31  H    0.434007  -0.000199   0.000471  -0.000001   0.000006  -0.000003
    32  H   -0.000199   0.478175  -0.024709  -0.004583  -0.004749   0.007293
    33  H    0.000471  -0.024709   0.468317  -0.005246   0.007190  -0.004590
    34  H   -0.000001  -0.004583  -0.005246   0.470657  -0.026199  -0.026880
    35  H    0.000006  -0.004749   0.007190  -0.026199   0.461919  -0.027222
    36  H   -0.000003   0.007293  -0.004590  -0.026880  -0.027222   0.486968
    37  C   -0.003847   0.000000   0.000016   0.000000   0.000003  -0.000023
    38  C   -0.000229   0.000001  -0.000001   0.000000   0.000000   0.000000
    39  C   -0.000005   0.000000   0.000000   0.000000   0.000000   0.000000
    40  H    0.000212  -0.000009   0.000047   0.000001  -0.000001  -0.000038
    41  H    0.001439   0.000004  -0.000021   0.000000   0.000000   0.000001
    42  H    0.000010   0.000000   0.000000   0.000000   0.000000   0.000000
    43  H    0.000000   0.000000   0.000000   0.000000   0.000000   0.000000
    44  H    0.000001   0.000000   0.000000   0.000000   0.000000   0.000000
              37         38         39         40         41         42
     1  C   -0.000690  -0.000368  -0.000028   0.000721   0.000765  -0.000037
     2  C   -0.084521   0.007964  -0.000075  -0.002342  -0.010893   0.000106
     3  C    0.307402  -0.049208  -0.002970  -0.038699  -0.036467  -0.002348
     4  C   -0.082483  -0.024919   0.001275   0.001037   0.006940  -0.000204
     5  C    0.004173   0.000470   0.000028  -0.000192  -0.000161  -0.000006
     6  H    0.005342  -0.000155  -0.000035   0.005240  -0.000037  -0.000001
     7  H    0.005707  -0.000057  -0.000002   0.000256  -0.000239   0.000017
     8  H   -0.002198   0.000971   0.000425   0.000124  -0.000146   0.000266
     9  H   -0.009999   0.002864   0.005497  -0.001661   0.001267   0.000139
    10  O   -0.000387  -0.000033   0.000000  -0.000091  -0.000028   0.000002
    11  O   -0.000091  -0.000015   0.000001   0.000014   0.000005   0.000002
    12  C   -0.000419   0.000008   0.000000   0.000258  -0.000044   0.000001
    13  C    0.000019   0.000000   0.000000  -0.000033   0.000002   0.000000
    14  C   -0.019192  -0.000097  -0.000024  -0.000561   0.002381  -0.000073
    15  O   -0.076267   0.004362   0.000752   0.003934   0.001502   0.006450
    16  Si   0.003647   0.000055   0.000158   0.000128   0.000470   0.000745
    17  C   -0.000212   0.000019   0.000000   0.000002  -0.000021   0.000003
    18  C    0.000050  -0.000065  -0.000002   0.000003  -0.000008   0.000104
    19  C   -0.000228  -0.000016   0.000001   0.000017   0.000032   0.000017
    20  H    0.000053  -0.000013  -0.000001  -0.000001  -0.000002   0.000039
    21  H    0.000003   0.000005  -0.000001   0.000000   0.000002   0.000105
    22  H    0.000001   0.000000   0.000000   0.000000   0.000000  -0.000003
    23  H   -0.000088  -0.000029  -0.000001   0.000002   0.000007   0.000007
    24  H   -0.000051   0.000003   0.000000   0.000002  -0.000001   0.000000
    25  H    0.000003   0.000000   0.000000   0.000000   0.000000   0.000000
    26  H    0.000054   0.000002   0.000000  -0.000003  -0.000021  -0.000004
    27  H    0.000005   0.000000   0.000000   0.000000  -0.000001   0.000000
    28  H   -0.000011   0.000003   0.000000  -0.000002  -0.000003   0.000001
    29  H    0.000412   0.000005   0.000001  -0.000130   0.000432   0.000001
    30  H    0.002752   0.000350  -0.000012   0.000339  -0.002149  -0.000002
    31  H   -0.003847  -0.000229  -0.000005   0.000212   0.001439   0.000010
    32  H    0.000000   0.000001   0.000000  -0.000009   0.000004   0.000000
    33  H    0.000016  -0.000001   0.000000   0.000047  -0.000021   0.000000
    34  H    0.000000   0.000000   0.000000   0.000001   0.000000   0.000000
    35  H    0.000003   0.000000   0.000000  -0.000001   0.000000   0.000000
    36  H   -0.000023   0.000000   0.000000  -0.000038   0.000001   0.000000
    37  C    5.473646   0.333371  -0.065420   0.381605   0.390103  -0.047381
    38  C    0.333371   5.056634   0.615564  -0.046023  -0.044175   0.397559
    39  C   -0.065420   0.615564   5.158120   0.001717   0.000819  -0.040184
    40  H    0.381605  -0.046023   0.001717   0.464752  -0.021650   0.005314
    41  H    0.390103  -0.044175   0.000819  -0.021650   0.449853  -0.001494
    42  H   -0.047381   0.397559  -0.040184   0.005314  -0.001494   0.459102
    43  H    0.006506  -0.039520   0.392212   0.000167  -0.000395  -0.007842
    44  H   -0.008850  -0.039111   0.386862   0.004824   0.000239   0.005809
              43         44
     1  C   -0.000001  -0.000006
     2  C    0.000017  -0.000056
     3  C   -0.000326   0.000081
     4  C    0.000078   0.000036
     5  C   -0.000001  -0.000005
     6  H   -0.000004   0.000026
     7  H   -0.000001   0.000001
     8  H    0.000019  -0.000003
     9  H    0.000069   0.000313
    10  O    0.000000   0.000002
    11  O    0.000000   0.000000
    12  C    0.000000   0.000000
    13  C    0.000000   0.000000
    14  C    0.000000  -0.000011
    15  O    0.000006  -0.000002
    16  Si  -0.000001  -0.000002
    17  C    0.000000   0.000000
    18  C    0.000000   0.000000
    19  C    0.000000   0.000000
    20  H    0.000000   0.000000
    21  H    0.000000   0.000000
    22  H    0.000000   0.000000
    23  H    0.000000   0.000000
    24  H    0.000000   0.000000
    25  H    0.000000   0.000000
    26  H    0.000000   0.000000
    27  H    0.000000   0.000000
    28  H    0.000000   0.000000
    29  H    0.000000   0.000000
    30  H    0.000000  -0.000004
    31  H    0.000000   0.000001
    32  H    0.000000   0.000000
    33  H    0.000000   0.000000
    34  H    0.000000   0.000000
    35  H    0.000000   0.000000
    36  H    0.000000   0.000000
    37  C    0.006506  -0.008850
    38  C   -0.039520  -0.039111
    39  C    0.392212   0.386862
    40  H    0.000167   0.004824
    41  H   -0.000395   0.000239
    42  H   -0.007842   0.005809
    43  H    0.456049  -0.033546
    44  H   -0.033546   0.463924
 Mulliken charges:
               1
     1  C   -0.006507
     2  C   -0.364366
     3  C    0.234930
     4  C   -0.637921
     5  C    0.495275
     6  H    0.243434
     7  H    0.254083
     8  H    0.287806
     9  H    0.297619
    10  O   -0.316694
    11  O   -0.390814
    12  C   -0.462932
    13  C   -0.660291
    14  C   -0.702223
    15  O   -0.620001
    16  Si   1.387855
    17  C   -1.058696
    18  C   -1.038971
    19  C   -1.080409
    20  H    0.236802
    21  H    0.236479
    22  H    0.234532
    23  H    0.253308
    24  H    0.252827
    25  H    0.247300
    26  H    0.239137
    27  H    0.236466
    28  H    0.244185
    29  H    0.247937
    30  H    0.242648
    31  H    0.262185
    32  H    0.236533
    33  H    0.248569
    34  H    0.229821
    35  H    0.239662
    36  H    0.221617
    37  C   -0.512516
    38  C   -0.176176
    39  C   -0.454673
    40  H    0.240716
    41  H    0.261692
    42  H    0.223780
    43  H    0.226516
    44  H    0.219478
 Sum of Mulliken charges =   0.00000
 Mulliken charges with hydrogens summed into heavy atoms:
               1
     1  C    0.236927
     2  C   -0.110283
     3  C    0.234930
     4  C   -0.052497
     5  C    0.495275
    10  O   -0.316694
    11  O   -0.390814
    12  C    0.022170
    13  C    0.030809
    14  C    0.050546
    15  O   -0.620001
    16  Si   1.387855
    17  C   -0.338908
    18  C   -0.331158
    19  C   -0.326974
    37  C   -0.010108
    38  C    0.047603
    39  C   -0.008679
 Electronic spatial extent (au):  <R**2>=           5339.5422
 Charge=              0.0000 electrons
 Dipole moment (field-independent basis, Debye):
    X=             -0.7645    Y=              1.1130    Z=             -4.6512  Tot=              4.8432
 Quadrupole moment (field-independent basis, Debye-Ang):
   XX=           -114.8336   YY=           -117.3653   ZZ=           -132.6920
   XY=             -5.0520   XZ=              9.4032   YZ=              7.3302
 Traceless Quadrupole moment (field-independent basis, Debye-Ang):
   XX=              6.7967   YY=              4.2650   ZZ=            -11.0617
   XY=             -5.0520   XZ=              9.4032   YZ=              7.3302
 Octapole moment (field-independent basis, Debye-Ang**2):
  XXX=            -20.0060  YYY=             -4.0372  ZZZ=            -41.7058  XYY=             -3.6999
  XXY=             -3.6031  XXZ=            -10.0553  XZZ=              9.9767  YZZ=             14.0066
  YYZ=             10.7249  XYZ=             -9.3221
 Hexadecapole moment (field-independent basis, Debye-Ang**3):
 XXXX=          -3757.8635 YYYY=          -2181.9634 ZZZZ=          -1492.8425 XXXY=            -12.0670
 XXXZ=             22.0450 YYYX=             -2.3390 YYYZ=             47.4331 ZZZX=             36.6919
 ZZZY=             30.6710 XXYY=           -934.8204 XXZZ=           -844.0224 YYZZ=           -626.0980
 XXYZ=              9.8342 YYXZ=             23.4450 ZZXY=              1.4947
 N-N= 1.636857289338D+03 E-N=-5.768848963310D+03  KE= 1.060517473790D+03
 1\1\GINC-SWANNODE-0-9\SP\RmPW1PW91\6-311G(d)\C14H26O3Si1\ROOT\08-Mar-2
 018\0\\#mPW1PW91/6-311g(d) nmr=(giao) scrf=(solvent=chloroform)\\P_ng_
 correct1ginp008\\0,1\C,0,0.740499,-0.366175,0.443306\C,0,-0.757147,-0.
 449641,0.779522\C,0,-1.096033,0.673405,1.816339\C,0,-0.250232,1.946678
 ,1.580433\C,0,0.411316,2.028703,0.233936\H,0,1.361254,-0.382456,1.3470
 08\H,0,-1.295346,-0.22733,-0.149642\H,0,-0.859076,2.846982,1.721392\H,
 0,0.585998,2.011086,2.288214\O,0,0.967244,0.888692,-0.234593\O,0,0.522
 33,3.086488,-0.376397\C,0,1.225903,-1.479624,-0.497875\C,0,2.698196,-1
 .33176,-0.865144\C,0,-1.224795,-1.846277,1.202844\O,0,-2.51168,0.95302
 3,1.873434\Si,0,-3.558339,1.418257,0.657422\C,0,-4.367163,-0.095462,-0
 .122901\C,0,-4.943026,2.457753,1.417976\C,0,-2.785423,2.435544,-0.7067
 58\H,0,-5.466726,1.886954,2.190224\H,0,-4.531232,3.362697,1.874027\H,0
 ,-5.666099,2.751848,0.65175\H,0,-2.32252,3.342099,-0.307556\H,0,-2.029
 515,1.863681,-1.251024\H,0,-3.54812,2.74358,-1.428957\H,0,-4.840113,-0
 .713574,0.645775\H,0,-5.134456,0.209326,-0.840688\H,0,-3.62895,-0.7055
 18,-0.650337\H,0,-1.20338,-2.536486,0.352803\H,0,-0.587522,-2.267719,1
 .986799\H,0,-2.257033,-1.827046,1.566653\H,0,0.639244,-1.46514,-1.4243
 85\H,0,1.089257,-2.460257,-0.030085\H,0,3.013327,-2.167673,-1.497865\H
 ,0,2.882734,-0.406052,-1.41885\H,0,3.326378,-1.329287,0.031279\C,0,-0.
 782523,0.168359,3.278911\C,0,-0.99195,1.199558,4.363957\C,0,-0.050908,
 1.584387,5.235375\H,0,0.241674,-0.219868,3.331877\H,0,-1.455417,-0.660
 705,3.532309\H,0,-1.988047,1.635134,4.432372\H,0,-0.273512,2.326339,5.
 996887\H,0,0.953354,1.173326,5.217214\\Version=EM64L-G09RevD.01\State=
 1-A\HF=-1064.3758715\RMSD=3.657e-09\Dipole=-0.2165636,-1.7426426,0.739
 6401\Quadrupole=2.0175587,-0.5732451,-1.4443136,-7.4913411,6.7114373,6
 .3158377\PG=C01 [X(C14H26O3Si1)]\\@


 HE THAT RISETH LATE MUST TROT ALL DAY.

                  -- BENJAMIN FRANKLIN
 Job cpu time:       0 days  1 hours 18 minutes 38.2 seconds.
 File lengths (MBytes):  RWF=    232 Int=      0 D2E=      0 Chk=     11 Scr=      1
 Normal termination of Gaussian 09 at Thu Mar  8 13:19:32 2018.
