 Entering Gaussian System, Link 0=/usr/local/shared/gaussian/em64t/09-D01/g09/g09
 Initial command:
 /usr/local/shared/gaussian/em64t/09-D01/g09/l1.exe "/scratch/ah809/P_ng_correct1ginp007/Gau-2883.inp" -scrdir="/scratch/ah809/P_ng_correct1ginp007/"
 Entering Link 1 = /usr/local/shared/gaussian/em64t/09-D01/g09/l1.exe PID=      2921.
  
 Copyright (c) 1988,1990,1992,1993,1995,1998,2003,2009,2013,
            Gaussian, Inc.  All Rights Reserved.
  
 This is part of the Gaussian(R) 09 program.  It is based on
 the Gaussian(R) 03 system (copyright 2003, Gaussian, Inc.),
 the Gaussian(R) 98 system (copyright 1998, Gaussian, Inc.),
 the Gaussian(R) 94 system (copyright 1995, Gaussian, Inc.),
 the Gaussian 92(TM) system (copyright 1992, Gaussian, Inc.),
 the Gaussian 90(TM) system (copyright 1990, Gaussian, Inc.),
 the Gaussian 88(TM) system (copyright 1988, Gaussian, Inc.),
 the Gaussian 86(TM) system (copyright 1986, Carnegie Mellon
 University), and the Gaussian 82(TM) system (copyright 1983,
 Carnegie Mellon University). Gaussian is a federally registered
 trademark of Gaussian, Inc.
  
 This software contains proprietary and confidential information,
 including trade secrets, belonging to Gaussian, Inc.
  
 This software is provided under written license and may be
 used, copied, transmitted, or stored only in accord with that
 written license.
  
 The following legend is applicable only to US Government
 contracts under FAR:
  
                    RESTRICTED RIGHTS LEGEND
  
 Use, reproduction and disclosure by the US Government is
 subject to restrictions as set forth in subparagraphs (a)
 and (c) of the Commercial Computer Software - Restricted
 Rights clause in FAR 52.227-19.
  
 Gaussian, Inc.
 340 Quinnipiac St., Bldg. 40, Wallingford CT 06492
  
  
 ---------------------------------------------------------------
 Warning -- This program may not be used in any manner that
 competes with the business of Gaussian, Inc. or will provide
 assistance to any competitor of Gaussian, Inc.  The licensee
 of this program is prohibited from giving any competitor of
 Gaussian, Inc. access to this program.  By using this program,
 the user acknowledges that Gaussian, Inc. is engaged in the
 business of creating and licensing software in the field of
 computational chemistry and represents and warrants to the
 licensee that it is not a competitor of Gaussian, Inc. and that
 it will not use this program in any manner prohibited above.
 ---------------------------------------------------------------
  

 Cite this work as:
 Gaussian 09, Revision D.01,
 M. J. Frisch, G. W. Trucks, H. B. Schlegel, G. E. Scuseria, 
 M. A. Robb, J. R. Cheeseman, G. Scalmani, V. Barone, B. Mennucci, 
 G. A. Petersson, H. Nakatsuji, M. Caricato, X. Li, H. P. Hratchian, 
 A. F. Izmaylov, J. Bloino, G. Zheng, J. L. Sonnenberg, M. Hada, 
 M. Ehara, K. Toyota, R. Fukuda, J. Hasegawa, M. Ishida, T. Nakajima, 
 Y. Honda, O. Kitao, H. Nakai, T. Vreven, J. A. Montgomery, Jr., 
 J. E. Peralta, F. Ogliaro, M. Bearpark, J. J. Heyd, E. Brothers, 
 K. N. Kudin, V. N. Staroverov, T. Keith, R. Kobayashi, J. Normand, 
 K. Raghavachari, A. Rendell, J. C. Burant, S. S. Iyengar, J. Tomasi, 
 M. Cossi, N. Rega, J. M. Millam, M. Klene, J. E. Knox, J. B. Cross, 
 V. Bakken, C. Adamo, J. Jaramillo, R. Gomperts, R. E. Stratmann, 
 O. Yazyev, A. J. Austin, R. Cammi, C. Pomelli, J. W. Ochterski, 
 R. L. Martin, K. Morokuma, V. G. Zakrzewski, G. A. Voth, 
 P. Salvador, J. J. Dannenberg, S. Dapprich, A. D. Daniels, 
 O. Farkas, J. B. Foresman, J. V. Ortiz, J. Cioslowski, 
 and D. J. Fox, Gaussian, Inc., Wallingford CT, 2013.
 
 ******************************************
 Gaussian 09:  EM64L-G09RevD.01 24-Apr-2013
                 8-Mar-2018 
 ******************************************
 %mem=6000MB
 %chk=P_ng_correct1ginp007.chk
 --------------------------------------------------------
 #mPW1PW91/6-311g(d) nmr=(giao) scrf=(solvent=chloroform)
 --------------------------------------------------------
 1/38=1/1;
 2/12=2,17=6,18=5,40=1/2;
 3/5=4,6=6,7=1,11=2,16=1,25=1,30=1,70=2201,72=7,74=-7/1,2,8,3;
 4//1;
 5/5=2,38=5,53=7/2;
 8/6=1,10=90,11=11/1;
 10/13=100,45=16/2;
 6/7=2,8=2,9=2,10=2,28=1/1;
 99/9=1/99;
 --------------------
 P_ng_correct1ginp007
 --------------------
 Symbolic Z-matrix:
 Charge =  0 Multiplicity = 1
 C                     1.07107  -0.1664    0.79269 
 C                    -0.42644  -0.37279   0.53832 
 C                    -1.23997   0.85565   1.05958 
 C                    -0.72708   2.04836   0.23804 
 C                     0.76342   2.22002   0.23079 
 H                     1.28284  -0.20923   1.86747 
 H                    -0.58303  -0.39552  -0.55208 
 H                    -1.05625   1.97118  -0.80583 
 H                    -1.14181   2.98058   0.63344 
 O                     1.53401   1.12296   0.33366 
 O                     1.26905   3.32566   0.0559 
 C                     1.9459   -1.2281    0.10114 
 C                     3.43347  -1.02973   0.37118 
 C                    -0.92015  -1.74131   1.03191 
 O                    -2.60763   0.558     0.6981 
 Si                   -3.99884   1.45474   0.93809 
 C                    -5.28571   0.9036   -0.33951 
 C                    -4.74648   1.132     2.63513 
 C                    -3.79215   3.30603   0.73624 
 H                    -4.86547   0.05793   2.80445 
 H                    -4.11421   1.54176   3.42721 
 H                    -5.73159   1.6019    2.71251 
 H                    -3.14912   3.71995   1.51794 
 H                    -3.36163   3.54891  -0.2395 
 H                    -4.76326   3.80592   0.80726 
 H                    -4.91791   1.09198  -1.35222 
 H                    -5.4886   -0.16614  -0.23536 
 H                    -6.2216    1.45216  -0.19971 
 H                    -0.5811   -2.53357   0.35516 
 H                    -0.53366  -1.98549   2.02463 
 H                    -2.01184  -1.80439   1.05763 
 H                     1.78743  -1.18671  -0.9833 
 H                     1.67112  -2.2324    0.43913 
 H                     4.01071  -1.83207  -0.09944 
 H                     3.79237  -0.07897  -0.03475 
 H                     3.64145  -1.04767   1.44569 
 C                    -1.05891   1.16794   2.58307 
 C                    -1.39025   0.06122   3.54602 
 C                    -0.57703  -0.34594   4.52946 
 H                    -1.69651   2.01847   2.85338 
 H                    -0.03309   1.50957   2.77029 
 H                    -2.35746  -0.4245    3.43502 
 H                    -0.87614  -1.14745   5.19891 
 H                     0.39549   0.10663   4.69756 
 
                          Input orientation:                          
 ---------------------------------------------------------------------
 Center     Atomic      Atomic             Coordinates (Angstroms)
 Number     Number       Type             X           Y           Z
 ---------------------------------------------------------------------
      1          6           0        1.071070   -0.166402    0.792686
      2          6           0       -0.426444   -0.372786    0.538316
      3          6           0       -1.239970    0.855645    1.059580
      4          6           0       -0.727081    2.048361    0.238040
      5          6           0        0.763422    2.220016    0.230785
      6          1           0        1.282844   -0.209232    1.867467
      7          1           0       -0.583026   -0.395519   -0.552080
      8          1           0       -1.056253    1.971180   -0.805829
      9          1           0       -1.141811    2.980579    0.633437
     10          8           0        1.534009    1.122957    0.333662
     11          8           0        1.269049    3.325661    0.055903
     12          6           0        1.945899   -1.228104    0.101137
     13          6           0        3.433466   -1.029725    0.371180
     14          6           0       -0.920150   -1.741305    1.031913
     15          8           0       -2.607633    0.557995    0.698104
     16         14           0       -3.998836    1.454743    0.938087
     17          6           0       -5.285713    0.903603   -0.339512
     18          6           0       -4.746484    1.132003    2.635127
     19          6           0       -3.792149    3.306034    0.736236
     20          1           0       -4.865467    0.057927    2.804454
     21          1           0       -4.114209    1.541759    3.427207
     22          1           0       -5.731594    1.601900    2.712508
     23          1           0       -3.149121    3.719950    1.517940
     24          1           0       -3.361631    3.548905   -0.239496
     25          1           0       -4.763258    3.805920    0.807257
     26          1           0       -4.917908    1.091978   -1.352223
     27          1           0       -5.488598   -0.166137   -0.235364
     28          1           0       -6.221600    1.452159   -0.199713
     29          1           0       -0.581095   -2.533568    0.355161
     30          1           0       -0.533663   -1.985488    2.024635
     31          1           0       -2.011841   -1.804393    1.057626
     32          1           0        1.787429   -1.186713   -0.983296
     33          1           0        1.671117   -2.232396    0.439130
     34          1           0        4.010709   -1.832068   -0.099437
     35          1           0        3.792371   -0.078970   -0.034748
     36          1           0        3.641446   -1.047669    1.445694
     37          6           0       -1.058906    1.167939    2.583071
     38          6           0       -1.390252    0.061215    3.546018
     39          6           0       -0.577029   -0.345943    4.529456
     40          1           0       -1.696508    2.018467    2.853380
     41          1           0       -0.033092    1.509574    2.770285
     42          1           0       -2.357456   -0.424496    3.435024
     43          1           0       -0.876142   -1.147446    5.198912
     44          1           0        0.395493    0.106634    4.697555
 ---------------------------------------------------------------------
                    Distance matrix (angstroms):
                    1          2          3          4          5
     1  C    0.000000
     2  C    1.532921   0.000000
     3  C    2.541007   1.562877   0.000000
     4  C    2.906227   2.458150   1.536410   0.000000
     5  C    2.470905   2.869317   2.561638   1.500372   0.000000
     6  H    1.096283   2.171418   2.855037   3.433884   2.974857
     7  H    2.144044   1.101816   2.143463   2.572468   3.044146
     8  H    3.413211   2.774448   2.181266   1.097257   2.108958
     9  H    3.850415   3.430139   2.169465   1.094244   2.090573
    10  O    1.444805   2.474370   2.879822   2.445004   1.344592
    11  O    3.574430   4.097063   3.661082   2.376805   1.228289
    12  C    1.539733   2.559435   3.925606   4.230696   3.647546
    13  C    2.550276   3.918981   5.086209   5.177112   4.208285
    14  C    2.550001   1.536303   2.616715   3.876736   4.378160
    15  O    3.750540   2.376862   1.445601   2.443220   3.787441
    16  Si   5.324772   4.032575   2.825778   3.398063   4.874938
    17  C    6.544881   5.100220   4.281097   4.735521   6.216930
    18  C    6.238941   5.032271   3.854136   4.768788   6.109312
    19  C    5.975943   4.990076   3.552826   3.350311   4.710429
    20  H    6.272161   5.002581   4.101849   5.260660   6.556126
    21  H    6.061818   5.060710   3.786510   4.679751   5.870982
    22  H    7.286209   6.063919   4.843940   5.600667   6.980419
    23  H    5.782710   5.012297   3.472635   3.209148   4.383442
    24  H    5.875180   4.959836   3.666428   3.069288   4.359263
    25  H    7.058253   6.028422   4.602320   4.438890   5.778547
    26  H    6.484752   5.088509   4.404529   4.583300   6.004656
    27  H    6.639739   5.125104   4.557604   5.272585   6.708113
    28  H    7.535757   6.120371   5.172841   5.544080   7.040275
    29  H    2.919684   2.174038   3.523789   4.585750   4.941635
    30  H    2.720651   2.195780   3.082570   4.416024   4.752535
    31  H    3.501078   2.198332   2.769764   4.143192   4.957985
    32  H    2.169866   2.806958   4.184461   4.275526   3.758774
    33  H    2.180227   2.804951   4.288984   4.910873   4.548768
    34  H    3.494539   4.714293   6.011385   6.133374   5.203201
    35  H    2.845658   4.267684   5.234072   5.002539   3.811873
    36  H    2.794617   4.222148   5.253562   5.488885   4.520707
    37  C    3.085894   2.637208   1.565674   2.526741   3.156104
    38  C    3.700102   3.188033   2.614589   3.915516   4.504387
    39  C    4.088021   3.994070   3.731400   4.916448   5.182618
    40  H    4.084067   3.562397   2.185932   2.789388   3.601372
    41  H    2.817617   2.946131   2.193328   2.680331   2.754673
    42  H    4.336283   3.481723   2.920663   4.358194   5.196198
    43  H    4.916189   4.745891   4.612896   5.903021   6.221757
    44  H    3.972273   4.266696   4.058401   4.991768   4.955178
                    6          7          8          9         10
     6  H    0.000000
     7  H    3.061108   0.000000
     8  H    4.167983   2.426849   0.000000
     9  H    4.192455   3.621564   1.760026   0.000000
    10  O    2.047039   2.751753   2.954214   3.271183   0.000000
    11  O    3.972080   4.200834   2.825638   2.502973   2.235902
    12  C    2.144216   2.741414   4.480058   5.246933   2.398168
    13  C    2.745407   4.169752   5.527057   6.089702   2.871129
    14  C    2.810441   2.105665   4.144679   4.743849   3.835942
    15  O    4.134230   2.563432   2.581799   2.832266   4.195855
    16  Si   5.615043   4.160748   3.459298   3.253241   5.575642
    17  C    7.018198   4.883459   4.386970   4.736284   6.856376
    18  C    6.224228   5.461318   5.114900   4.518591   6.688902
    19  C    6.276331   5.065543   3.412466   2.672224   5.770256
    20  H    6.225034   5.459967   5.586125   5.207766   6.942074
    21  H    5.884466   5.661892   5.239665   4.325564   6.453509
    22  H    7.293602   6.415214   5.862924   5.223926   7.660110
    23  H    5.933208   5.273226   3.583043   2.314802   5.484395
    24  H    6.335143   4.834960   2.850389   2.452062   5.493726
    25  H    7.334906   6.080644   4.439617   3.718371   6.861352
    26  H    7.106960   4.652320   3.997990   4.665680   6.668613
    27  H    7.090570   4.921134   4.953709   5.436101   7.162581
    28  H    7.959280   5.944038   5.226621   5.369773   7.780895
    29  H    3.341239   2.322573   4.676155   5.549564   4.224252
    30  H    2.545483   3.028184   4.892836   5.192985   4.098425
    31  H    3.749044   2.572468   4.317472   4.881890   4.654735
    32  H    3.055638   2.535940   4.253271   5.344211   2.670801
    33  H    2.506810   3.072096   5.163189   5.926671   3.359809
    34  H    3.734107   4.834352   6.374778   7.088522   3.879921
    35  H    3.151685   4.417232   5.320417   5.844096   2.584677
    36  H    2.538478   4.718322   6.020895   6.306036   3.223278
    37  C    2.809356   3.535539   3.482793   2.663383   3.432939
    38  C    3.167983   4.201741   4.764252   4.131288   4.471893
    39  C    3.250231   5.081781   5.836436   5.153998   4.921264
    40  H    3.848533   4.320223   3.715101   2.482236   4.193704
    41  H    2.345434   3.869098   3.748137   2.821211   2.922740
    42  H    3.969302   4.364223   5.041550   4.573972   5.211195
    43  H    4.079215   5.807342   6.768691   6.160741   5.885084
    44  H    2.982710   5.363611   5.989268   5.209599   4.623061
                   11         12         13         14         15
    11  O    0.000000
    12  C    4.604014   0.000000
    13  C    4.873755   1.524839   0.000000
    14  C    5.605295   3.056789   4.460593   0.000000
    15  O    4.806356   4.927593   6.254807   2.871551   0.000000
    16  Si   5.659434   6.575563   7.857040   4.438675   1.672482
    17  C    6.999116   7.552123   8.959181   5.285308   2.892785
    18  C    6.902983   7.535197   8.758431   5.046486   2.942147
    19  C    5.106757   7.340773   8.434547   5.814760   2.992700
    20  H    7.474283   7.440195   8.716427   4.684513   3.128033
    21  H    6.597535   7.447133   8.539276   5.168941   3.268878
    22  H    7.683613   8.589067   9.818635   6.095196   3.860919
    23  H    4.670465   7.242223   8.197861   5.918601   3.311087
    24  H    4.645460   7.148827   8.216454   5.963525   3.223841
    25  H    6.097861   8.417410   9.526800   6.752159   3.899699
    26  H    6.726856   7.389647   8.787331   5.449189   3.134701
    27  H    7.612049   7.517496   8.984259   4.995784   3.113790
    28  H    7.725618   8.601300   9.985288   6.310348   3.829669
    29  H    6.151679   2.855602   4.287015   1.095734   3.712442
    30  H    5.944239   3.228266   4.402898   1.092929   3.539822
    31  H    6.171316   4.112260   5.542805   1.093815   2.462743
    32  H    4.659418   1.096732   2.137449   3.420471   5.018733
    33  H    5.585742   1.094690   2.134692   2.703188   5.114787
    34  H    5.843201   2.160658   1.094735   5.059799   7.081732
    35  H    4.238736   2.179090   1.094315   5.109694   6.473241
    36  H    5.165830   2.171467   1.094604   4.632548   6.495232
    37  C    4.057304   4.574918   5.468418   3.299855   2.514694
    38  C    5.468948   4.965828   5.876904   3.129025   3.136785
    39  C    6.074649   5.172367   5.817464   3.781213   4.429415
    40  H    4.281257   5.601981   6.462927   4.249277   2.758322
    41  H    3.515909   4.305303   4.921460   3.791705   3.439142
    42  H    6.215599   5.502677   6.579378   3.094314   2.918665
    43  H    7.145703   5.827326   6.472525   4.209333   5.115062
    44  H    5.715782   5.031137   5.407228   4.310769   5.021763
                   16         17         18         19         20
    16  Si   0.000000
    17  C    1.895275   0.000000
    18  C    1.882308   3.031734   0.000000
    19  C    1.873697   3.026490   3.040223   0.000000
    20  H    2.487061   3.282727   1.093832   3.997466   0.000000
    21  H    2.493311   3.995978   1.093189   3.233839   1.775941
    22  H    2.484487   3.162476   1.094181   3.251334   1.772705
    23  H    2.487852   3.993365   3.239930   1.093560   4.243981
    24  H    2.485608   3.272570   4.002835   1.093794   4.869711
    25  H    2.475781   3.164093   3.239016   1.094524   4.248140
    26  H    2.494356   1.093778   3.991234   3.245156   4.283687
    27  H    2.494720   1.093779   3.236606   3.984710   3.111108
    28  H    2.497053   1.093774   3.211664   3.196105   3.578826
    29  H    5.284636   5.867721   5.998760   6.675106   5.574112
    30  H    5.002319   6.043014   5.276297   6.346488   4.852648
    31  H    3.818954   4.472524   4.311520   5.421186   3.829207
    32  H    6.644536   7.403595   7.820578   7.367039   7.756108
    33  H    6.781764   7.670610   7.571472   7.785227   7.318966
    34  H    8.719656   9.693554   9.641161   9.379927   9.528440
    35  H    8.000099   9.136188   9.028108   8.341320   9.112517
    36  H    8.055659   9.310671   8.747748   8.643865   8.685398
    37  C    3.381038   5.145606   3.688120   3.931013   3.971277
    38  C    3.943087   5.566110   3.638764   4.918621   3.553456
    39  C    5.277231   6.887664   4.812189   6.169477   4.639983
    40  H    3.047433   4.931518   3.183678   3.245279   3.726716
    41  H    4.368876   6.134172   4.730422   4.636284   5.045820
    42  H    3.529924   4.958393   2.961415   4.822723   2.630679
    43  H    5.888738   7.370567   5.171888   6.946370   4.806357
    44  H    5.938108   7.634350   5.634263   6.592765   5.591413
                   21         22         23         24         25
    21  H    0.000000
    22  H    1.769278   0.000000
    23  H    3.053066   3.547153   0.000000
    24  H    4.247319   4.256980   1.778482   0.000000
    25  H    3.523042   3.070075   1.765757   1.768137   0.000000
    26  H    4.867359   4.176619   4.274656   3.113944   3.471707
    27  H    4.268522   3.446005   4.863013   4.280834   4.170181
    28  H    4.195673   2.956951   4.187283   3.546456   2.946344
    29  H    6.207145   7.013332   6.859541   6.714274   7.608153
    30  H    5.218140   6.353031   6.296776   6.614620   7.274056
    31  H    4.607776   5.308298   5.658945   5.671178   6.253686
    32  H    7.856617   8.830121   7.396016   7.035065   8.428758
    33  H    7.526144   8.641192   7.734917   7.694968   8.831645
    34  H    9.478092  10.705683   9.203476   9.128301  10.468596
    35  H    8.782135  10.053788   8.063929   8.023911   9.433988
    36  H    8.413187   9.822368   8.297422   8.544674   9.726458
    37  C    3.191737   4.694581   3.466448   4.351830   4.882078
    38  C    3.102591   4.681421   4.537958   5.511845   5.735922
    39  C    4.158126   5.802149   5.675947   6.757718   6.972607
    40  H    2.530179   4.058977   2.605481   3.831548   4.097141
    41  H    4.133775   5.699543   4.020419   4.929181   5.612589
    42  H    2.636741   4.001639   4.634477   5.504396   5.530774
    43  H    4.566819   6.108725   6.512107   7.603266   7.676727
    44  H    4.900080   6.611916   5.977482   7.095046   7.445257
                   26         27         28         29         30
    26  H    0.000000
    27  H    1.776489   0.000000
    28  H    1.776970   1.776920   0.000000
    29  H    5.904887   5.480605   6.928867   0.000000
    30  H    6.332106   5.741865   7.008407   1.757778   0.000000
    31  H    4.758315   4.055064   5.468830   1.752766   1.775644
    32  H    7.091550   7.385225   8.468896   3.035686   3.882417
    33  H    7.594449   7.482372   8.733788   2.273811   2.726874
    34  H    9.478382   9.645239  10.746923   4.667272   5.018619
    35  H    8.886834   9.283546  10.131692   5.030336   5.156592
    36  H    9.255753   9.325275  10.307094   4.607278   4.318126
    37  C    5.512187   5.417149   5.871804   4.346613   3.245279
    38  C    6.123691   5.580948   6.269541   4.191563   2.690231
    39  C    7.450167   6.845389   7.580197   4.712797   2.994013
    40  H    5.378001   5.356564   5.488036   5.310957   4.250963
    41  H    6.405536   6.450153   6.864533   4.741321   3.608604
    42  H    5.636785   4.831413   5.627145   4.133908   2.784262
    43  H    8.016749   7.195073   8.029758   5.046812   3.300855
    44  H    8.111902   7.683139   8.341438   5.175015   3.519205
                   31         32         33         34         35
    31  H    0.000000
    32  H    4.356758   0.000000
    33  H    3.758976   1.769259   0.000000
    34  H    6.132754   2.478036   2.433928   0.000000
    35  H    6.152986   2.479240   3.059661   1.767826   0.000000
    36  H    5.716894   3.058873   2.509770   1.771741   1.775631
    37  C    3.474165   5.134684   4.859196   6.472781   5.651783
    38  C    3.171586   5.671831   4.928020   6.785591   6.300882
    39  C    4.029810   6.057061   5.034246   6.684501   6.324151
    40  H    4.235378   6.093528   5.936273   7.491200   6.547390
    41  H    4.222680   4.967256   4.726622   5.979482   5.002584
    42  H    2.770485   6.105948   5.336036   7.418032   7.069588
    43  H    4.344150   6.731705   5.506466   7.240340   7.094213
    44  H    4.764070   5.990184   5.023192   6.311853   5.828200
                   36         37         38         39         40
    36  H    0.000000
    37  C    5.319385   0.000000
    38  C    5.564078   1.503960   0.000000
    39  C    5.272337   2.512461   1.339500   0.000000
    40  H    6.314786   1.096814   2.098660   3.106911   0.000000
    41  H    4.668647   1.097296   2.131053   2.614095   1.741502
    42  H    6.350796   2.224389   1.087988   2.091380   2.596773
    43  H    5.874113   3.498147   2.111215   1.086300   4.024615
    44  H    4.737428   2.777173   2.125320   1.085763   3.381206
                   41         42         43         44
    41  H    0.000000
    42  H    3.095993   0.000000
    43  H    3.697123   2.414177   0.000000
    44  H    2.422044   3.074868   1.855029   0.000000
 Stoichiometry    C14H26O3Si
 Framework group  C1[X(C14H26O3Si)]
 Deg. of freedom   126
 Full point group                 C1      NOp   1
 Largest Abelian subgroup         C1      NOp   1
 Largest concise Abelian subgroup C1      NOp   1
                         Standard orientation:                         
 ---------------------------------------------------------------------
 Center     Atomic      Atomic             Coordinates (Angstroms)
 Number     Number       Type             X           Y           Z
 ---------------------------------------------------------------------
      1          6           0        2.393672    0.154259    0.300880
      2          6           0        1.025875    0.345401    0.966043
      3          6           0       -0.116646   -0.091417   -0.006799
      4          6           0        0.135582   -1.583984   -0.269820
      5          6           0        1.526754   -1.923303   -0.717728
      6          1           0        2.521692    0.873042   -0.516921
      7          1           0        0.969179   -0.343575    1.824003
      8          1           0       -0.076969   -2.177894    0.627991
      9          1           0       -0.536355   -1.943987   -1.054847
     10          8           0        2.543544   -1.160121   -0.279987
     11          8           0        1.742180   -2.919682   -1.402938
     12          6           0        3.565929    0.346895    1.280411
     13          6           0        4.924950    0.173461    0.610997
     14          6           0        0.864027    1.745070    1.578381
     15          8           0       -1.327209    0.076825    0.765207
     16         14           0       -2.917471   -0.224068    0.343633
     17          6           0       -3.910726   -0.492982    1.935235
     18          6           0       -3.691132    1.249145   -0.536239
     19          6           0       -3.180182   -1.742013   -0.722936
     20          1           0       -3.542038    2.164533    0.043680
     21          1           0       -3.252294    1.389279   -1.527625
     22          1           0       -4.767084    1.095099   -0.662053
     23          1           0       -2.731228   -1.613353   -1.711753
     24          1           0       -2.749530   -2.631068   -0.253356
     25          1           0       -4.249885   -1.924203   -0.866204
     26          1           0       -3.523386   -1.358055    2.481097
     27          1           0       -3.838254    0.387503    2.580097
     28          1           0       -4.964649   -0.669822    1.702177
     29          1           0        1.449727    1.825567    2.500936
     30          1           0        1.218869    2.531911    0.907962
     31          1           0       -0.172734    1.961387    1.851813
     32          1           0        3.490376   -0.384747    2.093930
     33          1           0        3.533377    1.345609    1.727465
     34          1           0        5.725887    0.365489    1.332155
     35          1           0        5.057804   -0.843208    0.228558
     36          1           0        5.042914    0.874393   -0.221432
     37          6           0       -0.146170    0.671279   -1.373825
     38          6           0       -0.257265    2.169847   -1.311786
     39          6           0        0.551228    3.009905   -1.971256
     40          1           0       -1.001458    0.318809   -1.963102
     41          1           0        0.738030    0.402499   -1.965437
     42          1           0       -1.054004    2.586666   -0.699260
     43          1           0        0.416087    4.084845   -1.891963
     44          1           0        1.357024    2.654682   -2.606387
 ---------------------------------------------------------------------
 Rotational constants (GHZ):      0.5538674      0.2476585      0.2202383
 Standard basis: 6-311G(d) (5D, 7F)
 There are   428 symmetry adapted cartesian basis functions of A   symmetry.
 There are   410 symmetry adapted basis functions of A   symmetry.
   410 basis functions,   720 primitive gaussians,   428 cartesian basis functions
    74 alpha electrons       74 beta electrons
       nuclear repulsion energy      1622.2051985437 Hartrees.
 NAtoms=   44 NActive=   44 NUniq=   44 SFac= 1.00D+00 NAtFMM=   60 NAOKFM=F Big=F
 Integral buffers will be    131072 words long.
 Raffenetti 2 integral format.
 Two-electron integral symmetry is turned on.
 ------------------------------------------------------------------------------
 Polarizable Continuum Model (PCM)
 =================================
 Model                : PCM (using non-symmetric T matrix).
 Atomic radii         : UFF (Universal Force Field).
 Polarization charges : Total charges.
 Charge compensation  : None.
 Solution method      : On-the-fly selection.
 Cavity type          : Scaled VdW (van der Waals Surface) (Alpha=1.100).
 Cavity algorithm     : GePol (No added spheres)
                        Default sphere list used, NSphG=   44.
                        Lebedev-Laikov grids with approx.  5.0 points / Ang**2.
                        Smoothing algorithm: Karplus/York (Gamma=1.0000).
                        Polarization charges: spherical gaussians, with
                                              point-specific exponents (IZeta= 3).
                        Self-potential: point-specific (ISelfS= 7).
                        Self-field    : sphere-specific E.n sum rule (ISelfD= 2).
 Solvent              : Chloroform, Eps=   4.711300 Eps(inf)=   2.090627
 ------------------------------------------------------------------------------
 One-electron integrals computed using PRISM.
 NBasis=   410 RedAO= T EigKep=  1.07D-03  NBF=   410
 NBsUse=   410 1.00D-06 EigRej= -1.00D+00 NBFU=   410
 ExpMin= 6.54D-02 ExpMax= 6.94D+04 ExpMxC= 2.33D+03 IAcc=2 IRadAn=         4 AccDes= 0.00D+00
 Harris functional with IExCor=  908 and IRadAn=       4 diagonalized for initial guess.
 HarFok:  IExCor=  908 AccDes= 0.00D+00 IRadAn=         4 IDoV= 1 UseB2=F ITyADJ=14
 ICtDFT=  3500011 ScaDFX=  1.000000  1.000000  1.000000  1.000000
 FoFCou: FMM=F IPFlag=           0 FMFlag=      100000 FMFlg1=           0
         NFxFlg=           0 DoJE=T BraDBF=F KetDBF=T FulRan=T
         wScrn=  0.000000 ICntrl=     500 IOpCl=  0 I1Cent=   200000004 NGrid=           0
         NMat0=    1 NMatS0=      1 NMatT0=    0 NMatD0=    1 NMtDS0=    0 NMtDT0=    0
 Petite list used in FoFCou.
 Requested convergence on RMS density matrix=1.00D-08 within 128 cycles.
 Requested convergence on MAX density matrix=1.00D-06.
 Requested convergence on             energy=1.00D-06.
 No special actions if energy rises.
 Inv3:  Mode=1 IEnd=    24162732.
 Iteration    1 A*A^-1 deviation from unit magnitude is 7.99D-15 for    311.
 Iteration    1 A*A^-1 deviation from orthogonality  is 8.44D-15 for   2188    847.
 Iteration    1 A^-1*A deviation from unit magnitude is 7.11D-15 for    605.
 Iteration    1 A^-1*A deviation from orthogonality  is 2.57D-10 for   2034   2024.
 Iteration    2 A*A^-1 deviation from unit magnitude is 1.11D-14 for    158.
 Iteration    2 A*A^-1 deviation from orthogonality  is 6.44D-15 for   2592   1149.
 Iteration    2 A^-1*A deviation from unit magnitude is 2.00D-15 for   1812.
 Iteration    2 A^-1*A deviation from orthogonality  is 7.77D-16 for   2366    201.
 Error on total polarization charges =  0.01136
 SCF Done:  E(RmPW1PW91) =  -1064.37585057     A.U. after   13 cycles
            NFock= 13  Conv=0.39D-08     -V/T= 2.0036
 DoSCS=F DFT=T ScalE2(SS,OS)=  1.000000  1.000000
 Range of M.O.s used for correlation:     1   410
 NBasis=   410 NAE=    74 NBE=    74 NFC=     0 NFV=     0
 NROrb=    410 NOA=    74 NOB=    74 NVA=   336 NVB=   336
 NEqPCM:  Using equilibrium solvation (IEInf=0, Eps=   4.7113, EpsInf=   2.0906)
          Differentiating once with respect to magnetic field using GIAOs.
          Electric field/nuclear overlap derivatives assumed to be zero.
 FoFJK:  IHMeth= 1 ICntrl=    6127 DoSepK=F KAlg= 0 I1Cent=   0 FoldK=F
 IRaf=         1 NMat=   1 IRICut=       1 DoRegI=T DoRafI=F ISym2E= 0.
          There are     3 degrees of freedom in the 1st order CPHF.  IDoFFX=0 NUNeed=     3.
      3 vectors produced by pass  0 Test12= 8.29D-13 3.33D-08 XBig12= 3.66D+01 1.08D+00.
 AX will form     3 AO Fock derivatives at one time.
      3 vectors produced by pass  1 Test12= 8.29D-13 3.33D-08 XBig12= 7.82D-02 1.07D-01.
      3 vectors produced by pass  2 Test12= 8.29D-13 3.33D-08 XBig12= 8.98D-04 1.34D-02.
      3 vectors produced by pass  3 Test12= 8.29D-13 3.33D-08 XBig12= 5.56D-06 8.93D-04.
      3 vectors produced by pass  4 Test12= 8.29D-13 3.33D-08 XBig12= 3.45D-08 7.42D-05.
      3 vectors produced by pass  5 Test12= 8.29D-13 3.33D-08 XBig12= 8.68D-11 1.91D-06.
      2 vectors produced by pass  6 Test12= 8.29D-13 3.33D-08 XBig12= 2.48D-13 1.17D-07.
 InvSVY:  IOpt=1 It=  1 EMax= 8.88D-16
 Solved reduced A of dimension    20 with     3 vectors.
 Calculating GIAO nuclear magnetic shielding tensors.
 SCF GIAO Magnetic shielding tensor (ppm):
      1  C    Isotropic =   103.3037   Anisotropy =    49.9944
   XX=    97.4002   YX=   -14.4374   ZX=    -2.6287
   XY=     0.7316   YY=   128.5032   ZY=    18.9595
   XZ=     2.4105   YZ=    19.2050   ZZ=    84.0077
   Eigenvalues:    76.6861    96.5917   136.6333
      2  C    Isotropic =   137.5322   Anisotropy =    28.0084
   XX=   151.7199   YX=     5.4786   ZX=    10.2264
   XY=     6.3697   YY=   128.8335   ZY=    -2.1547
   XZ=     9.7979   YZ=   -12.4091   ZZ=   132.0431
   Eigenvalues:   119.2283   137.1638   156.2044
      3  C    Isotropic =   106.0114   Anisotropy =    57.5259
   XX=   133.4386   YX=    -3.0286   ZX=   -24.1681
   XY=     2.7377   YY=    84.3296   ZY=     1.3156
   XZ=   -19.7187   YZ=     0.0199   ZZ=   100.2661
   Eigenvalues:    84.2706    89.4016   144.3621
      4  C    Isotropic =   137.6209   Anisotropy =    33.0217
   XX=   137.8661   YX=   -14.4546   ZX=    -6.4017
   XY=    -8.5313   YY=   148.4913   ZY=     2.4899
   XZ=   -10.4305   YZ=    13.2542   ZZ=   126.5054
   Eigenvalues:   121.8913   131.3360   159.6354
      5  C    Isotropic =    10.2670   Anisotropy =    94.2201
   XX=   -67.5822   YX=   -35.8555   ZX=    -6.2757
   XY=   -46.2298   YY=    36.2928   ZY=   -19.9360
   XZ=   -16.0936   YZ=   -18.2529   ZZ=    62.0903
   Eigenvalues:   -83.8039    41.5245    73.0803
      6  H    Isotropic =    28.0519   Anisotropy =     3.0123
   XX=    29.2603   YX=    -0.4104   ZX=     1.1349
   XY=    -0.0688   YY=    28.2811   ZY=    -2.0391
   XZ=     0.6921   YZ=    -1.4639   ZZ=    26.6144
   Eigenvalues:    25.3972    28.6985    30.0601
      7  H    Isotropic =    29.9693   Anisotropy =     3.8283
   XX=    29.2529   YX=     0.3317   ZX=     1.6179
   XY=     0.8450   YY=    29.9518   ZY=    -1.7610
   XZ=     1.5562   YZ=    -2.0236   ZZ=    30.7033
   Eigenvalues:    27.2488    30.1377    32.5215
      8  H    Isotropic =    29.6301   Anisotropy =     4.4837
   XX=    29.9383   YX=     0.1612   ZX=    -0.6257
   XY=     0.6001   YY=    31.6249   ZY=    -2.3854
   XZ=    -1.2247   YZ=    -1.6765   ZZ=    27.3270
   Eigenvalues:    26.3709    29.9002    32.6192
      9  H    Isotropic =    29.2661   Anisotropy =     4.8444
   XX=    32.3719   YX=     0.1308   ZX=     1.0665
   XY=    -1.0035   YY=    29.5159   ZY=     3.3926
   XZ=     0.7389   YZ=     3.1266   ZZ=    25.9105
   Eigenvalues:    23.8709    31.4317    32.4957
     10  O    Isotropic =   103.9958   Anisotropy =   202.7614
   XX=   163.4264   YX=    55.1178   ZX=    42.2282
   XY=    73.4818   YY=    10.0812   ZY=  -130.4792
   XZ=    57.9180   YZ=  -171.7394   ZZ=   138.4798
   Eigenvalues:  -113.7322   186.5496   239.1701
     11  O    Isotropic =  -119.6447   Anisotropy =   574.2865
   XX=  -238.9817   YX=   -98.0096   ZX=    -5.5963
   XY=   -98.6597   YY=  -177.6393   ZY=  -276.7610
   XZ=     5.1773   YZ=  -312.0457   ZZ=    57.6871
   Eigenvalues:  -415.6378  -206.5091   263.2130
     12  C    Isotropic =   156.6695   Anisotropy =    24.5438
   XX=   164.7529   YX=     3.7118   ZX=    12.1286
   XY=    -0.4235   YY=   146.6267   ZY=    -1.3006
   XZ=     9.5552   YZ=     1.6202   ZZ=   158.6288
   Eigenvalues:   146.3679   150.6085   173.0320
     13  C    Isotropic =   175.0219   Anisotropy =    21.3047
   XX=   186.6668   YX=     0.4802   ZX=    -4.7273
   XY=    -1.7465   YY=   163.4895   ZY=    -4.5257
   XZ=    -7.2429   YZ=    -4.0995   ZZ=   174.9094
   Eigenvalues:   161.7697   174.0709   189.2250
     14  C    Isotropic =   174.9189   Anisotropy =    13.6085
   XX=   170.8920   YX=     0.4102   ZX=     4.0947
   XY=    -2.9029   YY=   183.7016   ZY=     1.5346
   XZ=     3.3968   YZ=     2.1326   ZZ=   170.1632
   Eigenvalues:   166.4841   174.2815   183.9912
     15  O    Isotropic =   243.3072   Anisotropy =    30.3628
   XX=   237.4231   YX=     2.2273   ZX=    -8.8655
   XY=    16.1900   YY=   232.7725   ZY=    -9.2472
   XZ=    -1.3654   YZ=    -4.7740   ZZ=   259.7258
   Eigenvalues:   225.4144   240.9581   263.5490
     16  Si   Isotropic =   334.3371   Anisotropy =    55.3056
   XX=   366.4992   YX=    14.1844   ZX=    19.2081
   XY=     7.9890   YY=   314.9332   ZY=     2.8152
   XZ=     2.7015   YZ=    -0.4334   ZZ=   321.5788
   Eigenvalues:   312.4941   319.3096   371.2075
     17  C    Isotropic =   185.5664   Anisotropy =    13.5483
   XX=   188.6955   YX=     2.1441   ZX=    -2.9637
   XY=     1.5145   YY=   174.5551   ZY=    -2.6837
   XZ=    -0.8765   YZ=    -2.5242   ZZ=   193.4487
   Eigenvalues:   174.0351   188.0655   194.5986
     18  C    Isotropic =   184.4818   Anisotropy =    10.0658
   XX=   186.9356   YX=    -1.2608   ZX=     2.6956
   XY=     1.7967   YY=   187.6794   ZY=    -6.5979
   XZ=     2.7966   YZ=    -5.9173   ZZ=   178.8305
   Eigenvalues:   175.0365   187.2166   191.1923
     19  C    Isotropic =   184.4651   Anisotropy =     9.6914
   XX=   189.8300   YX=     0.4934   ZX=     0.5729
   XY=    -3.7418   YY=   184.3093   ZY=     6.4644
   XZ=    -1.3448   YZ=     6.3281   ZZ=   179.2560
   Eigenvalues:   174.8816   187.5877   190.9260
     20  H    Isotropic =    31.8478   Anisotropy =     7.7354
   XX=    30.1796   YX=    -0.7215   ZX=     0.0480
   XY=    -0.2838   YY=    36.0779   ZY=     3.1116
   XZ=     0.2040   YZ=     2.1477   ZZ=    29.2861
   Eigenvalues:    28.3432    30.1956    37.0048
     21  H    Isotropic =    32.0293   Anisotropy =     6.3068
   XX=    32.0011   YX=    -0.4316   ZX=    -1.6762
   XY=     0.1075   YY=    29.5040   ZY=    -3.1777
   XZ=    -1.5700   YZ=    -2.2061   ZZ=    34.5830
   Eigenvalues:    28.1669    31.6872    36.2339
     22  H    Isotropic =    32.2489   Anisotropy =    10.1512
   XX=    38.6112   YX=    -0.8352   ZX=     1.8276
   XY=    -0.2896   YY=    29.3499   ZY=    -0.7663
   XZ=     1.9744   YZ=    -0.7833   ZZ=    28.7856
   Eigenvalues:    28.0776    29.6527    39.0163
     23  H    Isotropic =    31.9367   Anisotropy =     6.2172
   XX=    31.4186   YX=     1.3962   ZX=    -1.7532
   XY=     0.7605   YY=    29.2899   ZY=     1.8097
   XZ=    -2.1649   YZ=     1.1225   ZZ=    35.1016
   Eigenvalues:    28.1582    31.5704    36.0815
     24  H    Isotropic =    31.8611   Anisotropy =     7.2041
   XX=    31.2550   YX=    -1.0863   ZX=     1.1235
   XY=    -1.4549   YY=    36.0051   ZY=    -1.9223
   XZ=     0.3786   YZ=    -1.1698   ZZ=    28.3232
   Eigenvalues:    27.9440    30.9756    36.6638
     25  H    Isotropic =    32.1329   Anisotropy =    10.3822
   XX=    37.5481   YX=     3.3721   ZX=     2.0018
   XY=     2.5425   YY=    29.9632   ZY=     1.4846
   XZ=     1.6332   YZ=     1.6145   ZZ=    28.8875
   Eigenvalues:    27.7762    29.5682    39.0544
     26  H    Isotropic =    32.0663   Anisotropy =     8.4428
   XX=    30.0106   YX=    -1.2409   ZX=    -0.4434
   XY=    -1.1525   YY=    32.9578   ZY=    -4.1377
   XZ=     0.0960   YZ=    -4.9270   ZZ=    33.2305
   Eigenvalues:    28.0553    30.4488    37.6948
     27  H    Isotropic =    31.9189   Anisotropy =     8.4971
   XX=    29.4212   YX=     0.1029   ZX=    -1.7419
   XY=     0.1861   YY=    32.3424   ZY=     3.6764
   XZ=    -1.5842   YZ=     4.6372   ZZ=    33.9929
   Eigenvalues:    27.9210    30.2519    37.5836
     28  H    Isotropic =    32.3456   Anisotropy =     9.6772
   XX=    38.4449   YX=     1.7967   ZX=    -0.8435
   XY=     1.7280   YY=    28.6995   ZY=    -0.1870
   XZ=    -0.3711   YZ=    -0.0718   ZZ=    29.8924
   Eigenvalues:    28.3903    29.8495    38.7971
     29  H    Isotropic =    31.3058   Anisotropy =    10.0077
   XX=    30.4668   YX=    -0.5089   ZX=     3.7519
   XY=    -0.0953   YY=    28.7337   ZY=     3.8965
   XZ=     3.6474   YZ=     3.6890   ZZ=    34.7169
   Eigenvalues:    25.9068    30.0330    37.9776
     30  H    Isotropic =    31.2211   Anisotropy =     7.3002
   XX=    28.0087   YX=     1.6099   ZX=     1.0818
   XY=     1.7514   YY=    34.9382   ZY=    -2.4230
   XZ=     0.6890   YZ=    -2.0540   ZZ=    30.7165
   Eigenvalues:    27.0411    30.5343    36.0879
     31  H    Isotropic =    30.3968   Anisotropy =     6.3672
   XX=    33.8683   YX=    -0.4523   ZX=    -0.4952
   XY=    -1.4187   YY=    29.1305   ZY=     3.8380
   XZ=    -1.2407   YZ=     3.8560   ZZ=    28.1917
   Eigenvalues:    24.7854    31.7634    34.6416
     32  H    Isotropic =    30.5941   Anisotropy =     5.8779
   XX=    31.9667   YX=    -0.6458   ZX=     0.4604
   XY=    -0.4525   YY=    27.2192   ZY=    -3.3406
   XZ=     0.5497   YZ=    -3.6610   ZZ=    32.5965
   Eigenvalues:    25.4824    31.7872    34.5127
     33  H    Isotropic =    30.2043   Anisotropy =     5.6041
   XX=    33.1650   YX=    -0.6581   ZX=     0.3183
   XY=    -0.2256   YY=    30.2578   ZY=     5.0020
   XZ=     0.6203   YZ=     4.9528   ZZ=    27.1900
   Eigenvalues:    23.4732    33.1993    33.9403
     34  H    Isotropic =    30.9877   Anisotropy =    11.3556
   XX=    36.9515   YX=     1.0216   ZX=     3.9043
   XY=     0.5319   YY=    26.2543   ZY=     0.7598
   XZ=     3.3754   YZ=     0.8644   ZZ=    29.7572
   Eigenvalues:    26.0751    28.3298    38.5581
     35  H    Isotropic =    30.5095   Anisotropy =     7.9942
   XX=    32.6481   YX=    -2.5954   ZX=    -1.5466
   XY=    -2.2277   YY=    32.3135   ZY=     2.8661
   XZ=    -0.6916   YZ=     3.2194   ZZ=    26.5670
   Eigenvalues:    25.2544    30.4351    35.8390
     36  H    Isotropic =    31.2272   Anisotropy =     8.7313
   XX=    32.3479   YX=     2.0309   ZX=    -3.3122
   XY=     1.8110   YY=    29.7625   ZY=    -3.4484
   XZ=    -2.2984   YZ=    -4.2020   ZZ=    31.5712
   Eigenvalues:    26.7230    29.9105    37.0481
     37  C    Isotropic =   142.5845   Anisotropy =    31.6132
   XX=   125.5264   YX=     0.3520   ZX=     0.0787
   XY=     0.1685   YY=   157.8616   ZY=   -12.0728
   XZ=    -0.1994   YZ=    -9.0774   ZZ=   144.3654
   Eigenvalues:   125.5242   138.5692   163.6599
     38  C    Isotropic =    42.2288   Anisotropy =   185.9151
   XX=    51.3094   YX=    54.9300   ZX=    87.7885
   XY=    55.7146   YY=   -25.6176   ZY=   -37.4523
   XZ=    85.1407   YZ=   -38.1227   ZZ=   100.9946
   Eigenvalues:   -86.9189    47.4331   166.1722
     39  C    Isotropic =    65.8725   Anisotropy =   140.3347
   XX=    79.2775   YX=    48.2766   ZX=    62.8634
   XY=    52.5445   YY=     4.8878   ZY=   -38.9892
   XZ=    58.4224   YZ=   -44.0938   ZZ=   113.4523
   Eigenvalues:   -47.6979    85.8865   159.4290
     40  H    Isotropic =    29.5162   Anisotropy =     4.5775
   XX=    30.4111   YX=     2.1457   ZX=     1.1066
   XY=     1.7987   YY=    28.4836   ZY=    -0.7915
   XZ=     2.7680   YZ=     0.5210   ZZ=    29.6538
   Eigenvalues:    26.7178    29.2629    32.5678
     41  H    Isotropic =    29.5794   Anisotropy =     4.7707
   XX=    29.0878   YX=     0.2684   ZX=    -1.8296
   XY=    -1.1021   YY=    28.3053   ZY=    -0.9905
   XZ=    -1.7160   YZ=    -2.5513   ZZ=    31.3449
   Eigenvalues:    26.8242    29.1540    32.7598
     42  H    Isotropic =    25.5496   Anisotropy =     6.5036
   XX=    26.0223   YX=     1.9033   ZX=     0.9061
   XY=     2.9722   YY=    27.1180   ZY=    -3.5354
   XZ=     0.8947   YZ=    -3.1069   ZZ=    23.5085
   Eigenvalues:    20.7154    26.0481    29.8853
     43  H    Isotropic =    26.8360   Anisotropy =     7.0369
   XX=    25.9826   YX=     3.1773   ZX=    -0.3868
   XY=     1.4264   YY=    28.3151   ZY=    -2.2602
   XZ=    -0.2704   YZ=    -4.3818   ZZ=    26.2102
   Eigenvalues:    23.2319    25.7488    31.5272
     44  H    Isotropic =    26.7698   Anisotropy =     6.9828
   XX=    26.3544   YX=     1.3321   ZX=    -0.3292
   XY=     3.7870   YY=    26.4931   ZY=    -4.5457
   XZ=    -0.5547   YZ=    -2.5672   ZZ=    27.4617
   Eigenvalues:    22.5697    26.3145    31.4250
 End of Minotr F.D. properties file   721 does not exist.
 End of Minotr F.D. properties file   722 does not exist.
 End of Minotr F.D. properties file   788 does not exist.

 **********************************************************************

            Population analysis using the SCF density.

 **********************************************************************

 Orbital symmetries:
       Occupied  (A) (A) (A) (A) (A) (A) (A) (A) (A) (A) (A) (A)
                 (A) (A) (A) (A) (A) (A) (A) (A) (A) (A) (A) (A)
                 (A) (A) (A) (A) (A) (A) (A) (A) (A) (A) (A) (A)
                 (A) (A) (A) (A) (A) (A) (A) (A) (A) (A) (A) (A)
                 (A) (A) (A) (A) (A) (A) (A) (A) (A) (A) (A) (A)
                 (A) (A) (A) (A) (A) (A) (A) (A) (A) (A) (A) (A)
                 (A) (A)
       Virtual   (A) (A) (A) (A) (A) (A) (A) (A) (A) (A) (A) (A)
                 (A) (A) (A) (A) (A) (A) (A) (A) (A) (A) (A) (A)
                 (A) (A) (A) (A) (A) (A) (A) (A) (A) (A) (A) (A)
                 (A) (A) (A) (A) (A) (A) (A) (A) (A) (A) (A) (A)
                 (A) (A) (A) (A) (A) (A) (A) (A) (A) (A) (A) (A)
                 (A) (A) (A) (A) (A) (A) (A) (A) (A) (A) (A) (A)
                 (A) (A) (A) (A) (A) (A) (A) (A) (A) (A) (A) (A)
                 (A) (A) (A) (A) (A) (A) (A) (A) (A) (A) (A) (A)
                 (A) (A) (A) (A) (A) (A) (A) (A) (A) (A) (A) (A)
                 (A) (A) (A) (A) (A) (A) (A) (A) (A) (A) (A) (A)
                 (A) (A) (A) (A) (A) (A) (A) (A) (A) (A) (A) (A)
                 (A) (A) (A) (A) (A) (A) (A) (A) (A) (A) (A) (A)
                 (A) (A) (A) (A) (A) (A) (A) (A) (A) (A) (A) (A)
                 (A) (A) (A) (A) (A) (A) (A) (A) (A) (A) (A) (A)
                 (A) (A) (A) (A) (A) (A) (A) (A) (A) (A) (A) (A)
                 (A) (A) (A) (A) (A) (A) (A) (A) (A) (A) (A) (A)
                 (A) (A) (A) (A) (A) (A) (A) (A) (A) (A) (A) (A)
                 (A) (A) (A) (A) (A) (A) (A) (A) (A) (A) (A) (A)
                 (A) (A) (A) (A) (A) (A) (A) (A) (A) (A) (A) (A)
                 (A) (A) (A) (A) (A) (A) (A) (A) (A) (A) (A) (A)
                 (A) (A) (A) (A) (A) (A) (A) (A) (A) (A) (A) (A)
                 (A) (A) (A) (A) (A) (A) (A) (A) (A) (A) (A) (A)
                 (A) (A) (A) (A) (A) (A) (A) (A) (A) (A) (A) (A)
                 (A) (A) (A) (A) (A) (A) (A) (A) (A) (A) (A) (A)
                 (A) (A) (A) (A) (A) (A) (A) (A) (A) (A) (A) (A)
                 (A) (A) (A) (A) (A) (A) (A) (A) (A) (A) (A) (A)
                 (A) (A) (A) (A) (A) (A) (A) (A) (A) (A) (A) (A)
                 (A) (A) (A) (A) (A) (A) (A) (A) (A) (A) (A) (A)
 The electronic state is 1-A.
 Alpha  occ. eigenvalues --  -66.27062 -19.26388 -19.21490 -19.19808 -10.37347
 Alpha  occ. eigenvalues --  -10.32259 -10.30690 -10.25250 -10.25177 -10.25064
 Alpha  occ. eigenvalues --  -10.24570 -10.23753 -10.23048 -10.22181 -10.21913
 Alpha  occ. eigenvalues --  -10.20880 -10.20557 -10.20536  -5.32887  -3.66732
 Alpha  occ. eigenvalues --   -3.66502  -3.66469  -1.13574  -1.04784  -1.04229
 Alpha  occ. eigenvalues --   -0.86050  -0.83371  -0.81104  -0.77808  -0.73991
 Alpha  occ. eigenvalues --   -0.73066  -0.71910  -0.70345  -0.69919  -0.66691
 Alpha  occ. eigenvalues --   -0.63840  -0.61909  -0.59060  -0.56650  -0.53226
 Alpha  occ. eigenvalues --   -0.52699  -0.50692  -0.49054  -0.48589  -0.47180
 Alpha  occ. eigenvalues --   -0.46878  -0.45541  -0.44945  -0.44546  -0.43919
 Alpha  occ. eigenvalues --   -0.43048  -0.42558  -0.41915  -0.41746  -0.41120
 Alpha  occ. eigenvalues --   -0.40864  -0.40471  -0.40058  -0.39716  -0.39201
 Alpha  occ. eigenvalues --   -0.38364  -0.37815  -0.36918  -0.36496  -0.35859
 Alpha  occ. eigenvalues --   -0.35580  -0.34686  -0.33581  -0.31633  -0.31348
 Alpha  occ. eigenvalues --   -0.30370  -0.29688  -0.28305  -0.27137
 Alpha virt. eigenvalues --   -0.00220   0.00558   0.03935   0.05759   0.05879
 Alpha virt. eigenvalues --    0.06470   0.07079   0.07963   0.08392   0.09195
 Alpha virt. eigenvalues --    0.09740   0.10160   0.10348   0.10790   0.11063
 Alpha virt. eigenvalues --    0.12037   0.12404   0.13339   0.13492   0.13800
 Alpha virt. eigenvalues --    0.14185   0.14677   0.14779   0.15344   0.15725
 Alpha virt. eigenvalues --    0.15754   0.16268   0.17332   0.17806   0.18097
 Alpha virt. eigenvalues --    0.18465   0.18937   0.19222   0.19715   0.21736
 Alpha virt. eigenvalues --    0.22459   0.23047   0.23587   0.24122   0.24324
 Alpha virt. eigenvalues --    0.25029   0.25398   0.26069   0.26907   0.27986
 Alpha virt. eigenvalues --    0.28850   0.29575   0.30464   0.32077   0.32472
 Alpha virt. eigenvalues --    0.32584   0.33151   0.34353   0.35359   0.36735
 Alpha virt. eigenvalues --    0.36915   0.37713   0.39055   0.39535   0.40539
 Alpha virt. eigenvalues --    0.40997   0.42269   0.42885   0.43452   0.44478
 Alpha virt. eigenvalues --    0.45217   0.45707   0.48026   0.48432   0.49365
 Alpha virt. eigenvalues --    0.50272   0.50652   0.50841   0.51349   0.52828
 Alpha virt. eigenvalues --    0.53843   0.54086   0.54635   0.55781   0.56057
 Alpha virt. eigenvalues --    0.56786   0.57447   0.58283   0.58531   0.58990
 Alpha virt. eigenvalues --    0.59421   0.59587   0.60297   0.60757   0.61271
 Alpha virt. eigenvalues --    0.61656   0.61891   0.62154   0.62586   0.62960
 Alpha virt. eigenvalues --    0.63244   0.63640   0.64391   0.64846   0.65901
 Alpha virt. eigenvalues --    0.66613   0.66783   0.67364   0.67738   0.68119
 Alpha virt. eigenvalues --    0.68851   0.69040   0.69612   0.70719   0.71352
 Alpha virt. eigenvalues --    0.71550   0.72521   0.73239   0.73609   0.75230
 Alpha virt. eigenvalues --    0.75656   0.76326   0.78864   0.80258   0.81778
 Alpha virt. eigenvalues --    0.83531   0.84272   0.85851   0.87913   0.88055
 Alpha virt. eigenvalues --    0.90077   0.90726   0.91111   0.93218   0.94468
 Alpha virt. eigenvalues --    0.95316   0.97408   0.98158   0.99348   1.01158
 Alpha virt. eigenvalues --    1.02750   1.04215   1.05418   1.07274   1.11466
 Alpha virt. eigenvalues --    1.12709   1.13059   1.15832   1.16769   1.19595
 Alpha virt. eigenvalues --    1.20581   1.23790   1.24828   1.25921   1.27833
 Alpha virt. eigenvalues --    1.28057   1.30947   1.31789   1.31926   1.32761
 Alpha virt. eigenvalues --    1.35589   1.38779   1.39352   1.40503   1.40829
 Alpha virt. eigenvalues --    1.41576   1.43350   1.45217   1.47601   1.48421
 Alpha virt. eigenvalues --    1.50253   1.50440   1.51013   1.52198   1.52980
 Alpha virt. eigenvalues --    1.53887   1.54981   1.55463   1.56020   1.57966
 Alpha virt. eigenvalues --    1.58856   1.59204   1.59749   1.59789   1.61298
 Alpha virt. eigenvalues --    1.61412   1.62330   1.63201   1.63297   1.64065
 Alpha virt. eigenvalues --    1.65297   1.66348   1.67166   1.68450   1.69308
 Alpha virt. eigenvalues --    1.70094   1.70762   1.72570   1.73123   1.74599
 Alpha virt. eigenvalues --    1.75562   1.77085   1.78486   1.80360   1.80787
 Alpha virt. eigenvalues --    1.81527   1.81559   1.83880   1.86124   1.87240
 Alpha virt. eigenvalues --    1.88629   1.89270   1.94048   1.95305   1.97403
 Alpha virt. eigenvalues --    1.99186   2.03961   2.06547   2.07987   2.12003
 Alpha virt. eigenvalues --    2.14022   2.18105   2.21553   2.22796   2.26872
 Alpha virt. eigenvalues --    2.28581   2.30246   2.34293   2.37697   2.40846
 Alpha virt. eigenvalues --    2.41451   2.41731   2.42209   2.42410   2.42829
 Alpha virt. eigenvalues --    2.44079   2.45034   2.46346   2.46981   2.48007
 Alpha virt. eigenvalues --    2.48411   2.48796   2.49856   2.51281   2.52152
 Alpha virt. eigenvalues --    2.52627   2.53807   2.54351   2.56969   2.58340
 Alpha virt. eigenvalues --    2.60734   2.63654   2.67166   2.73527   2.80070
 Alpha virt. eigenvalues --    2.84183   2.87176   2.88757   2.89908   2.91549
 Alpha virt. eigenvalues --    2.92731   2.93195   2.94211   2.96155   2.97847
 Alpha virt. eigenvalues --    2.99727   3.00413   3.01836   3.04125   3.04507
 Alpha virt. eigenvalues --    3.07343   3.10273   3.13079   3.13473   3.14807
 Alpha virt. eigenvalues --    3.15584   3.16476   3.17992   3.18874   3.20187
 Alpha virt. eigenvalues --    3.22860   3.23023   3.23063   3.23602   3.26325
 Alpha virt. eigenvalues --    3.26730   3.28466   3.29684   3.30488   3.30642
 Alpha virt. eigenvalues --    3.34002   3.35073   3.36124   3.39054   3.39986
 Alpha virt. eigenvalues --    3.43543   3.50351   3.57226   3.60625   3.65515
 Alpha virt. eigenvalues --    3.77999   3.88084   3.89376   3.98531   4.03801
 Alpha virt. eigenvalues --    4.09855   4.10998   4.19484   4.21779   4.26241
 Alpha virt. eigenvalues --    4.93548   4.99910   5.01563   5.08432   5.14451
 Alpha virt. eigenvalues --    5.24321   5.51406   5.54223   5.77854   5.86338
 Alpha virt. eigenvalues --   11.51855  11.54132  11.59663  23.41227  23.49258
 Alpha virt. eigenvalues --   23.54612  23.55151  23.57681  23.61365  23.71694
 Alpha virt. eigenvalues --   23.73780  23.77075  23.79289  23.81730  23.87504
 Alpha virt. eigenvalues --   23.88915  24.26517  49.98248  50.04324  50.11914
 Alpha virt. eigenvalues --  141.29935
          Condensed to atoms (all electrons):
               1          2          3          4          5          6
     1  C    5.220804   0.262264  -0.044136  -0.003067  -0.050165   0.371986
     2  C    0.262264   5.551045   0.267797  -0.087538  -0.017914  -0.032095
     3  C   -0.044136   0.267797   5.225192   0.239024  -0.016430  -0.018689
     4  C   -0.003067  -0.087538   0.239024   5.866085   0.238252   0.003212
     5  C   -0.050165  -0.017914  -0.016430   0.238252   4.387858  -0.002062
     6  H    0.371986  -0.032095  -0.018689   0.003212  -0.002062   0.483288
     7  H   -0.046622   0.406447  -0.058555  -0.005330   0.000350   0.007180
     8  H    0.002068  -0.007921  -0.029684   0.371853  -0.021650  -0.000111
     9  H   -0.001514   0.009634  -0.032945   0.355590  -0.027372   0.000256
    10  O    0.208610  -0.026933   0.003941  -0.110675   0.354212  -0.033175
    11  O    0.001694  -0.000310   0.004393  -0.102791   0.659326  -0.000004
    12  C    0.329675  -0.068527   0.008874  -0.002523   0.002732  -0.048304
    13  C   -0.074274   0.007467  -0.000128   0.000093  -0.000064  -0.006711
    14  C   -0.053862   0.281001  -0.049727   0.006920   0.000305  -0.000647
    15  O    0.004132  -0.058871   0.219462  -0.029358   0.001790  -0.000054
    16  Si   0.000296   0.001684  -0.046350  -0.010601   0.001813  -0.000121
    17  C   -0.000001  -0.000039   0.002561  -0.000344  -0.000005   0.000000
    18  C    0.000007  -0.000202  -0.001334  -0.000193   0.000006   0.000000
    19  C    0.000010  -0.000314  -0.001222  -0.004979  -0.000310   0.000000
    20  H    0.000000   0.000034   0.000246  -0.000020   0.000001   0.000000
    21  H    0.000004  -0.000068   0.000118  -0.000065   0.000006  -0.000001
    22  H    0.000000   0.000003  -0.000016  -0.000008   0.000000   0.000000
    23  H    0.000009  -0.000095   0.000865  -0.001571  -0.000209  -0.000002
    24  H    0.000002  -0.000112   0.000266   0.000143  -0.000105   0.000000
    25  H    0.000000   0.000008  -0.000113   0.000458  -0.000001   0.000000
    26  H   -0.000001   0.000014   0.000010   0.000021  -0.000002   0.000000
    27  H   -0.000001   0.000042  -0.000137  -0.000017   0.000000   0.000000
    28  H    0.000000   0.000001  -0.000073  -0.000002   0.000000   0.000000
    29  H   -0.006834  -0.032291   0.006350  -0.000345  -0.000017  -0.000319
    30  H   -0.004395  -0.046766  -0.004782  -0.000118   0.000000   0.005027
    31  H    0.006151  -0.035707  -0.007880   0.000457  -0.000082  -0.000208
    32  H   -0.046352  -0.003667  -0.000747   0.000166  -0.000087   0.007972
    33  H   -0.036295  -0.007948  -0.000332   0.000100  -0.000014  -0.000049
    34  H    0.008376  -0.000236   0.000014  -0.000001   0.000007  -0.000303
    35  H   -0.011307   0.000318  -0.000083   0.000344   0.000680   0.000393
    36  H   -0.004151   0.000030  -0.000001  -0.000004  -0.000109   0.005074
    37  C    0.002688  -0.086105   0.283680  -0.106941   0.003490   0.005828
    38  C   -0.002754  -0.005316  -0.055231   0.007795  -0.000465   0.000861
    39  C   -0.001020   0.001961  -0.000440  -0.000044  -0.000041   0.002759
    40  H   -0.000314   0.006217  -0.041976  -0.003076  -0.000307   0.000557
    41  H    0.000120  -0.002751  -0.019916  -0.006944   0.004251  -0.002976
    42  H    0.000094  -0.000719  -0.000701  -0.000126  -0.000004  -0.000034
    43  H    0.000030  -0.000028  -0.000267   0.000015   0.000000   0.000031
    44  H    0.000161  -0.000124   0.000197  -0.000049  -0.000018   0.000632
               7          8          9         10         11         12
     1  C   -0.046622   0.002068  -0.001514   0.208610   0.001694   0.329675
     2  C    0.406447  -0.007921   0.009634  -0.026933  -0.000310  -0.068527
     3  C   -0.058555  -0.029684  -0.032945   0.003941   0.004393   0.008874
     4  C   -0.005330   0.371853   0.355590  -0.110675  -0.102791  -0.002523
     5  C    0.000350  -0.021650  -0.027372   0.354212   0.659326   0.002732
     6  H    0.007180  -0.000111   0.000256  -0.033175  -0.000004  -0.048304
     7  H    0.480842   0.002604   0.000396   0.001269  -0.000151  -0.009550
     8  H    0.002604   0.398117  -0.014006   0.000380   0.000154  -0.000090
     9  H    0.000396  -0.014006   0.427212   0.005485   0.014533   0.000078
    10  O    0.001269   0.000380   0.005485   8.022129  -0.070077  -0.050395
    11  O   -0.000151   0.000154   0.014533  -0.070077   7.883920  -0.000114
    12  C   -0.009550  -0.000090   0.000078  -0.050395  -0.000114   5.324541
    13  C   -0.000260   0.000010  -0.000005  -0.003938  -0.000019   0.316058
    14  C   -0.040492  -0.000055  -0.000131   0.003529   0.000004  -0.007698
    15  O    0.003515  -0.001130  -0.001520  -0.000021  -0.000022  -0.000085
    16  Si  -0.000320   0.000405  -0.004160  -0.000171  -0.000345   0.000010
    17  C   -0.000054  -0.000133   0.000028   0.000000   0.000000   0.000000
    18  C    0.000038   0.000064  -0.000174   0.000000   0.000000   0.000000
    19  C   -0.000015   0.000191  -0.004428  -0.000003  -0.000038   0.000000
    20  H    0.000004   0.000001  -0.000008   0.000000   0.000000   0.000000
    21  H    0.000007   0.000015  -0.000061   0.000000   0.000000   0.000000
    22  H    0.000000   0.000000  -0.000002   0.000000   0.000000   0.000000
    23  H   -0.000004  -0.000075   0.001391  -0.000003  -0.000090   0.000000
    24  H   -0.000016   0.000814  -0.001861  -0.000001  -0.000010   0.000000
    25  H    0.000000  -0.000021   0.000478   0.000000  -0.000001   0.000000
    26  H   -0.000023   0.000027   0.000004   0.000000   0.000000   0.000000
    27  H   -0.000018  -0.000017  -0.000007   0.000000   0.000000   0.000000
    28  H   -0.000001   0.000001  -0.000003   0.000000   0.000000   0.000000
    29  H   -0.009814  -0.000029   0.000016  -0.000023   0.000000   0.001899
    30  H    0.007380  -0.000020   0.000027   0.000040   0.000000  -0.001853
    31  H   -0.001422   0.000072  -0.000050  -0.000106   0.000000   0.000143
    32  H    0.005628  -0.000040   0.000017   0.002774  -0.000066   0.388522
    33  H    0.000572  -0.000007  -0.000002   0.003163   0.000006   0.388995
    34  H   -0.000029   0.000000   0.000000  -0.000123   0.000000  -0.038739
    35  H    0.000058  -0.000009  -0.000009   0.012060   0.000195  -0.038646
    36  H    0.000015   0.000000   0.000000  -0.000378  -0.000002  -0.042593
    37  C    0.009176   0.006581  -0.006826  -0.004565   0.000103  -0.000766
    38  C   -0.000523  -0.000215   0.000084   0.000314  -0.000002   0.000026
    39  C   -0.000080   0.000001  -0.000006  -0.000005   0.000000   0.000051
    40  H   -0.000055  -0.000169   0.002875  -0.000096   0.000016   0.000005
    41  H   -0.000396   0.000251  -0.000158   0.001739  -0.000021   0.000497
    42  H   -0.000080   0.000016   0.000005   0.000000   0.000000   0.000015
    43  H   -0.000002  -0.000001   0.000001   0.000000   0.000000  -0.000002
    44  H    0.000004   0.000002   0.000003  -0.000025   0.000000   0.000017
              13         14         15         16         17         18
     1  C   -0.074274  -0.053862   0.004132   0.000296  -0.000001   0.000007
     2  C    0.007467   0.281001  -0.058871   0.001684  -0.000039  -0.000202
     3  C   -0.000128  -0.049727   0.219462  -0.046350   0.002561  -0.001334
     4  C    0.000093   0.006920  -0.029358  -0.010601  -0.000344  -0.000193
     5  C   -0.000064   0.000305   0.001790   0.001813  -0.000005   0.000006
     6  H   -0.006711  -0.000647  -0.000054  -0.000121   0.000000   0.000000
     7  H   -0.000260  -0.040492   0.003515  -0.000320  -0.000054   0.000038
     8  H    0.000010  -0.000055  -0.001130   0.000405  -0.000133   0.000064
     9  H   -0.000005  -0.000131  -0.001520  -0.004160   0.000028  -0.000174
    10  O   -0.003938   0.003529  -0.000021  -0.000171   0.000000   0.000000
    11  O   -0.000019   0.000004  -0.000022  -0.000345   0.000000   0.000000
    12  C    0.316058  -0.007698  -0.000085   0.000010   0.000000   0.000000
    13  C    5.341776  -0.000237   0.000001   0.000001   0.000000   0.000000
    14  C   -0.000237   5.430143  -0.008520   0.000240  -0.000005  -0.000006
    15  O    0.000001  -0.008520   8.248938   0.356617  -0.022553  -0.025170
    16  Si   0.000001   0.000240   0.356617  11.533333   0.333915   0.317422
    17  C    0.000000  -0.000005  -0.022553   0.333915   5.726126  -0.056349
    18  C    0.000000  -0.000006  -0.025170   0.317422  -0.056349   5.784778
    19  C    0.000000  -0.000001  -0.021798   0.319035  -0.050870  -0.058497
    20  H    0.000000  -0.000002  -0.002345  -0.026122  -0.000555   0.370566
    21  H    0.000000   0.000019  -0.001653  -0.030758   0.002749   0.368920
    22  H    0.000000  -0.000001   0.000872  -0.010131  -0.000626   0.364115
    23  H    0.000000   0.000000  -0.000965  -0.029254   0.002966  -0.001369
    24  H    0.000000   0.000003  -0.001870  -0.026210  -0.000278   0.002467
    25  H    0.000000   0.000000   0.000696  -0.009444  -0.000988  -0.000003
    26  H    0.000000   0.000004  -0.001350  -0.026904   0.369153   0.002553
    27  H    0.000000   0.000004  -0.001190  -0.026032   0.369611  -0.000993
    28  H    0.000000   0.000000   0.000945  -0.013179   0.364393   0.000580
    29  H    0.000154   0.389143  -0.000112   0.000012   0.000001  -0.000004
    30  H   -0.000166   0.386921   0.000065  -0.000188   0.000000   0.000005
    31  H    0.000017   0.385452   0.008821   0.001481   0.000052   0.000169
    32  H   -0.044709   0.000441  -0.000016  -0.000017   0.000000   0.000000
    33  H   -0.038762   0.002732  -0.000002  -0.000004   0.000000   0.000000
    34  H    0.393032  -0.000010   0.000000   0.000000   0.000000   0.000000
    35  H    0.385708  -0.000060   0.000000   0.000000   0.000000   0.000000
    36  H    0.385183  -0.000005   0.000000   0.000000   0.000000   0.000000
    37  C   -0.000024  -0.001839  -0.052940  -0.009914  -0.000115   0.001696
    38  C    0.000007  -0.017125   0.004450  -0.002130  -0.000039  -0.003278
    39  C   -0.000003  -0.004336   0.000438   0.000509   0.000000  -0.000152
    40  H   -0.000001  -0.000381  -0.003761   0.006477   0.000012   0.000713
    41  H   -0.000017   0.000364   0.003190   0.001402   0.000010   0.000037
    42  H    0.000000  -0.000219   0.002939  -0.000043  -0.000049  -0.001276
    43  H    0.000000   0.000080   0.000014   0.000015   0.000000   0.000016
    44  H   -0.000001   0.000096  -0.000002  -0.000008   0.000000  -0.000007
              19         20         21         22         23         24
     1  C    0.000010   0.000000   0.000004   0.000000   0.000009   0.000002
     2  C   -0.000314   0.000034  -0.000068   0.000003  -0.000095  -0.000112
     3  C   -0.001222   0.000246   0.000118  -0.000016   0.000865   0.000266
     4  C   -0.004979  -0.000020  -0.000065  -0.000008  -0.001571   0.000143
     5  C   -0.000310   0.000001   0.000006   0.000000  -0.000209  -0.000105
     6  H    0.000000   0.000000  -0.000001   0.000000  -0.000002   0.000000
     7  H   -0.000015   0.000004   0.000007   0.000000  -0.000004  -0.000016
     8  H    0.000191   0.000001   0.000015   0.000000  -0.000075   0.000814
     9  H   -0.004428  -0.000008  -0.000061  -0.000002   0.001391  -0.001861
    10  O   -0.000003   0.000000   0.000000   0.000000  -0.000003  -0.000001
    11  O   -0.000038   0.000000   0.000000   0.000000  -0.000090  -0.000010
    12  C    0.000000   0.000000   0.000000   0.000000   0.000000   0.000000
    13  C    0.000000   0.000000   0.000000   0.000000   0.000000   0.000000
    14  C   -0.000001  -0.000002   0.000019  -0.000001   0.000000   0.000003
    15  O   -0.021798  -0.002345  -0.001653   0.000872  -0.000965  -0.001870
    16  Si   0.319035  -0.026122  -0.030758  -0.010131  -0.029254  -0.026210
    17  C   -0.050870  -0.000555   0.002749  -0.000626   0.002966  -0.000278
    18  C   -0.058497   0.370566   0.368920   0.364115  -0.001369   0.002467
    19  C    5.801021   0.002477  -0.001500   0.000471   0.366319   0.368452
    20  H    0.002477   0.452478  -0.018904  -0.021477  -0.000008  -0.000099
    21  H   -0.001500  -0.018904   0.454767  -0.022045   0.000934  -0.000037
    22  H    0.000471  -0.021477  -0.022045   0.445644   0.000075  -0.000034
    23  H    0.366319  -0.000008   0.000934   0.000075   0.448404  -0.019140
    24  H    0.368452  -0.000099  -0.000037  -0.000034  -0.019140   0.446461
    25  H    0.366665  -0.000052   0.000028   0.000254  -0.019518  -0.019828
    26  H   -0.000457  -0.000087  -0.000117   0.000000  -0.000098   0.001201
    27  H    0.002682   0.001212  -0.000109  -0.000061  -0.000099  -0.000068
    28  H   -0.000176  -0.000056  -0.000067   0.000645  -0.000055  -0.000067
    29  H    0.000000  -0.000003  -0.000001   0.000000   0.000000   0.000000
    30  H    0.000001  -0.000003   0.000000   0.000000   0.000000   0.000000
    31  H    0.000033   0.000145  -0.000002  -0.000006   0.000003   0.000001
    32  H    0.000000   0.000000   0.000000   0.000000   0.000000   0.000000
    33  H    0.000000   0.000000   0.000000   0.000000   0.000000   0.000000
    34  H    0.000000   0.000000   0.000000   0.000000   0.000000   0.000000
    35  H    0.000000   0.000000   0.000000   0.000000   0.000000   0.000000
    36  H    0.000000   0.000000   0.000000   0.000000   0.000000   0.000000
    37  C   -0.001497   0.000169   0.001455  -0.000007   0.000299   0.000170
    38  C    0.000132  -0.000469   0.000268   0.000165   0.000040   0.000005
    39  C    0.000000  -0.000064   0.000336   0.000002  -0.000003   0.000001
    40  H    0.000721  -0.000035   0.001608   0.000023   0.003236  -0.000225
    41  H   -0.000034  -0.000018  -0.000015  -0.000001  -0.000051   0.000010
    42  H    0.000035   0.001263  -0.001741   0.000336   0.000016  -0.000002
    43  H    0.000000  -0.000010   0.000020  -0.000002   0.000000   0.000000
    44  H    0.000000   0.000000  -0.000015   0.000001   0.000000   0.000000
              25         26         27         28         29         30
     1  C    0.000000  -0.000001  -0.000001   0.000000  -0.006834  -0.004395
     2  C    0.000008   0.000014   0.000042   0.000001  -0.032291  -0.046766
     3  C   -0.000113   0.000010  -0.000137  -0.000073   0.006350  -0.004782
     4  C    0.000458   0.000021  -0.000017  -0.000002  -0.000345  -0.000118
     5  C   -0.000001  -0.000002   0.000000   0.000000  -0.000017   0.000000
     6  H    0.000000   0.000000   0.000000   0.000000  -0.000319   0.005027
     7  H    0.000000  -0.000023  -0.000018  -0.000001  -0.009814   0.007380
     8  H   -0.000021   0.000027  -0.000017   0.000001  -0.000029  -0.000020
     9  H    0.000478   0.000004  -0.000007  -0.000003   0.000016   0.000027
    10  O    0.000000   0.000000   0.000000   0.000000  -0.000023   0.000040
    11  O   -0.000001   0.000000   0.000000   0.000000   0.000000   0.000000
    12  C    0.000000   0.000000   0.000000   0.000000   0.001899  -0.001853
    13  C    0.000000   0.000000   0.000000   0.000000   0.000154  -0.000166
    14  C    0.000000   0.000004   0.000004   0.000000   0.389143   0.386921
    15  O    0.000696  -0.001350  -0.001190   0.000945  -0.000112   0.000065
    16  Si  -0.009444  -0.026904  -0.026032  -0.013179   0.000012  -0.000188
    17  C   -0.000988   0.369153   0.369611   0.364393   0.000001   0.000000
    18  C   -0.000003   0.002553  -0.000993   0.000580  -0.000004   0.000005
    19  C    0.366665  -0.000457   0.002682  -0.000176   0.000000   0.000001
    20  H   -0.000052  -0.000087   0.001212  -0.000056  -0.000003  -0.000003
    21  H    0.000028  -0.000117  -0.000109  -0.000067  -0.000001   0.000000
    22  H    0.000254   0.000000  -0.000061   0.000645   0.000000   0.000000
    23  H   -0.019518  -0.000098  -0.000099  -0.000055   0.000000   0.000000
    24  H   -0.019828   0.001201  -0.000068  -0.000067   0.000000   0.000000
    25  H    0.432030  -0.000039  -0.000055   0.000592   0.000000   0.000000
    26  H   -0.000039   0.458930  -0.018281  -0.020702   0.000001   0.000000
    27  H   -0.000055  -0.018281   0.457540  -0.020972   0.000003  -0.000002
    28  H    0.000592  -0.020702  -0.020972   0.454105   0.000000   0.000000
    29  H    0.000000   0.000001   0.000003   0.000000   0.468547  -0.028223
    30  H    0.000000   0.000000  -0.000002   0.000000  -0.028223   0.462414
    31  H    0.000000  -0.000007   0.000096  -0.000004  -0.026545  -0.023625
    32  H    0.000000   0.000000   0.000000   0.000000   0.000265   0.000198
    33  H    0.000000   0.000000   0.000000   0.000000  -0.001124   0.000557
    34  H    0.000000   0.000000   0.000000   0.000000   0.000007   0.000006
    35  H    0.000000   0.000000   0.000000   0.000000  -0.000027  -0.000003
    36  H    0.000000   0.000000   0.000000   0.000000   0.000024  -0.000002
    37  C    0.000058  -0.000017  -0.000020   0.000009  -0.000531   0.001715
    38  C   -0.000006   0.000002   0.000000  -0.000001   0.000712   0.001952
    39  C    0.000000   0.000000   0.000000   0.000000   0.000230   0.001449
    40  H    0.000058   0.000001   0.000006   0.000011   0.000022   0.000178
    41  H   -0.000004   0.000001   0.000000   0.000000   0.000004  -0.000290
    42  H    0.000001   0.000001  -0.000019   0.000001   0.000103  -0.000964
    43  H    0.000000   0.000000   0.000000   0.000000  -0.000007   0.000024
    44  H    0.000000   0.000000   0.000000   0.000000   0.000005  -0.000055
              31         32         33         34         35         36
     1  C    0.006151  -0.046352  -0.036295   0.008376  -0.011307  -0.004151
     2  C   -0.035707  -0.003667  -0.007948  -0.000236   0.000318   0.000030
     3  C   -0.007880  -0.000747  -0.000332   0.000014  -0.000083  -0.000001
     4  C    0.000457   0.000166   0.000100  -0.000001   0.000344  -0.000004
     5  C   -0.000082  -0.000087  -0.000014   0.000007   0.000680  -0.000109
     6  H   -0.000208   0.007972  -0.000049  -0.000303   0.000393   0.005074
     7  H   -0.001422   0.005628   0.000572  -0.000029   0.000058   0.000015
     8  H    0.000072  -0.000040  -0.000007   0.000000  -0.000009   0.000000
     9  H   -0.000050   0.000017  -0.000002   0.000000  -0.000009   0.000000
    10  O   -0.000106   0.002774   0.003163  -0.000123   0.012060  -0.000378
    11  O    0.000000  -0.000066   0.000006   0.000000   0.000195  -0.000002
    12  C    0.000143   0.388522   0.388995  -0.038739  -0.038646  -0.042593
    13  C    0.000017  -0.044709  -0.038762   0.393032   0.385708   0.385183
    14  C    0.385452   0.000441   0.002732  -0.000010  -0.000060  -0.000005
    15  O    0.008821  -0.000016  -0.000002   0.000000   0.000000   0.000000
    16  Si   0.001481  -0.000017  -0.000004   0.000000   0.000000   0.000000
    17  C    0.000052   0.000000   0.000000   0.000000   0.000000   0.000000
    18  C    0.000169   0.000000   0.000000   0.000000   0.000000   0.000000
    19  C    0.000033   0.000000   0.000000   0.000000   0.000000   0.000000
    20  H    0.000145   0.000000   0.000000   0.000000   0.000000   0.000000
    21  H   -0.000002   0.000000   0.000000   0.000000   0.000000   0.000000
    22  H   -0.000006   0.000000   0.000000   0.000000   0.000000   0.000000
    23  H    0.000003   0.000000   0.000000   0.000000   0.000000   0.000000
    24  H    0.000001   0.000000   0.000000   0.000000   0.000000   0.000000
    25  H    0.000000   0.000000   0.000000   0.000000   0.000000   0.000000
    26  H   -0.000007   0.000000   0.000000   0.000000   0.000000   0.000000
    27  H    0.000096   0.000000   0.000000   0.000000   0.000000   0.000000
    28  H   -0.000004   0.000000   0.000000   0.000000   0.000000   0.000000
    29  H   -0.026545   0.000265  -0.001124   0.000007  -0.000027   0.000024
    30  H   -0.023625   0.000198   0.000557   0.000006  -0.000003  -0.000002
    31  H    0.431027  -0.000152   0.000463  -0.000002   0.000005  -0.000004
    32  H   -0.000152   0.486909  -0.024792  -0.004704  -0.004867   0.007425
    33  H    0.000463  -0.024792   0.467293  -0.005535   0.007198  -0.004433
    34  H   -0.000002  -0.004704  -0.005535   0.474240  -0.026632  -0.027187
    35  H    0.000005  -0.004867   0.007198  -0.026632   0.463920  -0.027073
    36  H   -0.000004   0.007425  -0.004433  -0.027187  -0.027073   0.487142
    37  C    0.000712   0.000025   0.000024   0.000000   0.000001  -0.000011
    38  C   -0.000057  -0.000015  -0.000006   0.000000  -0.000001  -0.000004
    39  C    0.000143  -0.000002   0.000010   0.000000   0.000000  -0.000006
    40  H   -0.000088   0.000002   0.000001   0.000000   0.000000   0.000000
    41  H   -0.000054  -0.000017  -0.000018   0.000001  -0.000001  -0.000005
    42  H    0.000375   0.000000   0.000000   0.000000   0.000000   0.000000
    43  H   -0.000003   0.000000   0.000001   0.000000   0.000000  -0.000001
    44  H   -0.000012   0.000001   0.000003   0.000000  -0.000001   0.000015
              37         38         39         40         41         42
     1  C    0.002688  -0.002754  -0.001020  -0.000314   0.000120   0.000094
     2  C   -0.086105  -0.005316   0.001961   0.006217  -0.002751  -0.000719
     3  C    0.283680  -0.055231  -0.000440  -0.041976  -0.019916  -0.000701
     4  C   -0.106941   0.007795  -0.000044  -0.003076  -0.006944  -0.000126
     5  C    0.003490  -0.000465  -0.000041  -0.000307   0.004251  -0.000004
     6  H    0.005828   0.000861   0.002759   0.000557  -0.002976  -0.000034
     7  H    0.009176  -0.000523  -0.000080  -0.000055  -0.000396  -0.000080
     8  H    0.006581  -0.000215   0.000001  -0.000169   0.000251   0.000016
     9  H   -0.006826   0.000084  -0.000006   0.002875  -0.000158   0.000005
    10  O   -0.004565   0.000314  -0.000005  -0.000096   0.001739   0.000000
    11  O    0.000103  -0.000002   0.000000   0.000016  -0.000021   0.000000
    12  C   -0.000766   0.000026   0.000051   0.000005   0.000497   0.000015
    13  C   -0.000024   0.000007  -0.000003  -0.000001  -0.000017   0.000000
    14  C   -0.001839  -0.017125  -0.004336  -0.000381   0.000364  -0.000219
    15  O   -0.052940   0.004450   0.000438  -0.003761   0.003190   0.002939
    16  Si  -0.009914  -0.002130   0.000509   0.006477   0.001402  -0.000043
    17  C   -0.000115  -0.000039   0.000000   0.000012   0.000010  -0.000049
    18  C    0.001696  -0.003278  -0.000152   0.000713   0.000037  -0.001276
    19  C   -0.001497   0.000132   0.000000   0.000721  -0.000034   0.000035
    20  H    0.000169  -0.000469  -0.000064  -0.000035  -0.000018   0.001263
    21  H    0.001455   0.000268   0.000336   0.001608  -0.000015  -0.001741
    22  H   -0.000007   0.000165   0.000002   0.000023  -0.000001   0.000336
    23  H    0.000299   0.000040  -0.000003   0.003236  -0.000051   0.000016
    24  H    0.000170   0.000005   0.000001  -0.000225   0.000010  -0.000002
    25  H    0.000058  -0.000006   0.000000   0.000058  -0.000004   0.000001
    26  H   -0.000017   0.000002   0.000000   0.000001   0.000001   0.000001
    27  H   -0.000020   0.000000   0.000000   0.000006   0.000000  -0.000019
    28  H    0.000009  -0.000001   0.000000   0.000011   0.000000   0.000001
    29  H   -0.000531   0.000712   0.000230   0.000022   0.000004   0.000103
    30  H    0.001715   0.001952   0.001449   0.000178  -0.000290  -0.000964
    31  H    0.000712  -0.000057   0.000143  -0.000088  -0.000054   0.000375
    32  H    0.000025  -0.000015  -0.000002   0.000002  -0.000017   0.000000
    33  H    0.000024  -0.000006   0.000010   0.000001  -0.000018   0.000000
    34  H    0.000000   0.000000   0.000000   0.000000   0.000001   0.000000
    35  H    0.000001  -0.000001   0.000000   0.000000  -0.000001   0.000000
    36  H   -0.000011  -0.000004  -0.000006   0.000000  -0.000005   0.000000
    37  C    5.514200   0.313243  -0.059325   0.389478   0.382464  -0.048570
    38  C    0.313243   5.074874   0.625877  -0.042068  -0.045828   0.396222
    39  C   -0.059325   0.625877   5.144497  -0.003360   0.002520  -0.037119
    40  H    0.389478  -0.042068  -0.003360   0.448931  -0.025790  -0.001185
    41  H    0.382464  -0.045828   0.002520  -0.025790   0.442613   0.004523
    42  H   -0.048570   0.396222  -0.037119  -0.001185   0.004523   0.452895
    43  H    0.006423  -0.039186   0.393206  -0.000387   0.000134  -0.007753
    44  H   -0.009097  -0.041753   0.389544   0.000175   0.004743   0.005896
              43         44
     1  C    0.000030   0.000161
     2  C   -0.000028  -0.000124
     3  C   -0.000267   0.000197
     4  C    0.000015  -0.000049
     5  C    0.000000  -0.000018
     6  H    0.000031   0.000632
     7  H   -0.000002   0.000004
     8  H   -0.000001   0.000002
     9  H    0.000001   0.000003
    10  O    0.000000  -0.000025
    11  O    0.000000   0.000000
    12  C   -0.000002   0.000017
    13  C    0.000000  -0.000001
    14  C    0.000080   0.000096
    15  O    0.000014  -0.000002
    16  Si   0.000015  -0.000008
    17  C    0.000000   0.000000
    18  C    0.000016  -0.000007
    19  C    0.000000   0.000000
    20  H   -0.000010   0.000000
    21  H    0.000020  -0.000015
    22  H   -0.000002   0.000001
    23  H    0.000000   0.000000
    24  H    0.000000   0.000000
    25  H    0.000000   0.000000
    26  H    0.000000   0.000000
    27  H    0.000000   0.000000
    28  H    0.000000   0.000000
    29  H   -0.000007   0.000005
    30  H    0.000024  -0.000055
    31  H   -0.000003  -0.000012
    32  H    0.000000   0.000001
    33  H    0.000001   0.000003
    34  H    0.000000   0.000000
    35  H    0.000000  -0.000001
    36  H   -0.000001   0.000015
    37  C    0.006423  -0.009097
    38  C   -0.039186  -0.041753
    39  C    0.393206   0.389544
    40  H   -0.000387   0.000175
    41  H    0.000134   0.004743
    42  H   -0.007753   0.005896
    43  H    0.453099  -0.032715
    44  H   -0.032715   0.458509
 Mulliken charges:
               1
     1  C   -0.032117
     2  C   -0.273368
     3  C    0.168904
     4  C   -0.613795
     5  C    0.482357
     6  H    0.250809
     7  H    0.248326
     8  H    0.291752
     9  H    0.277136
    10  O   -0.318932
    11  O   -0.390284
    12  C   -0.452252
    13  C   -0.660186
    14  C   -0.702040
    15  O   -0.621577
    16  Si   1.397740
    17  C   -1.038573
    18  C   -1.065147
    19  C   -1.082107
    20  H    0.241738
    21  H    0.245904
    22  H    0.241813
    23  H    0.248051
    24  H    0.249967
    25  H    0.248747
    26  H    0.236162
    27  H    0.236901
    28  H    0.234073
    29  H    0.238750
    30  H    0.243497
    31  H    0.260197
    32  H    0.229908
    33  H    0.248207
    34  H    0.227818
    35  H    0.237839
    36  H    0.221058
    37  C   -0.534580
    38  C   -0.170559
    39  C   -0.457526
    40  H    0.261953
    41  H    0.256430
    42  H    0.235872
    43  H    0.227255
    44  H    0.223879
 Sum of Mulliken charges =   0.00000
 Mulliken charges with hydrogens summed into heavy atoms:
               1
     1  C    0.218691
     2  C   -0.025042
     3  C    0.168904
     4  C   -0.044908
     5  C    0.482357
    10  O   -0.318932
    11  O   -0.390284
    12  C    0.025863
    13  C    0.026529
    14  C    0.040405
    15  O   -0.621577
    16  Si   1.397740
    17  C   -0.331437
    18  C   -0.335692
    19  C   -0.335342
    37  C   -0.016197
    38  C    0.065313
    39  C   -0.006392
 Electronic spatial extent (au):  <R**2>=           5672.5219
 Charge=              0.0000 electrons
 Dipole moment (field-independent basis, Debye):
    X=             -1.9681    Y=              3.8456    Z=              1.7181  Tot=              4.6490
 Quadrupole moment (field-independent basis, Debye-Ang):
   XX=           -118.3499   YY=           -129.4565   ZZ=           -121.6001
   XY=             12.6186   XZ=              7.2595   YZ=             -7.5752
 Traceless Quadrupole moment (field-independent basis, Debye-Ang):
   XX=              4.7856   YY=             -6.3210   ZZ=              1.5354
   XY=             12.6186   XZ=              7.2595   YZ=             -7.5752
 Octapole moment (field-independent basis, Debye-Ang**2):
  XXX=            -13.8060  YYY=             37.0013  ZZZ=              3.9136  XYY=            -21.1379
  XXY=             17.7964  XXZ=             13.3578  XZZ=             12.7544  YZZ=              5.2801
  YYZ=             28.3221  XYZ=            -19.9584
 Hexadecapole moment (field-independent basis, Debye-Ang**3):
 XXXX=          -4829.3537 YYYY=          -1790.5953 ZZZZ=          -1106.4683 XXXY=             65.0716
 XXXZ=             68.4915 YYYX=             59.4317 YYYZ=            -81.0427 ZZZX=             10.7852
 ZZZY=             14.9460 XXYY=          -1167.9745 XXZZ=          -1017.2139 YYZZ=           -503.2123
 XXYZ=            -10.4654 YYXZ=             17.1799 ZZXY=             23.1322
 N-N= 1.622205198544D+03 E-N=-5.739365221725D+03  KE= 1.060532524083D+03
 1\1\GINC-SWANNODE-0-9\SP\RmPW1PW91\6-311G(d)\C14H26O3Si1\ROOT\08-Mar-2
 018\0\\#mPW1PW91/6-311g(d) nmr=(giao) scrf=(solvent=chloroform)\\P_ng_
 correct1ginp007\\0,1\C,0,1.07107,-0.166402,0.792686\C,0,-0.426444,-0.3
 72786,0.538316\C,0,-1.23997,0.855645,1.05958\C,0,-0.727081,2.048361,0.
 23804\C,0,0.763422,2.220016,0.230785\H,0,1.282844,-0.209232,1.867467\H
 ,0,-0.583026,-0.395519,-0.55208\H,0,-1.056253,1.97118,-0.805829\H,0,-1
 .141811,2.980579,0.633437\O,0,1.534009,1.122957,0.333662\O,0,1.269049,
 3.325661,0.055903\C,0,1.945899,-1.228104,0.101137\C,0,3.433466,-1.0297
 25,0.37118\C,0,-0.92015,-1.741305,1.031913\O,0,-2.607633,0.557995,0.69
 8104\Si,0,-3.998836,1.454743,0.938087\C,0,-5.285713,0.903603,-0.339512
 \C,0,-4.746484,1.132003,2.635127\C,0,-3.792149,3.306034,0.736236\H,0,-
 4.865467,0.057927,2.804454\H,0,-4.114209,1.541759,3.427207\H,0,-5.7315
 94,1.6019,2.712508\H,0,-3.149121,3.71995,1.51794\H,0,-3.361631,3.54890
 5,-0.239496\H,0,-4.763258,3.80592,0.807257\H,0,-4.917908,1.091978,-1.3
 52223\H,0,-5.488598,-0.166137,-0.235364\H,0,-6.2216,1.452159,-0.199713
 \H,0,-0.581095,-2.533568,0.355161\H,0,-0.533663,-1.985488,2.024635\H,0
 ,-2.011841,-1.804393,1.057626\H,0,1.787429,-1.186713,-0.983296\H,0,1.6
 71117,-2.232396,0.43913\H,0,4.010709,-1.832068,-0.099437\H,0,3.792371,
 -0.07897,-0.034748\H,0,3.641446,-1.047669,1.445694\C,0,-1.058906,1.167
 939,2.583071\C,0,-1.390252,0.061215,3.546018\C,0,-0.577029,-0.345943,4
 .529456\H,0,-1.696508,2.018467,2.85338\H,0,-0.033092,1.509574,2.770285
 \H,0,-2.357456,-0.424496,3.435024\H,0,-0.876142,-1.147446,5.198912\H,0
 ,0.395493,0.106634,4.697555\\Version=EM64L-G09RevD.01\State=1-A\HF=-10
 64.3758506\RMSD=3.857e-09\Dipole=-1.1139108,-1.3333983,0.5716252\Quadr
 upole=-2.0358859,-1.7198896,3.7557755,-11.8749137,3.0297227,2.4681441\
 PG=C01 [X(C14H26O3Si1)]\\@


 THERE'S NOTHING WRONG WITH FOLLOWING A TRAIN OF THOUGHT...
 AS LONG AS IT ULTIMATELY PULLS INTO THE STATION.
 Job cpu time:       0 days  1 hours 17 minutes 55.1 seconds.
 File lengths (MBytes):  RWF=    233 Int=      0 D2E=      0 Chk=     11 Scr=      1
 Normal termination of Gaussian 09 at Thu Mar  8 13:18:43 2018.
