 Entering Gaussian System, Link 0=/usr/local/shared/gaussian/em64t/09-D01/g09/g09
 Initial command:
 /usr/local/shared/gaussian/em64t/09-D01/g09/l1.exe "/scratch/ah809/P_ng_correct1ginp015/Gau-32647.inp" -scrdir="/scratch/ah809/P_ng_correct1ginp015/"
 Entering Link 1 = /usr/local/shared/gaussian/em64t/09-D01/g09/l1.exe PID=     32673.
  
 Copyright (c) 1988,1990,1992,1993,1995,1998,2003,2009,2013,
            Gaussian, Inc.  All Rights Reserved.
  
 This is part of the Gaussian(R) 09 program.  It is based on
 the Gaussian(R) 03 system (copyright 2003, Gaussian, Inc.),
 the Gaussian(R) 98 system (copyright 1998, Gaussian, Inc.),
 the Gaussian(R) 94 system (copyright 1995, Gaussian, Inc.),
 the Gaussian 92(TM) system (copyright 1992, Gaussian, Inc.),
 the Gaussian 90(TM) system (copyright 1990, Gaussian, Inc.),
 the Gaussian 88(TM) system (copyright 1988, Gaussian, Inc.),
 the Gaussian 86(TM) system (copyright 1986, Carnegie Mellon
 University), and the Gaussian 82(TM) system (copyright 1983,
 Carnegie Mellon University). Gaussian is a federally registered
 trademark of Gaussian, Inc.
  
 This software contains proprietary and confidential information,
 including trade secrets, belonging to Gaussian, Inc.
  
 This software is provided under written license and may be
 used, copied, transmitted, or stored only in accord with that
 written license.
  
 The following legend is applicable only to US Government
 contracts under FAR:
  
                    RESTRICTED RIGHTS LEGEND
  
 Use, reproduction and disclosure by the US Government is
 subject to restrictions as set forth in subparagraphs (a)
 and (c) of the Commercial Computer Software - Restricted
 Rights clause in FAR 52.227-19.
  
 Gaussian, Inc.
 340 Quinnipiac St., Bldg. 40, Wallingford CT 06492
  
  
 ---------------------------------------------------------------
 Warning -- This program may not be used in any manner that
 competes with the business of Gaussian, Inc. or will provide
 assistance to any competitor of Gaussian, Inc.  The licensee
 of this program is prohibited from giving any competitor of
 Gaussian, Inc. access to this program.  By using this program,
 the user acknowledges that Gaussian, Inc. is engaged in the
 business of creating and licensing software in the field of
 computational chemistry and represents and warrants to the
 licensee that it is not a competitor of Gaussian, Inc. and that
 it will not use this program in any manner prohibited above.
 ---------------------------------------------------------------
  

 Cite this work as:
 Gaussian 09, Revision D.01,
 M. J. Frisch, G. W. Trucks, H. B. Schlegel, G. E. Scuseria, 
 M. A. Robb, J. R. Cheeseman, G. Scalmani, V. Barone, B. Mennucci, 
 G. A. Petersson, H. Nakatsuji, M. Caricato, X. Li, H. P. Hratchian, 
 A. F. Izmaylov, J. Bloino, G. Zheng, J. L. Sonnenberg, M. Hada, 
 M. Ehara, K. Toyota, R. Fukuda, J. Hasegawa, M. Ishida, T. Nakajima, 
 Y. Honda, O. Kitao, H. Nakai, T. Vreven, J. A. Montgomery, Jr., 
 J. E. Peralta, F. Ogliaro, M. Bearpark, J. J. Heyd, E. Brothers, 
 K. N. Kudin, V. N. Staroverov, T. Keith, R. Kobayashi, J. Normand, 
 K. Raghavachari, A. Rendell, J. C. Burant, S. S. Iyengar, J. Tomasi, 
 M. Cossi, N. Rega, J. M. Millam, M. Klene, J. E. Knox, J. B. Cross, 
 V. Bakken, C. Adamo, J. Jaramillo, R. Gomperts, R. E. Stratmann, 
 O. Yazyev, A. J. Austin, R. Cammi, C. Pomelli, J. W. Ochterski, 
 R. L. Martin, K. Morokuma, V. G. Zakrzewski, G. A. Voth, 
 P. Salvador, J. J. Dannenberg, S. Dapprich, A. D. Daniels, 
 O. Farkas, J. B. Foresman, J. V. Ortiz, J. Cioslowski, 
 and D. J. Fox, Gaussian, Inc., Wallingford CT, 2013.
 
 ******************************************
 Gaussian 09:  EM64L-G09RevD.01 24-Apr-2013
                 8-Mar-2018 
 ******************************************
 %mem=6000MB
 %chk=P_ng_correct1ginp015.chk
 --------------------------------------------------------
 #mPW1PW91/6-311g(d) nmr=(giao) scrf=(solvent=chloroform)
 --------------------------------------------------------
 1/38=1/1;
 2/12=2,17=6,18=5,40=1/2;
 3/5=4,6=6,7=1,11=2,16=1,25=1,30=1,70=2201,72=7,74=-7/1,2,8,3;
 4//1;
 5/5=2,38=5,53=7/2;
 8/6=1,10=90,11=11/1;
 10/13=100,45=16/2;
 6/7=2,8=2,9=2,10=2,28=1/1;
 99/9=1/99;
 --------------------
 P_ng_correct1ginp015
 --------------------
 Symbolic Z-matrix:
 Charge =  0 Multiplicity = 1
 C                     1.04561  -0.39813   0.53413 
 C                    -0.48682  -0.47118   0.66341 
 C                    -1.01307   0.66675   1.58764 
 C                    -0.52315   1.98832   0.98941 
 C                     0.96681   2.03814   0.84959 
 H                     1.50547  -0.75075   1.46554 
 H                    -0.92352  -0.29381  -0.32536 
 H                    -0.92569   2.15676  -0.01541 
 H                    -0.85141   2.84204   1.59203 
 O                     1.55559   0.93973   0.33145 
 O                     1.60567   3.06081   1.07172 
 C                     1.63891  -1.27382  -0.58582 
 C                     1.16706  -0.90864  -1.98774 
 C                    -0.94852  -1.87262   1.08765 
 O                    -2.4477    0.54994   1.70815 
 Si                   -3.65291   1.16081   0.72748 
 C                    -3.4178    0.71671  -1.0807 
 C                    -5.30538   0.41573   1.271 
 C                    -3.80981   3.02589   0.88673 
 H                    -5.27922  -0.67375   1.1772 
 H                    -5.5114    0.67018   2.31467 
 H                    -6.12054   0.7997    0.65094 
 H                    -3.87049   3.31689   1.93955 
 H                    -2.95551   3.53797   0.43643 
 H                    -4.71513   3.37699   0.3823 
 H                    -2.52198   1.18795  -1.49373 
 H                    -3.32526  -0.36656  -1.20256 
 H                    -4.27619   1.0523   -1.67056 
 H                    -0.7206   -2.60965   0.31109 
 H                    -0.45473  -2.19886   2.00832 
 H                    -2.02988  -1.9109    1.24959 
 H                     1.43116  -2.33232  -0.39727 
 H                     2.73068  -1.16059  -0.56889 
 H                     1.71844  -1.49453  -2.7305 
 H                     0.10401  -1.12703  -2.12307 
 H                     1.33494   0.15067  -2.20437 
 C                    -0.49496   0.49286   3.05947 
 C                    -0.85463   1.61832   4.00086 
 C                    -1.77865   1.5223    4.96536 
 H                     0.59536   0.39649   3.08995 
 H                    -0.89837  -0.44105   3.47226 
 H                    -0.30415   2.55181   3.8975 
 H                    -1.98717   2.36149   5.62179 
 H                    -2.35366   0.61344   5.11462 
 
                          Input orientation:                          
 ---------------------------------------------------------------------
 Center     Atomic      Atomic             Coordinates (Angstroms)
 Number     Number       Type             X           Y           Z
 ---------------------------------------------------------------------
      1          6           0        1.045613   -0.398130    0.534134
      2          6           0       -0.486818   -0.471176    0.663406
      3          6           0       -1.013075    0.666749    1.587643
      4          6           0       -0.523151    1.988319    0.989406
      5          6           0        0.966813    2.038135    0.849589
      6          1           0        1.505474   -0.750746    1.465543
      7          1           0       -0.923515   -0.293806   -0.325360
      8          1           0       -0.925685    2.156762   -0.015412
      9          1           0       -0.851408    2.842044    1.592027
     10          8           0        1.555586    0.939727    0.331448
     11          8           0        1.605665    3.060809    1.071721
     12          6           0        1.638905   -1.273815   -0.585815
     13          6           0        1.167064   -0.908641   -1.987736
     14          6           0       -0.948516   -1.872617    1.087646
     15          8           0       -2.447698    0.549939    1.708149
     16         14           0       -3.652907    1.160809    0.727483
     17          6           0       -3.417801    0.716711   -1.080701
     18          6           0       -5.305381    0.415731    1.271001
     19          6           0       -3.809805    3.025890    0.886725
     20          1           0       -5.279217   -0.673753    1.177201
     21          1           0       -5.511403    0.670183    2.314671
     22          1           0       -6.120535    0.799698    0.650937
     23          1           0       -3.870487    3.316893    1.939553
     24          1           0       -2.955507    3.537966    0.436432
     25          1           0       -4.715127    3.376988    0.382297
     26          1           0       -2.521981    1.187950   -1.493732
     27          1           0       -3.325256   -0.366557   -1.202555
     28          1           0       -4.276186    1.052301   -1.670562
     29          1           0       -0.720596   -2.609646    0.311085
     30          1           0       -0.454725   -2.198861    2.008317
     31          1           0       -2.029875   -1.910902    1.249590
     32          1           0        1.431161   -2.332320   -0.397273
     33          1           0        2.730678   -1.160593   -0.568888
     34          1           0        1.718436   -1.494532   -2.730501
     35          1           0        0.104013   -1.127030   -2.123074
     36          1           0        1.334936    0.150673   -2.204370
     37          6           0       -0.494956    0.492858    3.059475
     38          6           0       -0.854626    1.618315    4.000859
     39          6           0       -1.778645    1.522296    4.965357
     40          1           0        0.595364    0.396494    3.089952
     41          1           0       -0.898367   -0.441046    3.472255
     42          1           0       -0.304152    2.551811    3.897499
     43          1           0       -1.987169    2.361487    5.621789
     44          1           0       -2.353656    0.613435    5.114622
 ---------------------------------------------------------------------
                    Distance matrix (angstroms):
                    1          2          3          4          5
     1  C    0.000000
     2  C    1.539608   0.000000
     3  C    2.545986   1.557573   0.000000
     4  C    2.891960   2.481272   1.531163   0.000000
     5  C    2.457867   2.905916   2.519004   1.497339   0.000000
     6  H    1.096965   2.165828   2.892627   3.441584   2.906443
     7  H    2.151065   1.095364   2.142491   2.664019   3.223631
     8  H    3.273452   2.749447   2.190334   1.095475   2.084190
     9  H    3.900840   3.460157   2.181299   1.095332   2.122124
    10  O    1.446034   2.504448   2.872379   2.419422   1.349675
    11  O    3.544985   4.125545   3.585456   2.385135   1.226106
    12  C    1.540489   2.592968   3.939887   4.218688   3.671662
    13  C    2.575888   3.155195   4.474170   4.484705   4.095608
    14  C    2.541070   1.535312   2.588927   3.885539   4.361094
    15  O    3.805308   2.445243   1.444406   2.507870   3.822400
    16  Si   4.954166   3.562527   2.820050   3.247884   4.703873
    17  C    4.875718   3.611599   3.592390   3.779065   4.969610
    18  C    6.445189   4.937036   4.311283   5.042029   6.492319
    19  C    5.951749   4.829243   3.725390   3.448071   4.877819
    20  H    6.363409   4.824118   4.490587   5.453628   6.817225
    21  H    6.877940   5.410714   4.556702   5.326957   6.781227
    22  H    7.266506   5.775296   5.194347   5.732198   7.197478
    23  H    6.320177   5.237102   3.913043   3.724587   5.120812
    24  H    5.613498   4.713721   3.652700   2.936587   4.219572
    25  H    6.889172   5.724158   4.743779   4.457538   5.856222
    26  H    4.399502   3.398210   3.470349   3.286622   4.287849
    27  H    4.703359   3.398453   3.768170   4.266372   5.330637
    28  H    5.940200   4.704009   4.627358   4.694340   5.900175
    29  H    2.839022   2.179871   3.528443   4.651923   4.973852
    30  H    2.768910   2.189683   2.949651   4.309912   4.616877
    31  H    3.501283   2.190308   2.791495   4.188298   4.973433
    32  H    2.181114   2.875333   4.348402   4.940661   4.568497
    33  H    2.153474   3.513705   4.691001   4.788667   3.918566
    34  H    3.508936   4.174806   5.547851   5.567106   5.085442
    35  H    2.911814   2.922960   4.270240   4.448176   4.427123
    36  H    2.807899   3.453929   4.489861   4.126698   3.608974
    37  C    3.089427   2.582746   1.570024   2.553896   3.067286
    38  C    4.437921   3.954725   2.598883   3.052151   3.663931
    39  C    5.594659   4.914217   3.567494   4.195430   4.974251
    40  H    2.714103   2.795012   2.217441   2.863089   2.802175
    41  H    3.523273   2.838999   2.189093   3.493872   4.062464
    42  H    4.672926   4.430708   3.064550   2.970267   3.342001
    43  H    6.534331   5.904286   4.482781   4.872533   5.621784
    44  H    5.793027   4.947200   3.773537   4.717887   5.589793
                    6          7          8          9         10
     6  H    0.000000
     7  H    3.052231   0.000000
     8  H    4.069074   2.470092   0.000000
     9  H    4.298724   3.676293   1.748996   0.000000
    10  O    2.036267   2.845864   2.785353   3.316849   0.000000
    11  O    3.833156   4.427418   2.899464   2.521068   2.247109
    12  C    2.121197   2.755767   4.321035   5.280620   2.397516
    13  C    3.473412   2.740809   4.203136   5.563863   2.990991
    14  C    2.724604   2.118928   4.177697   4.742558   3.840787
    15  O    4.168718   2.677723   2.805186   2.795599   4.251297
    16  Si   5.550466   3.267103   2.996924   3.379702   5.228204
    17  C    5.733710   2.795201   3.069076   4.271638   5.174793
    18  C    6.912761   4.717262   4.885467   5.082118   6.944797
    19  C    6.546006   4.562916   3.144421   3.046861   5.783410
    20  H    6.791252   4.623223   5.327981   5.669074   7.073411
    21  H    7.209481   5.380312   5.354252   5.191796   7.344941
    22  H    7.824543   5.399808   5.410371   5.728920   7.684043
    23  H    6.758057   5.181855   3.720168   3.075889   6.138338
    24  H    6.273155   4.403612   2.496410   2.499388   5.206902
    25  H    7.543705   5.324644   4.000874   4.083863   6.727902
    26  H    5.360620   2.473012   2.381635   3.879272   4.474310
    27  H    5.531935   2.557953   3.678911   4.921863   5.280356
    28  H    6.820097   3.855123   3.896821   5.057348   6.166870
    29  H    3.121485   2.410260   4.781977   5.601683   4.216571
    30  H    2.496802   3.048778   4.825840   5.073596   4.087050
    31  H    3.727102   2.513861   4.400609   4.908823   4.671681
    32  H    2.444787   3.115319   5.084525   5.995121   3.354520
    33  H    2.409981   3.763476   4.967914   5.789818   2.569590
    34  H    4.266773   3.769131   5.262607   6.640349   3.915057
    35  H    3.870898   2.232006   4.035568   5.519815   3.521822
    36  H    3.782843   2.971337   3.731801   5.141615   2.664895
    37  C    2.844097   3.501373   3.522646   2.792693   3.441881
    38  C    4.196469   4.730446   4.052827   2.701850   4.442317
    39  C    5.310448   5.658724   5.092951   3.739099   5.738431
    40  H    2.187045   3.801035   3.880131   3.212109   2.970938
    41  H    3.146627   3.800552   4.348928   3.783668   4.218185
    42  H    4.482861   5.129687   3.981613   2.387242   4.332916
    43  H    6.257710   6.599282   5.739921   4.214246   6.523820
    44  H    5.483580   5.697525   5.544205   4.430815   6.186064
                   11         12         13         14         15
    11  O    0.000000
    12  C    4.640851   0.000000
    13  C    5.030823   1.523604   0.000000
    14  C    5.555429   3.139074   3.855244   0.000000
    15  O    4.810329   5.028785   5.371548   2.915707   0.000000
    16  Si   5.601882   5.971216   5.906535   4.079843   1.669550
    17  C    5.946674   5.456866   4.948279   4.183744   2.957465
    18  C    7.402615   7.384134   7.366537   4.924675   2.894039
    19  C    5.418741   7.095370   6.965076   5.676506   2.942857
    20  H    7.833242   7.164406   7.185161   4.494471   3.129988
    21  H    7.610038   7.957314   8.099711   5.365758   3.125479
    22  H    8.061256   8.126372   7.936631   5.837959   3.830119
    23  H    5.550401   7.602992   7.658698   6.016201   3.119922
    24  H    4.629855   6.731036   6.530275   5.807452   3.286859
    25  H    6.366136   7.933532   7.654008   6.499479   3.858928
    26  H    5.208321   4.919103   4.271860   4.301904   3.265673
    27  H    6.421304   5.083933   4.592527   3.627965   3.175259
    28  H    6.793408   6.447929   5.794382   5.218836   3.874458
    29  H    6.176092   2.855892   3.426552   1.094626   3.862337
    30  H    5.725954   3.459555   4.501478   1.094486   3.408510
    31  H    6.161712   4.151450   4.658887   1.094088   2.537832
    32  H    5.592337   1.095052   2.150856   2.842389   5.271221
    33  H    4.666636   1.097759   2.126381   4.097261   5.909856
    34  H    5.934706   2.157480   1.094979   4.672668   6.421694
    35  H    5.477195   2.177293   1.093658   3.460121   4.899155
    36  H    4.390325   2.177449   1.094193   4.488343   5.456697
    37  C    3.867576   4.578497   5.495530   3.112764   2.375403
    38  C    4.088236   5.968223   6.807056   4.547772   2.989285
    39  C    5.383398   7.093194   7.932979   5.220267   3.464464
    40  H    3.491782   4.170153   5.273816   3.397302   3.345617
    41  H    4.929070   4.857899   5.856292   2.781775   2.548440
    42  H    3.448406   6.205722   6.983924   5.280724   3.659991
    43  H    5.839574   8.055941   8.862719   6.290063   4.337092
    44  H    6.165299   7.210911   8.071906   4.936741   3.408362
                   16         17         18         19         20
    16  Si   0.000000
    17  C    1.876706   0.000000
    18  C    1.892412   3.030520   0.000000
    19  C    1.878431   3.058879   3.032713   0.000000
    20  H    2.492539   3.239812   1.093827   3.991354   0.000000
    21  H    2.492767   3.989221   1.093818   3.237873   1.775926
    22  H    2.495085   3.210954   1.093794   3.217297   1.776465
    23  H    2.482973   4.010961   3.304939   1.093989   4.300111
    24  H    2.494384   3.236493   3.995843   1.093074   4.866923
    25  H    2.481716   3.301589   3.147576   1.094224   4.166362
    26  H    2.492695   1.093231   3.998423   3.271558   4.266400
    27  H    2.482992   1.094021   3.263640   4.013549   3.094442
    28  H    2.480095   1.094249   3.180764   3.263783   3.477799
    29  H    4.794598   4.502958   5.576253   6.452429   5.027809
    30  H    4.812098   5.179036   5.559549   6.309719   5.127615
    31  H    3.513152   3.776367   4.017788   5.260393   3.477643
    32  H    6.270149   5.768544   7.464310   7.604393   7.089357
    33  H    6.915175   6.449032   8.393345   7.900846   8.212445
    34  H    6.918079   5.830297   8.306331   8.004998   8.056734
    35  H    5.241596   4.109635   6.569734   6.451636   6.330596
    36  H    5.873220   4.916456   7.499485   6.655081   7.474070
    37  C    3.982085   5.072888   5.132716   4.703756   5.271915
    38  C    4.330667   5.762379   5.357943   4.517984   5.727445
    39  C    4.647914   6.315902   5.225956   4.798088   5.605958
    40  H    4.920695   5.796756   6.174767   5.583319   6.270147
    41  H    4.205616   5.330793   5.000136   5.213548   4.951088
    42  H    4.816435   6.151819   6.039339   4.645332   6.523462
    43  H    5.307593   7.048075   5.807396   5.117056   6.309091
    44  H    4.608108   6.286899   4.850277   5.080888   5.071395
                   21         22         23         24         25
    21  H    0.000000
    22  H    1.776465   0.000000
    23  H    3.136621   3.613795   0.000000
    24  H    4.276046   4.190647   1.773537   0.000000
    25  H    3.419783   2.947840   1.772590   1.767797   0.000000
    26  H    4.869154   4.207129   4.258910   3.071816   3.622328
    27  H    4.269069   3.550939   4.872158   4.250681   4.296234
    28  H    4.189732   2.975700   4.280876   3.515985   3.132263
    29  H    6.141943   6.395191   6.906344   6.542452   7.197301
    30  H    5.821963   6.552499   6.488120   6.452590   7.203128
    31  H    4.462895   4.943606   5.585136   5.586428   5.993710
    32  H    8.035475   8.242354   8.092085   7.375512   8.425009
    33  H    8.921802   9.147387   8.361551   7.444449   8.771226
    34  H    9.078013   8.840084   8.728991   7.563150   8.649390
    35  H    7.379462   7.081837   7.214571   6.137909   7.056003
    36  H    8.219731   8.009873   7.368411   6.070872   7.328248
    37  C    5.074536   6.127181   4.541322   4.712467   5.770211
    38  C    5.042594   6.294594   4.028594   4.561129   5.575876
    39  C    4.656792   6.163471   4.092905   5.095007   5.750413
    40  H    6.161864   7.156442   5.458569   5.433111   6.664537
    41  H    4.884151   6.063854   5.030385   5.411154   6.220360
    42  H    5.758588   6.887697   4.139764   4.470030   5.700374
    43  H    5.120329   6.650810   4.244826   5.404601   5.993770
    44  H    4.220700   5.843677   4.437401   5.549826   5.967300
                   26         27         28         29         30
    26  H    0.000000
    27  H    1.773845   0.000000
    28  H    1.768306   1.771004   0.000000
    29  H    4.574285   3.755903   5.475308   0.000000
    30  H    5.292295   4.680490   6.221557   1.766360   0.000000
    31  H    4.167837   3.174276   4.727978   1.755918   1.771916
    32  H    5.405724   5.209242   6.756533   2.282266   3.059614
    33  H    5.827643   6.140551   7.430123   3.845179   4.226911
    34  H    5.167828   5.389413   6.598888   4.055071   5.260713
    35  H    3.556831   3.631193   4.913287   2.967029   4.304579
    36  H    4.056693   4.794638   5.708115   4.262873   5.144893
    37  C    5.032264   5.187879   6.081441   4.150915   2.889966
    38  C    5.758109   6.092557   6.647741   5.613203   4.324463
    39  C    6.510312   6.633469   7.105915   6.313055   4.933950
    40  H    5.599500   5.863371   6.842849   4.300085   3.001414
    41  H    5.472730   5.267750   6.331533   3.837633   2.330203
    42  H    5.987007   6.607155   7.002063   6.298923   5.114740
    43  H    7.231449   7.470232   7.754479   7.383762   6.016838
    44  H    6.635416   6.466152   7.065936   6.010749   4.600443
                   31         32         33         34         35
    31  H    0.000000
    32  H    3.855972   0.000000
    33  H    5.150989   1.758164   0.000000
    34  H    5.483094   2.495670   2.410129   0.000000
    35  H    4.067284   2.488460   3.052211   1.763629   0.000000
    36  H    5.244224   3.072477   2.518395   1.769346   1.776036
    37  C    3.377828   4.862167   5.128707   6.509427   5.462748
    38  C    4.626669   6.338447   6.438891   7.849947   6.779267
    39  C    5.065263   7.342937   7.626254   8.975358   7.798024
    40  H    3.950049   4.506187   4.513446   6.222133   5.453273
    41  H    2.895000   4.896618   5.478919   6.814079   5.725648
    42  H    5.468578   6.731353   6.552919   8.024596   7.067374
    43  H    6.113203   8.363367   8.543279   9.917718   8.747897
    44  H    4.627697   7.306388   7.829426   9.086881   7.839235
                   36         37         38         39         40
    36  H    0.000000
    37  C    5.583338   0.000000
    38  C    6.741886   1.510702   0.000000
    39  C    7.936039   2.517933   1.339137   0.000000
    40  H    5.351377   1.094994   2.103585   3.228079   0.000000
    41  H    6.128772   1.097864   2.126571   2.618961   1.754668
    42  H    6.759059   2.231138   1.088632   2.091495   2.471164
    43  H    8.784808   3.504843   2.112433   1.085646   4.115929
    44  H    8.208989   2.773614   2.120694   1.085793   3.583723
                   41         42         43         44
    41  H    0.000000
    42  H    3.080766   0.000000
    43  H    3.695968   2.417012   0.000000
    44  H    2.434577   3.072321   1.856668   0.000000
 Stoichiometry    C14H26O3Si
 Framework group  C1[X(C14H26O3Si)]
 Deg. of freedom   126
 Full point group                 C1      NOp   1
 Largest Abelian subgroup         C1      NOp   1
 Largest concise Abelian subgroup C1      NOp   1
                         Standard orientation:                         
 ---------------------------------------------------------------------
 Center     Atomic      Atomic             Coordinates (Angstroms)
 Number     Number       Type             X           Y           Z
 ---------------------------------------------------------------------
      1          6           0       -2.449784   -0.030330   -0.554638
      2          6           0       -1.026052   -0.562037   -0.800948
      3          6           0        0.035150    0.467102   -0.310279
      4          6           0       -0.257541    0.737530    1.168120
      5          6           0       -1.651660    1.233966    1.396172
      6          1           0       -2.673356    0.758889   -1.282979
      7          1           0       -0.886633   -1.463489   -0.194508
      8          1           0       -0.156660   -0.167284    1.777381
      9          1           0        0.449600    1.462088    1.586112
     10          8           0       -2.634203    0.576788    0.744750
     11          8           0       -1.903851    2.103271    2.223242
     12          6           0       -3.565273   -1.080389   -0.716398
     13          6           0       -3.473118   -2.251799    0.253485
     14          6           0       -0.833647   -0.996928   -2.260754
     15          8           0        1.355361   -0.051736   -0.582599
     16         14           0        2.312481   -1.065535    0.335839
     17          6           0        1.423135   -2.633104    0.859115
     18          6           0        3.800956   -1.594205   -0.706358
     19          6           0        2.986416   -0.202750    1.862245
     20          1           0        3.466975   -2.124720   -1.602722
     21          1           0        4.378157   -0.718014   -1.015494
     22          1           0        4.454157   -2.257186   -0.131752
     23          1           0        3.442855    0.753928    1.591611
     24          1           0        2.197230   -0.013082    2.594381
     25          1           0        3.749454   -0.821305    2.344414
     26          1           0        0.596945   -2.414119    1.540740
     27          1           0        1.021319   -3.157554   -0.012882
     28          1           0        2.112773   -3.309227    1.373545
     29          1           0       -1.472689   -1.852907   -2.499773
     30          1           0       -1.084795   -0.191788   -2.958302
     31          1           0        0.196317   -1.308932   -2.457876
     32          1           0       -3.589796   -1.460439   -1.743091
     33          1           0       -4.530081   -0.586786   -0.541536
     34          1           0       -4.358759   -2.887985    0.154058
     35          1           0       -2.598370   -2.875230    0.047963
     36          1           0       -3.420588   -1.910021    1.291601
     37          6           0       -0.028389    1.795246   -1.145127
     38          6           0        0.882435    2.898868   -0.660732
     39          6           0        2.001887    3.277401   -1.290675
     40          1           0       -1.041730    2.209934   -1.158756
     41          1           0        0.227711    1.573422   -2.189403
     42          1           0        0.587393    3.430394    0.242346
     43          1           0        2.612348    4.086870   -0.902444
     44          1           0        2.339948    2.784028   -2.196900
 ---------------------------------------------------------------------
 Rotational constants (GHZ):      0.4573912      0.2968709      0.2473674
 Standard basis: 6-311G(d) (5D, 7F)
 There are   428 symmetry adapted cartesian basis functions of A   symmetry.
 There are   410 symmetry adapted basis functions of A   symmetry.
   410 basis functions,   720 primitive gaussians,   428 cartesian basis functions
    74 alpha electrons       74 beta electrons
       nuclear repulsion energy      1640.3831636738 Hartrees.
 NAtoms=   44 NActive=   44 NUniq=   44 SFac= 1.00D+00 NAtFMM=   60 NAOKFM=F Big=F
 Integral buffers will be    131072 words long.
 Raffenetti 2 integral format.
 Two-electron integral symmetry is turned on.
 ------------------------------------------------------------------------------
 Polarizable Continuum Model (PCM)
 =================================
 Model                : PCM (using non-symmetric T matrix).
 Atomic radii         : UFF (Universal Force Field).
 Polarization charges : Total charges.
 Charge compensation  : None.
 Solution method      : On-the-fly selection.
 Cavity type          : Scaled VdW (van der Waals Surface) (Alpha=1.100).
 Cavity algorithm     : GePol (No added spheres)
                        Default sphere list used, NSphG=   44.
                        Lebedev-Laikov grids with approx.  5.0 points / Ang**2.
                        Smoothing algorithm: Karplus/York (Gamma=1.0000).
                        Polarization charges: spherical gaussians, with
                                              point-specific exponents (IZeta= 3).
                        Self-potential: point-specific (ISelfS= 7).
                        Self-field    : sphere-specific E.n sum rule (ISelfD= 2).
 Solvent              : Chloroform, Eps=   4.711300 Eps(inf)=   2.090627
 ------------------------------------------------------------------------------
 One-electron integrals computed using PRISM.
 NBasis=   410 RedAO= T EigKep=  1.06D-03  NBF=   410
 NBsUse=   410 1.00D-06 EigRej= -1.00D+00 NBFU=   410
 ExpMin= 6.54D-02 ExpMax= 6.94D+04 ExpMxC= 2.33D+03 IAcc=2 IRadAn=         4 AccDes= 0.00D+00
 Harris functional with IExCor=  908 and IRadAn=       4 diagonalized for initial guess.
 HarFok:  IExCor=  908 AccDes= 0.00D+00 IRadAn=         4 IDoV= 1 UseB2=F ITyADJ=14
 ICtDFT=  3500011 ScaDFX=  1.000000  1.000000  1.000000  1.000000
 FoFCou: FMM=F IPFlag=           0 FMFlag=      100000 FMFlg1=           0
         NFxFlg=           0 DoJE=T BraDBF=F KetDBF=T FulRan=T
         wScrn=  0.000000 ICntrl=     500 IOpCl=  0 I1Cent=   200000004 NGrid=           0
         NMat0=    1 NMatS0=      1 NMatT0=    0 NMatD0=    1 NMtDS0=    0 NMtDT0=    0
 Petite list used in FoFCou.
 Requested convergence on RMS density matrix=1.00D-08 within 128 cycles.
 Requested convergence on MAX density matrix=1.00D-06.
 Requested convergence on             energy=1.00D-06.
 No special actions if energy rises.
 Inv3:  Mode=1 IEnd=    25160448.
 Iteration    1 A*A^-1 deviation from unit magnitude is 9.10D-15 for   1827.
 Iteration    1 A*A^-1 deviation from orthogonality  is 7.77D-15 for   2553   1339.
 Iteration    1 A^-1*A deviation from unit magnitude is 7.55D-15 for     51.
 Iteration    1 A^-1*A deviation from orthogonality  is 5.69D-12 for   2863   2667.
 Error on total polarization charges =  0.01110
 SCF Done:  E(RmPW1PW91) =  -1064.37568934     A.U. after   12 cycles
            NFock= 12  Conv=0.95D-08     -V/T= 2.0036
 DoSCS=F DFT=T ScalE2(SS,OS)=  1.000000  1.000000
 Range of M.O.s used for correlation:     1   410
 NBasis=   410 NAE=    74 NBE=    74 NFC=     0 NFV=     0
 NROrb=    410 NOA=    74 NOB=    74 NVA=   336 NVB=   336
 NEqPCM:  Using equilibrium solvation (IEInf=0, Eps=   4.7113, EpsInf=   2.0906)
          Differentiating once with respect to magnetic field using GIAOs.
          Electric field/nuclear overlap derivatives assumed to be zero.
 FoFJK:  IHMeth= 1 ICntrl=    6127 DoSepK=F KAlg= 0 I1Cent=   0 FoldK=F
 IRaf=         1 NMat=   1 IRICut=       1 DoRegI=T DoRafI=F ISym2E= 0.
          There are     3 degrees of freedom in the 1st order CPHF.  IDoFFX=0 NUNeed=     3.
      3 vectors produced by pass  0 Test12= 8.29D-13 3.33D-08 XBig12= 3.36D+01 1.49D+00.
 AX will form     3 AO Fock derivatives at one time.
      3 vectors produced by pass  1 Test12= 8.29D-13 3.33D-08 XBig12= 8.60D-02 1.24D-01.
      3 vectors produced by pass  2 Test12= 8.29D-13 3.33D-08 XBig12= 7.10D-04 1.10D-02.
      3 vectors produced by pass  3 Test12= 8.29D-13 3.33D-08 XBig12= 3.63D-06 4.04D-04.
      3 vectors produced by pass  4 Test12= 8.29D-13 3.33D-08 XBig12= 1.84D-08 2.49D-05.
      3 vectors produced by pass  5 Test12= 8.29D-13 3.33D-08 XBig12= 5.80D-11 1.26D-06.
      2 vectors produced by pass  6 Test12= 8.29D-13 3.33D-08 XBig12= 1.68D-13 6.25D-08.
 InvSVY:  IOpt=1 It=  1 EMax= 8.88D-16
 Solved reduced A of dimension    20 with     3 vectors.
 Calculating GIAO nuclear magnetic shielding tensors.
 SCF GIAO Magnetic shielding tensor (ppm):
      1  C    Isotropic =   104.3464   Anisotropy =    59.6614
   XX=    94.7764   YX=    -3.6364   ZX=   -15.7119
   XY=     0.9799   YY=    85.7288   ZY=    21.2215
   XZ=    -9.1029   YZ=    22.5670   ZZ=   132.5341
   Eigenvalues:    76.4006    92.5179   144.1207
      2  C    Isotropic =   145.2457   Anisotropy =    20.2929
   XX=   151.9360   YX=     8.3823   ZX=     3.6288
   XY=    10.1722   YY=   140.9422   ZY=    -2.0940
   XZ=     4.9736   YZ=     7.0728   ZZ=   142.8588
   Eigenvalues:   135.6554   141.3073   158.7743
      3  C    Isotropic =   104.9720   Anisotropy =    52.0491
   XX=   131.9585   YX=   -19.6239   ZX=    -0.5456
   XY=   -15.4501   YY=    99.7682   ZY=     1.6843
   XZ=     4.2044   YZ=     4.0905   ZZ=    83.1893
   Eigenvalues:    82.0445    93.2002   139.6714
      4  C    Isotropic =   143.5098   Anisotropy =    29.1620
   XX=   154.8628   YX=    -9.5776   ZX=    -6.9587
   XY=    -8.4815   YY=   134.9933   ZY=    12.6411
   XZ=    -7.8951   YZ=     4.0245   ZZ=   140.6734
   Eigenvalues:   128.5559   139.0224   162.9511
      5  C    Isotropic =     8.3050   Anisotropy =    95.9424
   XX=   -70.9025   YX=   -17.5840   ZX=   -34.1622
   XY=   -31.1931   YY=    50.9266   ZY=   -22.8505
   XZ=   -41.3443   YZ=   -24.6168   ZZ=    44.8909
   Eigenvalues:   -88.7109    41.3593    72.2666
      6  H    Isotropic =    27.9369   Anisotropy =     2.5940
   XX=    28.0046   YX=     0.1044   ZX=     0.8697
   XY=     0.0576   YY=    27.8404   ZY=    -0.9448
   XZ=     1.1751   YZ=    -1.9493   ZZ=    27.9656
   Eigenvalues:    26.1182    28.0262    29.6662
      7  H    Isotropic =    29.8773   Anisotropy =     4.0223
   XX=    31.6922   YX=     0.2947   ZX=     1.4701
   XY=     0.6613   YY=    30.2607   ZY=    -3.1552
   XZ=     1.6866   YZ=    -2.6257   ZZ=    27.6791
   Eigenvalues:    25.4033    31.6699    32.5589
      8  H    Isotropic =    29.6439   Anisotropy =     4.3933
   XX=    29.9704   YX=    -2.4175   ZX=     0.7887
   XY=    -2.1190   YY=    28.7398   ZY=    -0.8780
   XZ=     0.8463   YZ=    -1.6402   ZZ=    30.2216
   Eigenvalues:    26.9171    29.4419    32.5728
      9  H    Isotropic =    29.1966   Anisotropy =     4.2464
   XX=    29.0701   YX=     0.9093   ZX=     1.5860
   XY=    -0.0039   YY=    29.1588   ZY=     2.2315
   XZ=    -0.2397   YZ=     2.8675   ZZ=    29.3610
   Eigenvalues:    26.6996    28.8627    32.0275
     10  O    Isotropic =   106.9497   Anisotropy =   176.6966
   XX=   178.2413   YX=    50.5319   ZX=    48.5312
   XY=    73.7504   YY=   104.2311   ZY=  -168.7332
   XZ=    63.1576   YZ=  -114.2552   ZZ=    38.3767
   Eigenvalues:   -98.5424   194.6440   224.7474
     11  O    Isotropic =  -137.1452   Anisotropy =   589.7971
   XX=  -251.8412   YX=   -27.7750   ZX=   -85.6882
   XY=   -21.6064   YY=   -91.2407   ZY=  -347.9020
   XZ=   -77.0332   YZ=  -316.5576   ZZ=   -68.3535
   Eigenvalues:  -441.6776  -225.8108   256.0529
     12  C    Isotropic =   160.3797   Anisotropy =    22.2778
   XX=   163.6501   YX=    10.6249   ZX=     2.3636
   XY=    13.3250   YY=   162.7696   ZY=     4.3284
   XZ=    -0.2489   YZ=    -3.9568   ZZ=   154.7194
   Eigenvalues:   151.1257   154.7818   175.2315
     13  C    Isotropic =   180.9030   Anisotropy =    11.1274
   XX=   180.1425   YX=     1.0976   ZX=     1.8377
   XY=     0.8652   YY=   182.6155   ZY=    -6.7271
   XZ=     2.0821   YZ=    -7.0321   ZZ=   179.9511
   Eigenvalues:   173.5788   180.8090   188.3213
     14  C    Isotropic =   176.9169   Anisotropy =    19.0366
   XX=   171.6193   YX=     0.9146   ZX=    -0.4076
   XY=    -0.6475   YY=   170.2587   ZY=     2.8114
   XZ=    -4.4397   YZ=     2.8488   ZZ=   188.8727
   Eigenvalues:   169.6923   171.4504   189.6079
     15  O    Isotropic =   245.3386   Anisotropy =    18.4510
   XX=   229.0335   YX=     2.8751   ZX=   -12.0883
   XY=   -14.7508   YY=   250.3652   ZY=     6.0926
   XZ=     1.2801   YZ=    -8.1668   ZZ=   256.6172
   Eigenvalues:   226.4909   251.8856   257.6393
     16  Si   Isotropic =   335.9385   Anisotropy =    51.7880
   XX=   335.1130   YX=   -25.5644   ZX=    19.6818
   XY=   -18.8539   YY=   334.8150   ZY=   -19.2216
   XZ=     6.9304   YZ=   -12.9719   ZZ=   337.8876
   Eigenvalues:   312.4890   324.8627   370.4638
     17  C    Isotropic =   185.4322   Anisotropy =     7.7170
   XX=   188.7474   YX=     0.5600   ZX=     1.8969
   XY=     3.6850   YY=   187.4400   ZY=    -4.2793
   XZ=     2.6997   YZ=    -5.5753   ZZ=   180.1091
   Eigenvalues:   176.8687   188.8510   190.5768
     18  C    Isotropic =   186.6182   Anisotropy =    13.1195
   XX=   188.4473   YX=    -5.3578   ZX=    -6.3792
   XY=    -6.1975   YY=   180.0659   ZY=    -2.1541
   XZ=    -3.8633   YZ=    -3.2868   ZZ=   191.3414
   Eigenvalues:   175.6171   188.8730   195.3646
     19  C    Isotropic =   185.1647   Anisotropy =    11.4431
   XX=   182.1095   YX=    -1.8956   ZX=     7.1275
   XY=    -4.2937   YY=   186.0821   ZY=     4.0601
   XZ=     5.9842   YZ=     5.5815   ZZ=   187.3025
   Eigenvalues:   175.0638   187.6369   192.7935
     20  H    Isotropic =    32.0385   Anisotropy =     8.3621
   XX=    30.7613   YX=    -0.5411   ZX=    -0.4736
   XY=    -0.2953   YY=    30.2261   ZY=     4.1320
   XZ=     0.4470   YZ=     4.4207   ZZ=    35.1282
   Eigenvalues:    27.7068    30.7955    37.6133
     21  H    Isotropic =    31.9772   Anisotropy =     8.8448
   XX=    33.8080   YX=     3.1841   ZX=    -3.0954
   XY=     2.7861   YY=    32.6207   ZY=    -1.4120
   XZ=    -3.2401   YZ=    -2.4383   ZZ=    29.5030
   Eigenvalues:    27.7966    30.2613    37.8738
     22  H    Isotropic =    32.3966   Anisotropy =     9.7739
   XX=    34.6910   YX=    -4.4898   ZX=     1.4874
   XY=    -4.6541   YY=    32.0796   ZY=    -1.7505
   XZ=     1.9960   YZ=    -2.1266   ZZ=    30.4193
   Eigenvalues:    28.4400    29.8373    38.9126
     23  H    Isotropic =    31.9479   Anisotropy =     7.9614
   XX=    31.6022   YX=     3.4576   ZX=     1.0491
   XY=     3.3915   YY=    35.1698   ZY=    -0.9158
   XZ=     1.2037   YZ=     0.1513   ZZ=    29.0718
   Eigenvalues:    28.1108    30.4775    37.2555
     24  H    Isotropic =    32.1374   Anisotropy =     6.2081
   XX=    33.5549   YX=    -1.2999   ZX=    -0.8968
   XY=    -2.0585   YY=    28.6503   ZY=     1.8383
   XZ=    -2.0832   YZ=     2.0705   ZZ=    34.2069
   Eigenvalues:    27.7792    32.3568    36.2761
     25  H    Isotropic =    32.3699   Anisotropy =    10.4105
   XX=    34.1612   YX=    -3.0177   ZX=     4.5390
   XY=    -3.4237   YY=    30.5156   ZY=    -1.7465
   XZ=     4.5614   YZ=    -1.3623   ZZ=    32.4328
   Eigenvalues:    28.0670    29.7325    39.3102
     26  H    Isotropic =    32.1068   Anisotropy =     6.2423
   XX=    34.3907   YX=    -1.6829   ZX=    -3.1103
   XY=    -0.4111   YY=    30.6075   ZY=    -1.3469
   XZ=    -2.9532   YZ=    -1.0185   ZZ=    31.3222
   Eigenvalues:    28.3715    31.6806    36.2683
     27  H    Isotropic =    31.9707   Anisotropy =     6.7792
   XX=    31.0251   YX=     0.9827   ZX=     3.0892
   XY=     1.2138   YY=    33.2359   ZY=     2.9923
   XZ=     2.5695   YZ=     2.2694   ZZ=    31.6511
   Eigenvalues:    28.2578    31.1641    36.4902
     28  H    Isotropic =    32.2076   Anisotropy =    10.6713
   XX=    31.8880   YX=    -3.7660   ZX=     2.4753
   XY=    -3.1876   YY=    34.4500   ZY=    -3.8153
   XZ=     2.4596   YZ=    -4.2058   ZZ=    30.2847
   Eigenvalues:    27.8043    29.4967    39.3218
     29  H    Isotropic =    31.3356   Anisotropy =     9.3505
   XX=    30.6495   YX=     3.9085   ZX=     0.4331
   XY=     3.7649   YY=    32.1391   ZY=     4.1316
   XZ=     0.5060   YZ=     4.4848   ZZ=    31.2180
   Eigenvalues:    26.0001    30.4374    37.5692
     30  H    Isotropic =    31.5333   Anisotropy =     8.9922
   XX=    27.9825   YX=     0.3148   ZX=     1.8051
   XY=     0.1327   YY=    30.4259   ZY=    -2.4380
   XZ=     1.4326   YZ=    -3.1289   ZZ=    36.1915
   Eigenvalues:    27.4263    29.6455    37.5281
     31  H    Isotropic =    30.5087   Anisotropy =     7.3699
   XX=    33.7233   YX=    -2.2201   ZX=    -0.5351
   XY=    -2.2548   YY=    27.1407   ZY=     3.3844
   XZ=    -1.5519   YZ=     3.2408   ZZ=    30.6621
   Eigenvalues:    24.9193    31.1848    35.4219
     32  H    Isotropic =    30.3035   Anisotropy =     7.2962
   XX=    30.1111   YX=     2.3810   ZX=     1.6690
   XY=     2.3233   YY=    27.0941   ZY=     1.6002
   XZ=     1.8166   YZ=     1.6832   ZZ=    33.7053
   Eigenvalues:    25.7561    29.9868    35.1677
     33  H    Isotropic =    30.0616   Anisotropy =     9.8779
   XX=    35.8070   YX=    -2.6048   ZX=     0.5469
   XY=    -2.0291   YY=    29.3012   ZY=    -1.3885
   XZ=     0.8595   YZ=    -1.2020   ZZ=    25.0764
   Eigenvalues:    24.7107    28.8271    36.6468
     34  H    Isotropic =    31.1830   Anisotropy =    11.9094
   XX=    33.7572   YX=     5.5571   ZX=    -0.0065
   XY=     5.9684   YY=    32.7076   ZY=    -1.2979
   XZ=    -0.2733   YZ=    -1.6956   ZZ=    27.0841
   Eigenvalues:    26.1802    28.2462    39.1226
     35  H    Isotropic =    31.2181   Anisotropy =     6.6548
   XX=    33.3932   YX=    -1.7399   ZX=    -1.4979
   XY=    -2.3171   YY=    33.8231   ZY=    -1.1841
   XZ=    -0.7813   YZ=    -1.4990   ZZ=    26.4378
   Eigenvalues:    25.8957    32.1039    35.6546
     36  H    Isotropic =    31.0984   Anisotropy =     7.2596
   XX=    28.1794   YX=     2.2315   ZX=    -1.1900
   XY=     1.7642   YY=    29.5135   ZY=    -0.7235
   XZ=    -1.2810   YZ=    -0.4540   ZZ=    35.6023
   Eigenvalues:    26.6897    30.6674    35.9382
     37  C    Isotropic =   145.2037   Anisotropy =    18.0015
   XX=   139.6374   YX=     4.5650   ZX=     9.3249
   XY=     2.7210   YY=   153.4905   ZY=   -11.5276
   XZ=     1.5647   YZ=    -3.1505   ZZ=   142.4831
   Eigenvalues:   132.7001   145.7062   157.2046
     38  C    Isotropic =    45.6678   Anisotropy =   177.4935
   XX=    81.2129   YX=   -45.6388   ZX=    23.6827
   XY=   -43.1947   YY=    41.1686   ZY=  -105.6097
   XZ=    25.0361   YZ=  -105.5528   ZZ=    14.6218
   Eigenvalues:   -79.3457    52.3522   163.9968
     39  C    Isotropic =    61.6300   Anisotropy =   144.2533
   XX=   100.8563   YX=   -39.2135   ZX=     7.5390
   XY=   -40.6821   YY=    47.6625   ZY=   -94.0283
   XZ=     8.6102   YZ=   -93.4040   ZZ=    36.3711
   Eigenvalues:   -54.9622    82.0532   157.7989
     40  H    Isotropic =    30.0332   Anisotropy =     5.3711
   XX=    32.1798   YX=    -0.7715   ZX=     0.5090
   XY=    -1.0686   YY=    32.2869   ZY=    -2.2303
   XZ=     1.2276   YZ=    -1.3427   ZZ=    25.6328
   Eigenvalues:    25.1282    31.3575    33.6139
     41  H    Isotropic =    29.6446   Anisotropy =     5.6951
   XX=    26.6166   YX=     3.3565   ZX=     1.0156
   XY=     2.7810   YY=    30.1975   ZY=    -2.0075
   XZ=    -0.6964   YZ=    -1.2706   ZZ=    32.1197
   Eigenvalues:    24.7266    30.7659    33.4413
     42  H    Isotropic =    25.7750   Anisotropy =     6.0823
   XX=    25.9662   YX=     1.2704   ZX=    -1.4128
   XY=     2.9149   YY=    28.3274   ZY=    -1.1892
   XZ=    -0.7317   YZ=    -0.7473   ZZ=    23.0315
   Eigenvalues:    22.6641    24.8311    29.8299
     43  H    Isotropic =    26.6053   Anisotropy =     6.4570
   XX=    28.4218   YX=     2.8830   ZX=    -0.3556
   XY=     1.6344   YY=    27.1173   ZY=    -1.6280
   XZ=    -1.9744   YZ=    -2.7700   ZZ=    24.2768
   Eigenvalues:    23.0785    25.8275    30.9099
     44  H    Isotropic =    26.6533   Anisotropy =     7.5237
   XX=    28.0768   YX=     0.7784   ZX=    -3.1055
   XY=     2.4622   YY=    26.4005   ZY=    -4.0898
   XZ=    -1.5160   YZ=    -3.0621   ZZ=    25.4825
   Eigenvalues:    22.2443    26.0465    31.6691
 End of Minotr F.D. properties file   721 does not exist.
 End of Minotr F.D. properties file   722 does not exist.
 End of Minotr F.D. properties file   788 does not exist.

 **********************************************************************

            Population analysis using the SCF density.

 **********************************************************************

 Orbital symmetries:
       Occupied  (A) (A) (A) (A) (A) (A) (A) (A) (A) (A) (A) (A)
                 (A) (A) (A) (A) (A) (A) (A) (A) (A) (A) (A) (A)
                 (A) (A) (A) (A) (A) (A) (A) (A) (A) (A) (A) (A)
                 (A) (A) (A) (A) (A) (A) (A) (A) (A) (A) (A) (A)
                 (A) (A) (A) (A) (A) (A) (A) (A) (A) (A) (A) (A)
                 (A) (A) (A) (A) (A) (A) (A) (A) (A) (A) (A) (A)
                 (A) (A)
       Virtual   (A) (A) (A) (A) (A) (A) (A) (A) (A) (A) (A) (A)
                 (A) (A) (A) (A) (A) (A) (A) (A) (A) (A) (A) (A)
                 (A) (A) (A) (A) (A) (A) (A) (A) (A) (A) (A) (A)
                 (A) (A) (A) (A) (A) (A) (A) (A) (A) (A) (A) (A)
                 (A) (A) (A) (A) (A) (A) (A) (A) (A) (A) (A) (A)
                 (A) (A) (A) (A) (A) (A) (A) (A) (A) (A) (A) (A)
                 (A) (A) (A) (A) (A) (A) (A) (A) (A) (A) (A) (A)
                 (A) (A) (A) (A) (A) (A) (A) (A) (A) (A) (A) (A)
                 (A) (A) (A) (A) (A) (A) (A) (A) (A) (A) (A) (A)
                 (A) (A) (A) (A) (A) (A) (A) (A) (A) (A) (A) (A)
                 (A) (A) (A) (A) (A) (A) (A) (A) (A) (A) (A) (A)
                 (A) (A) (A) (A) (A) (A) (A) (A) (A) (A) (A) (A)
                 (A) (A) (A) (A) (A) (A) (A) (A) (A) (A) (A) (A)
                 (A) (A) (A) (A) (A) (A) (A) (A) (A) (A) (A) (A)
                 (A) (A) (A) (A) (A) (A) (A) (A) (A) (A) (A) (A)
                 (A) (A) (A) (A) (A) (A) (A) (A) (A) (A) (A) (A)
                 (A) (A) (A) (A) (A) (A) (A) (A) (A) (A) (A) (A)
                 (A) (A) (A) (A) (A) (A) (A) (A) (A) (A) (A) (A)
                 (A) (A) (A) (A) (A) (A) (A) (A) (A) (A) (A) (A)
                 (A) (A) (A) (A) (A) (A) (A) (A) (A) (A) (A) (A)
                 (A) (A) (A) (A) (A) (A) (A) (A) (A) (A) (A) (A)
                 (A) (A) (A) (A) (A) (A) (A) (A) (A) (A) (A) (A)
                 (A) (A) (A) (A) (A) (A) (A) (A) (A) (A) (A) (A)
                 (A) (A) (A) (A) (A) (A) (A) (A) (A) (A) (A) (A)
                 (A) (A) (A) (A) (A) (A) (A) (A) (A) (A) (A) (A)
                 (A) (A) (A) (A) (A) (A) (A) (A) (A) (A) (A) (A)
                 (A) (A) (A) (A) (A) (A) (A) (A) (A) (A) (A) (A)
                 (A) (A) (A) (A) (A) (A) (A) (A) (A) (A) (A) (A)
 The electronic state is 1-A.
 Alpha  occ. eigenvalues --  -66.26922 -19.26406 -19.21196 -19.20439 -10.37640
 Alpha  occ. eigenvalues --  -10.32312 -10.30936 -10.25493 -10.25465 -10.24269
 Alpha  occ. eigenvalues --  -10.24046 -10.23979 -10.22859 -10.22680 -10.22262
 Alpha  occ. eigenvalues --  -10.20849 -10.20557 -10.20429  -5.32756  -3.66605
 Alpha  occ. eigenvalues --   -3.66371  -3.66335  -1.13660  -1.05223  -1.04066
 Alpha  occ. eigenvalues --   -0.86128  -0.83549  -0.80636  -0.78019  -0.74137
 Alpha  occ. eigenvalues --   -0.72840  -0.72057  -0.70341  -0.69918  -0.67059
 Alpha  occ. eigenvalues --   -0.63232  -0.62652  -0.58492  -0.55988  -0.53969
 Alpha  occ. eigenvalues --   -0.53083  -0.50651  -0.49600  -0.48463  -0.47642
 Alpha  occ. eigenvalues --   -0.47045  -0.45515  -0.44486  -0.44205  -0.43689
 Alpha  occ. eigenvalues --   -0.42974  -0.42535  -0.42393  -0.41790  -0.41717
 Alpha  occ. eigenvalues --   -0.40806  -0.40347  -0.39972  -0.39620  -0.39327
 Alpha  occ. eigenvalues --   -0.38366  -0.37581  -0.36908  -0.36862  -0.35994
 Alpha  occ. eigenvalues --   -0.35721  -0.34402  -0.33608  -0.32398  -0.31455
 Alpha  occ. eigenvalues --   -0.30343  -0.29104  -0.28468  -0.27253
 Alpha virt. eigenvalues --   -0.00808   0.01049   0.03811   0.05477   0.05709
 Alpha virt. eigenvalues --    0.06270   0.07673   0.08405   0.08433   0.08940
 Alpha virt. eigenvalues --    0.09180   0.10076   0.10388   0.11046   0.11440
 Alpha virt. eigenvalues --    0.11833   0.12626   0.12796   0.13243   0.13329
 Alpha virt. eigenvalues --    0.14340   0.14441   0.14882   0.15135   0.15760
 Alpha virt. eigenvalues --    0.16348   0.16865   0.17341   0.18097   0.18507
 Alpha virt. eigenvalues --    0.18838   0.19088   0.19729   0.20501   0.21188
 Alpha virt. eigenvalues --    0.21976   0.22860   0.23469   0.24131   0.24950
 Alpha virt. eigenvalues --    0.25503   0.26030   0.26736   0.27241   0.27861
 Alpha virt. eigenvalues --    0.28494   0.29393   0.30147   0.31738   0.32464
 Alpha virt. eigenvalues --    0.32915   0.33800   0.34257   0.35160   0.35712
 Alpha virt. eigenvalues --    0.36863   0.37848   0.38470   0.39819   0.40793
 Alpha virt. eigenvalues --    0.41220   0.42220   0.43082   0.43944   0.44320
 Alpha virt. eigenvalues --    0.44882   0.45371   0.46136   0.46814   0.48042
 Alpha virt. eigenvalues --    0.49122   0.50579   0.50770   0.51746   0.51965
 Alpha virt. eigenvalues --    0.53742   0.54243   0.55236   0.55640   0.56435
 Alpha virt. eigenvalues --    0.56758   0.57838   0.57993   0.59026   0.59501
 Alpha virt. eigenvalues --    0.59776   0.60151   0.60663   0.60897   0.61105
 Alpha virt. eigenvalues --    0.61642   0.61787   0.62439   0.62491   0.63290
 Alpha virt. eigenvalues --    0.63503   0.64099   0.64329   0.64734   0.65447
 Alpha virt. eigenvalues --    0.65946   0.66601   0.67167   0.68014   0.68163
 Alpha virt. eigenvalues --    0.68949   0.69607   0.69768   0.70980   0.71725
 Alpha virt. eigenvalues --    0.72110   0.72531   0.73714   0.74013   0.75237
 Alpha virt. eigenvalues --    0.77001   0.77097   0.78264   0.79480   0.80743
 Alpha virt. eigenvalues --    0.82042   0.83039   0.85305   0.88017   0.89233
 Alpha virt. eigenvalues --    0.89524   0.91676   0.91841   0.93473   0.93991
 Alpha virt. eigenvalues --    0.95595   0.95894   0.99359   0.99474   1.00216
 Alpha virt. eigenvalues --    1.02818   1.04839   1.05713   1.08540   1.11751
 Alpha virt. eigenvalues --    1.13567   1.14050   1.16486   1.17075   1.17726
 Alpha virt. eigenvalues --    1.20225   1.22603   1.24282   1.26124   1.27438
 Alpha virt. eigenvalues --    1.28436   1.29617   1.29864   1.32941   1.33509
 Alpha virt. eigenvalues --    1.34584   1.38077   1.39653   1.41216   1.41902
 Alpha virt. eigenvalues --    1.42394   1.43759   1.45079   1.46896   1.48189
 Alpha virt. eigenvalues --    1.50240   1.50994   1.51702   1.52533   1.53607
 Alpha virt. eigenvalues --    1.54229   1.55612   1.56661   1.57569   1.58905
 Alpha virt. eigenvalues --    1.58952   1.59575   1.59718   1.60091   1.60704
 Alpha virt. eigenvalues --    1.61757   1.62198   1.62786   1.63254   1.64251
 Alpha virt. eigenvalues --    1.65636   1.65978   1.67054   1.67873   1.69105
 Alpha virt. eigenvalues --    1.69704   1.71477   1.71975   1.73733   1.74576
 Alpha virt. eigenvalues --    1.75688   1.77731   1.78699   1.80373   1.81079
 Alpha virt. eigenvalues --    1.81568   1.81745   1.83015   1.85669   1.89237
 Alpha virt. eigenvalues --    1.90674   1.93501   1.94666   1.95882   1.97683
 Alpha virt. eigenvalues --    1.98649   2.00955   2.04264   2.08213   2.12984
 Alpha virt. eigenvalues --    2.14724   2.16755   2.20081   2.22757   2.23546
 Alpha virt. eigenvalues --    2.26837   2.30256   2.34600   2.36802   2.39721
 Alpha virt. eigenvalues --    2.40753   2.41853   2.42542   2.42982   2.44117
 Alpha virt. eigenvalues --    2.44590   2.45199   2.46107   2.47201   2.47502
 Alpha virt. eigenvalues --    2.48143   2.49279   2.49978   2.50468   2.50977
 Alpha virt. eigenvalues --    2.52118   2.53694   2.56167   2.58954   2.61903
 Alpha virt. eigenvalues --    2.62972   2.64491   2.69349   2.72361   2.79751
 Alpha virt. eigenvalues --    2.82182   2.87457   2.88123   2.88976   2.91267
 Alpha virt. eigenvalues --    2.92752   2.94022   2.94842   2.96462   2.96770
 Alpha virt. eigenvalues --    2.98791   3.01043   3.01909   3.04128   3.08632
 Alpha virt. eigenvalues --    3.09902   3.10411   3.12280   3.13941   3.14986
 Alpha virt. eigenvalues --    3.15504   3.17435   3.19121   3.19996   3.21678
 Alpha virt. eigenvalues --    3.22588   3.22753   3.24226   3.24969   3.26054
 Alpha virt. eigenvalues --    3.26397   3.29147   3.29240   3.30541   3.31351
 Alpha virt. eigenvalues --    3.33204   3.34512   3.35365   3.38006   3.40647
 Alpha virt. eigenvalues --    3.44175   3.50984   3.57131   3.59821   3.63076
 Alpha virt. eigenvalues --    3.78701   3.88284   3.91124   3.97964   4.04444
 Alpha virt. eigenvalues --    4.08426   4.10600   4.18992   4.20078   4.24413
 Alpha virt. eigenvalues --    4.94623   4.99506   5.02245   5.09354   5.14667
 Alpha virt. eigenvalues --    5.23349   5.49700   5.55003   5.78001   5.85282
 Alpha virt. eigenvalues --   11.52489  11.53980  11.59684  23.40615  23.49721
 Alpha virt. eigenvalues --   23.54638  23.55335  23.57274  23.60229  23.70515
 Alpha virt. eigenvalues --   23.75892  23.77860  23.79059  23.82549  23.85855
 Alpha virt. eigenvalues --   23.89191  24.27511  49.98851  50.05873  50.11518
 Alpha virt. eigenvalues --  141.29920
          Condensed to atoms (all electrons):
               1          2          3          4          5          6
     1  C    5.190991   0.252808  -0.048850  -0.010021  -0.050025   0.405427
     2  C    0.252808   5.579665   0.311743  -0.096311  -0.011021  -0.047145
     3  C   -0.048850   0.311743   5.200765   0.240563  -0.008856  -0.017297
     4  C   -0.010021  -0.096311   0.240563   5.872848   0.230457   0.003200
     5  C   -0.050025  -0.011021  -0.008856   0.230457   4.427232  -0.002917
     6  H    0.405427  -0.047145  -0.017297   0.003200  -0.002917   0.475964
     7  H   -0.043586   0.409915  -0.055181  -0.006675   0.000443   0.006826
     8  H    0.000526  -0.006562  -0.032155   0.365208  -0.030060   0.000175
     9  H   -0.000339   0.006863  -0.032360   0.369027  -0.027873   0.000081
    10  O    0.225951  -0.038611   0.003101  -0.109389   0.332403  -0.034079
    11  O    0.000918  -0.000101   0.002039  -0.100127   0.665896   0.000340
    12  C    0.333275  -0.061879   0.010362  -0.002433   0.003232  -0.055134
    13  C   -0.073670  -0.009279  -0.001078   0.000431  -0.000329   0.008431
    14  C   -0.062562   0.295133  -0.062534   0.007978  -0.000002  -0.001042
    15  O    0.003939  -0.054468   0.238729  -0.024369   0.001731  -0.000056
    16  Si   0.002356  -0.012189  -0.043666  -0.008510   0.001500  -0.000274
    17  C   -0.000100  -0.000583  -0.001634  -0.002097  -0.000077  -0.000006
    18  C   -0.000001  -0.000228   0.002370  -0.000140   0.000001   0.000000
    19  C    0.000009  -0.000282  -0.002303  -0.000793   0.000110   0.000001
    20  H   -0.000001   0.000000  -0.000074  -0.000021   0.000000   0.000000
    21  H    0.000000  -0.000025  -0.000122  -0.000039   0.000000   0.000000
    22  H    0.000000   0.000000  -0.000070  -0.000001   0.000000   0.000000
    23  H    0.000003  -0.000049   0.000555  -0.000367  -0.000038   0.000000
    24  H    0.000005  -0.000009  -0.000399   0.001493   0.000090   0.000000
    25  H    0.000000   0.000007  -0.000007   0.000111  -0.000002   0.000000
    26  H   -0.000058  -0.000655   0.000639   0.000275   0.000048  -0.000013
    27  H   -0.000054  -0.000113   0.000055   0.000289   0.000008  -0.000003
    28  H   -0.000003   0.000246  -0.000038   0.000056   0.000002   0.000000
    29  H   -0.006930  -0.036606   0.007273  -0.000260   0.000013  -0.000713
    30  H   -0.003687  -0.038663  -0.009110  -0.000118   0.000005   0.005183
    31  H    0.005359  -0.030710  -0.007619   0.000494  -0.000076  -0.000138
    32  H   -0.034857  -0.006207  -0.000260   0.000089  -0.000039  -0.000119
    33  H   -0.045699   0.009281  -0.000057   0.000249  -0.000183  -0.007394
    34  H    0.008060  -0.000056   0.000006  -0.000017   0.000026  -0.000203
    35  H   -0.007682   0.003580   0.000325   0.000099  -0.000030  -0.000403
    36  H   -0.009136  -0.000116  -0.000526   0.000809  -0.000457   0.000595
    37  C   -0.000605  -0.097452   0.269018  -0.089300  -0.007515   0.005914
    38  C   -0.000623   0.009033  -0.062833  -0.008024   0.000182   0.000238
    39  C    0.000016  -0.000157  -0.002950   0.000036   0.000132   0.000000
    40  H    0.003452  -0.006440  -0.036091  -0.001080   0.003686   0.000936
    41  H    0.000034  -0.008343  -0.032423   0.005908  -0.000196   0.000109
    42  H   -0.000135  -0.000092  -0.003909   0.000505   0.001350   0.000116
    43  H    0.000000   0.000019  -0.000132   0.000021  -0.000012  -0.000001
    44  H   -0.000001  -0.000076  -0.000271   0.000067   0.000002   0.000004
               7          8          9         10         11         12
     1  C   -0.043586   0.000526  -0.000339   0.225951   0.000918   0.333275
     2  C    0.409915  -0.006562   0.006863  -0.038611  -0.000101  -0.061879
     3  C   -0.055181  -0.032155  -0.032360   0.003101   0.002039   0.010362
     4  C   -0.006675   0.365208   0.369027  -0.109389  -0.100127  -0.002433
     5  C    0.000443  -0.030060  -0.027873   0.332403   0.665896   0.003232
     6  H    0.006826   0.000175   0.000081  -0.034079   0.000340  -0.055134
     7  H    0.470994   0.001894   0.000202   0.002317  -0.000015  -0.013231
     8  H    0.001894   0.416244  -0.017234   0.003461   0.001691  -0.000401
     9  H    0.000202  -0.017234   0.407310   0.004738   0.009600   0.000070
    10  O    0.002317   0.003461   0.004738   8.037458  -0.069121  -0.055511
    11  O   -0.000015   0.001691   0.009600  -0.069121   7.865160  -0.000153
    12  C   -0.013231  -0.000401   0.000070  -0.055511  -0.000153   5.335303
    13  C    0.004941   0.000283   0.000009   0.000390  -0.000002   0.284672
    14  C   -0.045324   0.000212  -0.000133   0.003323   0.000005  -0.002651
    15  O   -0.001738  -0.003325  -0.000525  -0.000034  -0.000017  -0.000073
    16  Si  -0.002992   0.002888  -0.005119  -0.000942  -0.000489  -0.000143
    17  C   -0.005636   0.002513   0.000360   0.000010   0.000001  -0.000005
    18  C   -0.000143   0.000000  -0.000050   0.000000   0.000000   0.000000
    19  C   -0.000308  -0.000163  -0.002494   0.000000  -0.000002   0.000000
    20  H   -0.000029  -0.000006  -0.000006   0.000000   0.000000   0.000000
    21  H   -0.000001   0.000000  -0.000017   0.000000   0.000000   0.000000
    22  H   -0.000002   0.000005  -0.000002   0.000000   0.000000   0.000000
    23  H    0.000003   0.000010   0.000393   0.000000   0.000001   0.000000
    24  H   -0.000066   0.001150  -0.000974  -0.000004  -0.000055   0.000000
    25  H    0.000005  -0.000040   0.000251   0.000000   0.000000   0.000000
    26  H   -0.001918   0.005301   0.000041  -0.000036   0.000005   0.000024
    27  H   -0.002141  -0.000374   0.000003  -0.000003   0.000000   0.000021
    28  H    0.000663  -0.000029  -0.000005   0.000000   0.000000   0.000000
    29  H   -0.008265  -0.000035   0.000013  -0.000008   0.000000   0.001895
    30  H    0.007733  -0.000010   0.000011   0.000027   0.000001  -0.001182
    31  H   -0.004255   0.000042  -0.000029  -0.000107   0.000000   0.000077
    32  H    0.000187   0.000003  -0.000003   0.003089   0.000007   0.389189
    33  H   -0.000380  -0.000013  -0.000008   0.003468  -0.000032   0.403322
    34  H    0.000309  -0.000001   0.000000  -0.000190   0.000000  -0.035405
    35  H   -0.001841  -0.000058  -0.000001  -0.000029   0.000001  -0.037866
    36  H    0.000261   0.000238  -0.000013   0.011002  -0.000105  -0.043581
    37  C    0.008526   0.006368  -0.008540  -0.002534   0.000410  -0.000437
    38  C   -0.000144   0.000097   0.005130   0.000010  -0.000141   0.000003
    39  C   -0.000009   0.000016   0.001072  -0.000001   0.000015   0.000000
    40  H   -0.000164  -0.000038   0.000477   0.000117   0.000006   0.000788
    41  H   -0.000058  -0.000123  -0.000003   0.000014  -0.000005  -0.000083
    42  H    0.000036   0.000379   0.000985  -0.000062   0.002611  -0.000004
    43  H   -0.000001  -0.000007   0.000012   0.000000  -0.000002   0.000000
    44  H    0.000004   0.000009   0.000008   0.000000   0.000001   0.000000
              13         14         15         16         17         18
     1  C   -0.073670  -0.062562   0.003939   0.002356  -0.000100  -0.000001
     2  C   -0.009279   0.295133  -0.054468  -0.012189  -0.000583  -0.000228
     3  C   -0.001078  -0.062534   0.238729  -0.043666  -0.001634   0.002370
     4  C    0.000431   0.007978  -0.024369  -0.008510  -0.002097  -0.000140
     5  C   -0.000329  -0.000002   0.001731   0.001500  -0.000077   0.000001
     6  H    0.008431  -0.001042  -0.000056  -0.000274  -0.000006   0.000000
     7  H    0.004941  -0.045324  -0.001738  -0.002992  -0.005636  -0.000143
     8  H    0.000283   0.000212  -0.003325   0.002888   0.002513   0.000000
     9  H    0.000009  -0.000133  -0.000525  -0.005119   0.000360  -0.000050
    10  O    0.000390   0.003323  -0.000034  -0.000942   0.000010   0.000000
    11  O   -0.000002   0.000005  -0.000017  -0.000489   0.000001   0.000000
    12  C    0.284672  -0.002651  -0.000073  -0.000143  -0.000005   0.000000
    13  C    5.386264  -0.000075  -0.000001  -0.000196  -0.000034   0.000000
    14  C   -0.000075   5.394355  -0.005373  -0.001273   0.000995  -0.000106
    15  O   -0.000001  -0.005373   8.245739   0.351967  -0.023578  -0.020965
    16  Si  -0.000196  -0.001273   0.351967  11.527141   0.312122   0.335031
    17  C   -0.000034   0.000995  -0.023578   0.312122   5.806650  -0.050971
    18  C    0.000000  -0.000106  -0.020965   0.335031  -0.050971   5.723831
    19  C    0.000000   0.000009  -0.023387   0.322531  -0.058550  -0.052492
    20  H    0.000000   0.000058  -0.001216  -0.028287  -0.000466   0.368710
    21  H    0.000000  -0.000008  -0.001334  -0.026492   0.002554   0.369817
    22  H    0.000000  -0.000002   0.000907  -0.013286   0.000062   0.363766
    23  H    0.000000   0.000001  -0.002237  -0.024798   0.002209  -0.000386
    24  H    0.000000   0.000001  -0.000986  -0.029054  -0.001768   0.002809
    25  H    0.000000   0.000000   0.000900  -0.012089   0.000929  -0.000824
    26  H    0.000209   0.000255  -0.001140  -0.030641   0.366275   0.003004
    27  H    0.000070   0.000552  -0.002000  -0.027709   0.370471  -0.000485
    28  H   -0.000002  -0.000027   0.000829  -0.010185   0.365974  -0.000833
    29  H    0.000142   0.391784   0.000125  -0.000164   0.000095  -0.000004
    30  H    0.000165   0.385039  -0.000068  -0.000179   0.000009   0.000002
    31  H   -0.000101   0.384898   0.007549   0.003329  -0.000070   0.000188
    32  H   -0.038548   0.001979  -0.000003  -0.000011  -0.000002   0.000000
    33  H   -0.046782  -0.000400   0.000004   0.000026   0.000000   0.000000
    34  H    0.391914  -0.000062   0.000000   0.000000   0.000000   0.000000
    35  H    0.384393   0.000854   0.000006  -0.000051   0.000522   0.000001
    36  H    0.386415   0.000085   0.000002  -0.000008   0.000014   0.000000
    37  C    0.000018  -0.008456  -0.071998  -0.000610  -0.000310  -0.000008
    38  C    0.000000  -0.000283  -0.001839   0.000290   0.000009  -0.000043
    39  C    0.000000   0.000026   0.003003   0.001220   0.000004  -0.000061
    40  H   -0.000018   0.000829   0.003624   0.000181   0.000017   0.000001
    41  H    0.000001   0.001307   0.000365  -0.000250  -0.000006  -0.000049
    42  H    0.000000  -0.000033   0.000027  -0.000293  -0.000001   0.000000
    43  H    0.000000   0.000000   0.000134   0.000209   0.000000  -0.000003
    44  H    0.000000   0.000003   0.000848  -0.000051   0.000002   0.000035
              19         20         21         22         23         24
     1  C    0.000009  -0.000001   0.000000   0.000000   0.000003   0.000005
     2  C   -0.000282   0.000000  -0.000025   0.000000  -0.000049  -0.000009
     3  C   -0.002303  -0.000074  -0.000122  -0.000070   0.000555  -0.000399
     4  C   -0.000793  -0.000021  -0.000039  -0.000001  -0.000367   0.001493
     5  C    0.000110   0.000000   0.000000   0.000000  -0.000038   0.000090
     6  H    0.000001   0.000000   0.000000   0.000000   0.000000   0.000000
     7  H   -0.000308  -0.000029  -0.000001  -0.000002   0.000003  -0.000066
     8  H   -0.000163  -0.000006   0.000000   0.000005   0.000010   0.001150
     9  H   -0.002494  -0.000006  -0.000017  -0.000002   0.000393  -0.000974
    10  O    0.000000   0.000000   0.000000   0.000000   0.000000  -0.000004
    11  O   -0.000002   0.000000   0.000000   0.000000   0.000001  -0.000055
    12  C    0.000000   0.000000   0.000000   0.000000   0.000000   0.000000
    13  C    0.000000   0.000000   0.000000   0.000000   0.000000   0.000000
    14  C    0.000009   0.000058  -0.000008  -0.000002   0.000001   0.000001
    15  O   -0.023387  -0.001216  -0.001334   0.000907  -0.002237  -0.000986
    16  Si   0.322531  -0.028287  -0.026492  -0.013286  -0.024798  -0.029054
    17  C   -0.058550  -0.000466   0.002554   0.000062   0.002209  -0.001768
    18  C   -0.052492   0.368710   0.369817   0.363766  -0.000386   0.002809
    19  C    5.771066   0.002565  -0.000473   0.000505   0.369974   0.369522
    20  H    0.002565   0.459703  -0.018101  -0.020673  -0.000106  -0.000116
    21  H   -0.000473  -0.018101   0.454839  -0.020535   0.001108  -0.000089
    22  H    0.000505  -0.020673  -0.020535   0.453142  -0.000055  -0.000081
    23  H    0.369974  -0.000106   0.001108  -0.000055   0.446138  -0.018698
    24  H    0.369522  -0.000116  -0.000089  -0.000081  -0.018698   0.457609
    25  H    0.364248   0.000003  -0.000105   0.000817  -0.020177  -0.022783
    26  H   -0.001465  -0.000096  -0.000106  -0.000076  -0.000022   0.000928
    27  H    0.002411   0.001236  -0.000074  -0.000058  -0.000098  -0.000022
    28  H    0.000555  -0.000082  -0.000050   0.000601  -0.000030   0.000087
    29  H    0.000001  -0.000002   0.000000   0.000000   0.000000   0.000000
    30  H    0.000001  -0.000008   0.000000   0.000000   0.000000   0.000000
    31  H    0.000042   0.000546  -0.000012  -0.000013   0.000002   0.000001
    32  H    0.000000   0.000000   0.000000   0.000000   0.000000   0.000000
    33  H    0.000000   0.000000   0.000000   0.000000   0.000000   0.000000
    34  H    0.000000   0.000000   0.000000   0.000000   0.000000   0.000000
    35  H    0.000003   0.000000   0.000000   0.000000   0.000000   0.000001
    36  H    0.000000   0.000000   0.000000   0.000000   0.000000  -0.000001
    37  C   -0.000072  -0.000013   0.000063   0.000000   0.000114  -0.000026
    38  C   -0.000039  -0.000002   0.000005  -0.000002   0.000937  -0.000054
    39  C   -0.000123  -0.000012   0.000047  -0.000003   0.000986  -0.000016
    40  H    0.000002   0.000000  -0.000001   0.000000   0.000005   0.000002
    41  H    0.000025  -0.000010  -0.000003   0.000001   0.000007   0.000001
    42  H    0.000027   0.000000   0.000001   0.000000  -0.000010  -0.000023
    43  H    0.000003   0.000000  -0.000006   0.000000   0.000026   0.000001
    44  H    0.000002  -0.000001   0.000077  -0.000002   0.000004  -0.000002
              25         26         27         28         29         30
     1  C    0.000000  -0.000058  -0.000054  -0.000003  -0.006930  -0.003687
     2  C    0.000007  -0.000655  -0.000113   0.000246  -0.036606  -0.038663
     3  C   -0.000007   0.000639   0.000055  -0.000038   0.007273  -0.009110
     4  C    0.000111   0.000275   0.000289   0.000056  -0.000260  -0.000118
     5  C   -0.000002   0.000048   0.000008   0.000002   0.000013   0.000005
     6  H    0.000000  -0.000013  -0.000003   0.000000  -0.000713   0.005183
     7  H    0.000005  -0.001918  -0.002141   0.000663  -0.008265   0.007733
     8  H   -0.000040   0.005301  -0.000374  -0.000029  -0.000035  -0.000010
     9  H    0.000251   0.000041   0.000003  -0.000005   0.000013   0.000011
    10  O    0.000000  -0.000036  -0.000003   0.000000  -0.000008   0.000027
    11  O    0.000000   0.000005   0.000000   0.000000   0.000000   0.000001
    12  C    0.000000   0.000024   0.000021   0.000000   0.001895  -0.001182
    13  C    0.000000   0.000209   0.000070  -0.000002   0.000142   0.000165
    14  C    0.000000   0.000255   0.000552  -0.000027   0.391784   0.385039
    15  O    0.000900  -0.001140  -0.002000   0.000829   0.000125  -0.000068
    16  Si  -0.012089  -0.030641  -0.027709  -0.010185  -0.000164  -0.000179
    17  C    0.000929   0.366275   0.370471   0.365974   0.000095   0.000009
    18  C   -0.000824   0.003004  -0.000485  -0.000833  -0.000004   0.000002
    19  C    0.364248  -0.001465   0.002411   0.000555   0.000001   0.000001
    20  H    0.000003  -0.000096   0.001236  -0.000082  -0.000002  -0.000008
    21  H   -0.000105  -0.000106  -0.000074  -0.000050   0.000000   0.000000
    22  H    0.000817  -0.000076  -0.000058   0.000601   0.000000   0.000000
    23  H   -0.020177  -0.000022  -0.000098  -0.000030   0.000000   0.000000
    24  H   -0.022783   0.000928  -0.000022   0.000087   0.000000   0.000000
    25  H    0.450966   0.000072  -0.000040   0.000324   0.000000   0.000000
    26  H    0.000072   0.451622  -0.019328  -0.019957   0.000011  -0.000008
    27  H   -0.000040  -0.019328   0.450759  -0.020561   0.000171  -0.000006
    28  H    0.000324  -0.019957  -0.020561   0.435121  -0.000003   0.000000
    29  H    0.000000   0.000011   0.000171  -0.000003   0.458927  -0.026514
    30  H    0.000000  -0.000008  -0.000006   0.000000  -0.026514   0.467844
    31  H    0.000000  -0.000013   0.000383   0.000006  -0.024906  -0.023888
    32  H    0.000000   0.000001  -0.000004   0.000000  -0.000147   0.000318
    33  H    0.000000   0.000000   0.000000   0.000000   0.000214  -0.000155
    34  H    0.000000  -0.000004  -0.000003   0.000000  -0.000051   0.000009
    35  H    0.000000   0.000429   0.000468  -0.000019   0.001691  -0.000125
    36  H    0.000000   0.000043  -0.000010   0.000000  -0.000108   0.000006
    37  C    0.000001  -0.000094  -0.000094   0.000005  -0.000229   0.003961
    38  C    0.000008   0.000007   0.000004   0.000001   0.000012   0.000220
    39  C    0.000003   0.000001   0.000001   0.000000  -0.000001  -0.000001
    40  H    0.000000   0.000006   0.000003   0.000000  -0.000066  -0.000139
    41  H    0.000000  -0.000002  -0.000006   0.000000   0.000201   0.000253
    42  H   -0.000001  -0.000001   0.000000   0.000000   0.000001  -0.000001
    43  H    0.000000   0.000000   0.000000   0.000000   0.000000   0.000000
    44  H    0.000000   0.000000   0.000000   0.000000   0.000000  -0.000006
              31         32         33         34         35         36
     1  C    0.005359  -0.034857  -0.045699   0.008060  -0.007682  -0.009136
     2  C   -0.030710  -0.006207   0.009281  -0.000056   0.003580  -0.000116
     3  C   -0.007619  -0.000260  -0.000057   0.000006   0.000325  -0.000526
     4  C    0.000494   0.000089   0.000249  -0.000017   0.000099   0.000809
     5  C   -0.000076  -0.000039  -0.000183   0.000026  -0.000030  -0.000457
     6  H   -0.000138  -0.000119  -0.007394  -0.000203  -0.000403   0.000595
     7  H   -0.004255   0.000187  -0.000380   0.000309  -0.001841   0.000261
     8  H    0.000042   0.000003  -0.000013  -0.000001  -0.000058   0.000238
     9  H   -0.000029  -0.000003  -0.000008   0.000000  -0.000001  -0.000013
    10  O   -0.000107   0.003089   0.003468  -0.000190  -0.000029   0.011002
    11  O    0.000000   0.000007  -0.000032   0.000000   0.000001  -0.000105
    12  C    0.000077   0.389189   0.403322  -0.035405  -0.037866  -0.043581
    13  C   -0.000101  -0.038548  -0.046782   0.391914   0.384393   0.386415
    14  C    0.384898   0.001979  -0.000400  -0.000062   0.000854   0.000085
    15  O    0.007549  -0.000003   0.000004   0.000000   0.000006   0.000002
    16  Si   0.003329  -0.000011   0.000026   0.000000  -0.000051  -0.000008
    17  C   -0.000070  -0.000002   0.000000   0.000000   0.000522   0.000014
    18  C    0.000188   0.000000   0.000000   0.000000   0.000001   0.000000
    19  C    0.000042   0.000000   0.000000   0.000000   0.000003   0.000000
    20  H    0.000546   0.000000   0.000000   0.000000   0.000000   0.000000
    21  H   -0.000012   0.000000   0.000000   0.000000   0.000000   0.000000
    22  H   -0.000013   0.000000   0.000000   0.000000   0.000000   0.000000
    23  H    0.000002   0.000000   0.000000   0.000000   0.000000   0.000000
    24  H    0.000001   0.000000   0.000000   0.000000   0.000001  -0.000001
    25  H    0.000000   0.000000   0.000000   0.000000   0.000000   0.000000
    26  H   -0.000013   0.000001   0.000000  -0.000004   0.000429   0.000043
    27  H    0.000383  -0.000004   0.000000  -0.000003   0.000468  -0.000010
    28  H    0.000006   0.000000   0.000000   0.000000  -0.000019   0.000000
    29  H   -0.024906  -0.000147   0.000214  -0.000051   0.001691  -0.000108
    30  H   -0.023888   0.000318  -0.000155   0.000009  -0.000125   0.000006
    31  H    0.428515   0.000270   0.000023  -0.000003  -0.000014   0.000023
    32  H    0.000270   0.469137  -0.025637  -0.003706  -0.006085   0.007139
    33  H    0.000023  -0.025637   0.470896  -0.006372   0.007022  -0.003498
    34  H   -0.000003  -0.003706  -0.006372   0.464470  -0.027434  -0.025834
    35  H   -0.000014  -0.006085   0.007022  -0.027434   0.481872  -0.027502
    36  H    0.000023   0.007139  -0.003498  -0.025834  -0.027502   0.468435
    37  C   -0.000590  -0.000004  -0.000021   0.000002  -0.000024   0.000016
    38  C   -0.000132  -0.000001  -0.000002   0.000000   0.000000   0.000000
    39  C    0.000017   0.000000   0.000000   0.000000   0.000000   0.000000
    40  H    0.000028  -0.000005  -0.000036   0.000001  -0.000002  -0.000003
    41  H    0.000461  -0.000006   0.000006   0.000000   0.000001   0.000000
    42  H    0.000001   0.000000   0.000000   0.000000   0.000000   0.000000
    43  H   -0.000001   0.000000   0.000000   0.000000   0.000000   0.000000
    44  H    0.000018   0.000000   0.000000   0.000000   0.000000   0.000000
              37         38         39         40         41         42
     1  C   -0.000605  -0.000623   0.000016   0.003452   0.000034  -0.000135
     2  C   -0.097452   0.009033  -0.000157  -0.006440  -0.008343  -0.000092
     3  C    0.269018  -0.062833  -0.002950  -0.036091  -0.032423  -0.003909
     4  C   -0.089300  -0.008024   0.000036  -0.001080   0.005908   0.000505
     5  C   -0.007515   0.000182   0.000132   0.003686  -0.000196   0.001350
     6  H    0.005914   0.000238   0.000000   0.000936   0.000109   0.000116
     7  H    0.008526  -0.000144  -0.000009  -0.000164  -0.000058   0.000036
     8  H    0.006368   0.000097   0.000016  -0.000038  -0.000123   0.000379
     9  H   -0.008540   0.005130   0.001072   0.000477  -0.000003   0.000985
    10  O   -0.002534   0.000010  -0.000001   0.000117   0.000014  -0.000062
    11  O    0.000410  -0.000141   0.000015   0.000006  -0.000005   0.002611
    12  C   -0.000437   0.000003   0.000000   0.000788  -0.000083  -0.000004
    13  C    0.000018   0.000000   0.000000  -0.000018   0.000001   0.000000
    14  C   -0.008456  -0.000283   0.000026   0.000829   0.001307  -0.000033
    15  O   -0.071998  -0.001839   0.003003   0.003624   0.000365   0.000027
    16  Si  -0.000610   0.000290   0.001220   0.000181  -0.000250  -0.000293
    17  C   -0.000310   0.000009   0.000004   0.000017  -0.000006  -0.000001
    18  C   -0.000008  -0.000043  -0.000061   0.000001  -0.000049   0.000000
    19  C   -0.000072  -0.000039  -0.000123   0.000002   0.000025   0.000027
    20  H   -0.000013  -0.000002  -0.000012   0.000000  -0.000010   0.000000
    21  H    0.000063   0.000005   0.000047  -0.000001  -0.000003   0.000001
    22  H    0.000000  -0.000002  -0.000003   0.000000   0.000001   0.000000
    23  H    0.000114   0.000937   0.000986   0.000005   0.000007  -0.000010
    24  H   -0.000026  -0.000054  -0.000016   0.000002   0.000001  -0.000023
    25  H    0.000001   0.000008   0.000003   0.000000   0.000000  -0.000001
    26  H   -0.000094   0.000007   0.000001   0.000006  -0.000002  -0.000001
    27  H   -0.000094   0.000004   0.000001   0.000003  -0.000006   0.000000
    28  H    0.000005   0.000001   0.000000   0.000000   0.000000   0.000000
    29  H   -0.000229   0.000012  -0.000001  -0.000066   0.000201   0.000001
    30  H    0.003961   0.000220  -0.000001  -0.000139   0.000253  -0.000001
    31  H   -0.000590  -0.000132   0.000017   0.000028   0.000461   0.000001
    32  H   -0.000004  -0.000001   0.000000  -0.000005  -0.000006   0.000000
    33  H   -0.000021  -0.000002   0.000000  -0.000036   0.000006   0.000000
    34  H    0.000002   0.000000   0.000000   0.000001   0.000000   0.000000
    35  H   -0.000024   0.000000   0.000000  -0.000002   0.000001   0.000000
    36  H    0.000016   0.000000   0.000000  -0.000003   0.000000   0.000000
    37  C    5.508288   0.332285  -0.057186   0.380045   0.396012  -0.048592
    38  C    0.332285   5.031923   0.637877  -0.042964  -0.044238   0.394567
    39  C   -0.057186   0.637877   5.125637   0.002027  -0.001004  -0.037526
    40  H    0.380045  -0.042964   0.002027   0.463390  -0.021657  -0.003745
    41  H    0.396012  -0.044238  -0.001004  -0.021657   0.431841   0.004756
    42  H   -0.048592   0.394567  -0.037526  -0.003745   0.004756   0.472727
    43  H    0.006366  -0.038512   0.390002  -0.000342   0.000054  -0.008726
    44  H   -0.009251  -0.039118   0.387793   0.000137   0.005217   0.006232
              43         44
     1  C    0.000000  -0.000001
     2  C    0.000019  -0.000076
     3  C   -0.000132  -0.000271
     4  C    0.000021   0.000067
     5  C   -0.000012   0.000002
     6  H   -0.000001   0.000004
     7  H   -0.000001   0.000004
     8  H   -0.000007   0.000009
     9  H    0.000012   0.000008
    10  O    0.000000   0.000000
    11  O   -0.000002   0.000001
    12  C    0.000000   0.000000
    13  C    0.000000   0.000000
    14  C    0.000000   0.000003
    15  O    0.000134   0.000848
    16  Si   0.000209  -0.000051
    17  C    0.000000   0.000002
    18  C   -0.000003   0.000035
    19  C    0.000003   0.000002
    20  H    0.000000  -0.000001
    21  H   -0.000006   0.000077
    22  H    0.000000  -0.000002
    23  H    0.000026   0.000004
    24  H    0.000001  -0.000002
    25  H    0.000000   0.000000
    26  H    0.000000   0.000000
    27  H    0.000000   0.000000
    28  H    0.000000   0.000000
    29  H    0.000000   0.000000
    30  H    0.000000  -0.000006
    31  H   -0.000001   0.000018
    32  H    0.000000   0.000000
    33  H    0.000000   0.000000
    34  H    0.000000   0.000000
    35  H    0.000000   0.000000
    36  H    0.000000   0.000000
    37  C    0.006366  -0.009251
    38  C   -0.038512  -0.039118
    39  C    0.390002   0.387793
    40  H   -0.000342   0.000137
    41  H    0.000054   0.005217
    42  H   -0.008726   0.006232
    43  H    0.459829  -0.033930
    44  H   -0.033930   0.461364
 Mulliken charges:
               1
     1  C   -0.034506
     2  C   -0.313866
     3  C    0.175257
     4  C   -0.640121
     5  C    0.471158
     6  H    0.253397
     7  H    0.278845
     8  H    0.281920
     9  H    0.289071
    10  O   -0.320218
    11  O   -0.378342
    12  C   -0.452063
    13  C   -0.678635
    14  C   -0.679334
    15  O   -0.619696
    16  Si   1.419157
    17  C   -1.085899
    18  C   -1.041774
    19  C   -1.060663
    20  H    0.236511
    21  H    0.239082
    22  H    0.235056
    23  H    0.244595
    24  H    0.241527
    25  H    0.237422
    26  H    0.246436
    27  H    0.246283
    28  H    0.247354
    29  H    0.242442
    30  H    0.233082
    31  H    0.260406
    32  H    0.244238
    33  H    0.242161
    34  H    0.234543
    35  H    0.227901
    36  H    0.235813
    37  C   -0.513449
    38  C   -0.173843
    39  C   -0.450880
    40  H    0.253030
    41  H    0.261891
    42  H    0.218834
    43  H    0.224997
    44  H    0.220881
 Sum of Mulliken charges =   0.00000
 Mulliken charges with hydrogens summed into heavy atoms:
               1
     1  C    0.218891
     2  C   -0.035022
     3  C    0.175257
     4  C   -0.069130
     5  C    0.471158
    10  O   -0.320218
    11  O   -0.378342
    12  C    0.034336
    13  C    0.019623
    14  C    0.056595
    15  O   -0.619696
    16  Si   1.419157
    17  C   -0.345826
    18  C   -0.331125
    19  C   -0.337118
    37  C    0.001472
    38  C    0.044991
    39  C   -0.005002
 Electronic spatial extent (au):  <R**2>=           5254.6578
 Charge=              0.0000 electrons
 Dipole moment (field-independent basis, Debye):
    X=              1.0921    Y=             -3.7006    Z=             -2.9327  Tot=              4.8465
 Quadrupole moment (field-independent basis, Debye-Ang):
   XX=           -121.0977   YY=           -123.1309   ZZ=           -123.9291
   XY=              7.6649   XZ=             11.9114   YZ=             -6.7184
 Traceless Quadrupole moment (field-independent basis, Debye-Ang):
   XX=              1.6215   YY=             -0.4117   ZZ=             -1.2099
   XY=              7.6649   XZ=             11.9114   YZ=             -6.7184
 Octapole moment (field-independent basis, Debye-Ang**2):
  XXX=             -8.7774  YYY=             -9.2768  ZZZ=            -15.3913  XYY=             17.0701
  XXY=            -20.4479  XXZ=            -20.5033  XZZ=              8.1071  YZZ=            -20.1124
  YYZ=            -11.7314  XYZ=             10.0467
 Hexadecapole moment (field-independent basis, Debye-Ang**3):
 XXXX=          -3726.7225 YYYY=          -2236.2172 ZZZZ=          -1234.9413 XXXY=             60.3130
 XXXZ=             68.1372 YYYX=             36.3704 YYYZ=             27.0506 ZZZX=              6.1092
 ZZZY=            -29.8220 XXYY=           -964.0652 XXZZ=           -861.3192 YYZZ=           -614.3958
 XXYZ=            -56.8157 YYXZ=             47.9623 ZZXY=             31.9948
 N-N= 1.640383163674D+03 E-N=-5.775758222820D+03  KE= 1.060531430138D+03
 1\1\GINC-SWANNODE-0-1\SP\RmPW1PW91\6-311G(d)\C14H26O3Si1\ROOT\08-Mar-2
 018\0\\#mPW1PW91/6-311g(d) nmr=(giao) scrf=(solvent=chloroform)\\P_ng_
 correct1ginp015\\0,1\C,0,1.045613,-0.39813,0.534134\C,0,-0.486818,-0.4
 71176,0.663406\C,0,-1.013075,0.666749,1.587643\C,0,-0.523151,1.988319,
 0.989406\C,0,0.966813,2.038135,0.849589\H,0,1.505474,-0.750746,1.46554
 3\H,0,-0.923515,-0.293806,-0.32536\H,0,-0.925685,2.156762,-0.015412\H,
 0,-0.851408,2.842044,1.592027\O,0,1.555586,0.939727,0.331448\O,0,1.605
 665,3.060809,1.071721\C,0,1.638905,-1.273815,-0.585815\C,0,1.167064,-0
 .908641,-1.987736\C,0,-0.948516,-1.872617,1.087646\O,0,-2.447698,0.549
 939,1.708149\Si,0,-3.652907,1.160809,0.727483\C,0,-3.417801,0.716711,-
 1.080701\C,0,-5.305381,0.415731,1.271001\C,0,-3.809805,3.02589,0.88672
 5\H,0,-5.279217,-0.673753,1.177201\H,0,-5.511403,0.670183,2.314671\H,0
 ,-6.120535,0.799698,0.650937\H,0,-3.870487,3.316893,1.939553\H,0,-2.95
 5507,3.537966,0.436432\H,0,-4.715127,3.376988,0.382297\H,0,-2.521981,1
 .18795,-1.493732\H,0,-3.325256,-0.366557,-1.202555\H,0,-4.276186,1.052
 301,-1.670562\H,0,-0.720596,-2.609646,0.311085\H,0,-0.454725,-2.198861
 ,2.008317\H,0,-2.029875,-1.910902,1.24959\H,0,1.431161,-2.33232,-0.397
 273\H,0,2.730678,-1.160593,-0.568888\H,0,1.718436,-1.494532,-2.730501\
 H,0,0.104013,-1.12703,-2.123074\H,0,1.334936,0.150673,-2.20437\C,0,-0.
 494956,0.492858,3.059475\C,0,-0.854626,1.618315,4.000859\C,0,-1.778645
 ,1.522296,4.965357\H,0,0.595364,0.396494,3.089952\H,0,-0.898367,-0.441
 046,3.472255\H,0,-0.304152,2.551811,3.897499\H,0,-1.987169,2.361487,5.
 621789\H,0,-2.353656,0.613435,5.114622\\Version=EM64L-G09RevD.01\State
 =1-A\HF=-1064.3756893\RMSD=9.501e-09\Dipole=-1.0586342,-1.510324,-0.48
 36504\Quadrupole=-4.7368148,0.8694934,3.8673214,-10.7668071,0.9064013,
 1.0987038\PG=C01 [X(C14H26O3Si1)]\\@


 UNLESS WE CHANGE DIRECTIONS, WE WILL WIND UP WHERE WE ARE HEADED.
     -- CONFUCIUS
 Job cpu time:       0 days  1 hours 13 minutes  1.7 seconds.
 File lengths (MBytes):  RWF=    238 Int=      0 D2E=      0 Chk=     11 Scr=      1
 Normal termination of Gaussian 09 at Thu Mar  8 13:14:13 2018.
