 Entering Gaussian System, Link 0=/usr/local/shared/gaussian/em64t/09-D01/g09/g09
 Initial command:
 /usr/local/shared/gaussian/em64t/09-D01/g09/l1.exe "/scratch/ah809/P_ng_correct1ginp011/Gau-32442.inp" -scrdir="/scratch/ah809/P_ng_correct1ginp011/"
 Entering Link 1 = /usr/local/shared/gaussian/em64t/09-D01/g09/l1.exe PID=     32474.
  
 Copyright (c) 1988,1990,1992,1993,1995,1998,2003,2009,2013,
            Gaussian, Inc.  All Rights Reserved.
  
 This is part of the Gaussian(R) 09 program.  It is based on
 the Gaussian(R) 03 system (copyright 2003, Gaussian, Inc.),
 the Gaussian(R) 98 system (copyright 1998, Gaussian, Inc.),
 the Gaussian(R) 94 system (copyright 1995, Gaussian, Inc.),
 the Gaussian 92(TM) system (copyright 1992, Gaussian, Inc.),
 the Gaussian 90(TM) system (copyright 1990, Gaussian, Inc.),
 the Gaussian 88(TM) system (copyright 1988, Gaussian, Inc.),
 the Gaussian 86(TM) system (copyright 1986, Carnegie Mellon
 University), and the Gaussian 82(TM) system (copyright 1983,
 Carnegie Mellon University). Gaussian is a federally registered
 trademark of Gaussian, Inc.
  
 This software contains proprietary and confidential information,
 including trade secrets, belonging to Gaussian, Inc.
  
 This software is provided under written license and may be
 used, copied, transmitted, or stored only in accord with that
 written license.
  
 The following legend is applicable only to US Government
 contracts under FAR:
  
                    RESTRICTED RIGHTS LEGEND
  
 Use, reproduction and disclosure by the US Government is
 subject to restrictions as set forth in subparagraphs (a)
 and (c) of the Commercial Computer Software - Restricted
 Rights clause in FAR 52.227-19.
  
 Gaussian, Inc.
 340 Quinnipiac St., Bldg. 40, Wallingford CT 06492
  
  
 ---------------------------------------------------------------
 Warning -- This program may not be used in any manner that
 competes with the business of Gaussian, Inc. or will provide
 assistance to any competitor of Gaussian, Inc.  The licensee
 of this program is prohibited from giving any competitor of
 Gaussian, Inc. access to this program.  By using this program,
 the user acknowledges that Gaussian, Inc. is engaged in the
 business of creating and licensing software in the field of
 computational chemistry and represents and warrants to the
 licensee that it is not a competitor of Gaussian, Inc. and that
 it will not use this program in any manner prohibited above.
 ---------------------------------------------------------------
  

 Cite this work as:
 Gaussian 09, Revision D.01,
 M. J. Frisch, G. W. Trucks, H. B. Schlegel, G. E. Scuseria, 
 M. A. Robb, J. R. Cheeseman, G. Scalmani, V. Barone, B. Mennucci, 
 G. A. Petersson, H. Nakatsuji, M. Caricato, X. Li, H. P. Hratchian, 
 A. F. Izmaylov, J. Bloino, G. Zheng, J. L. Sonnenberg, M. Hada, 
 M. Ehara, K. Toyota, R. Fukuda, J. Hasegawa, M. Ishida, T. Nakajima, 
 Y. Honda, O. Kitao, H. Nakai, T. Vreven, J. A. Montgomery, Jr., 
 J. E. Peralta, F. Ogliaro, M. Bearpark, J. J. Heyd, E. Brothers, 
 K. N. Kudin, V. N. Staroverov, T. Keith, R. Kobayashi, J. Normand, 
 K. Raghavachari, A. Rendell, J. C. Burant, S. S. Iyengar, J. Tomasi, 
 M. Cossi, N. Rega, J. M. Millam, M. Klene, J. E. Knox, J. B. Cross, 
 V. Bakken, C. Adamo, J. Jaramillo, R. Gomperts, R. E. Stratmann, 
 O. Yazyev, A. J. Austin, R. Cammi, C. Pomelli, J. W. Ochterski, 
 R. L. Martin, K. Morokuma, V. G. Zakrzewski, G. A. Voth, 
 P. Salvador, J. J. Dannenberg, S. Dapprich, A. D. Daniels, 
 O. Farkas, J. B. Foresman, J. V. Ortiz, J. Cioslowski, 
 and D. J. Fox, Gaussian, Inc., Wallingford CT, 2013.
 
 ******************************************
 Gaussian 09:  EM64L-G09RevD.01 24-Apr-2013
                 8-Mar-2018 
 ******************************************
 %mem=6000MB
 %chk=P_ng_correct1ginp011.chk
 --------------------------------------------------------
 #mPW1PW91/6-311g(d) nmr=(giao) scrf=(solvent=chloroform)
 --------------------------------------------------------
 1/38=1/1;
 2/12=2,17=6,18=5,40=1/2;
 3/5=4,6=6,7=1,11=2,16=1,25=1,30=1,70=2201,72=7,74=-7/1,2,8,3;
 4//1;
 5/5=2,38=5,53=7/2;
 8/6=1,10=90,11=11/1;
 10/13=100,45=16/2;
 6/7=2,8=2,9=2,10=2,28=1/1;
 99/9=1/99;
 --------------------
 P_ng_correct1ginp011
 --------------------
 Symbolic Z-matrix:
 Charge =  0 Multiplicity = 1
 C                     1.18943  -0.08083   1.06241 
 C                    -0.27592  -0.34849   0.70636 
 C                    -1.1643    0.86448   1.13438 
 C                    -0.62769   2.05325   0.3206 
 C                     0.8548    2.27326   0.4123 
 H                     1.30753  -0.06208   2.15234 
 H                    -0.36438  -0.39923  -0.38935 
 H                    -0.87925   1.94113  -0.74158 
 H                    -1.09732   2.98108   0.66131 
 O                     1.65107   1.20367   0.59084 
 O                     1.33653   3.391     0.24689 
 C                     2.18914  -1.12986   0.54169 
 C                     2.22103  -1.26916  -0.97522 
 C                    -0.75037  -1.72163   1.20282 
 O                    -2.49076   0.51058   0.68127 
 Si                   -3.92311   1.36752   0.78661 
 C                    -3.75827   3.21817   0.54464 
 C                    -5.08992   0.73854  -0.56793 
 C                    -4.78909   1.0682    2.4309 
 H                    -4.65093   0.91026  -1.55492 
 H                    -5.26738  -0.33394  -0.44684 
 H                    -6.05018   1.25971  -0.51686 
 H                    -5.79087   1.50812   2.41897 
 H                    -4.88848  -0.00403   2.62302 
 H                    -4.2321    1.51989   3.25601 
 H                    -3.19128   3.67494   1.36058 
 H                    -3.26057   3.44759  -0.40196 
 H                    -4.74686   3.68753   0.52522 
 H                    -0.45019  -1.9136    2.23585 
 H                    -1.83566  -1.83585   1.12805 
 H                    -0.31022  -2.51837   0.59286 
 H                     1.98797  -2.10762   0.99261 
 H                     3.19644  -0.83659   0.8646 
 H                     2.41664  -0.3087   -1.46161 
 H                     3.01651  -1.96182  -1.26907 
 H                     1.27893  -1.66816  -1.36162 
 C                    -1.11041   1.22231   2.65747 
 C                    -1.48051   0.131     3.62374 
 C                    -0.73538  -0.2201    4.68003 
 H                    -1.79368   2.05756   2.85388 
 H                    -0.1137    1.60393   2.91222 
 H                    -2.41903  -0.39168   3.45118 
 H                    -1.06012  -1.01334   5.34738 
 H                     0.2049    0.2713    4.91084 
 
                          Input orientation:                          
 ---------------------------------------------------------------------
 Center     Atomic      Atomic             Coordinates (Angstroms)
 Number     Number       Type             X           Y           Z
 ---------------------------------------------------------------------
      1          6           0        1.189434   -0.080827    1.062405
      2          6           0       -0.275920   -0.348490    0.706358
      3          6           0       -1.164304    0.864481    1.134384
      4          6           0       -0.627693    2.053249    0.320596
      5          6           0        0.854798    2.273256    0.412297
      6          1           0        1.307528   -0.062076    2.152343
      7          1           0       -0.364383   -0.399228   -0.389351
      8          1           0       -0.879245    1.941126   -0.741581
      9          1           0       -1.097317    2.981083    0.661309
     10          8           0        1.651066    1.203668    0.590839
     11          8           0        1.336528    3.390995    0.246887
     12          6           0        2.189135   -1.129859    0.541692
     13          6           0        2.221034   -1.269163   -0.975215
     14          6           0       -0.750369   -1.721626    1.202823
     15          8           0       -2.490760    0.510583    0.681273
     16         14           0       -3.923105    1.367522    0.786609
     17          6           0       -3.758265    3.218174    0.544638
     18          6           0       -5.089917    0.738535   -0.567927
     19          6           0       -4.789091    1.068198    2.430899
     20          1           0       -4.650933    0.910258   -1.554921
     21          1           0       -5.267378   -0.333939   -0.446841
     22          1           0       -6.050181    1.259714   -0.516855
     23          1           0       -5.790866    1.508120    2.418973
     24          1           0       -4.888475   -0.004034    2.623019
     25          1           0       -4.232105    1.519890    3.256011
     26          1           0       -3.191278    3.674943    1.360577
     27          1           0       -3.260566    3.447592   -0.401956
     28          1           0       -4.746855    3.687532    0.525218
     29          1           0       -0.450192   -1.913602    2.235855
     30          1           0       -1.835658   -1.835852    1.128049
     31          1           0       -0.310220   -2.518368    0.592859
     32          1           0        1.987972   -2.107624    0.992608
     33          1           0        3.196444   -0.836586    0.864603
     34          1           0        2.416637   -0.308698   -1.461614
     35          1           0        3.016506   -1.961816   -1.269068
     36          1           0        1.278934   -1.668162   -1.361623
     37          6           0       -1.110413    1.222314    2.657465
     38          6           0       -1.480514    0.130996    3.623736
     39          6           0       -0.735376   -0.220096    4.680029
     40          1           0       -1.793682    2.057564    2.853879
     41          1           0       -0.113696    1.603931    2.912220
     42          1           0       -2.419034   -0.391678    3.451184
     43          1           0       -1.060116   -1.013338    5.347384
     44          1           0        0.204904    0.271298    4.910835
 ---------------------------------------------------------------------
                    Distance matrix (angstroms):
                    1          2          3          4          5
     1  C    0.000000
     2  C    1.531560   0.000000
     3  C    2.537493   1.563244   0.000000
     4  C    2.899398   2.457826   1.537326   0.000000
     5  C    2.465021   2.870287   2.565703   1.501530   0.000000
     6  H    1.096477   2.163380   2.829258   3.402202   2.947287
     7  H    2.150191   1.100445   2.135088   2.566710   3.044867
     8  H    3.409119   2.775404   2.181666   1.097301   2.109182
     9  H    3.842577   3.429691   2.169860   1.094307   2.091358
    10  O    1.444093   2.477058   2.887351   2.446949   1.345340
    11  O    3.569349   4.098152   3.664026   2.377638   1.228318
    12  C    1.539809   2.591167   3.946420   4.256240   3.657648
    13  C    2.574536   3.148032   4.523644   4.564295   4.042341
    14  C    2.544558   1.535279   2.619919   3.878538   4.377279
    15  O    3.746846   2.375742   1.445697   2.445593   3.791058
    16  Si   5.320887   4.031513   2.825771   3.398107   4.877378
    17  C    5.969189   4.987381   3.551944   3.347794   4.710704
    18  C    6.539081   5.097057   4.280673   4.735968   6.217382
    19  C    6.239855   5.034854   3.855066   4.768746   6.113951
    20  H    6.476305   5.083165   4.403526   4.583716   6.003398
    21  H    6.635685   5.122961   4.557598   5.273927   6.709443
    22  H    7.530149   6.117570   5.172484   5.543861   7.040549
    23  H    7.286262   6.065862   4.844535   5.599885   6.984056
    24  H    6.275539   5.006786   4.103633   5.261922   6.561900
    25  H    6.063603   5.063889   3.787118   4.678987   5.876296
    26  H    5.778006   5.011520   3.472533   3.206777   4.385737
    27  H    5.864861   4.954464   3.664303   3.065664   4.356408
    28  H    7.051853   6.025906   4.601671   4.436242   5.778533
    29  H    2.724779   2.195292   3.072611   4.408586   4.749541
    30  H    3.497943   2.196099   2.782545   4.151658   4.963429
    31  H    2.900180   2.173115   3.530776   4.590708   4.934524
    32  H    2.179551   2.881267   4.334784   4.960460   4.562122
    33  H    2.153691   3.510070   4.688553   4.824014   3.919057
    34  H    2.815781   3.457101   4.575882   4.245352   3.552094
    35  H    3.508857   4.164757   5.589607   5.650484   5.043392
    36  H    2.898888   2.904419   4.314365   4.507104   4.342978
    37  C    3.087343   2.640194   1.565479   2.526743   3.163434
    38  C    3.705929   3.192499   2.614357   3.915749   4.511796
    39  C    4.100182   4.002205   3.732544   4.917759   5.192205
    40  H    4.084247   3.564343   2.185458   2.788740   3.608641
    41  H    2.821059   2.950270   2.193459   2.680036   2.763257
    42  H    4.338656   3.482653   2.918877   4.357425   5.201412
    43  H    4.928600   4.753536   4.613722   5.904197   6.230865
    44  H    3.987945   4.277027   4.060564   4.993882   4.966593
                    6          7          8          9         10
     6  H    0.000000
     7  H    3.060909   0.000000
     8  H    4.143620   2.422066   0.000000
     9  H    4.155392   3.614911   1.759877   0.000000
    10  O    2.039221   2.755373   2.953246   3.273802   0.000000
    11  O    3.944021   4.202819   2.826453   2.502674   2.236434
    12  C    2.124050   2.814448   4.526886   5.264496   2.395262
    13  C    3.474647   2.790055   4.469035   5.635091   2.981993
    14  C    2.809027   2.105407   4.148863   4.746481   3.833896
    15  O    4.113268   2.548621   2.582237   2.836451   4.200389
    16  Si   5.591825   4.143524   3.453906   3.256433   5.580014
    17  C    6.245560   5.047412   3.402053   2.674036   5.772454
    18  C    6.997725   4.863853   4.382481   4.741402   6.855650
    19  C    6.206761   5.448412   5.110140   4.518824   6.699238
    20  H    7.084666   4.631179   3.993725   4.672064   6.663750
    21  H    7.075242   4.903767   4.951616   5.441211   7.162812
    22  H    7.937734   5.924242   5.220479   5.374202   7.780703
    23  H    7.274875   6.400889   5.856673   5.223830   7.669232
    24  H    6.214126   5.449583   5.583736   5.208849   6.953697
    25  H    5.865853   5.650748   5.234487   4.323709   6.466439
    26  H    5.901818   5.258560   3.573610   2.314107   5.490719
    27  H    6.301563   4.815190   2.838217   2.455160   5.490443
    28  H    7.304974   6.061692   4.428670   3.719774   6.863474
    29  H    2.554350   3.031897   4.889595   5.182269   4.103503
    30  H    3.751677   2.555590   4.321551   4.895493   4.656664
    31  H    3.329034   2.336327   4.689521   5.555913   4.207160
    32  H    2.447908   3.219006   5.255542   5.960177   3.352548
    33  H    2.413741   3.800417   5.187172   5.749114   2.574058
    34  H    3.788355   2.981948   4.054996   5.260925   2.661938
    35  H    4.270324   3.827008   5.539682   6.714324   3.917138
    36  H    3.863714   2.292596   4.250782   5.599491   3.492563
    37  C    2.784106   3.531154   3.481902   2.660466   3.449211
    38  C    3.158394   4.199018   4.763831   4.128657   4.489530
    39  C    3.253863   5.086093   5.838273   5.150598   4.944055
    40  H    3.821326   4.312454   3.711750   2.478946   4.209130
    41  H    2.317945   3.869866   3.748337   2.816142   2.943366
    42  H    3.960163   4.355612   5.039068   4.572292   5.224214
    43  H    4.088878   5.811308   6.770308   6.157604   5.906805
    44  H    2.989347   5.372678   5.992788   5.205496   4.650061
                   11         12         13         14         15
    11  O    0.000000
    12  C    4.609986   0.000000
    13  C    4.898261   1.523624   0.000000
    14  C    5.604270   3.070499   3.711847   0.000000
    15  O    4.809740   4.961043   5.302118   2.878147   0.000000
    16  Si   5.661226   6.607297   6.914230   4.447732   1.672439
    17  C    5.106412   7.367290   7.628772   5.820848   2.992706
    18  C    6.999904   7.596496   7.592545   5.293357   2.892763
    19  C    6.905686   7.556202   8.136751   5.059898   2.941845
    20  H    6.726831   7.439381   7.232556   5.454023   3.134749
    21  H    7.613670   7.563747   7.565060   5.005041   3.113754
    22  H    7.725874   8.643894   8.661311   6.319311   3.829646
    23  H    7.685240   8.611825   9.133693   6.108755   3.860749
    24  H    7.478161   7.462705   8.068021   4.700106   3.127978
    25  H    6.600419   7.457950   8.205187   5.181264   3.268067
    26  H    4.671398   7.259858   7.693714   5.925022   3.311398
    27  H    4.643003   7.179329   7.254264   5.966341   3.223664
    28  H    6.096962   8.444850   8.681682   6.759441   3.899657
    29  H    5.940296   3.232722   4.226313   1.092756   3.529492
    30  H    6.177308   4.128099   4.604520   1.093842   2.476797
    31  H    6.144269   2.859607   3.229027   1.095712   3.733245
    32  H    5.587065   1.095361   2.151665   2.773391   5.197209
    33  H    4.659753   1.097703   2.126847   4.058943   5.847458
    34  H    4.215844   2.176993   1.094229   4.373273   5.417170
    35  H    5.811457   2.157672   1.094940   4.511905   6.344018
    36  H    5.309020   2.177348   1.093647   3.270675   4.809464
    37  C    4.062214   4.571239   5.522894   3.303392   2.513415
    38  C    5.474160   4.955308   6.067310   3.134667   3.134130
    39  C    6.081572   5.148424   6.467046   3.787582   4.427789
    40  H    4.286334   5.600777   6.468927   4.254029   2.756680
    41  H    3.521469   4.289061   5.368220   3.792983   3.438454
    42  H    6.219355   5.499571   6.472497   3.099731   2.914040
    43  H    7.152421   5.802231   7.127878   4.216041   5.112892
    44  H    5.724115   4.998982   6.409632   4.316671   5.021260
                   16         17         18         19         20
    16  Si   0.000000
    17  C    1.873669   0.000000
    18  C    1.895216   3.026501   0.000000
    19  C    1.882343   3.040227   3.031853   0.000000
    20  H    2.494311   3.245224   1.093779   3.991340   0.000000
    21  H    2.494682   3.984716   1.093780   3.236686   1.776477
    22  H    2.497017   3.196125   1.093775   3.211897   1.776962
    23  H    2.484534   3.250982   3.163094   1.094179   4.177166
    24  H    2.487068   3.997458   3.282396   1.093832   4.283403
    25  H    2.493320   3.234229   3.996105   1.093192   4.867457
    26  H    2.487811   1.093558   3.993301   3.239400   4.274834
    27  H    2.485626   1.093790   3.273081   4.002870   3.114565
    28  H    2.475750   1.094525   3.163738   3.239493   3.471229
    29  H    4.992716   6.335510   6.035070   5.268322   6.323796
    30  H    3.838700   5.438747   4.482634   4.342084   4.760801
    31  H    5.309484   6.693224   5.899182   6.025125   5.933820
    32  H    6.860022   7.847550   7.786681   7.621228   7.724803
    33  H    7.453332   8.056763   8.555520   8.357646   8.395647
    34  H    6.932283   7.388727   7.631758   8.304819   7.172524
    35  H    7.966712   8.718907   8.573073   9.154129   8.192688
    36  H    6.394645   7.272103   6.854517   7.661058   6.469075
    37  C    3.381187   3.931745   5.145255   3.688869   5.511520
    38  C    3.942656   4.919315   5.564794   3.639765   6.121870
    39  C    5.276444   6.169361   6.886366   4.811537   7.448751
    40  H    3.046999   3.246413   4.930898   3.182803   5.377519
    41  H    4.368719   4.636174   6.133768   4.730539   6.404924
    42  H    3.529444   4.824166   4.956234   2.964690   5.633604
    43  H    5.887773   6.946371   7.368803   5.171454   8.014737
    44  H    5.937289   6.592000   7.633497   5.632506   8.111315
                   21         22         23         24         25
    21  H    0.000000
    22  H    1.776911   0.000000
    23  H    3.446754   2.957708   0.000000
    24  H    3.110699   3.578467   1.772725   0.000000
    25  H    4.268441   4.196142   1.769324   1.775907   0.000000
    26  H    4.862930   4.187052   3.545868   4.243714   3.052908
    27  H    4.281272   3.547106   4.256948   4.869731   4.247428
    28  H    4.169901   2.945993   3.070196   4.248351   3.524325
    29  H    5.735632   7.000516   6.345432   4.847133   5.208882
    30  H    4.063585   5.481828   5.337818   3.861371   4.640279
    31  H    5.515988   6.960785   7.041646   5.603913   6.227446
    32  H    7.606450   8.844736   8.695887   7.373524   7.547927
    33  H    8.579558   9.581387   9.417295   8.315713   8.152003
    34  H    7.750773   8.662534   9.258666   8.375065   8.354968
    35  H    8.482262   9.651367  10.159326   9.026072   9.227187
    36  H    6.743232   7.937381   8.623442   7.528853   7.864971
    37  C    5.416548   5.871883   4.695232   3.972262   3.192455
    38  C    5.579077   6.268999   4.682634   3.554415   3.104110
    39  C    6.843742   7.579221   5.801473   4.639634   4.157222
    40  H    5.355427   5.487823   4.058141   3.725752   2.529172
    41  H    6.449734   6.864320   5.699362   5.046554   4.133588
    42  H    4.828146   5.626514   4.005489   2.633299   2.641858
    43  H    7.192752   8.028500   6.108464   4.805954   4.566465
    44  H    7.682244   8.340436   6.609717   5.590386   4.897395
                   26         27         28         29         30
    26  H    0.000000
    27  H    1.778486   0.000000
    28  H    1.765730   1.768128   0.000000
    29  H    6.285817   6.602927   7.263628   0.000000
    30  H    5.679845   5.682082   6.272658   1.775611   0.000000
    31  H    6.873644   6.729553   7.628991   1.756351   1.754770
    32  H    7.771622   7.768680   8.897201   2.743711   3.835668
    33  H    7.835999   7.851836   9.147613   4.042060   5.137119
    34  H    7.435245   6.889356   8.439963   4.946282   5.207741
    35  H    8.787757   8.331579   9.767516   4.929990   5.413458
    36  H    7.479434   6.906443   8.279720   3.998996   3.990898
    37  C    3.468041   4.351445   4.883389   3.232277   3.495350
    38  C    4.539621   5.511315   5.737486   2.677342   3.197354
    39  C    5.676402   6.756855   6.973089   2.987186   4.054362
    40  H    2.607516   3.832021   4.098864   4.237579   4.258983
    41  H    4.020970   4.928046   5.612961   3.597741   4.240345
    42  H    4.637284   5.504076   5.533532   2.769407   2.796949
    43  H    6.512792   7.602420   7.677468   3.296073   4.368156
    44  H    5.976887   7.093946   7.444744   3.515460   4.786799
                   31         32         33         34         35
    31  H    0.000000
    32  H    2.368585   0.000000
    33  H    3.898580   1.758501   0.000000
    34  H    4.066848   3.072962   2.509592   0.000000
    35  H    3.852743   2.488839   2.418899   1.769100   0.000000
    36  H    2.658620   2.497652   3.053595   1.775531   1.764640
    37  C    4.346908   4.843576   5.099259   5.634793   6.525933
    38  C    4.192247   4.895370   5.515702   6.421986   6.967251
    39  C    4.708266   4.957465   5.513324   6.903826   7.245824
    40  H    5.315263   5.925709   6.102023   6.476840   7.502801
    41  H    4.734069   4.677345   4.594114   5.402884   6.324230
    42  H    4.140040   5.330175   6.198543   6.893924   7.368257
    43  H    5.043111   5.427004   6.184244   7.677681   7.829169
    44  H    5.166479   4.918445   5.152544   6.770248   7.147245
                   36         37         38         39         40
    36  H    0.000000
    37  C    5.496990   0.000000
    38  C    5.975393   1.503871   0.000000
    39  C    6.531148   2.512362   1.339497   0.000000
    40  H    6.410340   1.096849   2.098194   3.105249   0.000000
    41  H    5.559833   1.097259   2.131662   2.615093   1.741132
    42  H    6.202217   2.224286   1.088018   2.091460   2.597427
    43  H    7.135175   3.498047   2.111208   1.086302   4.023198
    44  H    6.652727   2.777079   2.125310   1.085756   3.378781
                   41         42         43         44
    41  H    0.000000
    42  H    3.096372   0.000000
    43  H    3.698085   2.414269   0.000000
    44  H    2.423196   3.074926   1.855031   0.000000
 Stoichiometry    C14H26O3Si
 Framework group  C1[X(C14H26O3Si)]
 Deg. of freedom   126
 Full point group                 C1      NOp   1
 Largest Abelian subgroup         C1      NOp   1
 Largest concise Abelian subgroup C1      NOp   1
                         Standard orientation:                         
 ---------------------------------------------------------------------
 Center     Atomic      Atomic             Coordinates (Angstroms)
 Number     Number       Type             X           Y           Z
 ---------------------------------------------------------------------
      1          6           0        2.460021    0.306781    0.023086
      2          6           0        1.147220    0.351676    0.810623
      3          6           0       -0.050327   -0.036139   -0.116313
      4          6           0        0.250072   -1.474537   -0.568136
      5          6           0        1.616308   -1.688455   -1.153141
      6          1           0        2.465699    1.102134   -0.731661
      7          1           0        1.178580   -0.429889    1.584672
      8          1           0        0.136193   -2.175507    0.268370
      9          1           0       -0.464819   -1.780880   -1.337937
     10          8           0        2.631913   -0.930087   -0.702183
     11          8           0        1.819778   -2.588277   -1.964118
     12          6           0        3.733117    0.507409    0.865693
     13          6           0        3.942472   -0.543943    1.948404
     14          6           0        0.982550    1.666372    1.586213
     15          8           0       -1.198631   -0.020826    0.761868
     16         14           0       -2.801863   -0.367354    0.435344
     17          6           0       -3.078117   -1.773896   -0.771287
     18          6           0       -3.642495   -0.864337    2.059594
     19          6           0       -3.718950    1.144527   -0.209933
     20          1           0       -3.167976   -1.759078    2.472659
     21          1           0       -3.559586   -0.055922    2.791677
     22          1           0       -4.702265   -1.076491    1.891602
     23          1           0       -4.792642    0.942045   -0.268347
     24          1           0       -3.567567    1.998818    0.456205
     25          1           0       -3.372120    1.416892   -1.210230
     26          1           0       -2.722030   -1.512677   -1.771704
     27          1           0       -2.565107   -2.681500   -0.440449
     28          1           0       -4.145672   -2.002479   -0.849132
     29          1           0        1.221370    2.539608    0.974216
     30          1           0       -0.028501    1.786631    1.985969
     31          1           0        1.662145    1.687575    2.445450
     32          1           0        3.738391    1.503902    1.320434
     33          1           0        4.601079    0.463845    0.195099
     34          1           0        3.939491   -1.555262    1.530598
     35          1           0        4.908867   -0.386642    2.438536
     36          1           0        3.169592   -0.485101    2.719934
     37          6           0       -0.231652    0.869004   -1.380656
     38          6           0       -0.410114    2.342640   -1.139459
     39          6           0        0.294921    3.295595   -1.763201
     40          1           0       -1.115908    0.534809   -1.936968
     41          1           0        0.610700    0.717511   -2.067293
     42          1           0       -1.169239    2.642596   -0.420058
     43          1           0        0.114796    4.345672   -1.551199
     44          1           0        1.057953    3.059671   -2.498720
 ---------------------------------------------------------------------
 Rotational constants (GHZ):      0.5117963      0.2571947      0.2356013
 Standard basis: 6-311G(d) (5D, 7F)
 There are   428 symmetry adapted cartesian basis functions of A   symmetry.
 There are   410 symmetry adapted basis functions of A   symmetry.
   410 basis functions,   720 primitive gaussians,   428 cartesian basis functions
    74 alpha electrons       74 beta electrons
       nuclear repulsion energy      1629.2295170580 Hartrees.
 NAtoms=   44 NActive=   44 NUniq=   44 SFac= 1.00D+00 NAtFMM=   60 NAOKFM=F Big=F
 Integral buffers will be    131072 words long.
 Raffenetti 2 integral format.
 Two-electron integral symmetry is turned on.
 ------------------------------------------------------------------------------
 Polarizable Continuum Model (PCM)
 =================================
 Model                : PCM (using non-symmetric T matrix).
 Atomic radii         : UFF (Universal Force Field).
 Polarization charges : Total charges.
 Charge compensation  : None.
 Solution method      : On-the-fly selection.
 Cavity type          : Scaled VdW (van der Waals Surface) (Alpha=1.100).
 Cavity algorithm     : GePol (No added spheres)
                        Default sphere list used, NSphG=   44.
                        Lebedev-Laikov grids with approx.  5.0 points / Ang**2.
                        Smoothing algorithm: Karplus/York (Gamma=1.0000).
                        Polarization charges: spherical gaussians, with
                                              point-specific exponents (IZeta= 3).
                        Self-potential: point-specific (ISelfS= 7).
                        Self-field    : sphere-specific E.n sum rule (ISelfD= 2).
 Solvent              : Chloroform, Eps=   4.711300 Eps(inf)=   2.090627
 ------------------------------------------------------------------------------
 One-electron integrals computed using PRISM.
 NBasis=   410 RedAO= T EigKep=  1.11D-03  NBF=   410
 NBsUse=   410 1.00D-06 EigRej= -1.00D+00 NBFU=   410
 ExpMin= 6.54D-02 ExpMax= 6.94D+04 ExpMxC= 2.33D+03 IAcc=2 IRadAn=         4 AccDes= 0.00D+00
 Harris functional with IExCor=  908 and IRadAn=       4 diagonalized for initial guess.
 HarFok:  IExCor=  908 AccDes= 0.00D+00 IRadAn=         4 IDoV= 1 UseB2=F ITyADJ=14
 ICtDFT=  3500011 ScaDFX=  1.000000  1.000000  1.000000  1.000000
 FoFCou: FMM=F IPFlag=           0 FMFlag=      100000 FMFlg1=           0
         NFxFlg=           0 DoJE=T BraDBF=F KetDBF=T FulRan=T
         wScrn=  0.000000 ICntrl=     500 IOpCl=  0 I1Cent=   200000004 NGrid=           0
         NMat0=    1 NMatS0=      1 NMatT0=    0 NMatD0=    1 NMtDS0=    0 NMtDT0=    0
 Petite list used in FoFCou.
 Requested convergence on RMS density matrix=1.00D-08 within 128 cycles.
 Requested convergence on MAX density matrix=1.00D-06.
 Requested convergence on             energy=1.00D-06.
 No special actions if energy rises.
 Inv3:  Mode=1 IEnd=    23907987.
 Iteration    1 A*A^-1 deviation from unit magnitude is 9.10D-15 for   1817.
 Iteration    1 A*A^-1 deviation from orthogonality  is 6.66D-15 for   2469   1437.
 Iteration    1 A^-1*A deviation from unit magnitude is 9.77D-15 for   1964.
 Iteration    1 A^-1*A deviation from orthogonality  is 3.31D-13 for   2484   2472.
 Error on total polarization charges =  0.01115
 SCF Done:  E(RmPW1PW91) =  -1064.37545041     A.U. after   13 cycles
            NFock= 13  Conv=0.37D-08     -V/T= 2.0036
 DoSCS=F DFT=T ScalE2(SS,OS)=  1.000000  1.000000
 Range of M.O.s used for correlation:     1   410
 NBasis=   410 NAE=    74 NBE=    74 NFC=     0 NFV=     0
 NROrb=    410 NOA=    74 NOB=    74 NVA=   336 NVB=   336
 NEqPCM:  Using equilibrium solvation (IEInf=0, Eps=   4.7113, EpsInf=   2.0906)
          Differentiating once with respect to magnetic field using GIAOs.
          Electric field/nuclear overlap derivatives assumed to be zero.
 FoFJK:  IHMeth= 1 ICntrl=    6127 DoSepK=F KAlg= 0 I1Cent=   0 FoldK=F
 IRaf=         1 NMat=   1 IRICut=       1 DoRegI=T DoRafI=F ISym2E= 0.
          There are     3 degrees of freedom in the 1st order CPHF.  IDoFFX=0 NUNeed=     3.
      3 vectors produced by pass  0 Test12= 8.29D-13 3.33D-08 XBig12= 3.58D+01 1.09D+00.
 AX will form     3 AO Fock derivatives at one time.
      3 vectors produced by pass  1 Test12= 8.29D-13 3.33D-08 XBig12= 7.81D-02 1.05D-01.
      3 vectors produced by pass  2 Test12= 8.29D-13 3.33D-08 XBig12= 7.86D-04 1.22D-02.
      3 vectors produced by pass  3 Test12= 8.29D-13 3.33D-08 XBig12= 4.88D-06 8.73D-04.
      3 vectors produced by pass  4 Test12= 8.29D-13 3.33D-08 XBig12= 2.84D-08 6.82D-05.
      3 vectors produced by pass  5 Test12= 8.29D-13 3.33D-08 XBig12= 7.75D-11 1.84D-06.
      2 vectors produced by pass  6 Test12= 8.29D-13 3.33D-08 XBig12= 2.34D-13 1.16D-07.
 InvSVY:  IOpt=1 It=  1 EMax= 4.50D-17
 Solved reduced A of dimension    20 with     3 vectors.
 Calculating GIAO nuclear magnetic shielding tensors.
 SCF GIAO Magnetic shielding tensor (ppm):
      1  C    Isotropic =   106.2508   Anisotropy =    61.0600
   XX=    96.9694   YX=   -14.6896   ZX=    -6.1242
   XY=    -7.4041   YY=   128.6266   ZY=    28.8348
   XZ=    -1.7132   YZ=    27.7426   ZZ=    93.1564
   Eigenvalues:    77.2946    94.5003   146.9574
      2  C    Isotropic =   142.3024   Anisotropy =    23.2798
   XX=   152.0920   YX=     2.3097   ZX=     8.2893
   XY=     6.5169   YY=   139.8802   ZY=     5.2239
   XZ=    12.5546   YZ=    -6.1529   ZZ=   134.9350
   Eigenvalues:   129.4778   139.6072   157.8223
      3  C    Isotropic =   105.8315   Anisotropy =    57.2288
   XX=   129.2349   YX=     1.9373   ZX=   -26.3194
   XY=     7.5382   YY=    84.3131   ZY=    -2.2645
   XZ=   -21.1361   YZ=    -3.3223   ZZ=   103.9466
   Eigenvalues:    83.8059    89.7046   143.9841
      4  C    Isotropic =   137.6745   Anisotropy =    32.9043
   XX=   137.3001   YX=   -13.0418   ZX=    -8.6885
   XY=    -7.3321   YY=   145.3803   ZY=     4.8323
   XZ=   -12.5569   YZ=    15.9241   ZZ=   130.3430
   Eigenvalues:   122.2275   131.1852   159.6107
      5  C    Isotropic =     9.3291   Anisotropy =    95.6594
   XX=   -66.7412   YX=   -40.2045   ZX=     1.2814
   XY=   -50.8826   YY=    36.6470   ZY=   -18.8829
   XZ=    -9.8647   YZ=   -19.7977   ZZ=    58.0815
   Eigenvalues:   -84.7773    39.6625    73.1021
      6  H    Isotropic =    27.7404   Anisotropy =     3.4411
   XX=    28.1922   YX=    -0.1751   ZX=     1.0399
   XY=     0.0798   YY=    28.0537   ZY=    -2.4273
   XZ=     1.1303   YZ=    -1.8940   ZZ=    26.9754
   Eigenvalues:    25.0621    28.1247    30.0345
      7  H    Isotropic =    29.7857   Anisotropy =     5.1220
   XX=    30.5365   YX=    -0.5098   ZX=     2.5660
   XY=     0.0897   YY=    29.4375   ZY=    -1.7815
   XZ=     2.6865   YZ=    -2.0943   ZZ=    29.3830
   Eigenvalues:    26.5371    29.6196    33.2003
      8  H    Isotropic =    29.6217   Anisotropy =     4.2160
   XX=    29.9093   YX=     0.0455   ZX=    -0.5108
   XY=     0.5030   YY=    31.9580   ZY=    -1.8302
   XZ=    -1.0289   YZ=    -1.0431   ZZ=    26.9978
   Eigenvalues:    26.4785    29.9542    32.4324
      9  H    Isotropic =    29.2838   Anisotropy =     4.7441
   XX=    32.4273   YX=     0.4266   ZX=     0.4833
   XY=    -0.5961   YY=    28.6838   ZY=     3.8430
   XZ=     0.0686   YZ=     3.4618   ZZ=    26.7403
   Eigenvalues:    23.9240    31.4808    32.4465
     10  O    Isotropic =   101.6911   Anisotropy =   177.2463
   XX=   178.4118   YX=    43.1560   ZX=    42.0118
   XY=    61.0696   YY=    31.2626   ZY=  -134.7895
   XZ=    63.6841   YZ=  -165.7203   ZZ=    95.3990
   Eigenvalues:  -109.2331   194.4511   219.8553
     11  O    Isotropic =  -122.1274   Anisotropy =   576.6618
   XX=  -230.0719   YX=  -123.9339   ZX=    15.6317
   XY=  -124.2341   YY=  -118.5722   ZY=  -287.4135
   XZ=    27.2802   YZ=  -326.5406   ZZ=   -17.7382
   Eigenvalues:  -416.9478  -211.7483   262.3138
     12  C    Isotropic =   160.3377   Anisotropy =    22.4320
   XX=   167.6085   YX=     2.9520   ZX=    10.6103
   XY=    -1.1855   YY=   155.1918   ZY=    -3.2848
   XZ=    12.1588   YZ=     4.7846   ZZ=   158.2128
   Eigenvalues:   150.5910   155.1297   175.2923
     13  C    Isotropic =   181.1042   Anisotropy =    11.8304
   XX=   179.8503   YX=    -0.2786   ZX=     1.7614
   XY=     0.3083   YY=   181.0775   ZY=    -7.0105
   XZ=     2.9013   YZ=    -6.7919   ZZ=   182.3848
   Eigenvalues:   174.3295   179.9920   188.9912
     14  C    Isotropic =   175.8848   Anisotropy =    13.5272
   XX=   172.1156   YX=    -0.1863   ZX=     3.9070
   XY=    -3.9526   YY=   183.5356   ZY=     3.6002
   XZ=     2.3010   YZ=     4.4869   ZZ=   172.0032
   Eigenvalues:   167.7457   175.0057   184.9029
     15  O    Isotropic =   243.2243   Anisotropy =    31.5459
   XX=   235.7779   YX=     2.2435   ZX=    -6.0797
   XY=    14.0448   YY=   235.9383   ZY=   -15.9537
   XZ=     2.3889   YZ=    -8.3338   ZZ=   257.9566
   Eigenvalues:   225.7608   239.6571   264.2549
     16  Si   Isotropic =   334.3935   Anisotropy =    55.7069
   XX=   366.5920   YX=    15.1497   ZX=    17.0250
   XY=    12.0987   YY=   316.4058   ZY=     2.9097
   XZ=     0.6508   YZ=    -1.7210   ZZ=   320.1828
   Eigenvalues:   312.5411   319.1080   371.5315
     17  C    Isotropic =   184.4343   Anisotropy =     9.7774
   XX=   189.9329   YX=     1.3829   ZX=    -0.4856
   XY=    -2.2920   YY=   182.4860   ZY=     7.2781
   XZ=    -2.9312   YZ=     6.6329   ZZ=   180.8839
   Eigenvalues:   174.6211   187.7292   190.9526
     18  C    Isotropic =   185.6226   Anisotropy =    13.2939
   XX=   188.3347   YX=     2.8997   ZX=    -2.1014
   XY=     2.4349   YY=   175.6333   ZY=    -4.7241
   XZ=     0.1080   YZ=    -4.4502   ZZ=   192.8999
   Eigenvalues:   174.0997   188.2829   194.4852
     19  C    Isotropic =   184.6318   Anisotropy =     9.8806
   XX=   187.3505   YX=    -2.0182   ZX=     2.1055
   XY=     1.1278   YY=   189.1618   ZY=    -5.1267
   XZ=     2.8521   YZ=    -4.2156   ZZ=   177.3831
   Eigenvalues:   175.3509   187.3256   191.2189
     20  H    Isotropic =    32.0509   Anisotropy =     8.3692
   XX=    30.2151   YX=    -1.7882   ZX=    -0.1710
   XY=    -1.7024   YY=    33.7295   ZY=    -3.9580
   XZ=     0.4279   YZ=    -4.6801   ZZ=    32.2082
   Eigenvalues:    28.0466    30.4758    37.6304
     21  H    Isotropic =    31.9250   Anisotropy =     8.5175
   XX=    29.1823   YX=     0.4871   ZX=    -1.4494
   XY=     0.4734   YY=    31.4822   ZY=     3.2918
   XZ=    -1.3373   YZ=     4.2928   ZZ=    35.1106
   Eigenvalues:    27.9437    30.2281    37.6033
     22  H    Isotropic =    32.3487   Anisotropy =     9.7075
   XX=    38.1168   YX=     2.4081   ZX=    -1.2518
   XY=     2.2925   YY=    28.9744   ZY=    -0.5185
   XZ=    -0.7701   YZ=    -0.4183   ZZ=    29.9551
   Eigenvalues:    28.3733    29.8525    38.8204
     23  H    Isotropic =    32.2514   Anisotropy =    10.1524
   XX=    38.8957   YX=    -0.5338   ZX=     0.9922
   XY=    -0.0033   YY=    29.4379   ZY=    -0.6036
   XZ=     1.1935   YZ=    -0.5444   ZZ=    28.4206
   Eigenvalues:    28.0875    29.6470    39.0196
     24  H    Isotropic =    31.8620   Anisotropy =     7.7867
   XX=    30.2515   YX=    -0.8300   ZX=    -0.2581
   XY=    -0.3678   YY=    35.3839   ZY=     3.8406
   XZ=     0.0209   YZ=     2.9144   ZZ=    29.9508
   Eigenvalues:    28.3207    30.2122    37.0532
     25  H    Isotropic =    32.0262   Anisotropy =     6.3216
   XX=    31.7689   YX=    -0.3847   ZX=    -1.3006
   XY=     0.0388   YY=    30.1346   ZY=    -3.7857
   XZ=    -1.2030   YZ=    -2.7799   ZZ=    34.1750
   Eigenvalues:    28.1347    31.7032    36.2406
     26  H    Isotropic =    31.9383   Anisotropy =     6.2277
   XX=    30.9823   YX=     1.7015   ZX=    -1.2832
   XY=     1.1751   YY=    29.1849   ZY=     0.9618
   XZ=    -1.7082   YZ=     0.2205   ZZ=    35.6476
   Eigenvalues:    28.1729    31.5519    36.0901
     27  H    Isotropic =    31.8402   Anisotropy =     7.1401
   XX=    31.5199   YX=    -1.5149   ZX=     0.8269
   XY=    -1.8410   YY=    36.0007   ZY=    -0.8223
   XZ=     0.0006   YZ=    -0.1512   ZZ=    27.9999
   Eigenvalues:    27.9403    30.9800    36.6002
     28  H    Isotropic =    32.1345   Anisotropy =    10.4135
   XX=    37.4728   YX=     3.7226   ZX=     1.6265
   XY=     2.9451   YY=    29.9605   ZY=     1.4762
   XZ=     1.1669   YZ=     1.5365   ZZ=    28.9701
   Eigenvalues:    27.7654    29.5612    39.0768
     29  H    Isotropic =    31.2021   Anisotropy =     7.8705
   XX=    27.7655   YX=     0.8334   ZX=     1.7351
   XY=     0.9764   YY=    35.7516   ZY=    -2.2519
   XZ=     1.5734   YZ=    -1.9120   ZZ=    30.0893
   Eigenvalues:    26.5501    30.6072    36.4491
     30  H    Isotropic =    30.4298   Anisotropy =     6.6114
   XX=    33.6976   YX=     0.0023   ZX=    -1.1724
   XY=    -0.9113   YY=    28.2690   ZY=     3.9262
   XZ=    -2.0841   YZ=     3.8008   ZZ=    29.3228
   Eigenvalues:    24.8347    31.6173    34.8374
     31  H    Isotropic =    31.4023   Anisotropy =     9.7434
   XX=    31.2079   YX=    -0.7450   ZX=     4.1559
   XY=    -0.6016   YY=    28.6438   ZY=     3.5367
   XZ=     4.1786   YZ=     3.2007   ZZ=    34.3553
   Eigenvalues:    25.7657    30.5433    37.8979
     32  H    Isotropic =    30.2995   Anisotropy =     6.6098
   XX=    30.6545   YX=     1.1891   ZX=     1.8034
   XY=     1.3583   YY=    33.3482   ZY=     2.0549
   XZ=     1.9840   YZ=     1.9041   ZZ=    26.8958
   Eigenvalues:    25.8453    30.3472    34.7060
     33  H    Isotropic =    30.0918   Anisotropy =     9.3986
   XX=    34.5977   YX=     1.0816   ZX=    -3.2539
   XY=     1.4414   YY=    25.6582   ZY=    -2.0904
   XZ=    -2.4039   YZ=    -2.2298   ZZ=    30.0196
   Eigenvalues:    24.7684    29.1495    36.3575
     34  H    Isotropic =    31.0833   Anisotropy =     7.7383
   XX=    28.7787   YX=    -2.3836   ZX=     2.3446
   XY=    -2.3824   YY=    35.4627   ZY=     0.5465
   XZ=     2.1207   YZ=     0.1807   ZZ=    29.0086
   Eigenvalues:    26.2163    30.7915    36.2422
     35  H    Isotropic =    31.2189   Anisotropy =    11.9921
   XX=    35.4698   YX=    -0.1077   ZX=     5.2713
   XY=    -0.4282   YY=    27.3640   ZY=    -1.4568
   XZ=     5.7780   YZ=    -1.1099   ZZ=    30.8229
   Eigenvalues:    26.3010    28.1420    39.2136
     36  H    Isotropic =    31.2628   Anisotropy =     6.6569
   XX=    32.2501   YX=    -1.5319   ZX=    -1.3263
   XY=    -0.9330   YY=    26.8542   ZY=    -2.4850
   XZ=    -1.7162   YZ=    -2.0119   ZZ=    34.6843
   Eigenvalues:    25.8539    32.2338    35.7008
     37  C    Isotropic =   142.4975   Anisotropy =    32.3032
   XX=   125.4495   YX=    -2.1453   ZX=     2.0483
   XY=    -2.6592   YY=   160.3235   ZY=   -10.2603
   XZ=     1.4923   YZ=    -7.3119   ZZ=   141.7195
   Eigenvalues:   125.1898   138.2697   164.0329
     38  C    Isotropic =    42.1897   Anisotropy =   185.7023
   XX=    61.4266   YX=    44.6815   ZX=    98.1908
   XY=    45.7458   YY=   -10.3145   ZY=   -48.8025
   XZ=    96.0436   YZ=   -49.6591   ZZ=    75.4569
   Eigenvalues:   -86.9517    47.5295   165.9912
     39  C    Isotropic =    65.8790   Anisotropy =   140.5056
   XX=    85.4355   YX=    40.3369   ZX=    72.0680
   XY=    45.3683   YY=    20.5017   ZY=   -49.6945
   XZ=    68.5512   YZ=   -54.5286   ZZ=    91.6997
   Eigenvalues:   -47.8063    85.8938   159.5494
     40  H    Isotropic =    29.5159   Anisotropy =     4.5322
   XX=    30.4603   YX=     2.0990   ZX=     1.3468
   XY=     1.5056   YY=    28.7445   ZY=    -0.9684
   XZ=     2.8806   YZ=     0.3503   ZZ=    29.3430
   Eigenvalues:    26.6926    29.3179    32.5374
     41  H    Isotropic =    29.5759   Anisotropy =     4.9864
   XX=    28.6366   YX=     0.2546   ZX=    -1.5558
   XY=    -1.0485   YY=    28.7155   ZY=    -1.3286
   XZ=    -1.4569   YZ=    -3.0092   ZZ=    31.3757
   Eigenvalues:    26.7851    29.0425    32.9002
     42  H    Isotropic =    25.5491   Anisotropy =     6.5215
   XX=    25.9076   YX=     1.4112   ZX=     1.0982
   XY=     2.4393   YY=    28.1214   ZY=    -3.2450
   XZ=     1.2198   YZ=    -2.7208   ZZ=    22.6182
   Eigenvalues:    20.6478    26.1027    29.8967
     43  H    Isotropic =    26.8307   Anisotropy =     7.1363
   XX=    25.6517   YX=     2.7186   ZX=     0.0547
   XY=     1.1253   YY=    29.2892   ZY=    -2.0756
   XZ=     0.1262   YZ=    -4.3454   ZZ=    25.5512
   Eigenvalues:    23.1990    25.7049    31.5882
     44  H    Isotropic =    26.7669   Anisotropy =     7.1635
   XX=    25.9217   YX=     1.1592   ZX=     0.0389
   XY=     3.4435   YY=    27.6173   ZY=    -4.8749
   XZ=     0.0418   YZ=    -2.7109   ZZ=    26.7618
   Eigenvalues:    22.5633    26.1949    31.5426
 End of Minotr F.D. properties file   721 does not exist.
 End of Minotr F.D. properties file   722 does not exist.
 End of Minotr F.D. properties file   788 does not exist.

 **********************************************************************

            Population analysis using the SCF density.

 **********************************************************************

 Orbital symmetries:
       Occupied  (A) (A) (A) (A) (A) (A) (A) (A) (A) (A) (A) (A)
                 (A) (A) (A) (A) (A) (A) (A) (A) (A) (A) (A) (A)
                 (A) (A) (A) (A) (A) (A) (A) (A) (A) (A) (A) (A)
                 (A) (A) (A) (A) (A) (A) (A) (A) (A) (A) (A) (A)
                 (A) (A) (A) (A) (A) (A) (A) (A) (A) (A) (A) (A)
                 (A) (A) (A) (A) (A) (A) (A) (A) (A) (A) (A) (A)
                 (A) (A)
       Virtual   (A) (A) (A) (A) (A) (A) (A) (A) (A) (A) (A) (A)
                 (A) (A) (A) (A) (A) (A) (A) (A) (A) (A) (A) (A)
                 (A) (A) (A) (A) (A) (A) (A) (A) (A) (A) (A) (A)
                 (A) (A) (A) (A) (A) (A) (A) (A) (A) (A) (A) (A)
                 (A) (A) (A) (A) (A) (A) (A) (A) (A) (A) (A) (A)
                 (A) (A) (A) (A) (A) (A) (A) (A) (A) (A) (A) (A)
                 (A) (A) (A) (A) (A) (A) (A) (A) (A) (A) (A) (A)
                 (A) (A) (A) (A) (A) (A) (A) (A) (A) (A) (A) (A)
                 (A) (A) (A) (A) (A) (A) (A) (A) (A) (A) (A) (A)
                 (A) (A) (A) (A) (A) (A) (A) (A) (A) (A) (A) (A)
                 (A) (A) (A) (A) (A) (A) (A) (A) (A) (A) (A) (A)
                 (A) (A) (A) (A) (A) (A) (A) (A) (A) (A) (A) (A)
                 (A) (A) (A) (A) (A) (A) (A) (A) (A) (A) (A) (A)
                 (A) (A) (A) (A) (A) (A) (A) (A) (A) (A) (A) (A)
                 (A) (A) (A) (A) (A) (A) (A) (A) (A) (A) (A) (A)
                 (A) (A) (A) (A) (A) (A) (A) (A) (A) (A) (A) (A)
                 (A) (A) (A) (A) (A) (A) (A) (A) (A) (A) (A) (A)
                 (A) (A) (A) (A) (A) (A) (A) (A) (A) (A) (A) (A)
                 (A) (A) (A) (A) (A) (A) (A) (A) (A) (A) (A) (A)
                 (A) (A) (A) (A) (A) (A) (A) (A) (A) (A) (A) (A)
                 (A) (A) (A) (A) (A) (A) (A) (A) (A) (A) (A) (A)
                 (A) (A) (A) (A) (A) (A) (A) (A) (A) (A) (A) (A)
                 (A) (A) (A) (A) (A) (A) (A) (A) (A) (A) (A) (A)
                 (A) (A) (A) (A) (A) (A) (A) (A) (A) (A) (A) (A)
                 (A) (A) (A) (A) (A) (A) (A) (A) (A) (A) (A) (A)
                 (A) (A) (A) (A) (A) (A) (A) (A) (A) (A) (A) (A)
                 (A) (A) (A) (A) (A) (A) (A) (A) (A) (A) (A) (A)
                 (A) (A) (A) (A) (A) (A) (A) (A) (A) (A) (A) (A)
 The electronic state is 1-A.
 Alpha  occ. eigenvalues --  -66.27073 -19.26402 -19.21518 -19.19825 -10.37342
 Alpha  occ. eigenvalues --  -10.32311 -10.30639 -10.25249 -10.25188 -10.25099
 Alpha  occ. eigenvalues --  -10.24577 -10.23801 -10.23053 -10.22238 -10.22094
 Alpha  occ. eigenvalues --  -10.20892 -10.20559 -10.20545  -5.32898  -3.66744
 Alpha  occ. eigenvalues --   -3.66513  -3.66481  -1.13577  -1.04797  -1.04252
 Alpha  occ. eigenvalues --   -0.86099  -0.83369  -0.81074  -0.77642  -0.73991
 Alpha  occ. eigenvalues --   -0.73242  -0.72174  -0.70353  -0.69926  -0.67024
 Alpha  occ. eigenvalues --   -0.63087  -0.62660  -0.58997  -0.56027  -0.53321
 Alpha  occ. eigenvalues --   -0.52452  -0.51151  -0.49333  -0.48695  -0.47353
 Alpha  occ. eigenvalues --   -0.46665  -0.45584  -0.44970  -0.44337  -0.43967
 Alpha  occ. eigenvalues --   -0.42981  -0.42491  -0.42421  -0.41702  -0.41071
 Alpha  occ. eigenvalues --   -0.40798  -0.40717  -0.40229  -0.39729  -0.39159
 Alpha  occ. eigenvalues --   -0.37987  -0.37578  -0.37297  -0.36544  -0.36402
 Alpha  occ. eigenvalues --   -0.35509  -0.34533  -0.33603  -0.31727  -0.31239
 Alpha  occ. eigenvalues --   -0.30401  -0.29684  -0.28311  -0.27147
 Alpha virt. eigenvalues --   -0.00256   0.00555   0.03875   0.05665   0.05826
 Alpha virt. eigenvalues --    0.06174   0.07027   0.08352   0.08682   0.09163
 Alpha virt. eigenvalues --    0.09346   0.10056   0.10502   0.10850   0.11155
 Alpha virt. eigenvalues --    0.12068   0.12540   0.13358   0.13483   0.14164
 Alpha virt. eigenvalues --    0.14315   0.14542   0.14968   0.15145   0.15584
 Alpha virt. eigenvalues --    0.15875   0.17077   0.17132   0.17713   0.17885
 Alpha virt. eigenvalues --    0.18535   0.18836   0.19516   0.20172   0.21674
 Alpha virt. eigenvalues --    0.22029   0.22892   0.23467   0.23759   0.24245
 Alpha virt. eigenvalues --    0.24943   0.25539   0.26950   0.27061   0.27769
 Alpha virt. eigenvalues --    0.28669   0.30105   0.30576   0.32316   0.32510
 Alpha virt. eigenvalues --    0.32900   0.33152   0.33687   0.34968   0.36078
 Alpha virt. eigenvalues --    0.37756   0.37970   0.38961   0.39580   0.40671
 Alpha virt. eigenvalues --    0.41796   0.42115   0.43135   0.43742   0.44458
 Alpha virt. eigenvalues --    0.45281   0.46195   0.46861   0.48069   0.48804
 Alpha virt. eigenvalues --    0.49916   0.50510   0.50710   0.51410   0.52831
 Alpha virt. eigenvalues --    0.53351   0.54331   0.54562   0.55552   0.55947
 Alpha virt. eigenvalues --    0.56695   0.57400   0.57824   0.58560   0.59052
 Alpha virt. eigenvalues --    0.59309   0.59601   0.60006   0.60456   0.61097
 Alpha virt. eigenvalues --    0.61218   0.61983   0.62199   0.62718   0.63006
 Alpha virt. eigenvalues --    0.63542   0.63939   0.64420   0.64887   0.65910
 Alpha virt. eigenvalues --    0.66322   0.66657   0.67167   0.68002   0.68141
 Alpha virt. eigenvalues --    0.68784   0.69066   0.70134   0.70852   0.71146
 Alpha virt. eigenvalues --    0.71327   0.72478   0.74190   0.74766   0.75258
 Alpha virt. eigenvalues --    0.75713   0.77083   0.78728   0.79063   0.81167
 Alpha virt. eigenvalues --    0.82480   0.83946   0.86254   0.87997   0.88632
 Alpha virt. eigenvalues --    0.89913   0.90572   0.91323   0.92501   0.95096
 Alpha virt. eigenvalues --    0.96326   0.96986   0.98604   0.99330   0.99894
 Alpha virt. eigenvalues --    1.02502   1.05809   1.06883   1.08030   1.10965
 Alpha virt. eigenvalues --    1.12344   1.12841   1.15375   1.16770   1.18305
 Alpha virt. eigenvalues --    1.19476   1.22959   1.25082   1.26026   1.27877
 Alpha virt. eigenvalues --    1.28663   1.31206   1.31455   1.32144   1.32992
 Alpha virt. eigenvalues --    1.34733   1.39203   1.39742   1.40917   1.41560
 Alpha virt. eigenvalues --    1.41582   1.43034   1.44022   1.47295   1.48704
 Alpha virt. eigenvalues --    1.50285   1.50810   1.51646   1.52915   1.53350
 Alpha virt. eigenvalues --    1.54741   1.55136   1.55978   1.56399   1.57620
 Alpha virt. eigenvalues --    1.59023   1.59244   1.59747   1.60305   1.61387
 Alpha virt. eigenvalues --    1.61932   1.62983   1.63439   1.63936   1.64406
 Alpha virt. eigenvalues --    1.65081   1.65677   1.67157   1.67767   1.69215
 Alpha virt. eigenvalues --    1.70298   1.70491   1.71857   1.73474   1.75630
 Alpha virt. eigenvalues --    1.75666   1.77316   1.79680   1.80070   1.80793
 Alpha virt. eigenvalues --    1.81436   1.83019   1.84593   1.86977   1.87896
 Alpha virt. eigenvalues --    1.89102   1.92005   1.94623   1.95295   1.96214
 Alpha virt. eigenvalues --    1.99420   2.03280   2.07022   2.07443   2.11379
 Alpha virt. eigenvalues --    2.13817   2.17128   2.19926   2.22773   2.26234
 Alpha virt. eigenvalues --    2.27978   2.30386   2.34174   2.37797   2.40593
 Alpha virt. eigenvalues --    2.41185   2.41789   2.42125   2.42548   2.42901
 Alpha virt. eigenvalues --    2.44978   2.45369   2.46575   2.47054   2.48010
 Alpha virt. eigenvalues --    2.48448   2.48657   2.49316   2.50616   2.51899
 Alpha virt. eigenvalues --    2.52370   2.53621   2.55734   2.57051   2.58964
 Alpha virt. eigenvalues --    2.61592   2.63805   2.67273   2.73472   2.79907
 Alpha virt. eigenvalues --    2.84206   2.87331   2.88655   2.90072   2.90788
 Alpha virt. eigenvalues --    2.92925   2.93352   2.94138   2.95338   2.96549
 Alpha virt. eigenvalues --    2.99104   3.01650   3.02925   3.04265   3.06887
 Alpha virt. eigenvalues --    3.08380   3.10841   3.13463   3.13793   3.15030
 Alpha virt. eigenvalues --    3.15518   3.16169   3.18066   3.18910   3.22541
 Alpha virt. eigenvalues --    3.22734   3.23052   3.23410   3.24181   3.25938
 Alpha virt. eigenvalues --    3.27164   3.28576   3.29009   3.31124   3.33386
 Alpha virt. eigenvalues --    3.33920   3.35066   3.36182   3.39081   3.40340
 Alpha virt. eigenvalues --    3.43450   3.50257   3.56630   3.60403   3.65585
 Alpha virt. eigenvalues --    3.78044   3.88590   3.89214   3.98477   4.03543
 Alpha virt. eigenvalues --    4.09216   4.10878   4.19410   4.21494   4.25805
 Alpha virt. eigenvalues --    4.93831   4.99603   5.01609   5.08444   5.14453
 Alpha virt. eigenvalues --    5.23659   5.51280   5.54144   5.77852   5.86448
 Alpha virt. eigenvalues --   11.51909  11.54103  11.59647  23.41108  23.48993
 Alpha virt. eigenvalues --   23.54605  23.55136  23.57614  23.60317  23.71809
 Alpha virt. eigenvalues --   23.75588  23.77691  23.78167  23.82267  23.87710
 Alpha virt. eigenvalues --   23.88503  24.26507  49.98396  50.04308  50.11900
 Alpha virt. eigenvalues --  141.29920
          Condensed to atoms (all electrons):
               1          2          3          4          5          6
     1  C    5.198892   0.241338  -0.046934  -0.006718  -0.048730   0.395764
     2  C    0.241338   5.604384   0.261829  -0.081901  -0.019485  -0.038460
     3  C   -0.046934   0.261829   5.223851   0.235899  -0.015535  -0.019151
     4  C   -0.006718  -0.081901   0.235899   5.874061   0.234655   0.003463
     5  C   -0.048730  -0.019485  -0.015535   0.234655   4.392152  -0.002153
     6  H    0.395764  -0.038460  -0.019151   0.003463  -0.002153   0.472135
     7  H   -0.039308   0.404094  -0.058988  -0.005433   0.000102   0.006073
     8  H    0.001944  -0.007847  -0.029307   0.371363  -0.021355  -0.000119
     9  H   -0.001367   0.009392  -0.032717   0.354754  -0.027181   0.000268
    10  O    0.213878  -0.031841   0.004136  -0.110434   0.350923  -0.031304
    11  O    0.001743  -0.000408   0.004521  -0.103461   0.660767   0.000032
    12  C    0.341523  -0.058320   0.010656  -0.001950   0.002760  -0.054948
    13  C   -0.077585  -0.007041  -0.001034   0.000214  -0.000043   0.008450
    14  C   -0.051513   0.278546  -0.051723   0.007117   0.000308  -0.000256
    15  O    0.003818  -0.061854   0.221658  -0.029484   0.001785  -0.000053
    16  Si   0.000162   0.001897  -0.046304  -0.010610   0.001772  -0.000100
    17  C    0.000009  -0.000307  -0.001221  -0.005117  -0.000311   0.000000
    18  C   -0.000001  -0.000030   0.002540  -0.000343  -0.000005   0.000000
    19  C    0.000006  -0.000215  -0.001277  -0.000197   0.000006   0.000000
    20  H   -0.000001   0.000015   0.000009   0.000022  -0.000002   0.000000
    21  H   -0.000001   0.000042  -0.000135  -0.000017   0.000000   0.000000
    22  H    0.000000   0.000001  -0.000071  -0.000002   0.000000   0.000000
    23  H    0.000000   0.000004  -0.000015  -0.000008   0.000000   0.000000
    24  H    0.000000   0.000031   0.000249  -0.000021   0.000001   0.000000
    25  H    0.000004  -0.000070   0.000126  -0.000066   0.000006  -0.000001
    26  H    0.000009  -0.000097   0.000881  -0.001579  -0.000209  -0.000002
    27  H    0.000002  -0.000115   0.000267   0.000138  -0.000106   0.000000
    28  H    0.000000   0.000008  -0.000114   0.000456  -0.000002   0.000000
    29  H   -0.002561  -0.046751  -0.005063  -0.000092  -0.000004   0.004660
    30  H    0.005630  -0.035404  -0.007848   0.000430  -0.000079  -0.000188
    31  H   -0.007266  -0.032166   0.006529  -0.000340  -0.000015  -0.000243
    32  H   -0.033469  -0.007056  -0.000329   0.000105  -0.000047  -0.000302
    33  H   -0.046339   0.008896  -0.000086   0.000228  -0.000213  -0.007173
    34  H   -0.008632  -0.000460  -0.000434   0.000750  -0.000085   0.000515
    35  H    0.008198  -0.000123   0.000007  -0.000014   0.000018  -0.000199
    36  H   -0.009000   0.005105   0.000270   0.000054  -0.000028  -0.000355
    37  C    0.003207  -0.085936   0.286679  -0.107214   0.003575   0.005689
    38  C   -0.003004  -0.005329  -0.055146   0.007809  -0.000445   0.000929
    39  C   -0.000988   0.001930  -0.000435  -0.000041  -0.000042   0.002870
    40  H   -0.000247   0.006223  -0.042247  -0.003130  -0.000346   0.000600
    41  H   -0.000031  -0.002726  -0.020334  -0.007081   0.004169  -0.002533
    42  H    0.000079  -0.000701  -0.000755  -0.000120  -0.000005  -0.000023
    43  H    0.000033  -0.000029  -0.000268   0.000015   0.000000   0.000026
    44  H    0.000188  -0.000136   0.000189  -0.000047  -0.000019   0.000715
               7          8          9         10         11         12
     1  C   -0.039308   0.001944  -0.001367   0.213878   0.001743   0.341523
     2  C    0.404094  -0.007847   0.009392  -0.031841  -0.000408  -0.058320
     3  C   -0.058988  -0.029307  -0.032717   0.004136   0.004521   0.010656
     4  C   -0.005433   0.371363   0.354754  -0.110434  -0.103461  -0.001950
     5  C    0.000102  -0.021355  -0.027181   0.350923   0.660767   0.002760
     6  H    0.006073  -0.000119   0.000268  -0.031304   0.000032  -0.054948
     7  H    0.473535   0.002629   0.000369   0.000864  -0.000146  -0.013651
     8  H    0.002629   0.398138  -0.014169   0.000351   0.000195  -0.000078
     9  H    0.000369  -0.014169   0.428086   0.005486   0.014628   0.000036
    10  O    0.000864   0.000351   0.005486   8.023574  -0.069900  -0.057287
    11  O   -0.000146   0.000195   0.014628  -0.069900   7.882465  -0.000125
    12  C   -0.013651  -0.000078   0.000036  -0.057287  -0.000125   5.335627
    13  C    0.005907   0.000086   0.000015   0.001477  -0.000014   0.284502
    14  C   -0.041467  -0.000040  -0.000130   0.003640   0.000004  -0.008136
    15  O    0.005372  -0.001327  -0.001444  -0.000027  -0.000021  -0.000069
    16  Si  -0.000107   0.000415  -0.004046  -0.000181  -0.000342   0.000033
    17  C   -0.000020   0.000197  -0.004456  -0.000003  -0.000038   0.000000
    18  C   -0.000068  -0.000128   0.000032   0.000000   0.000000   0.000000
    19  C    0.000047   0.000060  -0.000181   0.000000   0.000000   0.000000
    20  H   -0.000024   0.000028   0.000004   0.000000   0.000000   0.000000
    21  H   -0.000019  -0.000016  -0.000007   0.000000   0.000000   0.000000
    22  H   -0.000001   0.000001  -0.000003   0.000000   0.000000   0.000000
    23  H    0.000000   0.000000  -0.000002   0.000000   0.000000   0.000000
    24  H    0.000005   0.000000  -0.000008   0.000000   0.000000   0.000000
    25  H    0.000008   0.000015  -0.000062   0.000000   0.000000   0.000000
    26  H   -0.000003  -0.000080   0.001384  -0.000003  -0.000091   0.000000
    27  H   -0.000020   0.000857  -0.001893  -0.000001  -0.000009   0.000000
    28  H    0.000000  -0.000020   0.000476   0.000000  -0.000001   0.000000
    29  H    0.007303  -0.000022   0.000027   0.000044   0.000000  -0.002712
    30  H   -0.001518   0.000068  -0.000050  -0.000112   0.000000   0.000145
    31  H   -0.009925  -0.000025   0.000017  -0.000021   0.000000   0.001809
    32  H    0.000332  -0.000001  -0.000005   0.003082   0.000006   0.388165
    33  H   -0.000233   0.000005  -0.000012   0.003197  -0.000025   0.405039
    34  H    0.000607   0.000013  -0.000009   0.010444  -0.000124  -0.043144
    35  H    0.000134  -0.000002   0.000000  -0.000154   0.000000  -0.036109
    36  H   -0.001166  -0.000030   0.000001   0.000004   0.000001  -0.036438
    37  C    0.009375   0.006448  -0.007049  -0.004260   0.000057  -0.000994
    38  C   -0.000510  -0.000211   0.000086   0.000299  -0.000001   0.000067
    39  C   -0.000083   0.000001  -0.000007  -0.000007   0.000000   0.000042
    40  H   -0.000056  -0.000179   0.002894  -0.000106   0.000015   0.000001
    41  H   -0.000404   0.000263  -0.000026   0.001466   0.000059   0.000469
    42  H   -0.000086   0.000016   0.000006   0.000000   0.000000   0.000015
    43  H   -0.000002  -0.000001   0.000001   0.000000   0.000000  -0.000003
    44  H    0.000004   0.000002   0.000004  -0.000028   0.000000   0.000009
              13         14         15         16         17         18
     1  C   -0.077585  -0.051513   0.003818   0.000162   0.000009  -0.000001
     2  C   -0.007041   0.278546  -0.061854   0.001897  -0.000307  -0.000030
     3  C   -0.001034  -0.051723   0.221658  -0.046304  -0.001221   0.002540
     4  C    0.000214   0.007117  -0.029484  -0.010610  -0.005117  -0.000343
     5  C   -0.000043   0.000308   0.001785   0.001772  -0.000311  -0.000005
     6  H    0.008450  -0.000256  -0.000053  -0.000100   0.000000   0.000000
     7  H    0.005907  -0.041467   0.005372  -0.000107  -0.000020  -0.000068
     8  H    0.000086  -0.000040  -0.001327   0.000415   0.000197  -0.000128
     9  H    0.000015  -0.000130  -0.001444  -0.004046  -0.004456   0.000032
    10  O    0.001477   0.003640  -0.000027  -0.000181  -0.000003   0.000000
    11  O   -0.000014   0.000004  -0.000021  -0.000342  -0.000038   0.000000
    12  C    0.284502  -0.008136  -0.000069   0.000033   0.000000   0.000000
    13  C    5.381933  -0.001141  -0.000004  -0.000018   0.000000   0.000000
    14  C   -0.001141   5.430460  -0.007794   0.000251   0.000000  -0.000004
    15  O   -0.000004  -0.007794   8.247981   0.356320  -0.021802  -0.022556
    16  Si  -0.000018   0.000251   0.356320  11.532095   0.319366   0.333779
    17  C    0.000000   0.000000  -0.021802   0.319366   5.800786  -0.050861
    18  C    0.000000  -0.000004  -0.022556   0.333779  -0.050861   5.726265
    19  C    0.000000  -0.000004  -0.025157   0.317779  -0.058498  -0.056360
    20  H    0.000000   0.000004  -0.001335  -0.026841  -0.000465   0.369132
    21  H    0.000000   0.000003  -0.001184  -0.025997   0.002682   0.369576
    22  H    0.000000   0.000000   0.000944  -0.013184  -0.000177   0.364422
    23  H    0.000000  -0.000001   0.000877  -0.010194   0.000460  -0.000592
    24  H    0.000000  -0.000003  -0.002350  -0.026075   0.002475  -0.000561
    25  H    0.000000   0.000020  -0.001638  -0.030699  -0.001501   0.002749
    26  H    0.000000   0.000000  -0.000965  -0.029285   0.366307   0.002967
    27  H    0.000000   0.000003  -0.001865  -0.026168   0.368348  -0.000297
    28  H    0.000000   0.000000   0.000700  -0.009452   0.366741  -0.000966
    29  H    0.000418   0.387003   0.000023  -0.000188   0.000001   0.000000
    30  H   -0.000141   0.386429   0.008764   0.001482   0.000033   0.000048
    31  H    0.000230   0.386509  -0.000018   0.000020   0.000000   0.000001
    32  H   -0.037933   0.003260   0.000000  -0.000003   0.000000   0.000000
    33  H   -0.047363  -0.000455   0.000004   0.000002   0.000000   0.000000
    34  H    0.386372   0.000241   0.000003  -0.000001   0.000000   0.000000
    35  H    0.391837  -0.000020   0.000000   0.000000   0.000000   0.000000
    36  H    0.383846   0.000106  -0.000036  -0.000014   0.000000   0.000000
    37  C    0.000021  -0.002135  -0.053229  -0.009463  -0.001537  -0.000117
    38  C   -0.000008  -0.016625   0.004405  -0.002234   0.000134  -0.000039
    39  C   -0.000001  -0.004387   0.000443   0.000503   0.000000   0.000000
    40  H    0.000001  -0.000385  -0.003716   0.006542   0.000726   0.000013
    41  H   -0.000013   0.000403   0.003201   0.001374  -0.000036   0.000010
    42  H    0.000000  -0.000219   0.002998  -0.000022   0.000037  -0.000049
    43  H    0.000000   0.000084   0.000014   0.000014   0.000000   0.000000
    44  H    0.000000   0.000099  -0.000001  -0.000008   0.000000   0.000000
              19         20         21         22         23         24
     1  C    0.000006  -0.000001  -0.000001   0.000000   0.000000   0.000000
     2  C   -0.000215   0.000015   0.000042   0.000001   0.000004   0.000031
     3  C   -0.001277   0.000009  -0.000135  -0.000071  -0.000015   0.000249
     4  C   -0.000197   0.000022  -0.000017  -0.000002  -0.000008  -0.000021
     5  C    0.000006  -0.000002   0.000000   0.000000   0.000000   0.000001
     6  H    0.000000   0.000000   0.000000   0.000000   0.000000   0.000000
     7  H    0.000047  -0.000024  -0.000019  -0.000001   0.000000   0.000005
     8  H    0.000060   0.000028  -0.000016   0.000001   0.000000   0.000000
     9  H   -0.000181   0.000004  -0.000007  -0.000003  -0.000002  -0.000008
    10  O    0.000000   0.000000   0.000000   0.000000   0.000000   0.000000
    11  O    0.000000   0.000000   0.000000   0.000000   0.000000   0.000000
    12  C    0.000000   0.000000   0.000000   0.000000   0.000000   0.000000
    13  C    0.000000   0.000000   0.000000   0.000000   0.000000   0.000000
    14  C   -0.000004   0.000004   0.000003   0.000000  -0.000001  -0.000003
    15  O   -0.025157  -0.001335  -0.001184   0.000944   0.000877  -0.002350
    16  Si   0.317779  -0.026841  -0.025997  -0.013184  -0.010194  -0.026075
    17  C   -0.058498  -0.000465   0.002682  -0.000177   0.000460   0.002475
    18  C   -0.056360   0.369132   0.369576   0.364422  -0.000592  -0.000561
    19  C    5.784204   0.002557  -0.000998   0.000580   0.364073   0.370553
    20  H    0.002557   0.458932  -0.018285  -0.020708   0.000000  -0.000086
    21  H   -0.000998  -0.018285   0.457501  -0.020956  -0.000062   0.001211
    22  H    0.000580  -0.020708  -0.020956   0.453985   0.000643  -0.000054
    23  H    0.364073   0.000000  -0.000062   0.000643   0.445849  -0.021463
    24  H    0.370553  -0.000086   0.001211  -0.000054  -0.021463   0.452412
    25  H    0.368892  -0.000117  -0.000109  -0.000066  -0.022034  -0.018910
    26  H   -0.001362  -0.000098  -0.000099  -0.000055   0.000073  -0.000008
    27  H    0.002478   0.001197  -0.000068  -0.000068  -0.000035  -0.000098
    28  H   -0.000020  -0.000039  -0.000054   0.000592   0.000253  -0.000053
    29  H    0.000005   0.000000  -0.000002   0.000000   0.000000  -0.000002
    30  H    0.000147  -0.000007   0.000092  -0.000004  -0.000006   0.000131
    31  H   -0.000003   0.000001   0.000003   0.000000   0.000000  -0.000002
    32  H    0.000000   0.000000   0.000000   0.000000   0.000000   0.000000
    33  H    0.000000   0.000000   0.000000   0.000000   0.000000   0.000000
    34  H    0.000000   0.000000   0.000000   0.000000   0.000000   0.000000
    35  H    0.000000   0.000000   0.000000   0.000000   0.000000   0.000000
    36  H    0.000000   0.000000   0.000000   0.000000   0.000000   0.000000
    37  C    0.001624  -0.000017  -0.000020   0.000009  -0.000007   0.000166
    38  C   -0.003235   0.000002   0.000000  -0.000001   0.000163  -0.000457
    39  C   -0.000152   0.000000   0.000000   0.000000   0.000002  -0.000064
    40  H    0.000718   0.000001   0.000006   0.000011   0.000024  -0.000036
    41  H    0.000036   0.000001   0.000000   0.000000  -0.000001  -0.000018
    42  H   -0.001235   0.000001  -0.000019   0.000001   0.000331   0.001269
    43  H    0.000016   0.000000   0.000000   0.000000  -0.000002  -0.000010
    44  H   -0.000007   0.000000   0.000000   0.000000   0.000001   0.000000
              25         26         27         28         29         30
     1  C    0.000004   0.000009   0.000002   0.000000  -0.002561   0.005630
     2  C   -0.000070  -0.000097  -0.000115   0.000008  -0.046751  -0.035404
     3  C    0.000126   0.000881   0.000267  -0.000114  -0.005063  -0.007848
     4  C   -0.000066  -0.001579   0.000138   0.000456  -0.000092   0.000430
     5  C    0.000006  -0.000209  -0.000106  -0.000002  -0.000004  -0.000079
     6  H   -0.000001  -0.000002   0.000000   0.000000   0.004660  -0.000188
     7  H    0.000008  -0.000003  -0.000020   0.000000   0.007303  -0.001518
     8  H    0.000015  -0.000080   0.000857  -0.000020  -0.000022   0.000068
     9  H   -0.000062   0.001384  -0.001893   0.000476   0.000027  -0.000050
    10  O    0.000000  -0.000003  -0.000001   0.000000   0.000044  -0.000112
    11  O    0.000000  -0.000091  -0.000009  -0.000001   0.000000   0.000000
    12  C    0.000000   0.000000   0.000000   0.000000  -0.002712   0.000145
    13  C    0.000000   0.000000   0.000000   0.000000   0.000418  -0.000141
    14  C    0.000020   0.000000   0.000003   0.000000   0.387003   0.386429
    15  O   -0.001638  -0.000965  -0.001865   0.000700   0.000023   0.008764
    16  Si  -0.030699  -0.029285  -0.026168  -0.009452  -0.000188   0.001482
    17  C   -0.001501   0.366307   0.368348   0.366741   0.000001   0.000033
    18  C    0.002749   0.002967  -0.000297  -0.000966   0.000000   0.000048
    19  C    0.368892  -0.001362   0.002478  -0.000020   0.000005   0.000147
    20  H   -0.000117  -0.000098   0.001197  -0.000039   0.000000  -0.000007
    21  H   -0.000109  -0.000099  -0.000068  -0.000054  -0.000002   0.000092
    22  H   -0.000066  -0.000055  -0.000068   0.000592   0.000000  -0.000004
    23  H   -0.022034   0.000073  -0.000035   0.000253   0.000000  -0.000006
    24  H   -0.018910  -0.000008  -0.000098  -0.000053  -0.000002   0.000131
    25  H    0.454896   0.000932  -0.000037   0.000026   0.000000  -0.000002
    26  H    0.000932   0.448704  -0.019120  -0.019519   0.000000   0.000003
    27  H   -0.000037  -0.019120   0.446223  -0.019820   0.000000   0.000002
    28  H    0.000026  -0.019519  -0.019820   0.431864   0.000000   0.000000
    29  H    0.000000   0.000000   0.000000   0.000000   0.460016  -0.023456
    30  H   -0.000002   0.000003   0.000002   0.000000  -0.023456   0.430725
    31  H   -0.000001   0.000000   0.000000   0.000000  -0.027906  -0.026361
    32  H    0.000000   0.000000   0.000000   0.000000   0.000606   0.000337
    33  H    0.000000   0.000000   0.000000   0.000000  -0.000237   0.000028
    34  H    0.000000   0.000000   0.000000   0.000000   0.000001   0.000022
    35  H    0.000000   0.000000   0.000000   0.000000   0.000020  -0.000004
    36  H    0.000000   0.000000   0.000000   0.000000  -0.000165  -0.000054
    37  C    0.001416   0.000304   0.000174   0.000058   0.001633   0.000636
    38  C    0.000309   0.000039   0.000004  -0.000006   0.002322  -0.000004
    39  C    0.000341  -0.000003   0.000001   0.000000   0.001506   0.000159
    40  H    0.001602   0.003226  -0.000223   0.000059   0.000182  -0.000080
    41  H   -0.000014  -0.000056   0.000010  -0.000004  -0.000274  -0.000059
    42  H   -0.001727   0.000016  -0.000002   0.000001  -0.000999   0.000315
    43  H    0.000020   0.000000   0.000000   0.000000   0.000030  -0.000002
    44  H   -0.000015   0.000000   0.000000   0.000000  -0.000055  -0.000012
              31         32         33         34         35         36
     1  C   -0.007266  -0.033469  -0.046339  -0.008632   0.008198  -0.009000
     2  C   -0.032166  -0.007056   0.008896  -0.000460  -0.000123   0.005105
     3  C    0.006529  -0.000329  -0.000086  -0.000434   0.000007   0.000270
     4  C   -0.000340   0.000105   0.000228   0.000750  -0.000014   0.000054
     5  C   -0.000015  -0.000047  -0.000213  -0.000085   0.000018  -0.000028
     6  H   -0.000243  -0.000302  -0.007173   0.000515  -0.000199  -0.000355
     7  H   -0.009925   0.000332  -0.000233   0.000607   0.000134  -0.001166
     8  H   -0.000025  -0.000001   0.000005   0.000013  -0.000002  -0.000030
     9  H    0.000017  -0.000005  -0.000012  -0.000009   0.000000   0.000001
    10  O   -0.000021   0.003082   0.003197   0.010444  -0.000154   0.000004
    11  O    0.000000   0.000006  -0.000025  -0.000124   0.000000   0.000001
    12  C    0.001809   0.388165   0.405039  -0.043144  -0.036109  -0.036438
    13  C    0.000230  -0.037933  -0.047363   0.386372   0.391837   0.383846
    14  C    0.386509   0.003260  -0.000455   0.000241  -0.000020   0.000106
    15  O   -0.000018   0.000000   0.000004   0.000003   0.000000  -0.000036
    16  Si   0.000020  -0.000003   0.000002  -0.000001   0.000000  -0.000014
    17  C    0.000000   0.000000   0.000000   0.000000   0.000000   0.000000
    18  C    0.000001   0.000000   0.000000   0.000000   0.000000   0.000000
    19  C   -0.000003   0.000000   0.000000   0.000000   0.000000   0.000000
    20  H    0.000001   0.000000   0.000000   0.000000   0.000000   0.000000
    21  H    0.000003   0.000000   0.000000   0.000000   0.000000   0.000000
    22  H    0.000000   0.000000   0.000000   0.000000   0.000000   0.000000
    23  H    0.000000   0.000000   0.000000   0.000000   0.000000   0.000000
    24  H   -0.000002   0.000000   0.000000   0.000000   0.000000   0.000000
    25  H   -0.000001   0.000000   0.000000   0.000000   0.000000   0.000000
    26  H    0.000000   0.000000   0.000000   0.000000   0.000000   0.000000
    27  H    0.000000   0.000000   0.000000   0.000000   0.000000   0.000000
    28  H    0.000000   0.000000   0.000000   0.000000   0.000000   0.000000
    29  H   -0.027906   0.000606  -0.000237   0.000001   0.000020  -0.000165
    30  H   -0.026361   0.000337   0.000028   0.000022  -0.000004  -0.000054
    31  H    0.468619  -0.001633   0.000233  -0.000139  -0.000047   0.003013
    32  H   -0.001633   0.468108  -0.025810   0.007095  -0.003933  -0.005843
    33  H    0.000233  -0.025810   0.473216  -0.003704  -0.006239   0.006918
    34  H   -0.000139   0.007095  -0.003704   0.468219  -0.026130  -0.027648
    35  H   -0.000047  -0.003933  -0.006239  -0.026130   0.467276  -0.027359
    36  H    0.003013  -0.005843   0.006918  -0.027648  -0.027359   0.481070
    37  C   -0.000487   0.000011  -0.000027   0.000015   0.000001  -0.000031
    38  C    0.000659   0.000004   0.000006  -0.000001   0.000000   0.000004
    39  C    0.000219   0.000022  -0.000001   0.000000   0.000000   0.000001
    40  H    0.000022   0.000001  -0.000002   0.000000   0.000000   0.000000
    41  H   -0.000002  -0.000018  -0.000014  -0.000004   0.000001   0.000002
    42  H    0.000101  -0.000001   0.000000   0.000000   0.000000   0.000000
    43  H   -0.000008   0.000000   0.000000   0.000000   0.000000   0.000000
    44  H    0.000005   0.000003  -0.000002   0.000000   0.000000   0.000000
              37         38         39         40         41         42
     1  C    0.003207  -0.003004  -0.000988  -0.000247  -0.000031   0.000079
     2  C   -0.085936  -0.005329   0.001930   0.006223  -0.002726  -0.000701
     3  C    0.286679  -0.055146  -0.000435  -0.042247  -0.020334  -0.000755
     4  C   -0.107214   0.007809  -0.000041  -0.003130  -0.007081  -0.000120
     5  C    0.003575  -0.000445  -0.000042  -0.000346   0.004169  -0.000005
     6  H    0.005689   0.000929   0.002870   0.000600  -0.002533  -0.000023
     7  H    0.009375  -0.000510  -0.000083  -0.000056  -0.000404  -0.000086
     8  H    0.006448  -0.000211   0.000001  -0.000179   0.000263   0.000016
     9  H   -0.007049   0.000086  -0.000007   0.002894  -0.000026   0.000006
    10  O   -0.004260   0.000299  -0.000007  -0.000106   0.001466   0.000000
    11  O    0.000057  -0.000001   0.000000   0.000015   0.000059   0.000000
    12  C   -0.000994   0.000067   0.000042   0.000001   0.000469   0.000015
    13  C    0.000021  -0.000008  -0.000001   0.000001  -0.000013   0.000000
    14  C   -0.002135  -0.016625  -0.004387  -0.000385   0.000403  -0.000219
    15  O   -0.053229   0.004405   0.000443  -0.003716   0.003201   0.002998
    16  Si  -0.009463  -0.002234   0.000503   0.006542   0.001374  -0.000022
    17  C   -0.001537   0.000134   0.000000   0.000726  -0.000036   0.000037
    18  C   -0.000117  -0.000039   0.000000   0.000013   0.000010  -0.000049
    19  C    0.001624  -0.003235  -0.000152   0.000718   0.000036  -0.001235
    20  H   -0.000017   0.000002   0.000000   0.000001   0.000001   0.000001
    21  H   -0.000020   0.000000   0.000000   0.000006   0.000000  -0.000019
    22  H    0.000009  -0.000001   0.000000   0.000011   0.000000   0.000001
    23  H   -0.000007   0.000163   0.000002   0.000024  -0.000001   0.000331
    24  H    0.000166  -0.000457  -0.000064  -0.000036  -0.000018   0.001269
    25  H    0.001416   0.000309   0.000341   0.001602  -0.000014  -0.001727
    26  H    0.000304   0.000039  -0.000003   0.003226  -0.000056   0.000016
    27  H    0.000174   0.000004   0.000001  -0.000223   0.000010  -0.000002
    28  H    0.000058  -0.000006   0.000000   0.000059  -0.000004   0.000001
    29  H    0.001633   0.002322   0.001506   0.000182  -0.000274  -0.000999
    30  H    0.000636  -0.000004   0.000159  -0.000080  -0.000059   0.000315
    31  H   -0.000487   0.000659   0.000219   0.000022  -0.000002   0.000101
    32  H    0.000011   0.000004   0.000022   0.000001  -0.000018  -0.000001
    33  H   -0.000027   0.000006  -0.000001  -0.000002  -0.000014   0.000000
    34  H    0.000015  -0.000001   0.000000   0.000000  -0.000004   0.000000
    35  H    0.000001   0.000000   0.000000   0.000000   0.000001   0.000000
    36  H   -0.000031   0.000004   0.000001   0.000000   0.000002   0.000000
    37  C    5.510881   0.313382  -0.059389   0.389771   0.382844  -0.048444
    38  C    0.313382   5.075017   0.625778  -0.042203  -0.045869   0.396242
    39  C   -0.059389   0.625778   5.143971  -0.003406   0.002446  -0.037106
    40  H    0.389771  -0.042203  -0.003406   0.449090  -0.025870  -0.001154
    41  H    0.382844  -0.045869   0.002446  -0.025870   0.443001   0.004514
    42  H   -0.048444   0.396242  -0.037106  -0.001154   0.004514   0.452632
    43  H    0.006427  -0.039245   0.393215  -0.000386   0.000136  -0.007749
    44  H   -0.009096  -0.041658   0.389542   0.000177   0.004703   0.005883
              43         44
     1  C    0.000033   0.000188
     2  C   -0.000029  -0.000136
     3  C   -0.000268   0.000189
     4  C    0.000015  -0.000047
     5  C    0.000000  -0.000019
     6  H    0.000026   0.000715
     7  H   -0.000002   0.000004
     8  H   -0.000001   0.000002
     9  H    0.000001   0.000004
    10  O    0.000000  -0.000028
    11  O    0.000000   0.000000
    12  C   -0.000003   0.000009
    13  C    0.000000   0.000000
    14  C    0.000084   0.000099
    15  O    0.000014  -0.000001
    16  Si   0.000014  -0.000008
    17  C    0.000000   0.000000
    18  C    0.000000   0.000000
    19  C    0.000016  -0.000007
    20  H    0.000000   0.000000
    21  H    0.000000   0.000000
    22  H    0.000000   0.000000
    23  H   -0.000002   0.000001
    24  H   -0.000010   0.000000
    25  H    0.000020  -0.000015
    26  H    0.000000   0.000000
    27  H    0.000000   0.000000
    28  H    0.000000   0.000000
    29  H    0.000030  -0.000055
    30  H   -0.000002  -0.000012
    31  H   -0.000008   0.000005
    32  H    0.000000   0.000003
    33  H    0.000000  -0.000002
    34  H    0.000000   0.000000
    35  H    0.000000   0.000000
    36  H    0.000000   0.000000
    37  C    0.006427  -0.009096
    38  C   -0.039245  -0.041658
    39  C    0.393215   0.389542
    40  H   -0.000386   0.000177
    41  H    0.000136   0.004703
    42  H   -0.007749   0.005883
    43  H    0.453043  -0.032685
    44  H   -0.032685   0.458384
 Mulliken charges:
               1
     1  C   -0.032732
     2  C   -0.298927
     3  C    0.177176
     4  C   -0.616115
     5  C    0.483446
     6  H    0.255375
     7  H    0.256477
     8  H    0.291863
     9  H    0.276860
    10  O   -0.317197
    11  O   -0.389788
    12  C   -0.456933
    13  C   -0.672970
    14  C   -0.698052
    15  O   -0.621382
    16  Si   1.397729
    17  C   -1.081948
    18  C   -1.038557
    19  C   -1.064883
    20  H    0.236118
    21  H    0.236930
    22  H    0.234161
    23  H    0.241669
    24  H    0.241777
    25  H    0.245706
    26  H    0.247787
    27  H    0.250241
    28  H    0.248834
    29  H    0.244690
    30  H    0.259766
    31  H    0.238619
    32  H    0.245245
    33  H    0.240163
    34  H    0.236219
    35  H    0.232842
    36  H    0.227773
    37  C   -0.534953
    38  C   -0.171428
    39  C   -0.456877
    40  H    0.261866
    41  H    0.256277
    42  H    0.235959
    43  H    0.227316
    44  H    0.223861
 Sum of Mulliken charges =   0.00000
 Mulliken charges with hydrogens summed into heavy atoms:
               1
     1  C    0.222643
     2  C   -0.042450
     3  C    0.177176
     4  C   -0.047393
     5  C    0.483446
    10  O   -0.317197
    11  O   -0.389788
    12  C    0.028475
    13  C    0.023863
    14  C    0.045022
    15  O   -0.621382
    16  Si   1.397729
    17  C   -0.335087
    18  C   -0.331347
    19  C   -0.335731
    37  C   -0.016810
    38  C    0.064531
    39  C   -0.005701
 Electronic spatial extent (au):  <R**2>=           5509.3446
 Charge=              0.0000 electrons
 Dipole moment (field-independent basis, Debye):
    X=             -1.9649    Y=              3.5506    Z=              2.2530  Tot=              4.6415
 Quadrupole moment (field-independent basis, Debye-Ang):
   XX=           -117.8071   YY=           -126.2061   ZZ=           -125.2470
   XY=             11.8688   XZ=              8.6306   YZ=             -8.6563
 Traceless Quadrupole moment (field-independent basis, Debye-Ang):
   XX=              5.2796   YY=             -3.1193   ZZ=             -2.1603
   XY=             11.8688   XZ=              8.6306   YZ=             -8.6563
 Octapole moment (field-independent basis, Debye-Ang**2):
  XXX=             -3.6338  YYY=             23.8338  ZZZ=              5.1852  XYY=            -14.0231
  XXY=             16.1904  XXZ=             18.5862  XZZ=              2.1185  YZZ=             18.0819
  YYZ=             27.6030  XYZ=            -24.4261
 Hexadecapole moment (field-independent basis, Debye-Ang**3):
 XXXX=          -4310.2062 YYYY=          -1754.6189 ZZZZ=          -1319.1947 XXXY=             79.2247
 XXXZ=             54.0221 YYYX=             39.4920 YYYZ=            -66.5182 ZZZX=             14.8728
 ZZZY=             -3.6876 XXYY=          -1094.0672 XXZZ=           -996.1515 YYZZ=           -566.7307
 XXYZ=            -14.7585 YYXZ=             19.3441 ZZXY=             39.6605
 N-N= 1.629229517058D+03 E-N=-5.753393605864D+03  KE= 1.060531561901D+03
 1\1\GINC-SWANNODE-0-1\SP\RmPW1PW91\6-311G(d)\C14H26O3Si1\ROOT\08-Mar-2
 018\0\\#mPW1PW91/6-311g(d) nmr=(giao) scrf=(solvent=chloroform)\\P_ng_
 correct1ginp011\\0,1\C,0,1.189434,-0.080827,1.062405\C,0,-0.27592,-0.3
 4849,0.706358\C,0,-1.164304,0.864481,1.134384\C,0,-0.627693,2.053249,0
 .320596\C,0,0.854798,2.273256,0.412297\H,0,1.307528,-0.062076,2.152343
 \H,0,-0.364383,-0.399228,-0.389351\H,0,-0.879245,1.941126,-0.741581\H,
 0,-1.097317,2.981083,0.661309\O,0,1.651066,1.203668,0.590839\O,0,1.336
 528,3.390995,0.246887\C,0,2.189135,-1.129859,0.541692\C,0,2.221034,-1.
 269163,-0.975215\C,0,-0.750369,-1.721626,1.202823\O,0,-2.49076,0.51058
 3,0.681273\Si,0,-3.923105,1.367522,0.786609\C,0,-3.758265,3.218174,0.5
 44638\C,0,-5.089917,0.738535,-0.567927\C,0,-4.789091,1.068198,2.430899
 \H,0,-4.650933,0.910258,-1.554921\H,0,-5.267378,-0.333939,-0.446841\H,
 0,-6.050181,1.259714,-0.516855\H,0,-5.790866,1.50812,2.418973\H,0,-4.8
 88475,-0.004034,2.623019\H,0,-4.232105,1.51989,3.256011\H,0,-3.191278,
 3.674943,1.360577\H,0,-3.260566,3.447592,-0.401956\H,0,-4.746855,3.687
 532,0.525218\H,0,-0.450192,-1.913602,2.235855\H,0,-1.835658,-1.835852,
 1.128049\H,0,-0.31022,-2.518368,0.592859\H,0,1.987972,-2.107624,0.9926
 08\H,0,3.196444,-0.836586,0.864603\H,0,2.416637,-0.308698,-1.461614\H,
 0,3.016506,-1.961816,-1.269068\H,0,1.278934,-1.668162,-1.361623\C,0,-1
 .110413,1.222314,2.657465\C,0,-1.480514,0.130996,3.623736\C,0,-0.73537
 6,-0.220096,4.680029\H,0,-1.793682,2.057564,2.853879\H,0,-0.113696,1.6
 03931,2.91222\H,0,-2.419034,-0.391678,3.451184\H,0,-1.060116,-1.013338
 ,5.347384\H,0,0.204904,0.271298,4.910835\\Version=EM64L-G09RevD.01\Sta
 te=1-A\HF=-1064.3754504\RMSD=3.749e-09\Dipole=-1.0962536,-1.3554799,0.
 5436262\Quadrupole=-1.4344555,-2.4602319,3.8946874,-12.2255338,2.92706
 7,1.5713252\PG=C01 [X(C14H26O3Si1)]\\@


 YOU KNOW YOU'VE SPOKEN TOO LONG WHEN THE AUDIENCE STOPS LOOKING AT
 THEIR WATCHES AND STARTS SHAKING THEM.
 Job cpu time:       0 days  1 hours 14 minutes 45.7 seconds.
 File lengths (MBytes):  RWF=    231 Int=      0 D2E=      0 Chk=     11 Scr=      1
 Normal termination of Gaussian 09 at Thu Mar  8 13:15:45 2018.
