 Entering Gaussian System, Link 0=/usr/local/shared/gaussian/em64t/09-D01/g09/g09
 Initial command:
 /usr/local/shared/gaussian/em64t/09-D01/g09/l1.exe "/scratch/ah809/P_ng_2ginp002/Gau-12611.inp" -scrdir="/scratch/ah809/P_ng_2ginp002/"
 Entering Link 1 = /usr/local/shared/gaussian/em64t/09-D01/g09/l1.exe PID=     12629.
  
 Copyright (c) 1988,1990,1992,1993,1995,1998,2003,2009,2013,
            Gaussian, Inc.  All Rights Reserved.
  
 This is part of the Gaussian(R) 09 program.  It is based on
 the Gaussian(R) 03 system (copyright 2003, Gaussian, Inc.),
 the Gaussian(R) 98 system (copyright 1998, Gaussian, Inc.),
 the Gaussian(R) 94 system (copyright 1995, Gaussian, Inc.),
 the Gaussian 92(TM) system (copyright 1992, Gaussian, Inc.),
 the Gaussian 90(TM) system (copyright 1990, Gaussian, Inc.),
 the Gaussian 88(TM) system (copyright 1988, Gaussian, Inc.),
 the Gaussian 86(TM) system (copyright 1986, Carnegie Mellon
 University), and the Gaussian 82(TM) system (copyright 1983,
 Carnegie Mellon University). Gaussian is a federally registered
 trademark of Gaussian, Inc.
  
 This software contains proprietary and confidential information,
 including trade secrets, belonging to Gaussian, Inc.
  
 This software is provided under written license and may be
 used, copied, transmitted, or stored only in accord with that
 written license.
  
 The following legend is applicable only to US Government
 contracts under FAR:
  
                    RESTRICTED RIGHTS LEGEND
  
 Use, reproduction and disclosure by the US Government is
 subject to restrictions as set forth in subparagraphs (a)
 and (c) of the Commercial Computer Software - Restricted
 Rights clause in FAR 52.227-19.
  
 Gaussian, Inc.
 340 Quinnipiac St., Bldg. 40, Wallingford CT 06492
  
  
 ---------------------------------------------------------------
 Warning -- This program may not be used in any manner that
 competes with the business of Gaussian, Inc. or will provide
 assistance to any competitor of Gaussian, Inc.  The licensee
 of this program is prohibited from giving any competitor of
 Gaussian, Inc. access to this program.  By using this program,
 the user acknowledges that Gaussian, Inc. is engaged in the
 business of creating and licensing software in the field of
 computational chemistry and represents and warrants to the
 licensee that it is not a competitor of Gaussian, Inc. and that
 it will not use this program in any manner prohibited above.
 ---------------------------------------------------------------
  

 Cite this work as:
 Gaussian 09, Revision D.01,
 M. J. Frisch, G. W. Trucks, H. B. Schlegel, G. E. Scuseria, 
 M. A. Robb, J. R. Cheeseman, G. Scalmani, V. Barone, B. Mennucci, 
 G. A. Petersson, H. Nakatsuji, M. Caricato, X. Li, H. P. Hratchian, 
 A. F. Izmaylov, J. Bloino, G. Zheng, J. L. Sonnenberg, M. Hada, 
 M. Ehara, K. Toyota, R. Fukuda, J. Hasegawa, M. Ishida, T. Nakajima, 
 Y. Honda, O. Kitao, H. Nakai, T. Vreven, J. A. Montgomery, Jr., 
 J. E. Peralta, F. Ogliaro, M. Bearpark, J. J. Heyd, E. Brothers, 
 K. N. Kudin, V. N. Staroverov, T. Keith, R. Kobayashi, J. Normand, 
 K. Raghavachari, A. Rendell, J. C. Burant, S. S. Iyengar, J. Tomasi, 
 M. Cossi, N. Rega, J. M. Millam, M. Klene, J. E. Knox, J. B. Cross, 
 V. Bakken, C. Adamo, J. Jaramillo, R. Gomperts, R. E. Stratmann, 
 O. Yazyev, A. J. Austin, R. Cammi, C. Pomelli, J. W. Ochterski, 
 R. L. Martin, K. Morokuma, V. G. Zakrzewski, G. A. Voth, 
 P. Salvador, J. J. Dannenberg, S. Dapprich, A. D. Daniels, 
 O. Farkas, J. B. Foresman, J. V. Ortiz, J. Cioslowski, 
 and D. J. Fox, Gaussian, Inc., Wallingford CT, 2013.
 
 ******************************************
 Gaussian 09:  EM64L-G09RevD.01 24-Apr-2013
                 8-Mar-2018 
 ******************************************
 %mem=6000MB
 %chk=P_ng_2ginp002.chk
 --------------------------------------------------------
 #mPW1PW91/6-311g(d) nmr=(giao) scrf=(solvent=chloroform)
 --------------------------------------------------------
 1/38=1/1;
 2/12=2,17=6,18=5,40=1/2;
 3/5=4,6=6,7=1,11=2,16=1,25=1,30=1,70=2201,72=7,74=-7/1,2,8,3;
 4//1;
 5/5=2,38=5,53=7/2;
 8/6=1,10=90,11=11/1;
 10/13=100,45=16/2;
 6/7=2,8=2,9=2,10=2,28=1/1;
 99/9=1/99;
 -------------
 P_ng_2ginp002
 -------------
 Symbolic Z-matrix:
 Charge =  0 Multiplicity = 1
 C                    -0.11882   0.01978   1.04496 
 C                    -0.93372   1.1744    0.43533 
 C                    -2.20608   1.4545    1.28723 
 C                    -1.7374    1.74214   2.71761 
 C                    -0.91263   0.63142   3.29286 
 H                    -0.6323   -0.92995   0.85108 
 H                    -0.32434   2.08307   0.4789 
 H                    -1.1095    2.63828   2.7679 
 H                    -2.58825   1.93136   3.38131 
 O                     0.02546   0.09825   2.48139 
 O                    -0.98676   0.31038   4.4741 
 C                     1.29901  -0.14317   0.46483 
 C                     2.2092    1.05995   0.67802 
 C                    -1.2304    0.92955  -1.05088 
 O                    -2.96833   2.51972   0.67567 
 Si                   -2.79154   4.17441   0.82905 
 C                    -3.37759   4.78342   2.5072 
 C                    -1.03156   4.7584    0.5451 
 C                    -3.87252   5.01693  -0.47592 
 H                    -0.98531   5.85157   0.56193 
 H                    -0.35679   4.38279   1.31893 
 H                    -0.66439   4.41914  -0.42802 
 H                    -3.78768   6.10469  -0.39859 
 H                    -3.56121   4.71331  -1.4796 
 H                    -4.92116   4.73822  -0.33772 
 H                    -3.41664   5.8768    2.52395 
 H                    -4.37967   4.40202   2.7244 
 H                    -2.70533   4.45927   3.30582 
 H                    -1.86954   1.7121   -1.47051 
 H                    -0.30648   0.92979  -1.6379 
 H                    -1.72347  -0.03444  -1.21061 
 H                     1.25261  -0.37821  -0.6037 
 H                     1.77418  -1.00299   0.95473 
 H                     1.87059   1.92633   0.10285 
 H                     2.26077   1.34194   1.73399 
 H                     3.22461   0.82235   0.34416 
 C                    -3.18497   0.22836   1.27061 
 C                    -4.41908   0.41125   2.11962 
 C                    -4.72114  -0.34279   3.18408 
 H                    -2.67435  -0.69021   1.57801 
 H                    -3.54188   0.06082   0.24652 
 H                    -5.09964   1.20793   1.82346 
 H                    -5.62881  -0.16174   3.75228 
 H                    -4.07565  -1.14844   3.52157 
 
                          Input orientation:                          
 ---------------------------------------------------------------------
 Center     Atomic      Atomic             Coordinates (Angstroms)
 Number     Number       Type             X           Y           Z
 ---------------------------------------------------------------------
      1          6           0       -0.118817    0.019783    1.044956
      2          6           0       -0.933716    1.174399    0.435327
      3          6           0       -2.206082    1.454501    1.287226
      4          6           0       -1.737401    1.742139    2.717605
      5          6           0       -0.912634    0.631423    3.292860
      6          1           0       -0.632302   -0.929947    0.851075
      7          1           0       -0.324338    2.083072    0.478900
      8          1           0       -1.109496    2.638278    2.767903
      9          1           0       -2.588246    1.931358    3.381311
     10          8           0        0.025455    0.098247    2.481391
     11          8           0       -0.986758    0.310379    4.474100
     12          6           0        1.299011   -0.143173    0.464831
     13          6           0        2.209202    1.059946    0.678020
     14          6           0       -1.230397    0.929548   -1.050883
     15          8           0       -2.968330    2.519719    0.675672
     16         14           0       -2.791538    4.174410    0.829049
     17          6           0       -3.377593    4.783421    2.507200
     18          6           0       -1.031564    4.758395    0.545097
     19          6           0       -3.872523    5.016930   -0.475924
     20          1           0       -0.985313    5.851574    0.561928
     21          1           0       -0.356785    4.382789    1.318926
     22          1           0       -0.664394    4.419137   -0.428019
     23          1           0       -3.787680    6.104687   -0.398585
     24          1           0       -3.561212    4.713312   -1.479599
     25          1           0       -4.921157    4.738220   -0.337715
     26          1           0       -3.416641    5.876797    2.523952
     27          1           0       -4.379674    4.402019    2.724395
     28          1           0       -2.705328    4.459272    3.305824
     29          1           0       -1.869542    1.712096   -1.470507
     30          1           0       -0.306479    0.929787   -1.637895
     31          1           0       -1.723465   -0.034438   -1.210611
     32          1           0        1.252612   -0.378205   -0.603704
     33          1           0        1.774181   -1.002992    0.954734
     34          1           0        1.870589    1.926334    0.102852
     35          1           0        2.260772    1.341944    1.733990
     36          1           0        3.224614    0.822350    0.344157
     37          6           0       -3.184973    0.228361    1.270612
     38          6           0       -4.419075    0.411249    2.119620
     39          6           0       -4.721138   -0.342793    3.184079
     40          1           0       -2.674346   -0.690210    1.578012
     41          1           0       -3.541884    0.060816    0.246518
     42          1           0       -5.099644    1.207929    1.823455
     43          1           0       -5.628814   -0.161743    3.752281
     44          1           0       -4.075650   -1.148439    3.521572
 ---------------------------------------------------------------------
                    Distance matrix (angstroms):
                    1          2          3          4          5
     1  C    0.000000
     2  C    1.539106   0.000000
     3  C    2.544364   1.556632   0.000000
     4  C    2.895527   2.485363   1.532443   0.000000
     5  C    2.461163   2.908739   2.524487   1.498282   0.000000
     6  H    1.096925   2.166095   2.890087   3.441689   2.911834
     7  H    2.149377   1.094955   2.142301   2.669229   3.220520
     8  H    3.287325   2.759484   2.190030   1.095381   2.083699
     9  H    3.900097   3.462554   2.181429   1.095558   2.122576
    10  O    1.445793   2.502896   2.871448   2.421949   1.350100
    11  O    3.549197   4.130500   3.598879   2.387190   1.226333
    12  C    1.540564   2.592670   3.938854   4.224830   3.672754
    13  C    2.576093   3.154351   4.474543   4.494549   4.094738
    14  C    2.540831   1.535185   2.587333   3.888298   4.365542
    15  O    3.808645   2.450981   1.445583   2.507849   3.826385
    16  Si   4.944793   3.550575   2.819679   3.254810   4.706740
    17  C    5.953992   4.825995   3.733963   3.461776   4.892072
    18  C    4.851537   3.587011   3.584127   3.783622   4.959460
    19  C    6.432330   4.922602   4.310061   5.047933   6.495949
    20  H    5.915566   4.679173   4.620669   4.701068   5.891795
    21  H    4.378071   3.377479   3.463492   3.291722   4.275293
    22  H    4.671362   3.368416   3.756053   4.267624   5.315387
    23  H    7.250546   5.757453   5.193038   5.739870   7.200644
    24  H    6.344500   4.805682   4.484590   5.456251   6.815655
    25  H    6.872983   5.403527   4.560140   5.333646   6.790811
    26  H    6.882419   5.713127   4.748857   4.466850   5.863038
    27  H    6.338723   5.247093   3.934186   3.749215   5.153728
    28  H    5.613433   4.708370   3.654126   2.943755   4.226860
    29  H    3.500931   2.190226   2.790109   4.190304   4.977268
    30  H    2.839192   2.179796   3.527060   4.655946   4.976825
    31  H    2.768649   2.189544   2.947719   4.311299   4.624075
    32  H    2.181122   2.875795   4.347067   4.946426   4.570651
    33  H    2.153520   3.513335   4.689597   4.793190   3.918816
    34  H    2.912084   2.922340   4.271372   4.459647   4.427107
    35  H    2.808081   3.452441   4.490551   4.136791   3.606303
    36  H    3.509097   4.174202   5.548104   5.576815   5.084105
    37  C    3.081516   2.580862   1.569052   2.545737   3.068464
    38  C    4.449760   3.945500   2.584297   3.052905   3.704065
    39  C    5.088091   4.919560   3.626820   3.669772   3.932637
    40  H    2.705359   2.795047   2.214410   2.844795   2.791245
    41  H    3.515192   2.842227   2.193125   3.491314   4.064326
    42  H    5.179420   4.391239   2.953141   3.519881   4.474658
    43  H    6.141875   5.901814   4.517060   4.454034   4.804429
    44  H    4.811954   4.979180   3.906774   3.803842   3.636604
                    6          7          8          9         10
     6  H    0.000000
     7  H    3.051498   0.000000
     8  H    4.078501   2.482793   0.000000
     9  H    4.291256   3.684058   1.750059   0.000000
    10  O    2.036604   2.841101   2.796777   3.316864   0.000000
    11  O    3.845823   4.420731   2.888821   2.527157   2.245098
    12  C    2.120888   2.755291   4.340682   5.283966   2.397236
    13  C    3.473293   2.739573   4.227588   5.575181   2.990947
    14  C    2.726332   2.119386   4.185391   4.742544   3.839946
    15  O    4.169891   2.687019   2.801205   2.794837   4.252869
    16  Si   5.542314   3.253210   2.991341   3.403917   5.223101
    17  C    6.551484   4.552829   3.132709   3.085677   5.790704
    18  C    5.710540   2.768014   3.072757   4.296453   5.155919
    19  C    6.901109   4.702003   4.880032   5.103762   6.937823
    20  H    6.796856   3.826929   3.899618   5.087869   6.148720
    21  H    5.340408   2.448550   2.389441   3.904147   4.455865
    22  H    5.499983   2.528901   3.685579   4.939762   5.254584
    23  H    7.810514   5.379415   5.405119   5.756990   7.675388
    24  H    6.771774   4.607736   5.325218   5.684574   7.060627
    25  H    7.206637   5.370979   5.346343   5.210768   7.344772
    26  H    7.542070   5.304425   3.983772   4.121625   6.726178
    27  H    6.781002   5.183195   3.715742   3.121685   6.163332
    28  H    6.274306   4.393966   2.480334   2.531750   5.211085
    29  H    3.728391   2.515048   4.404498   4.909659   4.670441
    30  H    3.124059   2.410644   4.793207   5.603752   4.215466
    31  H    2.498624   3.048910   4.832074   5.069314   4.087445
    32  H    2.444116   3.117160   5.103573   5.997217   3.354211
    33  H    2.409822   3.762179   4.986183   5.790462   2.569329
    34  H    3.870742   2.232417   4.060821   5.534395   3.521913
    35  H    3.782976   2.967712   3.756084   5.155003   2.664964
    36  H    4.266534   3.768638   5.287405   6.651582   3.914935
    37  C    2.834399   3.499999   3.515279   2.776929   3.433622
    38  C    4.212798   4.717396   4.041441   2.693424   4.470201
    39  C    4.744074   5.703917   4.701483   3.124083   4.818551
    40  H    2.180792   3.797588   3.865673   3.183068   2.954096
    41  H    3.132534   3.807377   4.349391   3.772967   4.209747
    42  H    5.047096   5.037584   4.342714   3.042595   5.284971
    43  H    5.828573   6.625080   5.406788   3.709952   5.801165
    44  H    4.363019   5.811442   4.868810   3.423039   4.410812
                   11         12         13         14         15
    11  O    0.000000
    12  C    4.637315   0.000000
    13  C    5.018589   1.523612   0.000000
    14  C    5.564905   3.137837   3.851876   0.000000
    15  O    4.820360   5.034446   5.379385   2.920624   0.000000
    16  Si   5.610202   5.958756   5.893225   4.062073   1.671162
    17  C    5.439935   7.093182   6.958624   5.667693   2.940466
    18  C    5.934974   5.428019   4.919223   4.152921   2.963070
    19  C    7.414985   7.365898   7.346883   4.900826   2.894789
    20  H    6.783062   6.415961   5.760044   5.185322   3.878989
    21  H    5.190040   4.894433   4.246921   4.278325   3.271845
    22  H    6.404419   5.046465   4.556867   3.589645   3.183401
    23  H    8.072312   8.102818   7.910189   5.809239   3.831104
    24  H    7.839653   7.140590   7.162407   4.464680   3.131861
    25  H    7.631437   7.947488   8.087239   5.351290   3.124457
    26  H    6.379061   7.919431   7.632799   6.483393   3.858380
    27  H    5.595969   7.616552   7.666185   6.019030   3.119649
    28  H    4.640222   6.729671   6.527892   5.797868   3.278526
    29  H    6.171100   4.150576   4.655923   1.094062   2.542769
    30  H    6.180852   2.854873   3.421850   1.094627   3.868582
    31  H    5.742610   3.457498   4.497830   1.094485   3.410494
    32  H    5.592228   1.095062   2.150851   2.841746   5.277416
    33  H    4.661938   1.097761   2.126388   4.096913   5.914286
    34  H    5.466585   2.177289   1.093666   3.455546   4.908703
    35  H    4.372503   2.177458   1.094191   4.484847   5.463579
    36  H    5.920659   2.157486   1.094978   4.669556   6.429893
    37  C    3.886028   4.570933   5.489975   3.114702   2.377227
    38  C    4.163478   5.978480   6.814182   4.526410   2.938587
    39  C    4.004545   6.608809   7.501841   5.633740   4.190276
    40  H    3.498065   4.162450   5.265175   3.408767   3.347281
    41  H    4.946049   4.850107   5.853157   2.789429   2.561121
    42  H    4.974670   6.679380   7.399537   4.828083   2.753307
    43  H    4.721505   7.668274   8.507532   6.603588   4.871749
    44  H    3.546366   6.264280   7.243074   5.772421   4.772912
                   16         17         18         19         20
    16  Si   0.000000
    17  C    1.878975   0.000000
    18  C    1.875947   3.058484   0.000000
    19  C    1.892438   3.032905   3.029913   0.000000
    20  H    2.479250   3.263133   1.094286   3.179583   0.000000
    21  H    2.492273   3.270746   1.093260   3.998004   1.767887
    22  H    2.482912   4.013684   1.094013   3.263701   1.770554
    23  H    2.495066   3.218307   3.209239   1.093798   2.973199
    24  H    2.492523   3.991641   3.240455   1.093829   3.478323
    25  H    2.492889   3.237001   3.988571   1.093807   4.188052
    26  H    2.482251   1.094201   3.294736   3.153800   3.124345
    27  H    2.483207   1.093987   4.010759   3.298084   4.277752
    28  H    2.494593   1.093075   3.242310   3.996867   3.525042
    29  H    3.492997   5.246847   3.747640   3.990370   4.695522
    30  H    4.773773   6.439258   4.466480   5.547214   5.433601
    31  H    4.797436   6.306348   5.150969   5.538460   6.191276
    32  H    6.255736   7.599928   5.737758   7.442501   6.721395
    33  H    6.904135   7.901487   6.421338   8.376844   7.399607
    34  H    5.226532   6.441060   4.079049   6.547526   4.875904
    35  H    5.862390   6.650773   4.891327   7.483752   5.678694
    36  H    6.904021   7.997373   5.800679   8.284708   6.562317
    37  C    3.990122   4.723857   5.068012   5.143297   6.079577
    38  C    4.298352   4.511185   5.731669   5.314872   6.619234
    39  C    5.447444   5.342410   6.826368   6.545411   7.694300
    40  H    4.923333   5.596301   5.783852   6.182696   6.832291
    41  H    4.221850   5.238385   5.334614   5.019393   6.337856
    42  H    3.887957   4.027047   5.548809   4.615350   6.331083
    43  H    5.949592   5.574304   7.458451   6.912375   8.240172
    44  H    6.101749   6.058316   7.281247   7.350715   8.204258
                   21         22         23         24         25
    21  H    0.000000
    22  H    1.774193   0.000000
    23  H    4.205451   3.549206   0.000000
    24  H    4.267240   3.095790   1.776458   0.000000
    25  H    4.868704   4.269660   1.776431   1.775942   0.000000
    26  H    3.612045   4.291127   2.954797   4.171693   3.427691
    27  H    4.261379   4.872506   3.605903   4.294223   3.127739
    28  H    3.077217   4.255421   4.195417   4.867992   4.273533
    29  H    4.147526   3.141215   4.911530   3.445160   4.444435
    30  H    4.546267   3.710454   6.358792   4.993336   6.122898
    31  H    5.270509   4.644180   6.527574   5.098117   5.810804
    32  H    5.380867   5.169165   8.214287   7.061419   8.022716
    33  H    5.803472   6.103944   9.126055   8.189538   8.914005
    34  H    3.531884   3.594722   7.051672   6.306811   7.364008
    35  H    4.033686   4.764451   7.988452   7.455788   8.210162
    36  H    5.143279   5.353271   8.810620   8.032005   9.063806
    37  C    5.025958   5.176994   6.138459   5.274467   5.093121
    38  C    5.737285   6.054028   6.257416   5.674333   5.001326
    39  C    6.697574   7.223600   7.434839   6.975638   6.185445
    40  H    5.583326   5.845468   7.163594   6.271648   6.179484
    41  H    5.474885   5.265920   6.083169   4.962416   4.911398
    42  H    5.729659   5.920510   5.535066   5.056150   4.143123
    43  H    7.373485   7.943855   7.738708   7.444038   6.421720
    44  H    7.019693   7.631110   8.249751   7.722466   7.089551
                   26         27         28         29         30
    26  H    0.000000
    27  H    1.772732   0.000000
    28  H    1.768238   1.773351   0.000000
    29  H    5.974442   5.579754   5.573047   0.000000
    30  H    7.174049   6.904845   6.530857   1.755902   0.000000
    31  H    7.194199   6.497836   6.446369   1.771797   1.766395
    32  H    8.408877   8.102434   7.372305   3.855976   2.282796
    33  H    8.760056   8.379485   7.445129   5.150749   3.845323
    34  H    7.030127   7.215767   6.133011   4.063242   2.960225
    35  H    7.309032   7.378380   6.070465   5.240735   4.257964
    36  H    8.625845   8.735260   7.560614   5.480427   4.050764
    37  C    5.790454   4.578233   4.719402   3.383129   4.151763
    38  C    5.571407   4.036527   4.553076   4.591441   5.594752
    39  C    6.389114   4.779241   5.209428   5.832610   6.660338
    40  H    6.676180   5.491187   5.431709   3.963868   4.309668
    41  H    6.247242   5.068314   5.422693   2.910606   3.843692
    42  H    5.012138   3.395918   4.301325   4.640897   5.918846
    43  H    6.547249   4.841986   5.486335   6.702307   7.653279
    44  H    7.126253   5.615648   5.776742   6.162015   6.719060
                   31         32         33         34         35
    31  H    0.000000
    32  H    3.056721   0.000000
    33  H    4.226150   1.758159   0.000000
    34  H    4.299655   2.488376   3.052204   0.000000
    35  H    5.141911   3.072477   2.518479   1.776053   0.000000
    36  H    5.256888   2.495709   2.410069   1.763630   1.769352
    37  C    2.891632   4.855218   5.119494   5.459440   5.577717
    38  C    4.307597   6.340959   6.458596   6.776630   6.755387
    39  C    5.328642   7.073489   6.898914   7.621926   7.327221
    40  H    3.018382   4.503136   4.502855   5.447828   5.339417
    41  H    2.332155   4.889050   5.467523   5.726750   6.125739
    42  H    4.706125   6.982698   7.272710   7.215312   7.362180
    43  H    6.316507   8.147115   7.958537   8.597642   8.281313
    44  H    5.400679   6.782443   6.389862   7.516624   7.039013
                   36         37         38         39         40
    36  H    0.000000
    37  C    6.503380   0.000000
    38  C    7.857942   1.509063   0.000000
    39  C    8.518080   2.519400   1.338990   0.000000
    40  H    6.213531   1.094992   2.133221   2.624787   0.000000
    41  H    6.809916   1.097372   2.097803   3.191051   1.757708
    42  H    8.463466   2.220620   1.088847   2.097452   3.089538
    43  H    9.537659   3.504743   2.111248   1.086052   3.706158
    44  H    8.202063   2.784907   2.125097   1.086104   2.439478
                   41         42         43         44
    41  H    0.000000
    42  H    2.495839   0.000000
    43  H    4.085974   2.424127   0.000000
    44  H    3.531739   3.079713   1.854485   0.000000
 Stoichiometry    C14H26O3Si
 Framework group  C1[X(C14H26O3Si)]
 Deg. of freedom   126
 Full point group                 C1      NOp   1
 Largest Abelian subgroup         C1      NOp   1
 Largest concise Abelian subgroup C1      NOp   1
                         Standard orientation:                         
 ---------------------------------------------------------------------
 Center     Atomic      Atomic             Coordinates (Angstroms)
 Number     Number       Type             X           Y           Z
 ---------------------------------------------------------------------
      1          6           0        2.357421   -0.438936    0.492313
      2          6           0        0.883890   -0.808491    0.739258
      3          6           0       -0.043604    0.399745    0.418284
      4          6           0        0.235937    0.810905   -1.031263
      5          6           0        1.678637    1.133039   -1.275587
      6          1           0        2.705229    0.224745    1.293438
      7          1           0        0.609537   -1.605195    0.040030
      8          1           0       -0.016086    0.011949   -1.736963
      9          1           0       -0.373344    1.673972   -1.321329
     10          8           0        2.582032    0.285564   -0.738527
     11          8           0        2.025149    2.034878   -2.030907
     12          6           0        3.328232   -1.635108    0.486605
     13          6           0        3.052900   -2.664929   -0.601998
     14          6           0        0.677366   -1.385311    2.146887
     15          8           0       -1.416325    0.036373    0.689039
     16         14           0       -2.515170   -0.760541   -0.285769
     17          6           0       -3.131317    0.337548   -1.680441
     18          6           0       -1.839276   -2.352781   -1.011795
     19          6           0       -4.021046   -1.224526    0.762266
     20          1           0       -2.622402   -2.883473   -1.561833
     21          1           0       -1.016771   -2.157622   -1.705061
     22          1           0       -1.474509   -3.013887   -0.220120
     23          1           0       -4.766974   -1.741878    0.152075
     24          1           0       -3.723352   -1.883961    1.582624
     25          1           0       -4.479490   -0.326613    1.186525
     26          1           0       -3.970283   -0.137526   -2.197854
     27          1           0       -3.472370    1.300024   -1.287847
     28          1           0       -2.345579    0.525087   -2.416823
     29          1           0       -0.378867   -1.582851    2.352609
     30          1           0        1.203099   -2.338940    2.258251
     31          1           0        1.053631   -0.707979    2.919897
     32          1           0        3.332713   -2.131374    1.462750
     33          1           0        4.344313   -1.252446    0.324649
     34          1           0        2.109846   -3.190699   -0.427870
     35          1           0        3.015104   -2.201458   -1.592463
     36          1           0        3.849093   -3.416544   -0.613365
     37          6           0        0.229914    1.602289    1.388334
     38          6           0       -0.600458    2.829188    1.101154
     39          6           0       -0.095083    4.012673    0.731216
     40          1           0        1.288963    1.880523    1.385328
     41          1           0       -0.012808    1.303946    2.416100
     42          1           0       -1.678034    2.725650    1.218188
     43          1           0       -0.747933    4.859827    0.542472
     44          1           0        0.971718    4.167942    0.599118
 ---------------------------------------------------------------------
 Rotational constants (GHZ):      0.4406703      0.3105593      0.2437844
 Standard basis: 6-311G(d) (5D, 7F)
 There are   428 symmetry adapted cartesian basis functions of A   symmetry.
 There are   410 symmetry adapted basis functions of A   symmetry.
   410 basis functions,   720 primitive gaussians,   428 cartesian basis functions
    74 alpha electrons       74 beta electrons
       nuclear repulsion energy      1640.9673510061 Hartrees.
 NAtoms=   44 NActive=   44 NUniq=   44 SFac= 1.00D+00 NAtFMM=   60 NAOKFM=F Big=F
 Integral buffers will be    131072 words long.
 Raffenetti 2 integral format.
 Two-electron integral symmetry is turned on.
 ------------------------------------------------------------------------------
 Polarizable Continuum Model (PCM)
 =================================
 Model                : PCM (using non-symmetric T matrix).
 Atomic radii         : UFF (Universal Force Field).
 Polarization charges : Total charges.
 Charge compensation  : None.
 Solution method      : On-the-fly selection.
 Cavity type          : Scaled VdW (van der Waals Surface) (Alpha=1.100).
 Cavity algorithm     : GePol (No added spheres)
                        Default sphere list used, NSphG=   44.
                        Lebedev-Laikov grids with approx.  5.0 points / Ang**2.
                        Smoothing algorithm: Karplus/York (Gamma=1.0000).
                        Polarization charges: spherical gaussians, with
                                              point-specific exponents (IZeta= 3).
                        Self-potential: point-specific (ISelfS= 7).
                        Self-field    : sphere-specific E.n sum rule (ISelfD= 2).
 Solvent              : Chloroform, Eps=   4.711300 Eps(inf)=   2.090627
 ------------------------------------------------------------------------------
 One-electron integrals computed using PRISM.
 NBasis=   410 RedAO= T EigKep=  1.14D-03  NBF=   410
 NBsUse=   410 1.00D-06 EigRej= -1.00D+00 NBFU=   410
 ExpMin= 6.54D-02 ExpMax= 6.94D+04 ExpMxC= 2.33D+03 IAcc=2 IRadAn=         4 AccDes= 0.00D+00
 Harris functional with IExCor=  908 and IRadAn=       4 diagonalized for initial guess.
 HarFok:  IExCor=  908 AccDes= 0.00D+00 IRadAn=         4 IDoV= 1 UseB2=F ITyADJ=14
 ICtDFT=  3500011 ScaDFX=  1.000000  1.000000  1.000000  1.000000
 FoFCou: FMM=F IPFlag=           0 FMFlag=      100000 FMFlg1=           0
         NFxFlg=           0 DoJE=T BraDBF=F KetDBF=T FulRan=T
         wScrn=  0.000000 ICntrl=     500 IOpCl=  0 I1Cent=   200000004 NGrid=           0
         NMat0=    1 NMatS0=      1 NMatT0=    0 NMatD0=    1 NMtDS0=    0 NMtDT0=    0
 Petite list used in FoFCou.
 Requested convergence on RMS density matrix=1.00D-08 within 128 cycles.
 Requested convergence on MAX density matrix=1.00D-06.
 Requested convergence on             energy=1.00D-06.
 No special actions if energy rises.
 Inv3:  Mode=1 IEnd=    25038963.
 Iteration    1 A*A^-1 deviation from unit magnitude is 7.44D-15 for   1107.
 Iteration    1 A*A^-1 deviation from orthogonality  is 5.55D-15 for   2676   1139.
 Iteration    1 A^-1*A deviation from unit magnitude is 8.44D-15 for   2441.
 Iteration    1 A^-1*A deviation from orthogonality  is 6.71D-11 for   2318   2278.
 Error on total polarization charges =  0.01119
 SCF Done:  E(RmPW1PW91) =  -1064.37727323     A.U. after   13 cycles
            NFock= 13  Conv=0.35D-08     -V/T= 2.0036
 DoSCS=F DFT=T ScalE2(SS,OS)=  1.000000  1.000000
 Range of M.O.s used for correlation:     1   410
 NBasis=   410 NAE=    74 NBE=    74 NFC=     0 NFV=     0
 NROrb=    410 NOA=    74 NOB=    74 NVA=   336 NVB=   336
 NEqPCM:  Using equilibrium solvation (IEInf=0, Eps=   4.7113, EpsInf=   2.0906)
          Differentiating once with respect to magnetic field using GIAOs.
          Electric field/nuclear overlap derivatives assumed to be zero.
 FoFJK:  IHMeth= 1 ICntrl=    6127 DoSepK=F KAlg= 0 I1Cent=   0 FoldK=F
 IRaf=         1 NMat=   1 IRICut=       1 DoRegI=T DoRafI=F ISym2E= 0.
          There are     3 degrees of freedom in the 1st order CPHF.  IDoFFX=0 NUNeed=     3.
      3 vectors produced by pass  0 Test12= 8.29D-13 3.33D-08 XBig12= 3.50D+01 1.18D+00.
 AX will form     3 AO Fock derivatives at one time.
      3 vectors produced by pass  1 Test12= 8.29D-13 3.33D-08 XBig12= 6.92D-02 1.04D-01.
      3 vectors produced by pass  2 Test12= 8.29D-13 3.33D-08 XBig12= 7.28D-04 9.76D-03.
      3 vectors produced by pass  3 Test12= 8.29D-13 3.33D-08 XBig12= 2.78D-06 4.56D-04.
      3 vectors produced by pass  4 Test12= 8.29D-13 3.33D-08 XBig12= 1.11D-08 3.63D-05.
      3 vectors produced by pass  5 Test12= 8.29D-13 3.33D-08 XBig12= 4.39D-11 1.51D-06.
      2 vectors produced by pass  6 Test12= 8.29D-13 3.33D-08 XBig12= 1.30D-13 6.76D-08.
 InvSVY:  IOpt=1 It=  1 EMax= 8.88D-16
 Solved reduced A of dimension    20 with     3 vectors.
 Calculating GIAO nuclear magnetic shielding tensors.
 SCF GIAO Magnetic shielding tensor (ppm):
      1  C    Isotropic =   104.7152   Anisotropy =    59.1305
   XX=    94.8289   YX=     3.8281   ZX=   -17.1045
   XY=    -1.3974   YY=    91.4318   ZY=   -23.9056
   XZ=   -10.8040   YZ=   -26.3169   ZZ=   127.8849
   Eigenvalues:    76.8314    93.1787   144.1355
      2  C    Isotropic =   145.8860   Anisotropy =    19.4001
   XX=   150.6453   YX=    -9.1326   ZX=     1.6604
   XY=   -11.0904   YY=   144.6885   ZY=     2.2267
   XZ=     2.4124   YZ=    -7.3759   ZZ=   142.3243
   Eigenvalues:   136.9802   141.8585   158.8194
      3  C    Isotropic =   104.6361   Anisotropy =    56.9280
   XX=   138.5169   YX=    15.4233   ZX=    -0.6626
   XY=    12.1181   YY=    95.8823   ZY=    -0.1525
   XZ=     3.2388   YZ=    -2.9071   ZZ=    79.5092
   Eigenvalues:    79.2325    92.0878   142.5882
      4  C    Isotropic =   143.3683   Anisotropy =    27.7881
   XX=   155.6041   YX=     6.7352   ZX=    -8.9269
   XY=     5.7915   YY=   134.6467   ZY=   -11.2625
   XZ=    -7.5267   YZ=    -3.1400   ZZ=   139.8542
   Eigenvalues:   129.5845   138.6268   161.8937
      5  C    Isotropic =     8.7695   Anisotropy =    95.3951
   XX=   -63.1753   YX=    37.4684   ZX=   -23.2647
   XY=    51.4487   YY=    36.8827   ZY=    24.3538
   XZ=   -29.4028   YZ=    27.9171   ZZ=    52.6011
   Eigenvalues:   -88.3243    42.2665    72.3663
      6  H    Isotropic =    27.9097   Anisotropy =     2.5869
   XX=    28.0218   YX=    -0.1028   ZX=     1.1419
   XY=    -0.2597   YY=    27.7534   ZY=     0.7874
   XZ=     1.4195   YZ=     1.7221   ZZ=    27.9540
   Eigenvalues:    26.0295    28.0654    29.6343
      7  H    Isotropic =    29.8724   Anisotropy =     4.3053
   XX=    31.6994   YX=    -0.5369   ZX=     1.8038
   XY=    -0.7827   YY=    29.7580   ZY=     3.1846
   XZ=     1.9494   YZ=     2.7100   ZZ=    28.1599
   Eigenvalues:    25.3378    31.5368    32.7427
      8  H    Isotropic =    29.7424   Anisotropy =     4.6634
   XX=    30.8084   YX=     2.1605   ZX=     1.1201
   XY=     1.9553   YY=    28.0765   ZY=     0.4245
   XZ=     1.4455   YZ=     1.2820   ZZ=    30.3424
   Eigenvalues:    26.9652    29.4107    32.8513
      9  H    Isotropic =    29.1120   Anisotropy =     3.5027
   XX=    28.7805   YX=    -1.1559   ZX=     1.0311
   XY=     0.2498   YY=    30.1694   ZY=    -1.9549
   XZ=    -0.2741   YZ=    -1.7171   ZZ=    28.3862
   Eigenvalues:    27.2323    28.6566    31.4472
     10  O    Isotropic =   106.4395   Anisotropy =   177.2359
   XX=   164.7208   YX=   -63.7587   ZX=    62.0316
   XY=   -82.5942   YY=    93.4548   ZY=   168.6484
   XZ=    66.3150   YZ=   113.8894   ZZ=    61.1429
   Eigenvalues:  -100.1776   194.8993   224.5968
     11  O    Isotropic =  -135.7598   Anisotropy =   589.2713
   XX=  -245.2807   YX=    60.8951   ZX=   -22.1376
   XY=    55.9972   YY=  -165.4416   ZY=   343.5793
   XZ=   -19.8530   YZ=   309.6358   ZZ=     3.4429
   Eigenvalues:  -436.6295  -227.7376   257.0877
     12  C    Isotropic =   160.2245   Anisotropy =    22.4421
   XX=   160.4183   YX=   -10.2913   ZX=     0.4950
   XY=   -13.1502   YY=   165.7398   ZY=    -2.7754
   XZ=    -1.1381   YZ=     5.7092   ZZ=   154.5152
   Eigenvalues:   150.9343   154.5532   175.1859
     13  C    Isotropic =   180.8416   Anisotropy =    11.1248
   XX=   180.0887   YX=    -0.8275   ZX=     2.6812
   XY=    -0.7099   YY=   181.2368   ZY=     6.6382
   XZ=     3.1527   YZ=     6.8437   ZZ=   181.1993
   Eigenvalues:   173.4305   180.8361   188.2582
     14  C    Isotropic =   177.0296   Anisotropy =    19.1023
   XX=   171.4280   YX=    -0.9169   ZX=    -0.4111
   XY=     1.0143   YY=   171.3085   ZY=    -4.6866
   XZ=    -3.9767   YZ=    -4.5147   ZZ=   188.3523
   Eigenvalues:   169.9524   171.3719   189.7645
     15  O    Isotropic =   246.7056   Anisotropy =    18.3053
   XX=   234.5488   YX=     3.1549   ZX=   -15.4919
   XY=    12.1912   YY=   247.5569   ZY=    -7.2210
   XZ=     6.1685   YZ=     9.6959   ZZ=   258.0111
   Eigenvalues:   230.1824   251.0253   258.9092
     16  Si   Isotropic =   335.4840   Anisotropy =    51.7666
   XX=   340.6080   YX=    22.3648   ZX=    24.2217
   XY=    17.2367   YY=   326.9354   ZY=    15.5478
   XZ=    10.6006   YZ=    10.6790   ZZ=   338.9085
   Eigenvalues:   312.8017   323.6551   369.9950
     17  C    Isotropic =   185.0388   Anisotropy =    11.2465
   XX=   183.1870   YX=     1.0144   ZX=     6.7835
   XY=     3.6032   YY=   186.4971   ZY=    -4.8420
   XZ=     5.7814   YZ=    -6.2021   ZZ=   185.4324
   Eigenvalues:   175.2911   187.2889   192.5365
     18  C    Isotropic =   185.4297   Anisotropy =     7.6646
   XX=   188.9802   YX=    -0.6508   ZX=     2.4067
   XY=    -4.1287   YY=   186.4879   ZY=     4.8878
   XZ=     2.6858   YZ=     5.8579   ZZ=   180.8209
   Eigenvalues:   176.6327   189.1169   190.5394
     19  C    Isotropic =   186.4308   Anisotropy =    13.2614
   XX=   189.2826   YX=     4.8538   ZX=    -5.5648
   XY=     5.5908   YY=   178.1567   ZY=     1.2363
   XZ=    -3.0171   YZ=     2.0875   ZZ=   191.8532
   Eigenvalues:   175.4664   188.5543   195.2717
     20  H    Isotropic =    32.1839   Anisotropy =    10.6651
   XX=    33.0247   YX=     3.7423   ZX=     3.2923
   XY=     3.1696   YY=    32.6970   ZY=     3.6166
   XZ=     3.2672   YZ=     4.0212   ZZ=    30.8301
   Eigenvalues:    27.7508    29.5070    39.2940
     21  H    Isotropic =    32.0860   Anisotropy =     6.2186
   XX=    34.4392   YX=     1.5274   ZX=    -2.8500
   XY=     0.3267   YY=    30.0337   ZY=     1.5056
   XZ=    -2.7947   YZ=     1.1634   ZZ=    31.7850
   Eigenvalues:    28.3896    31.6366    36.2317
     22  H    Isotropic =    31.9485   Anisotropy =     6.7952
   XX=    31.0404   YX=    -1.0902   ZX=     2.6934
   XY=    -1.2313   YY=    34.0085   ZY=    -3.0440
   XZ=     2.2395   YZ=    -2.2722   ZZ=    30.7966
   Eigenvalues:    28.1661    31.2008    36.4786
     23  H    Isotropic =    32.3544   Anisotropy =     9.6947
   XX=    35.8591   YX=     3.8293   ZX=     1.9183
   XY=     3.9770   YY=    30.6192   ZY=     1.4351
   XZ=     2.4884   YZ=     1.7165   ZZ=    30.5847
   Eigenvalues:    28.4473    29.7983    38.8175
     24  H    Isotropic =    31.9964   Anisotropy =     8.3870
   XX=    30.8795   YX=     0.2924   ZX=    -0.7782
   XY=     0.0231   YY=    30.9708   ZY=    -4.5215
   XZ=     0.0495   YZ=    -4.9856   ZZ=    34.1388
   Eigenvalues:    27.5421    30.8593    37.5877
     25  H    Isotropic =    31.9483   Anisotropy =     9.0131
   XX=    32.8927   YX=    -3.0478   ZX=    -3.3604
   XY=    -2.5927   YY=    32.6568   ZY=     2.1248
   XZ=    -3.3966   YZ=     3.0943   ZZ=    30.2955
   Eigenvalues:    27.8659    30.0221    37.9570
     26  H    Isotropic =    32.3208   Anisotropy =    10.3423
   XX=    35.0862   YX=     1.9155   ZX=     4.8493
   XY=     2.3902   YY=    29.6514   ZY=     0.7959
   XZ=     4.9297   YZ=     0.4752   ZZ=    32.2248
   Eigenvalues:    28.0470    29.6998    39.2157
     27  H    Isotropic =    31.9359   Anisotropy =     8.1982
   XX=    31.0787   YX=    -3.2515   ZX=     0.4740
   XY=    -3.0114   YY=    35.8111   ZY=     1.3499
   XZ=     0.7544   YZ=     0.4112   ZZ=    28.9181
   Eigenvalues:    28.2109    30.1955    37.4014
     28  H    Isotropic =    32.0932   Anisotropy =     6.2211
   XX=    33.8499   YX=     0.7196   ZX=    -1.0979
   XY=     1.6950   YY=    28.8022   ZY=    -2.5240
   XZ=    -2.0307   YZ=    -2.4854   ZZ=    33.6275
   Eigenvalues:    27.6930    32.3460    36.2406
     29  H    Isotropic =    30.5123   Anisotropy =     7.4895
   XX=    34.2330   YX=     1.3937   ZX=    -0.8976
   XY=     1.5406   YY=    27.3616   ZY=    -3.6902
   XZ=    -1.8109   YZ=    -3.5003   ZZ=    29.9423
   Eigenvalues:    24.8123    31.2193    35.5053
     30  H    Isotropic =    31.3172   Anisotropy =     9.3516
   XX=    29.6869   YX=    -3.5957   ZX=    -0.4730
   XY=    -3.4782   YY=    34.0660   ZY=    -3.7274
   XZ=    -0.4001   YZ=    -4.1184   ZZ=    30.1987
   Eigenvalues:    26.0387    30.3614    37.5516
     31  H    Isotropic =    31.5151   Anisotropy =     9.0114
   XX=    28.0947   YX=     0.0203   ZX=     2.4289
   XY=     0.1638   YY=    29.9282   ZY=     1.4889
   XZ=     2.1997   YZ=     2.0897   ZZ=    36.5223
   Eigenvalues:    27.4427    29.5798    37.5227
     32  H    Isotropic =    30.3037   Anisotropy =     7.2544
   XX=    29.5632   YX=    -2.8768   ZX=     1.2797
   XY=    -2.8380   YY=    28.2906   ZY=    -2.3479
   XZ=     1.3931   YZ=    -2.4441   ZZ=    33.0574
   Eigenvalues:    25.8261    29.9450    35.1399
     33  H    Isotropic =    30.0664   Anisotropy =     9.8979
   XX=    36.3572   YX=     1.6648   ZX=     0.6069
   XY=     1.0183   YY=    28.5353   ZY=     1.6629
   XZ=     0.8355   YZ=     1.4511   ZZ=    25.3068
   Eigenvalues:    24.6758    28.8584    36.6650
     34  H    Isotropic =    31.2266   Anisotropy =     6.7053
   XX=    33.9170   YX=     1.9447   ZX=    -1.3269
   XY=     2.4261   YY=    32.8799   ZY=     2.0194
   XZ=    -0.4786   YZ=     2.3089   ZZ=    26.8829
   Eigenvalues:    25.8758    32.1072    35.6968
     35  H    Isotropic =    31.1066   Anisotropy =     7.1743
   XX=    27.6601   YX=    -1.8371   ZX=    -1.0590
   XY=    -1.3540   YY=    29.9435   ZY=     0.2618
   XZ=    -1.1459   YZ=     0.0721   ZZ=    35.7161
   Eigenvalues:    26.7476    30.6827    35.8895
     36  H    Isotropic =    31.1803   Anisotropy =    11.9203
   XX=    32.2500   YX=    -5.3802   ZX=    -0.5964
   XY=    -5.7946   YY=    33.7821   ZY=     2.2505
   XZ=    -0.8575   YZ=     2.6660   ZZ=    27.5087
   Eigenvalues:    26.1468    28.2669    39.1271
     37  C    Isotropic =   144.2421   Anisotropy =    18.0369
   XX=   141.5969   YX=    -5.9990   ZX=     5.1277
   XY=     3.1226   YY=   152.1615   ZY=     8.5105
   XZ=     7.8924   YZ=     7.8821   ZZ=   138.9681
   Eigenvalues:   131.0222   145.4374   156.2668
     38  C    Isotropic =    44.4086   Anisotropy =   179.0941
   XX=   -67.8328   YX=    39.1619   ZX=     9.8747
   XY=    42.0129   YY=    47.1524   ZY=    30.0642
   XZ=     7.2818   YZ=    31.7214   ZZ=   153.9061
   Eigenvalues:   -80.7219    50.1430   163.8046
     39  C    Isotropic =    63.0446   Anisotropy =   142.8395
   XX=   -33.5816   YX=    50.9280   ZX=     0.6646
   XY=    48.3219   YY=    71.2334   ZY=    20.5795
   XZ=     0.0572   YZ=    24.1205   ZZ=   151.4819
   Eigenvalues:   -53.6603    84.5231   158.2709
     40  H    Isotropic =    30.1449   Anisotropy =     6.4027
   XX=    31.2154   YX=     1.6929   ZX=     1.3713
   XY=     0.4336   YY=    32.8939   ZY=     2.7500
   XZ=     1.8417   YZ=     2.0091   ZZ=    26.3255
   Eigenvalues:    25.2989    30.7225    34.4134
     41  H    Isotropic =    29.4524   Anisotropy =     4.4123
   XX=    25.4042   YX=    -1.5829   ZX=     0.3301
   XY=    -1.4860   YY=    30.6699   ZY=     1.2648
   XZ=    -0.4220   YZ=    -0.5019   ZZ=    32.2832
   Eigenvalues:    24.9893    30.9740    32.3940
     42  H    Isotropic =    25.6718   Anisotropy =     6.9837
   XX=    23.1660   YX=    -1.2660   ZX=    -0.3771
   XY=     0.2016   YY=    30.0946   ZY=     0.7267
   XZ=    -0.9732   YZ=     1.4171   ZZ=    23.7547
   Eigenvalues:    22.7207    23.9670    30.3275
     43  H    Isotropic =    26.6608   Anisotropy =     6.9165
   XX=    23.3554   YX=     2.1363   ZX=    -0.4348
   XY=    -0.4139   YY=    31.1453   ZY=    -0.4670
   XZ=    -0.0222   YZ=    -0.3546   ZZ=    25.4818
   Eigenvalues:    23.2462    25.4644    31.2718
     44  H    Isotropic =    26.7871   Anisotropy =     7.4487
   XX=    23.4453   YX=     1.2309   ZX=     0.0586
   XY=     3.4882   YY=    31.0817   ZY=     0.1510
   XZ=    -1.1306   YZ=     0.3168   ZZ=    25.8344
   Eigenvalues:    22.6689    25.9395    31.7530
 End of Minotr F.D. properties file   721 does not exist.
 End of Minotr F.D. properties file   722 does not exist.
 End of Minotr F.D. properties file   788 does not exist.

 **********************************************************************

            Population analysis using the SCF density.

 **********************************************************************

 Orbital symmetries:
       Occupied  (A) (A) (A) (A) (A) (A) (A) (A) (A) (A) (A) (A)
                 (A) (A) (A) (A) (A) (A) (A) (A) (A) (A) (A) (A)
                 (A) (A) (A) (A) (A) (A) (A) (A) (A) (A) (A) (A)
                 (A) (A) (A) (A) (A) (A) (A) (A) (A) (A) (A) (A)
                 (A) (A) (A) (A) (A) (A) (A) (A) (A) (A) (A) (A)
                 (A) (A) (A) (A) (A) (A) (A) (A) (A) (A) (A) (A)
                 (A) (A)
       Virtual   (A) (A) (A) (A) (A) (A) (A) (A) (A) (A) (A) (A)
                 (A) (A) (A) (A) (A) (A) (A) (A) (A) (A) (A) (A)
                 (A) (A) (A) (A) (A) (A) (A) (A) (A) (A) (A) (A)
                 (A) (A) (A) (A) (A) (A) (A) (A) (A) (A) (A) (A)
                 (A) (A) (A) (A) (A) (A) (A) (A) (A) (A) (A) (A)
                 (A) (A) (A) (A) (A) (A) (A) (A) (A) (A) (A) (A)
                 (A) (A) (A) (A) (A) (A) (A) (A) (A) (A) (A) (A)
                 (A) (A) (A) (A) (A) (A) (A) (A) (A) (A) (A) (A)
                 (A) (A) (A) (A) (A) (A) (A) (A) (A) (A) (A) (A)
                 (A) (A) (A) (A) (A) (A) (A) (A) (A) (A) (A) (A)
                 (A) (A) (A) (A) (A) (A) (A) (A) (A) (A) (A) (A)
                 (A) (A) (A) (A) (A) (A) (A) (A) (A) (A) (A) (A)
                 (A) (A) (A) (A) (A) (A) (A) (A) (A) (A) (A) (A)
                 (A) (A) (A) (A) (A) (A) (A) (A) (A) (A) (A) (A)
                 (A) (A) (A) (A) (A) (A) (A) (A) (A) (A) (A) (A)
                 (A) (A) (A) (A) (A) (A) (A) (A) (A) (A) (A) (A)
                 (A) (A) (A) (A) (A) (A) (A) (A) (A) (A) (A) (A)
                 (A) (A) (A) (A) (A) (A) (A) (A) (A) (A) (A) (A)
                 (A) (A) (A) (A) (A) (A) (A) (A) (A) (A) (A) (A)
                 (A) (A) (A) (A) (A) (A) (A) (A) (A) (A) (A) (A)
                 (A) (A) (A) (A) (A) (A) (A) (A) (A) (A) (A) (A)
                 (A) (A) (A) (A) (A) (A) (A) (A) (A) (A) (A) (A)
                 (A) (A) (A) (A) (A) (A) (A) (A) (A) (A) (A) (A)
                 (A) (A) (A) (A) (A) (A) (A) (A) (A) (A) (A) (A)
                 (A) (A) (A) (A) (A) (A) (A) (A) (A) (A) (A) (A)
                 (A) (A) (A) (A) (A) (A) (A) (A) (A) (A) (A) (A)
                 (A) (A) (A) (A) (A) (A) (A) (A) (A) (A) (A) (A)
                 (A) (A) (A) (A) (A) (A) (A) (A) (A) (A) (A) (A)
 The electronic state is 1-A.
 Alpha  occ. eigenvalues --  -66.27032 -19.26330 -19.21387 -19.20257 -10.37515
 Alpha  occ. eigenvalues --  -10.32273 -10.30927 -10.25483 -10.25267 -10.24257
 Alpha  occ. eigenvalues --  -10.24007 -10.23975 -10.22874 -10.22656 -10.22258
 Alpha  occ. eigenvalues --  -10.20931 -10.20648 -10.20522  -5.32867  -3.66717
 Alpha  occ. eigenvalues --   -3.66482  -3.66446  -1.13547  -1.05051  -1.04190
 Alpha  occ. eigenvalues --   -0.86138  -0.83532  -0.80573  -0.77950  -0.74233
 Alpha  occ. eigenvalues --   -0.72819  -0.72114  -0.70424  -0.70003  -0.67000
 Alpha  occ. eigenvalues --   -0.63193  -0.62531  -0.58601  -0.55962  -0.53882
 Alpha  occ. eigenvalues --   -0.52786  -0.50718  -0.49644  -0.48686  -0.47706
 Alpha  occ. eigenvalues --   -0.46356  -0.45344  -0.44746  -0.44453  -0.43580
 Alpha  occ. eigenvalues --   -0.43179  -0.42694  -0.42474  -0.41803  -0.41301
 Alpha  occ. eigenvalues --   -0.40850  -0.40512  -0.39932  -0.39690  -0.38939
 Alpha  occ. eigenvalues --   -0.38298  -0.37745  -0.37208  -0.36831  -0.36155
 Alpha  occ. eigenvalues --   -0.35835  -0.34330  -0.33632  -0.32407  -0.31360
 Alpha  occ. eigenvalues --   -0.30390  -0.29139  -0.28518  -0.27171
 Alpha virt. eigenvalues --   -0.00661   0.01210   0.03742   0.05500   0.05664
 Alpha virt. eigenvalues --    0.06468   0.07646   0.07960   0.08365   0.08749
 Alpha virt. eigenvalues --    0.09728   0.10296   0.10339   0.11024   0.11202
 Alpha virt. eigenvalues --    0.11724   0.12065   0.13090   0.13378   0.13586
 Alpha virt. eigenvalues --    0.13898   0.14764   0.14839   0.15242   0.15832
 Alpha virt. eigenvalues --    0.16514   0.16664   0.17367   0.18303   0.18497
 Alpha virt. eigenvalues --    0.18850   0.18895   0.19522   0.20635   0.21032
 Alpha virt. eigenvalues --    0.21974   0.22714   0.23410   0.24185   0.24673
 Alpha virt. eigenvalues --    0.25743   0.26011   0.26689   0.27230   0.27995
 Alpha virt. eigenvalues --    0.28720   0.29506   0.30333   0.31425   0.32535
 Alpha virt. eigenvalues --    0.33657   0.34138   0.34474   0.35168   0.35937
 Alpha virt. eigenvalues --    0.36761   0.37451   0.38298   0.40041   0.40359
 Alpha virt. eigenvalues --    0.41236   0.41532   0.42738   0.43832   0.44092
 Alpha virt. eigenvalues --    0.44867   0.45323   0.46668   0.47407   0.48392
 Alpha virt. eigenvalues --    0.49552   0.50336   0.50930   0.51809   0.51961
 Alpha virt. eigenvalues --    0.53658   0.54177   0.54888   0.56277   0.56647
 Alpha virt. eigenvalues --    0.56877   0.57617   0.57816   0.58278   0.58907
 Alpha virt. eigenvalues --    0.59772   0.59872   0.60429   0.60841   0.61093
 Alpha virt. eigenvalues --    0.61550   0.61894   0.61977   0.62483   0.63158
 Alpha virt. eigenvalues --    0.63721   0.63906   0.64413   0.64841   0.65353
 Alpha virt. eigenvalues --    0.66676   0.66926   0.67255   0.68012   0.68672
 Alpha virt. eigenvalues --    0.69343   0.69880   0.69940   0.70459   0.71516
 Alpha virt. eigenvalues --    0.72161   0.72623   0.73847   0.74299   0.74994
 Alpha virt. eigenvalues --    0.76963   0.77673   0.78583   0.80007   0.81587
 Alpha virt. eigenvalues --    0.83186   0.84141   0.84804   0.88124   0.88614
 Alpha virt. eigenvalues --    0.89721   0.90416   0.91485   0.92863   0.95401
 Alpha virt. eigenvalues --    0.95581   0.96691   0.97519   0.99404   1.00946
 Alpha virt. eigenvalues --    1.02625   1.03896   1.05290   1.09258   1.10453
 Alpha virt. eigenvalues --    1.11807   1.13856   1.16080   1.16619   1.18277
 Alpha virt. eigenvalues --    1.19328   1.23400   1.26040   1.26506   1.27569
 Alpha virt. eigenvalues --    1.29090   1.29569   1.30199   1.32739   1.33563
 Alpha virt. eigenvalues --    1.34677   1.37864   1.38939   1.39389   1.41109
 Alpha virt. eigenvalues --    1.42589   1.43912   1.46471   1.47118   1.49261
 Alpha virt. eigenvalues --    1.49927   1.50869   1.51854   1.52261   1.53870
 Alpha virt. eigenvalues --    1.54566   1.55803   1.56692   1.57016   1.58537
 Alpha virt. eigenvalues --    1.58846   1.59732   1.59834   1.60552   1.60721
 Alpha virt. eigenvalues --    1.61505   1.62208   1.62785   1.63291   1.64266
 Alpha virt. eigenvalues --    1.65831   1.66162   1.66846   1.68220   1.68877
 Alpha virt. eigenvalues --    1.69652   1.70722   1.72177   1.73294   1.74297
 Alpha virt. eigenvalues --    1.75783   1.77652   1.79582   1.80208   1.80738
 Alpha virt. eigenvalues --    1.81446   1.82124   1.83607   1.85625   1.87613
 Alpha virt. eigenvalues --    1.91388   1.92336   1.93627   1.95767   1.97470
 Alpha virt. eigenvalues --    1.99950   2.02744   2.05691   2.07312   2.12696
 Alpha virt. eigenvalues --    2.14898   2.17281   2.19639   2.22405   2.23818
 Alpha virt. eigenvalues --    2.27868   2.31483   2.33538   2.36613   2.39805
 Alpha virt. eigenvalues --    2.40633   2.41633   2.42298   2.42946   2.43868
 Alpha virt. eigenvalues --    2.44339   2.45345   2.45992   2.46995   2.47848
 Alpha virt. eigenvalues --    2.48071   2.49295   2.49691   2.50017   2.51145
 Alpha virt. eigenvalues --    2.52546   2.54014   2.57337   2.59164   2.61609
 Alpha virt. eigenvalues --    2.63097   2.63607   2.69724   2.72975   2.80480
 Alpha virt. eigenvalues --    2.82322   2.87670   2.88272   2.89588   2.91865
 Alpha virt. eigenvalues --    2.92125   2.93959   2.94686   2.95496   2.96196
 Alpha virt. eigenvalues --    2.99015   3.01287   3.02363   3.04157   3.08155
 Alpha virt. eigenvalues --    3.10320   3.11078   3.12425   3.13877   3.14850
 Alpha virt. eigenvalues --    3.15544   3.17384   3.18780   3.20453   3.21612
 Alpha virt. eigenvalues --    3.22554   3.22679   3.24131   3.25185   3.25956
 Alpha virt. eigenvalues --    3.26263   3.28615   3.29010   3.30668   3.31382
 Alpha virt. eigenvalues --    3.33168   3.34460   3.35234   3.38051   3.41141
 Alpha virt. eigenvalues --    3.43129   3.50713   3.56192   3.60010   3.63271
 Alpha virt. eigenvalues --    3.78821   3.88385   3.90716   3.97680   4.04453
 Alpha virt. eigenvalues --    4.08477   4.10624   4.19643   4.20712   4.24377
 Alpha virt. eigenvalues --    4.94800   4.99618   5.02189   5.09005   5.14365
 Alpha virt. eigenvalues --    5.23282   5.49581   5.54933   5.77876   5.85340
 Alpha virt. eigenvalues --   11.52242  11.54176  11.59546  23.42272  23.49749
 Alpha virt. eigenvalues --   23.54597  23.55363  23.57067  23.60291  23.70710
 Alpha virt. eigenvalues --   23.75941  23.77800  23.79241  23.82262  23.85920
 Alpha virt. eigenvalues --   23.89327  24.27402  49.98608  50.05548  50.11922
 Alpha virt. eigenvalues --  141.29830
          Condensed to atoms (all electrons):
               1          2          3          4          5          6
     1  C    5.189444   0.257120  -0.050014  -0.010078  -0.050043   0.404149
     2  C    0.257120   5.566590   0.311636  -0.088707  -0.011960  -0.046773
     3  C   -0.050014   0.311636   5.220096   0.230261  -0.007139  -0.017570
     4  C   -0.010078  -0.088707   0.230261   5.866318   0.234453   0.003487
     5  C   -0.050043  -0.011960  -0.007139   0.234453   4.425041  -0.002736
     6  H    0.404149  -0.046773  -0.017570   0.003487  -0.002736   0.478288
     7  H   -0.042906   0.410517  -0.055410  -0.007789   0.000704   0.006959
     8  H    0.000535  -0.005818  -0.032151   0.363958  -0.031160   0.000149
     9  H   -0.000529   0.007290  -0.033785   0.365718  -0.025941   0.000120
    10  O    0.225793  -0.038365   0.003036  -0.110130   0.332565  -0.034560
    11  O    0.001024  -0.000115   0.002302  -0.098272   0.663018   0.000346
    12  C    0.334895  -0.062563   0.010810  -0.002324   0.003091  -0.055318
    13  C   -0.073809  -0.009083  -0.001080   0.000415  -0.000316   0.008478
    14  C   -0.062926   0.294552  -0.063010   0.008107  -0.000027  -0.001088
    15  O    0.003755  -0.050740   0.227706  -0.024532   0.001729  -0.000071
    16  Si   0.002364  -0.012126  -0.043470  -0.009084   0.001492  -0.000256
    17  C    0.000008  -0.000283  -0.002123  -0.000973   0.000095   0.000001
    18  C   -0.000100  -0.001185  -0.001469  -0.001898  -0.000081  -0.000007
    19  C   -0.000001  -0.000220   0.002377  -0.000145   0.000001   0.000000
    20  H   -0.000003   0.000273  -0.000061   0.000050   0.000002   0.000000
    21  H   -0.000062  -0.000874   0.000582   0.000388   0.000029  -0.000014
    22  H   -0.000049  -0.000322   0.000111   0.000321   0.000005  -0.000003
    23  H    0.000000  -0.000001  -0.000066  -0.000001   0.000000   0.000000
    24  H   -0.000001  -0.000005  -0.000057  -0.000020   0.000000   0.000000
    25  H    0.000000  -0.000022  -0.000122  -0.000039   0.000000   0.000000
    26  H    0.000000   0.000006  -0.000013   0.000127  -0.000002   0.000000
    27  H    0.000003  -0.000049   0.000598  -0.000397  -0.000033   0.000000
    28  H    0.000006  -0.000011  -0.000385   0.001619   0.000085   0.000000
    29  H    0.005343  -0.030302  -0.007791   0.000456  -0.000074  -0.000122
    30  H   -0.006983  -0.036742   0.007354  -0.000235   0.000007  -0.000720
    31  H   -0.003719  -0.037917  -0.009684  -0.000152   0.000008   0.005104
    32  H   -0.034972  -0.006240  -0.000256   0.000090  -0.000036  -0.000069
    33  H   -0.045686   0.009327  -0.000062   0.000242  -0.000173  -0.007389
    34  H   -0.007724   0.003624   0.000345   0.000106  -0.000034  -0.000406
    35  H   -0.009222  -0.000119  -0.000537   0.000801  -0.000407   0.000617
    36  H    0.008086  -0.000068   0.000007  -0.000017   0.000025  -0.000204
    37  C   -0.000847  -0.093578   0.275342  -0.097733  -0.003911   0.006137
    38  C   -0.000655   0.009538  -0.058928  -0.014178  -0.000765   0.000154
    39  C   -0.000043   0.000028  -0.003074  -0.000639   0.000712   0.000030
    40  H    0.004438  -0.009956  -0.025177  -0.002862   0.002498   0.000127
    41  H   -0.000192  -0.006886  -0.040745   0.006658  -0.000218   0.000133
    42  H    0.000009  -0.000252  -0.001683   0.000082   0.000117  -0.000005
    43  H    0.000000   0.000018  -0.000294   0.000047   0.000010  -0.000001
    44  H   -0.000050  -0.000004  -0.000367  -0.000115   0.001014   0.000107
               7          8          9         10         11         12
     1  C   -0.042906   0.000535  -0.000529   0.225793   0.001024   0.334895
     2  C    0.410517  -0.005818   0.007290  -0.038365  -0.000115  -0.062563
     3  C   -0.055410  -0.032151  -0.033785   0.003036   0.002302   0.010810
     4  C   -0.007789   0.363958   0.365718  -0.110130  -0.098272  -0.002324
     5  C    0.000704  -0.031160  -0.025941   0.332565   0.663018   0.003091
     6  H    0.006959   0.000149   0.000120  -0.034560   0.000346  -0.055318
     7  H    0.471670   0.001383   0.000170   0.002380  -0.000017  -0.013340
     8  H    0.001383   0.420606  -0.016703   0.003440   0.001716  -0.000343
     9  H    0.000170  -0.016703   0.404266   0.004730   0.009898   0.000059
    10  O    0.002380   0.003440   0.004730   8.038827  -0.069405  -0.055231
    11  O   -0.000017   0.001716   0.009898  -0.069405   7.867316  -0.000161
    12  C   -0.013340  -0.000343   0.000059  -0.055231  -0.000161   5.332287
    13  C    0.004857   0.000266   0.000010   0.000240  -0.000001   0.285393
    14  C   -0.045951   0.000231  -0.000130   0.003343   0.000005  -0.002596
    15  O   -0.001674  -0.003793  -0.000280  -0.000034  -0.000016  -0.000068
    16  Si  -0.002845   0.003206  -0.004656  -0.000936  -0.000470  -0.000137
    17  C   -0.000314  -0.000051  -0.002177   0.000000  -0.000002   0.000000
    18  C   -0.006082   0.002471   0.000330   0.000010   0.000001  -0.000006
    19  C   -0.000150  -0.000003  -0.000037   0.000000   0.000000   0.000000
    20  H    0.000738  -0.000024  -0.000007   0.000000   0.000000   0.000000
    21  H   -0.001845   0.005205   0.000029  -0.000031   0.000005   0.000017
    22  H   -0.002255  -0.000342   0.000005  -0.000003   0.000000   0.000019
    23  H    0.000000   0.000006  -0.000002   0.000000   0.000000   0.000000
    24  H   -0.000028  -0.000005  -0.000005   0.000000   0.000000   0.000000
    25  H    0.000000   0.000000  -0.000018   0.000000   0.000000   0.000000
    26  H    0.000005  -0.000049   0.000209   0.000000   0.000000   0.000000
    27  H    0.000006   0.000019   0.000264   0.000000   0.000001   0.000000
    28  H   -0.000068   0.001185  -0.000901  -0.000004  -0.000052   0.000000
    29  H   -0.004198   0.000043  -0.000029  -0.000108   0.000000   0.000085
    30  H   -0.008322  -0.000030   0.000014  -0.000006   0.000000   0.001886
    31  H    0.007746  -0.000013   0.000011   0.000030   0.000001  -0.001186
    32  H    0.000196   0.000002  -0.000003   0.003099   0.000007   0.389240
    33  H   -0.000384  -0.000012  -0.000009   0.003472  -0.000032   0.403370
    34  H   -0.001997  -0.000049   0.000000  -0.000039   0.000001  -0.037848
    35  H    0.000264   0.000202  -0.000009   0.010993  -0.000106  -0.043400
    36  H    0.000319  -0.000001   0.000000  -0.000188   0.000000  -0.035451
    37  C    0.008647   0.006258  -0.008542  -0.003036   0.000859  -0.000514
    38  C   -0.000193   0.000043   0.007931   0.000135  -0.000471   0.000007
    39  C   -0.000008   0.000048   0.004092  -0.000049   0.000155   0.000000
    40  H   -0.000105   0.000006  -0.000268   0.001166  -0.000542   0.000816
    41  H   -0.000172  -0.000118   0.000272   0.000002   0.000000  -0.000081
    42  H    0.000009   0.000022  -0.000235   0.000001  -0.000004   0.000001
    43  H   -0.000001  -0.000003   0.000158   0.000000   0.000013   0.000000
    44  H    0.000007   0.000031   0.000050  -0.000140   0.001808  -0.000002
              13         14         15         16         17         18
     1  C   -0.073809  -0.062926   0.003755   0.002364   0.000008  -0.000100
     2  C   -0.009083   0.294552  -0.050740  -0.012126  -0.000283  -0.001185
     3  C   -0.001080  -0.063010   0.227706  -0.043470  -0.002123  -0.001469
     4  C    0.000415   0.008107  -0.024532  -0.009084  -0.000973  -0.001898
     5  C   -0.000316  -0.000027   0.001729   0.001492   0.000095  -0.000081
     6  H    0.008478  -0.001088  -0.000071  -0.000256   0.000001  -0.000007
     7  H    0.004857  -0.045951  -0.001674  -0.002845  -0.000314  -0.006082
     8  H    0.000266   0.000231  -0.003793   0.003206  -0.000051   0.002471
     9  H    0.000010  -0.000130  -0.000280  -0.004656  -0.002177   0.000330
    10  O    0.000240   0.003343  -0.000034  -0.000936   0.000000   0.000010
    11  O   -0.000001   0.000005  -0.000016  -0.000470  -0.000002   0.000001
    12  C    0.285393  -0.002596  -0.000068  -0.000137   0.000000  -0.000006
    13  C    5.385932  -0.000089  -0.000001  -0.000204   0.000000  -0.000035
    14  C   -0.000089   5.394145  -0.005021  -0.001100   0.000011   0.001040
    15  O   -0.000001  -0.005021   8.260139   0.349393  -0.023735  -0.023279
    16  Si  -0.000204  -0.001100   0.349393  11.526586   0.322910   0.313150
    17  C    0.000000   0.000011  -0.023735   0.322910   5.769028  -0.058054
    18  C   -0.000035   0.001040  -0.023279   0.313150  -0.058054   5.806506
    19  C    0.000000  -0.000127  -0.021115   0.335511  -0.053211  -0.050854
    20  H   -0.000003  -0.000029   0.000796  -0.010101   0.000442   0.366370
    21  H    0.000221   0.000277  -0.001113  -0.030155  -0.001492   0.366372
    22  H    0.000080   0.000571  -0.001975  -0.027240   0.002389   0.370271
    23  H    0.000000  -0.000002   0.000885  -0.013418   0.000478  -0.000047
    24  H    0.000000   0.000061  -0.001334  -0.028248   0.002536  -0.000518
    25  H    0.000000  -0.000009  -0.001292  -0.026103  -0.000502   0.002570
    26  H    0.000000   0.000001   0.000909  -0.012147   0.364432   0.000874
    27  H    0.000000   0.000001  -0.002242  -0.025092   0.370260   0.002196
    28  H    0.000000   0.000001  -0.001077  -0.029220   0.369824  -0.001712
    29  H   -0.000103   0.384719   0.007203   0.003528   0.000042  -0.000105
    30  H    0.000137   0.391956   0.000128  -0.000190   0.000001   0.000108
    31  H    0.000164   0.384771  -0.000121  -0.000166   0.000001   0.000008
    32  H   -0.038610   0.002002  -0.000003  -0.000012   0.000000  -0.000003
    33  H   -0.046712  -0.000405   0.000004   0.000026   0.000000   0.000000
    34  H    0.384336   0.000861   0.000008  -0.000051   0.000003   0.000546
    35  H    0.386347   0.000088   0.000002  -0.000009   0.000000   0.000016
    36  H    0.391962  -0.000062   0.000000   0.000000   0.000000   0.000000
    37  C    0.000020  -0.008536  -0.078677   0.000577  -0.000036  -0.000352
    38  C    0.000000  -0.000283   0.007805   0.001046  -0.000059   0.000029
    39  C    0.000000  -0.000002   0.000786   0.000551  -0.000020   0.000001
    40  H   -0.000025   0.001099   0.003330  -0.000022   0.000005   0.000013
    41  H    0.000002   0.001303   0.002299   0.000024   0.000022   0.000010
    42  H    0.000000   0.000013   0.003474   0.000693   0.000234   0.000017
    43  H    0.000000   0.000000   0.000009   0.000007   0.000003   0.000000
    44  H    0.000000  -0.000006   0.000000  -0.000002  -0.000001   0.000000
              19         20         21         22         23         24
     1  C   -0.000001  -0.000003  -0.000062  -0.000049   0.000000  -0.000001
     2  C   -0.000220   0.000273  -0.000874  -0.000322  -0.000001  -0.000005
     3  C    0.002377  -0.000061   0.000582   0.000111  -0.000066  -0.000057
     4  C   -0.000145   0.000050   0.000388   0.000321  -0.000001  -0.000020
     5  C    0.000001   0.000002   0.000029   0.000005   0.000000   0.000000
     6  H    0.000000   0.000000  -0.000014  -0.000003   0.000000   0.000000
     7  H   -0.000150   0.000738  -0.001845  -0.002255   0.000000  -0.000028
     8  H   -0.000003  -0.000024   0.005205  -0.000342   0.000006  -0.000005
     9  H   -0.000037  -0.000007   0.000029   0.000005  -0.000002  -0.000005
    10  O    0.000000   0.000000  -0.000031  -0.000003   0.000000   0.000000
    11  O    0.000000   0.000000   0.000005   0.000000   0.000000   0.000000
    12  C    0.000000   0.000000   0.000017   0.000019   0.000000   0.000000
    13  C    0.000000  -0.000003   0.000221   0.000080   0.000000   0.000000
    14  C   -0.000127  -0.000029   0.000277   0.000571  -0.000002   0.000061
    15  O   -0.021115   0.000796  -0.001113  -0.001975   0.000885  -0.001334
    16  Si   0.335511  -0.010101  -0.030155  -0.027240  -0.013418  -0.028248
    17  C   -0.053211   0.000442  -0.001492   0.002389   0.000478   0.002536
    18  C   -0.050854   0.366370   0.366372   0.370271  -0.000047  -0.000518
    19  C    5.723581  -0.000861   0.002983  -0.000490   0.364155   0.368824
    20  H   -0.000861   0.433738  -0.019863  -0.020413   0.000625  -0.000065
    21  H    0.002983  -0.019863   0.450029  -0.019351  -0.000080  -0.000097
    22  H   -0.000490  -0.020413  -0.019351   0.449894  -0.000074   0.001210
    23  H    0.364155   0.000625  -0.000080  -0.000074   0.452135  -0.020537
    24  H    0.368824  -0.000065  -0.000097   0.001210  -0.020537   0.458572
    25  H    0.369507  -0.000051  -0.000106  -0.000072  -0.020583  -0.018147
    26  H   -0.000743   0.000304   0.000072  -0.000040   0.000815   0.000002
    27  H   -0.000383  -0.000040  -0.000027  -0.000099  -0.000026  -0.000094
    28  H    0.002764   0.000079   0.000888  -0.000027  -0.000080  -0.000116
    29  H    0.000203   0.000009  -0.000013   0.000399  -0.000013   0.000587
    30  H   -0.000004  -0.000003   0.000011   0.000182   0.000000  -0.000002
    31  H    0.000002   0.000000  -0.000009  -0.000006   0.000000  -0.000007
    32  H    0.000000   0.000000   0.000001  -0.000004   0.000000   0.000000
    33  H    0.000000   0.000000   0.000000   0.000000   0.000000   0.000000
    34  H    0.000001  -0.000019   0.000428   0.000499   0.000000   0.000000
    35  H    0.000000   0.000000   0.000057  -0.000011   0.000000   0.000000
    36  H    0.000000   0.000000  -0.000004  -0.000003   0.000000   0.000000
    37  C   -0.000001   0.000007  -0.000105  -0.000099   0.000002  -0.000008
    38  C   -0.000037   0.000000   0.000009   0.000007   0.000000   0.000003
    39  C   -0.000001   0.000000   0.000000   0.000000   0.000000   0.000000
    40  H    0.000002   0.000000   0.000004   0.000001   0.000000  -0.000001
    41  H   -0.000042   0.000000   0.000000   0.000000   0.000001  -0.000008
    42  H    0.000032   0.000000   0.000001   0.000000  -0.000005  -0.000009
    43  H    0.000000   0.000000   0.000000   0.000000   0.000000   0.000000
    44  H    0.000000   0.000000   0.000000   0.000000   0.000000   0.000000
              25         26         27         28         29         30
     1  C    0.000000   0.000000   0.000003   0.000006   0.005343  -0.006983
     2  C   -0.000022   0.000006  -0.000049  -0.000011  -0.030302  -0.036742
     3  C   -0.000122  -0.000013   0.000598  -0.000385  -0.007791   0.007354
     4  C   -0.000039   0.000127  -0.000397   0.001619   0.000456  -0.000235
     5  C    0.000000  -0.000002  -0.000033   0.000085  -0.000074   0.000007
     6  H    0.000000   0.000000   0.000000   0.000000  -0.000122  -0.000720
     7  H    0.000000   0.000005   0.000006  -0.000068  -0.004198  -0.008322
     8  H    0.000000  -0.000049   0.000019   0.001185   0.000043  -0.000030
     9  H   -0.000018   0.000209   0.000264  -0.000901  -0.000029   0.000014
    10  O    0.000000   0.000000   0.000000  -0.000004  -0.000108  -0.000006
    11  O    0.000000   0.000000   0.000001  -0.000052   0.000000   0.000000
    12  C    0.000000   0.000000   0.000000   0.000000   0.000085   0.001886
    13  C    0.000000   0.000000   0.000000   0.000000  -0.000103   0.000137
    14  C   -0.000009   0.000001   0.000001   0.000001   0.384719   0.391956
    15  O   -0.001292   0.000909  -0.002242  -0.001077   0.007203   0.000128
    16  Si  -0.026103  -0.012147  -0.025092  -0.029220   0.003528  -0.000190
    17  C   -0.000502   0.364432   0.370260   0.369824   0.000042   0.000001
    18  C    0.002570   0.000874   0.002196  -0.001712  -0.000105   0.000108
    19  C    0.369507  -0.000743  -0.000383   0.002764   0.000203  -0.000004
    20  H   -0.000051   0.000304  -0.000040   0.000079   0.000009  -0.000003
    21  H   -0.000106   0.000072  -0.000027   0.000888  -0.000013   0.000011
    22  H   -0.000072  -0.000040  -0.000099  -0.000027   0.000399   0.000182
    23  H   -0.020583   0.000815  -0.000026  -0.000080  -0.000013   0.000000
    24  H   -0.018147   0.000002  -0.000094  -0.000116   0.000587  -0.000002
    25  H    0.455856  -0.000103   0.001091  -0.000084  -0.000015   0.000000
    26  H   -0.000103   0.450160  -0.020379  -0.022458   0.000000   0.000000
    27  H    0.001091  -0.020379   0.448215  -0.018447   0.000002   0.000000
    28  H   -0.000084  -0.022458  -0.018447   0.454898   0.000001   0.000000
    29  H   -0.000015   0.000000   0.000002   0.000001   0.428870  -0.024922
    30  H    0.000000   0.000000   0.000000   0.000000  -0.024922   0.458928
    31  H    0.000000   0.000000   0.000000   0.000000  -0.023900  -0.026374
    32  H    0.000000   0.000000   0.000000   0.000000   0.000271  -0.000187
    33  H    0.000000   0.000000   0.000000   0.000000   0.000023   0.000214
    34  H    0.000000   0.000000   0.000000   0.000001  -0.000016   0.001717
    35  H    0.000000   0.000000   0.000000  -0.000001   0.000023  -0.000108
    36  H    0.000000   0.000000   0.000000   0.000000  -0.000003  -0.000050
    37  C    0.000064  -0.000001   0.000121  -0.000029  -0.000477  -0.000208
    38  C   -0.000027   0.000005   0.000409  -0.000056  -0.000137   0.000013
    39  C   -0.000001   0.000000   0.000050  -0.000020   0.000003   0.000000
    40  H    0.000000   0.000000   0.000002   0.000004   0.000004  -0.000073
    41  H   -0.000009   0.000000   0.000009  -0.000001   0.000465   0.000211
    42  H    0.000061  -0.000001   0.000499  -0.000014   0.000003  -0.000001
    43  H    0.000000   0.000000  -0.000001   0.000002   0.000000   0.000000
    44  H    0.000000   0.000000   0.000000  -0.000001   0.000000   0.000000
              31         32         33         34         35         36
     1  C   -0.003719  -0.034972  -0.045686  -0.007724  -0.009222   0.008086
     2  C   -0.037917  -0.006240   0.009327   0.003624  -0.000119  -0.000068
     3  C   -0.009684  -0.000256  -0.000062   0.000345  -0.000537   0.000007
     4  C   -0.000152   0.000090   0.000242   0.000106   0.000801  -0.000017
     5  C    0.000008  -0.000036  -0.000173  -0.000034  -0.000407   0.000025
     6  H    0.005104  -0.000069  -0.007389  -0.000406   0.000617  -0.000204
     7  H    0.007746   0.000196  -0.000384  -0.001997   0.000264   0.000319
     8  H   -0.000013   0.000002  -0.000012  -0.000049   0.000202  -0.000001
     9  H    0.000011  -0.000003  -0.000009   0.000000  -0.000009   0.000000
    10  O    0.000030   0.003099   0.003472  -0.000039   0.010993  -0.000188
    11  O    0.000001   0.000007  -0.000032   0.000001  -0.000106   0.000000
    12  C   -0.001186   0.389240   0.403370  -0.037848  -0.043400  -0.035451
    13  C    0.000164  -0.038610  -0.046712   0.384336   0.386347   0.391962
    14  C    0.384771   0.002002  -0.000405   0.000861   0.000088  -0.000062
    15  O   -0.000121  -0.000003   0.000004   0.000008   0.000002   0.000000
    16  Si  -0.000166  -0.000012   0.000026  -0.000051  -0.000009   0.000000
    17  C    0.000001   0.000000   0.000000   0.000003   0.000000   0.000000
    18  C    0.000008  -0.000003   0.000000   0.000546   0.000016   0.000000
    19  C    0.000002   0.000000   0.000000   0.000001   0.000000   0.000000
    20  H    0.000000   0.000000   0.000000  -0.000019   0.000000   0.000000
    21  H   -0.000009   0.000001   0.000000   0.000428   0.000057  -0.000004
    22  H   -0.000006  -0.000004   0.000000   0.000499  -0.000011  -0.000003
    23  H    0.000000   0.000000   0.000000   0.000000   0.000000   0.000000
    24  H   -0.000007   0.000000   0.000000   0.000000   0.000000   0.000000
    25  H    0.000000   0.000000   0.000000   0.000000   0.000000   0.000000
    26  H    0.000000   0.000000   0.000000   0.000000   0.000000   0.000000
    27  H    0.000000   0.000000   0.000000   0.000000   0.000000   0.000000
    28  H    0.000000   0.000000   0.000000   0.000001  -0.000001   0.000000
    29  H   -0.023900   0.000271   0.000023  -0.000016   0.000023  -0.000003
    30  H   -0.026374  -0.000187   0.000214   0.001717  -0.000108  -0.000050
    31  H    0.467632   0.000303  -0.000152  -0.000126   0.000006   0.000009
    32  H    0.000303   0.469533  -0.025687  -0.006101   0.007140  -0.003706
    33  H   -0.000152  -0.025687   0.470787   0.007027  -0.003506  -0.006363
    34  H   -0.000126  -0.006101   0.007027   0.482078  -0.027490  -0.027461
    35  H    0.000006   0.007140  -0.003506  -0.027490   0.468084  -0.025816
    36  H    0.000009  -0.003706  -0.006363  -0.027461  -0.025816   0.464513
    37  C    0.004254  -0.000007  -0.000020  -0.000024   0.000016   0.000002
    38  C    0.000165  -0.000001  -0.000002   0.000000   0.000000   0.000000
    39  C   -0.000011   0.000000   0.000000   0.000000   0.000000   0.000000
    40  H   -0.000188  -0.000015  -0.000038  -0.000004  -0.000007   0.000001
    41  H    0.000336  -0.000005   0.000005   0.000001   0.000000   0.000000
    42  H    0.000004   0.000000   0.000000   0.000000   0.000000   0.000000
    43  H    0.000000   0.000000   0.000000   0.000000   0.000000   0.000000
    44  H    0.000004   0.000000   0.000000   0.000000   0.000000   0.000000
              37         38         39         40         41         42
     1  C   -0.000847  -0.000655  -0.000043   0.004438  -0.000192   0.000009
     2  C   -0.093578   0.009538   0.000028  -0.009956  -0.006886  -0.000252
     3  C    0.275342  -0.058928  -0.003074  -0.025177  -0.040745  -0.001683
     4  C   -0.097733  -0.014178  -0.000639  -0.002862   0.006658   0.000082
     5  C   -0.003911  -0.000765   0.000712   0.002498  -0.000218   0.000117
     6  H    0.006137   0.000154   0.000030   0.000127   0.000133  -0.000005
     7  H    0.008647  -0.000193  -0.000008  -0.000105  -0.000172   0.000009
     8  H    0.006258   0.000043   0.000048   0.000006  -0.000118   0.000022
     9  H   -0.008542   0.007931   0.004092  -0.000268   0.000272  -0.000235
    10  O   -0.003036   0.000135  -0.000049   0.001166   0.000002   0.000001
    11  O    0.000859  -0.000471   0.000155  -0.000542   0.000000  -0.000004
    12  C   -0.000514   0.000007   0.000000   0.000816  -0.000081   0.000001
    13  C    0.000020   0.000000   0.000000  -0.000025   0.000002   0.000000
    14  C   -0.008536  -0.000283  -0.000002   0.001099   0.001303   0.000013
    15  O   -0.078677   0.007805   0.000786   0.003330   0.002299   0.003474
    16  Si   0.000577   0.001046   0.000551  -0.000022   0.000024   0.000693
    17  C   -0.000036  -0.000059  -0.000020   0.000005   0.000022   0.000234
    18  C   -0.000352   0.000029   0.000001   0.000013   0.000010   0.000017
    19  C   -0.000001  -0.000037  -0.000001   0.000002  -0.000042   0.000032
    20  H    0.000007   0.000000   0.000000   0.000000   0.000000   0.000000
    21  H   -0.000105   0.000009   0.000000   0.000004   0.000000   0.000001
    22  H   -0.000099   0.000007   0.000000   0.000001   0.000000   0.000000
    23  H    0.000002   0.000000   0.000000   0.000000   0.000001  -0.000005
    24  H   -0.000008   0.000003   0.000000  -0.000001  -0.000008  -0.000009
    25  H    0.000064  -0.000027  -0.000001   0.000000  -0.000009   0.000061
    26  H   -0.000001   0.000005   0.000000   0.000000   0.000000  -0.000001
    27  H    0.000121   0.000409   0.000050   0.000002   0.000009   0.000499
    28  H   -0.000029  -0.000056  -0.000020   0.000004  -0.000001  -0.000014
    29  H   -0.000477  -0.000137   0.000003   0.000004   0.000465   0.000003
    30  H   -0.000208   0.000013   0.000000  -0.000073   0.000211  -0.000001
    31  H    0.004254   0.000165  -0.000011  -0.000188   0.000336   0.000004
    32  H   -0.000007  -0.000001   0.000000  -0.000015  -0.000005   0.000000
    33  H   -0.000020  -0.000002   0.000000  -0.000038   0.000005   0.000000
    34  H   -0.000024   0.000000   0.000000  -0.000004   0.000001   0.000000
    35  H    0.000016   0.000000   0.000000  -0.000007   0.000000   0.000000
    36  H    0.000002   0.000000   0.000000   0.000001   0.000000   0.000000
    37  C    5.504424   0.330955  -0.063954   0.380156   0.394765  -0.045090
    38  C    0.330955   5.058698   0.615844  -0.047341  -0.041767   0.398592
    39  C   -0.063954   0.615844   5.153135   0.001647   0.001430  -0.041052
    40  H    0.380156  -0.047341   0.001647   0.452591  -0.021128   0.005174
    41  H    0.394765  -0.041767   0.001430  -0.021128   0.442686  -0.002414
    42  H   -0.045090   0.398592  -0.041052   0.005174  -0.002414   0.461663
    43  H    0.006463  -0.039861   0.391803   0.000116  -0.000382  -0.007927
    44  H   -0.008792  -0.038344   0.386360   0.004320   0.000120   0.005646
              43         44
     1  C    0.000000  -0.000050
     2  C    0.000018  -0.000004
     3  C   -0.000294  -0.000367
     4  C    0.000047  -0.000115
     5  C    0.000010   0.001014
     6  H   -0.000001   0.000107
     7  H   -0.000001   0.000007
     8  H   -0.000003   0.000031
     9  H    0.000158   0.000050
    10  O    0.000000  -0.000140
    11  O    0.000013   0.001808
    12  C    0.000000  -0.000002
    13  C    0.000000   0.000000
    14  C    0.000000  -0.000006
    15  O    0.000009   0.000000
    16  Si   0.000007  -0.000002
    17  C    0.000003  -0.000001
    18  C    0.000000   0.000000
    19  C    0.000000   0.000000
    20  H    0.000000   0.000000
    21  H    0.000000   0.000000
    22  H    0.000000   0.000000
    23  H    0.000000   0.000000
    24  H    0.000000   0.000000
    25  H    0.000000   0.000000
    26  H    0.000000   0.000000
    27  H   -0.000001   0.000000
    28  H    0.000002  -0.000001
    29  H    0.000000   0.000000
    30  H    0.000000   0.000000
    31  H    0.000000   0.000004
    32  H    0.000000   0.000000
    33  H    0.000000   0.000000
    34  H    0.000000   0.000000
    35  H    0.000000   0.000000
    36  H    0.000000   0.000000
    37  C    0.006463  -0.008792
    38  C   -0.039861  -0.038344
    39  C    0.391803   0.386360
    40  H    0.000116   0.004320
    41  H   -0.000382   0.000120
    42  H   -0.007927   0.005646
    43  H    0.457199  -0.032870
    44  H   -0.032870   0.457488
 Mulliken charges:
               1
     1  C   -0.036357
     2  C   -0.319234
     3  C    0.163957
     4  C   -0.613385
     5  C    0.468356
     6  H    0.252925
     7  H    0.279479
     8  H    0.279641
     9  H    0.288639
    10  O   -0.320997
    11  O   -0.378806
    12  C   -0.451407
    13  C   -0.678789
    14  C   -0.677756
    15  O   -0.628167
    16  Si   1.416396
    17  C   -1.059693
    18  C   -1.087120
    19  C   -1.041518
    20  H    0.248109
    21  H    0.247631
    22  H    0.246912
    23  H    0.235835
    24  H    0.237517
    25  H    0.238158
    26  H    0.238015
    27  H    0.243563
    28  H    0.243407
    29  H    0.260044
    30  H    0.242291
    31  H    0.233171
    32  H    0.244033
    33  H    0.242135
    34  H    0.227803
    35  H    0.236090
    36  H    0.234475
    37  C   -0.504495
    38  C   -0.188285
    39  C   -0.447802
    40  H    0.250232
    41  H    0.263415
    42  H    0.222345
    43  H    0.225494
    44  H    0.223739
 Sum of Mulliken charges =   0.00000
 Mulliken charges with hydrogens summed into heavy atoms:
               1
     1  C    0.216568
     2  C   -0.039755
     3  C    0.163957
     4  C   -0.045105
     5  C    0.468356
    10  O   -0.320997
    11  O   -0.378806
    12  C    0.034762
    13  C    0.019579
    14  C    0.057750
    15  O   -0.628167
    16  Si   1.416396
    17  C   -0.334707
    18  C   -0.344468
    19  C   -0.330008
    37  C    0.009152
    38  C    0.034060
    39  C    0.001432
 Electronic spatial extent (au):  <R**2>=           5255.2977
 Charge=              0.0000 electrons
 Dipole moment (field-independent basis, Debye):
    X=             -1.6974    Y=             -3.9584    Z=              2.6770  Tot=              5.0711
 Quadrupole moment (field-independent basis, Debye-Ang):
   XX=           -120.7821   YY=           -121.8116   ZZ=           -124.8708
   XY=             -7.8475   XZ=             12.2705   YZ=              5.7072
 Traceless Quadrupole moment (field-independent basis, Debye-Ang):
   XX=              1.7060   YY=              0.6766   ZZ=             -2.3826
   XY=             -7.8475   XZ=             12.2705   YZ=              5.7072
 Octapole moment (field-independent basis, Debye-Ang**2):
  XXX=             -1.2982  YYY=             -3.7723  ZZZ=              6.1761  XYY=             -8.5168
  XXY=            -23.1092  XXZ=             16.6811  XZZ=             -5.8649  YZZ=            -22.3931
  YYZ=             13.8008  XYZ=              9.8391
 Hexadecapole moment (field-independent basis, Debye-Ang**3):
 XXXX=          -3607.1655 YYYY=          -2381.2193 ZZZZ=          -1142.0043 XXXY=            -54.0566
 XXXZ=             76.9388 YYYX=            -40.5414 YYYZ=            -24.9242 ZZZX=              9.8996
 ZZZY=              6.1219 XXYY=           -980.8945 XXZZ=           -828.9703 YYZZ=           -653.8310
 XXYZ=             55.7644 YYXZ=             35.0505 ZZXY=            -21.6025
 N-N= 1.640967351006D+03 E-N=-5.776927649096D+03  KE= 1.060530045807D+03
 1\1\GINC-SWANNODE-0-0\SP\RmPW1PW91\6-311G(d)\C14H26O3Si1\ROOT\08-Mar-2
 018\0\\#mPW1PW91/6-311g(d) nmr=(giao) scrf=(solvent=chloroform)\\P_ng_
 2ginp002\\0,1\C,0,-0.118817,0.019783,1.044956\C,0,-0.933716,1.174399,0
 .435327\C,0,-2.206082,1.454501,1.287226\C,0,-1.737401,1.742139,2.71760
 5\C,0,-0.912634,0.631423,3.29286\H,0,-0.632302,-0.929947,0.851075\H,0,
 -0.324338,2.083072,0.4789\H,0,-1.109496,2.638278,2.767903\H,0,-2.58824
 6,1.931358,3.381311\O,0,0.025455,0.098247,2.481391\O,0,-0.986758,0.310
 379,4.4741\C,0,1.299011,-0.143173,0.464831\C,0,2.209202,1.059946,0.678
 02\C,0,-1.230397,0.929548,-1.050883\O,0,-2.96833,2.519719,0.675672\Si,
 0,-2.791538,4.17441,0.829049\C,0,-3.377593,4.783421,2.5072\C,0,-1.0315
 64,4.758395,0.545097\C,0,-3.872523,5.01693,-0.475924\H,0,-0.985313,5.8
 51574,0.561928\H,0,-0.356785,4.382789,1.318926\H,0,-0.664394,4.419137,
 -0.428019\H,0,-3.78768,6.104687,-0.398585\H,0,-3.561212,4.713312,-1.47
 9599\H,0,-4.921157,4.73822,-0.337715\H,0,-3.416641,5.876797,2.523952\H
 ,0,-4.379674,4.402019,2.724395\H,0,-2.705328,4.459272,3.305824\H,0,-1.
 869542,1.712096,-1.470507\H,0,-0.306479,0.929787,-1.637895\H,0,-1.7234
 65,-0.034438,-1.210611\H,0,1.252612,-0.378205,-0.603704\H,0,1.774181,-
 1.002992,0.954734\H,0,1.870589,1.926334,0.102852\H,0,2.260772,1.341944
 ,1.73399\H,0,3.224614,0.82235,0.344157\C,0,-3.184973,0.228361,1.270612
 \C,0,-4.419075,0.411249,2.11962\C,0,-4.721138,-0.342793,3.184079\H,0,-
 2.674346,-0.69021,1.578012\H,0,-3.541884,0.060816,0.246518\H,0,-5.0996
 44,1.207929,1.823455\H,0,-5.628814,-0.161743,3.752281\H,0,-4.07565,-1.
 148439,3.521572\\Version=EM64L-G09RevD.01\State=1-A\HF=-1064.3772732\R
 MSD=3.508e-09\Dipole=0.1788151,0.7254366,-1.8499529\Quadrupole=3.03877
 9,4.6948783,-7.7336572,0.0009136,-6.339219,7.2139823\PG=C01 [X(C14H26O
 3Si1)]\\@


 I (ERNEST RUTHERFORD) CAME INTO THE ROOM, WHICH WAS HALF DARK, AND PRESENTLY
 SPOTTED LORD KELVIN IN THE AUDIENCE AND REALIZED I WAS IN TROUBLE AT
 THE LAST PART OF MY SPEECH DEALING THE AGE OF THE EARTH, WHERE MY VIEWS
 CONFLICTED WITH HIS.  TO MY RELIEF KELVIN FELL FAST ASLEEP, BUT AS I CAME
 TO THE IMPORTANT POINT, I SAW THE OLD BIRD SIT UP AND COCK A BALEFUL GLANCE
 AT ME! THEN A SUDDEN INSPIRATION CAME AND I SAID LORD KELVIN HAD LIMITED
 THE AGE OF THE EARTH PROVIDED NO NEW SOURCE WAS DISCOVERED. THAT
 PROPHETIC UTTERANCE REFERS TO WHAT WE ARE NOW CONSIDERING TONIGHT, RADIUM!
 BEHOLD!  THE OLD BOY BEAMED UPON ME.
 Job cpu time:       0 days  1 hours 18 minutes 45.4 seconds.
 File lengths (MBytes):  RWF=    237 Int=      0 D2E=      0 Chk=     11 Scr=      1
 Normal termination of Gaussian 09 at Thu Mar  8 13:19:53 2018.
