 Entering Gaussian System, Link 0=/usr/local/shared/gaussian/em64t/09-D01/g09/g09
 Initial command:
 /usr/local/shared/gaussian/em64t/09-D01/g09/l1.exe "/scratch/ke291/AT3_2ginp008/Gau-13854.inp" -scrdir="/scratch/ke291/AT3_2ginp008/"
 Entering Link 1 = /usr/local/shared/gaussian/em64t/09-D01/g09/l1.exe PID=     13865.
  
 Copyright (c) 1988,1990,1992,1993,1995,1998,2003,2009,2013,
            Gaussian, Inc.  All Rights Reserved.
  
 This is part of the Gaussian(R) 09 program.  It is based on
 the Gaussian(R) 03 system (copyright 2003, Gaussian, Inc.),
 the Gaussian(R) 98 system (copyright 1998, Gaussian, Inc.),
 the Gaussian(R) 94 system (copyright 1995, Gaussian, Inc.),
 the Gaussian 92(TM) system (copyright 1992, Gaussian, Inc.),
 the Gaussian 90(TM) system (copyright 1990, Gaussian, Inc.),
 the Gaussian 88(TM) system (copyright 1988, Gaussian, Inc.),
 the Gaussian 86(TM) system (copyright 1986, Carnegie Mellon
 University), and the Gaussian 82(TM) system (copyright 1983,
 Carnegie Mellon University). Gaussian is a federally registered
 trademark of Gaussian, Inc.
  
 This software contains proprietary and confidential information,
 including trade secrets, belonging to Gaussian, Inc.
  
 This software is provided under written license and may be
 used, copied, transmitted, or stored only in accord with that
 written license.
  
 The following legend is applicable only to US Government
 contracts under FAR:
  
                    RESTRICTED RIGHTS LEGEND
  
 Use, reproduction and disclosure by the US Government is
 subject to restrictions as set forth in subparagraphs (a)
 and (c) of the Commercial Computer Software - Restricted
 Rights clause in FAR 52.227-19.
  
 Gaussian, Inc.
 340 Quinnipiac St., Bldg. 40, Wallingford CT 06492
  
  
 ---------------------------------------------------------------
 Warning -- This program may not be used in any manner that
 competes with the business of Gaussian, Inc. or will provide
 assistance to any competitor of Gaussian, Inc.  The licensee
 of this program is prohibited from giving any competitor of
 Gaussian, Inc. access to this program.  By using this program,
 the user acknowledges that Gaussian, Inc. is engaged in the
 business of creating and licensing software in the field of
 computational chemistry and represents and warrants to the
 licensee that it is not a competitor of Gaussian, Inc. and that
 it will not use this program in any manner prohibited above.
 ---------------------------------------------------------------
  

 Cite this work as:
 Gaussian 09, Revision D.01,
 M. J. Frisch, G. W. Trucks, H. B. Schlegel, G. E. Scuseria, 
 M. A. Robb, J. R. Cheeseman, G. Scalmani, V. Barone, B. Mennucci, 
 G. A. Petersson, H. Nakatsuji, M. Caricato, X. Li, H. P. Hratchian, 
 A. F. Izmaylov, J. Bloino, G. Zheng, J. L. Sonnenberg, M. Hada, 
 M. Ehara, K. Toyota, R. Fukuda, J. Hasegawa, M. Ishida, T. Nakajima, 
 Y. Honda, O. Kitao, H. Nakai, T. Vreven, J. A. Montgomery, Jr., 
 J. E. Peralta, F. Ogliaro, M. Bearpark, J. J. Heyd, E. Brothers, 
 K. N. Kudin, V. N. Staroverov, T. Keith, R. Kobayashi, J. Normand, 
 K. Raghavachari, A. Rendell, J. C. Burant, S. S. Iyengar, J. Tomasi, 
 M. Cossi, N. Rega, J. M. Millam, M. Klene, J. E. Knox, J. B. Cross, 
 V. Bakken, C. Adamo, J. Jaramillo, R. Gomperts, R. E. Stratmann, 
 O. Yazyev, A. J. Austin, R. Cammi, C. Pomelli, J. W. Ochterski, 
 R. L. Martin, K. Morokuma, V. G. Zakrzewski, G. A. Voth, 
 P. Salvador, J. J. Dannenberg, S. Dapprich, A. D. Daniels, 
 O. Farkas, J. B. Foresman, J. V. Ortiz, J. Cioslowski, 
 and D. J. Fox, Gaussian, Inc., Wallingford CT, 2013.
 
 ******************************************
 Gaussian 09:  EM64L-G09RevD.01 24-Apr-2013
                 6-Mar-2019 
 ******************************************
 %nprocshared=2
 Will use up to    2 processors via shared memory.
 %mem=6000MB
 %chk=AT3_2ginp008.chk
 ----------------------------------------------------------------------
 # b3lyp/6-31g(d,p) Opt=(maxcycles=100,MaxStep=1) scrf=(solvent=chlorof
 orm)
 ----------------------------------------------------------------------
 1/6=100,8=1,14=-1,18=20,19=15,26=3,38=1/1,3;
 2/9=110,12=2,17=6,18=5,40=1/2;
 3/5=1,6=6,7=101,11=2,16=1,25=1,30=1,70=2201,71=1,72=7,74=-5/1,2,3;
 4//1;
 5/5=2,38=5,53=7/2;
 6/7=2,8=2,9=2,10=2,28=1/1;
 7//1,2,3,16;
 1/6=100,8=1,14=-1,18=20,19=15,26=3/3(2);
 2/9=110/2;
 99//99;
 2/9=110/2;
 3/5=1,6=6,7=101,11=2,16=1,25=1,30=1,70=2205,71=1,72=7,74=-5/1,2,3;
 4/5=5,16=3,69=1/1;
 5/5=2,38=5,53=7/2;
 7//1,2,3,16;
 1/6=100,8=1,14=-1,18=20,19=15,26=3/3(-5);
 2/9=110/2;
 6/7=2,8=2,9=2,10=2,19=2,28=1/1;
 99/9=1/99;
 ------------
 AT3_2ginp008
 ------------
 Symbolic Z-matrix:
 Charge =  0 Multiplicity = 1
 C                    -2.49155  -0.04006  -0.8193 
 C                    -2.38164   0.17665   0.69579 
 C                    -3.06225  -0.92405   1.53221 
 C                    -2.60529  -0.95928   3.01582 
 C                    -2.78764   0.38975   3.71306 
 O                    -2.62604   0.18667   5.11997 
 N                    -4.52601  -0.7533    1.45649 
 C                    -5.27783  -2.00926   1.57676 
 C                    -9.53758  -1.3389    1.08316 
 C                    -8.67474  -1.17334  -0.00227 
 C                    -7.32017  -1.39726   0.19888 
 C                    -6.76306  -1.77873   1.42105 
 C                    -7.67366  -1.92307   2.46907 
 C                    -9.04216  -1.71639   2.33106 
 H                    -10.60168  -1.17105   0.95477 
 H                    -9.03167  -0.87826  -0.98212 
 H                    -9.69092  -1.85083   3.18882 
 F                    -6.47036  -1.23039  -0.84895 
 F                    -7.20145  -2.29355   3.68152 
 H                    -2.01506   0.7792   -1.3667 
 H                    -1.99966  -0.97247  -1.11748 
 H                    -3.53131  -0.09567  -1.1612 
 H                    -1.32175   0.23126   0.96499 
 H                    -2.82021   1.14628   0.96449 
 H                    -3.27727  -1.6552    3.53659 
 H                    -3.78806   0.77934   3.48252 
 H                    -2.04593   1.1144    3.34179 
 H                    -2.72635   1.04523   5.55095 
 H                    -4.95554  -2.76066   0.8336 
 H                    -5.09511  -2.4415    2.56245 
 H                    -2.76799  -1.89667   1.09201 
 C                    -1.17741  -1.49776   3.17914 
 H                    -0.43913  -0.85108   2.69139 
 H                    -0.9153   -1.55506   4.23835 
 H                    -1.08046  -2.49995   2.74765 
 H                    -4.76158  -0.34532   0.55631 
 

 GradGradGradGradGradGradGradGradGradGradGradGradGradGradGradGradGradGrad
 Berny optimization.
 Initialization pass.
                           ----------------------------
                           !    Initial Parameters    !
                           ! (Angstroms and Degrees)  !
 --------------------------                            --------------------------
 ! Name  Definition              Value          Derivative Info.                !
 --------------------------------------------------------------------------------
 ! R1    R(1,2)                  1.5345         estimate D2E/DX2                !
 ! R2    R(1,20)                 1.0945         estimate D2E/DX2                !
 ! R3    R(1,21)                 1.0956         estimate D2E/DX2                !
 ! R4    R(1,22)                 1.0959         estimate D2E/DX2                !
 ! R5    R(2,3)                  1.5409         estimate D2E/DX2                !
 ! R6    R(2,23)                 1.0949         estimate D2E/DX2                !
 ! R7    R(2,24)                 1.0976         estimate D2E/DX2                !
 ! R8    R(3,4)                  1.5528         estimate D2E/DX2                !
 ! R9    R(3,7)                  1.4756         estimate D2E/DX2                !
 ! R10   R(3,31)                 1.1074         estimate D2E/DX2                !
 ! R11   R(4,5)                  1.5295         estimate D2E/DX2                !
 ! R12   R(4,25)                 1.0987         estimate D2E/DX2                !
 ! R13   R(4,32)                 1.5348         estimate D2E/DX2                !
 ! R14   R(5,6)                  1.4306         estimate D2E/DX2                !
 ! R15   R(5,26)                 1.0981         estimate D2E/DX2                !
 ! R16   R(5,27)                 1.1014         estimate D2E/DX2                !
 ! R17   R(6,28)                 0.9659         estimate D2E/DX2                !
 ! R18   R(7,8)                  1.4687         estimate D2E/DX2                !
 ! R19   R(7,36)                 1.016          estimate D2E/DX2                !
 ! R20   R(8,12)                 1.5111         estimate D2E/DX2                !
 ! R21   R(8,29)                 1.1049         estimate D2E/DX2                !
 ! R22   R(8,30)                 1.0917         estimate D2E/DX2                !
 ! R23   R(9,10)                 1.3965         estimate D2E/DX2                !
 ! R24   R(9,14)                 1.3947         estimate D2E/DX2                !
 ! R25   R(9,15)                 1.0849         estimate D2E/DX2                !
 ! R26   R(10,11)                1.3876         estimate D2E/DX2                !
 ! R27   R(10,16)                1.0838         estimate D2E/DX2                !
 ! R28   R(11,12)                1.3963         estimate D2E/DX2                !
 ! R29   R(11,18)                1.3594         estimate D2E/DX2                !
 ! R30   R(12,13)                1.3958         estimate D2E/DX2                !
 ! R31   R(13,14)                1.3909         estimate D2E/DX2                !
 ! R32   R(13,19)                1.3529         estimate D2E/DX2                !
 ! R33   R(14,17)                1.0838         estimate D2E/DX2                !
 ! R34   R(32,33)                1.096          estimate D2E/DX2                !
 ! R35   R(32,34)                1.0927         estimate D2E/DX2                !
 ! R36   R(32,35)                1.0954         estimate D2E/DX2                !
 ! A1    A(2,1,20)             110.9124         estimate D2E/DX2                !
 ! A2    A(2,1,21)             110.902          estimate D2E/DX2                !
 ! A3    A(2,1,22)             112.5294         estimate D2E/DX2                !
 ! A4    A(20,1,21)            107.7863         estimate D2E/DX2                !
 ! A5    A(20,1,22)            107.1572         estimate D2E/DX2                !
 ! A6    A(21,1,22)            107.3302         estimate D2E/DX2                !
 ! A7    A(1,2,3)              113.7937         estimate D2E/DX2                !
 ! A8    A(1,2,23)             108.6112         estimate D2E/DX2                !
 ! A9    A(1,2,24)             109.7462         estimate D2E/DX2                !
 ! A10   A(3,2,23)             109.2532         estimate D2E/DX2                !
 ! A11   A(3,2,24)             108.7642         estimate D2E/DX2                !
 ! A12   A(23,2,24)            106.4116         estimate D2E/DX2                !
 ! A13   A(2,3,4)              113.8818         estimate D2E/DX2                !
 ! A14   A(2,3,7)              109.1252         estimate D2E/DX2                !
 ! A15   A(2,3,31)             107.1118         estimate D2E/DX2                !
 ! A16   A(4,3,7)              110.0946         estimate D2E/DX2                !
 ! A17   A(4,3,31)             106.3597         estimate D2E/DX2                !
 ! A18   A(7,3,31)             110.1709         estimate D2E/DX2                !
 ! A19   A(3,4,5)              112.3621         estimate D2E/DX2                !
 ! A20   A(3,4,25)             106.6938         estimate D2E/DX2                !
 ! A21   A(3,4,32)             112.5464         estimate D2E/DX2                !
 ! A22   A(5,4,25)             105.6454         estimate D2E/DX2                !
 ! A23   A(5,4,32)             111.8315         estimate D2E/DX2                !
 ! A24   A(25,4,32)            107.2396         estimate D2E/DX2                !
 ! A25   A(4,5,6)              108.0372         estimate D2E/DX2                !
 ! A26   A(4,5,26)             109.0173         estimate D2E/DX2                !
 ! A27   A(4,5,27)             110.2647         estimate D2E/DX2                !
 ! A28   A(6,5,26)             111.0843         estimate D2E/DX2                !
 ! A29   A(6,5,27)             110.4149         estimate D2E/DX2                !
 ! A30   A(26,5,27)            108.0189         estimate D2E/DX2                !
 ! A31   A(5,6,28)             107.5114         estimate D2E/DX2                !
 ! A32   A(3,7,8)              113.867          estimate D2E/DX2                !
 ! A33   A(3,7,36)             108.7787         estimate D2E/DX2                !
 ! A34   A(8,7,36)             107.2927         estimate D2E/DX2                !
 ! A35   A(7,8,12)             111.3605         estimate D2E/DX2                !
 ! A36   A(7,8,29)             112.1581         estimate D2E/DX2                !
 ! A37   A(7,8,30)             109.0767         estimate D2E/DX2                !
 ! A38   A(12,8,29)            108.7327         estimate D2E/DX2                !
 ! A39   A(12,8,30)            108.5399         estimate D2E/DX2                !
 ! A40   A(29,8,30)            106.8112         estimate D2E/DX2                !
 ! A41   A(10,9,14)            120.5359         estimate D2E/DX2                !
 ! A42   A(10,9,15)            119.7167         estimate D2E/DX2                !
 ! A43   A(14,9,15)            119.7473         estimate D2E/DX2                !
 ! A44   A(9,10,11)            118.1225         estimate D2E/DX2                !
 ! A45   A(9,10,16)            122.109          estimate D2E/DX2                !
 ! A46   A(11,10,16)           119.7685         estimate D2E/DX2                !
 ! A47   A(10,11,12)           124.0883         estimate D2E/DX2                !
 ! A48   A(10,11,18)           118.6006         estimate D2E/DX2                !
 ! A49   A(12,11,18)           117.3098         estimate D2E/DX2                !
 ! A50   A(8,12,11)            121.6049         estimate D2E/DX2                !
 ! A51   A(8,12,13)            123.2343         estimate D2E/DX2                !
 ! A52   A(11,12,13)           115.1606         estimate D2E/DX2                !
 ! A53   A(12,13,14)           123.5045         estimate D2E/DX2                !
 ! A54   A(12,13,19)           118.2619         estimate D2E/DX2                !
 ! A55   A(14,13,19)           118.2317         estimate D2E/DX2                !
 ! A56   A(9,14,13)            118.5871         estimate D2E/DX2                !
 ! A57   A(9,14,17)            121.942          estimate D2E/DX2                !
 ! A58   A(13,14,17)           119.4708         estimate D2E/DX2                !
 ! A59   A(4,32,33)            111.8599         estimate D2E/DX2                !
 ! A60   A(4,32,34)            110.1656         estimate D2E/DX2                !
 ! A61   A(4,32,35)            111.1872         estimate D2E/DX2                !
 ! A62   A(33,32,34)           107.5033         estimate D2E/DX2                !
 ! A63   A(33,32,35)           107.7529         estimate D2E/DX2                !
 ! A64   A(34,32,35)           108.2181         estimate D2E/DX2                !
 ! D1    D(20,1,2,3)           178.6103         estimate D2E/DX2                !
 ! D2    D(20,1,2,23)          -59.4693         estimate D2E/DX2                !
 ! D3    D(20,1,2,24)           56.4837         estimate D2E/DX2                !
 ! D4    D(21,1,2,3)           -61.6558         estimate D2E/DX2                !
 ! D5    D(21,1,2,23)           60.2646         estimate D2E/DX2                !
 ! D6    D(21,1,2,24)          176.2176         estimate D2E/DX2                !
 ! D7    D(22,1,2,3)            58.5843         estimate D2E/DX2                !
 ! D8    D(22,1,2,23)         -179.4953         estimate D2E/DX2                !
 ! D9    D(22,1,2,24)          -63.5423         estimate D2E/DX2                !
 ! D10   D(1,2,3,4)            162.4981         estimate D2E/DX2                !
 ! D11   D(1,2,3,7)            -74.0505         estimate D2E/DX2                !
 ! D12   D(1,2,3,31)            45.2001         estimate D2E/DX2                !
 ! D13   D(23,2,3,4)            40.9337         estimate D2E/DX2                !
 ! D14   D(23,2,3,7)           164.3851         estimate D2E/DX2                !
 ! D15   D(23,2,3,31)          -76.3644         estimate D2E/DX2                !
 ! D16   D(24,2,3,4)           -74.8346         estimate D2E/DX2                !
 ! D17   D(24,2,3,7)            48.6167         estimate D2E/DX2                !
 ! D18   D(24,2,3,31)          167.8673         estimate D2E/DX2                !
 ! D19   D(2,3,4,5)             55.0877         estimate D2E/DX2                !
 ! D20   D(2,3,4,25)           170.417          estimate D2E/DX2                !
 ! D21   D(2,3,4,32)           -72.2269         estimate D2E/DX2                !
 ! D22   D(7,3,4,5)            -67.8356         estimate D2E/DX2                !
 ! D23   D(7,3,4,25)            47.4937         estimate D2E/DX2                !
 ! D24   D(7,3,4,32)           164.8498         estimate D2E/DX2                !
 ! D25   D(31,3,4,5)           172.8199         estimate D2E/DX2                !
 ! D26   D(31,3,4,25)          -71.8508         estimate D2E/DX2                !
 ! D27   D(31,3,4,32)           45.5053         estimate D2E/DX2                !
 ! D28   D(2,3,7,8)            150.0762         estimate D2E/DX2                !
 ! D29   D(2,3,7,36)            30.488          estimate D2E/DX2                !
 ! D30   D(4,3,7,8)            -84.252          estimate D2E/DX2                !
 ! D31   D(4,3,7,36)           156.1598         estimate D2E/DX2                !
 ! D32   D(31,3,7,8)            32.7431         estimate D2E/DX2                !
 ! D33   D(31,3,7,36)          -86.8451         estimate D2E/DX2                !
 ! D34   D(3,4,5,6)            167.4245         estimate D2E/DX2                !
 ! D35   D(3,4,5,26)            46.6            estimate D2E/DX2                !
 ! D36   D(3,4,5,27)           -71.8265         estimate D2E/DX2                !
 ! D37   D(25,4,5,6)            51.462          estimate D2E/DX2                !
 ! D38   D(25,4,5,26)          -69.3625         estimate D2E/DX2                !
 ! D39   D(25,4,5,27)          172.211          estimate D2E/DX2                !
 ! D40   D(32,4,5,6)           -64.8809         estimate D2E/DX2                !
 ! D41   D(32,4,5,26)          174.2945         estimate D2E/DX2                !
 ! D42   D(32,4,5,27)           55.868          estimate D2E/DX2                !
 ! D43   D(3,4,32,33)           63.4508         estimate D2E/DX2                !
 ! D44   D(3,4,32,34)         -177.0404         estimate D2E/DX2                !
 ! D45   D(3,4,32,35)          -57.0705         estimate D2E/DX2                !
 ! D46   D(5,4,32,33)          -64.145          estimate D2E/DX2                !
 ! D47   D(5,4,32,34)           55.3638         estimate D2E/DX2                !
 ! D48   D(5,4,32,35)          175.3337         estimate D2E/DX2                !
 ! D49   D(25,4,32,33)        -179.5172         estimate D2E/DX2                !
 ! D50   D(25,4,32,34)         -60.0084         estimate D2E/DX2                !
 ! D51   D(25,4,32,35)          59.9616         estimate D2E/DX2                !
 ! D52   D(4,5,6,28)           178.9705         estimate D2E/DX2                !
 ! D53   D(26,5,6,28)          -61.5025         estimate D2E/DX2                !
 ! D54   D(27,5,6,28)           58.3153         estimate D2E/DX2                !
 ! D55   D(3,7,8,12)          -177.0854         estimate D2E/DX2                !
 ! D56   D(3,7,8,29)           -54.9711         estimate D2E/DX2                !
 ! D57   D(3,7,8,30)            63.1452         estimate D2E/DX2                !
 ! D58   D(36,7,8,12)          -56.6593         estimate D2E/DX2                !
 ! D59   D(36,7,8,29)           65.455          estimate D2E/DX2                !
 ! D60   D(36,7,8,30)         -176.4288         estimate D2E/DX2                !
 ! D61   D(7,8,12,11)           68.4035         estimate D2E/DX2                !
 ! D62   D(7,8,12,13)         -111.3991         estimate D2E/DX2                !
 ! D63   D(29,8,12,11)         -55.6706         estimate D2E/DX2                !
 ! D64   D(29,8,12,13)         124.5268         estimate D2E/DX2                !
 ! D65   D(30,8,12,11)        -171.5095         estimate D2E/DX2                !
 ! D66   D(30,8,12,13)           8.6879         estimate D2E/DX2                !
 ! D67   D(14,9,10,11)           0.1209         estimate D2E/DX2                !
 ! D68   D(14,9,10,16)        -179.837          estimate D2E/DX2                !
 ! D69   D(15,9,10,11)        -179.9693         estimate D2E/DX2                !
 ! D70   D(15,9,10,16)           0.0728         estimate D2E/DX2                !
 ! D71   D(10,9,14,13)           0.0163         estimate D2E/DX2                !
 ! D72   D(10,9,14,17)         179.967          estimate D2E/DX2                !
 ! D73   D(15,9,14,13)        -179.8935         estimate D2E/DX2                !
 ! D74   D(15,9,14,17)           0.0573         estimate D2E/DX2                !
 ! D75   D(9,10,11,12)           0.0005         estimate D2E/DX2                !
 ! D76   D(9,10,11,18)        -179.575          estimate D2E/DX2                !
 ! D77   D(16,10,11,12)        179.9594         estimate D2E/DX2                !
 ! D78   D(16,10,11,18)          0.384          estimate D2E/DX2                !
 ! D79   D(10,11,12,8)         179.9366         estimate D2E/DX2                !
 ! D80   D(10,11,12,13)         -0.2458         estimate D2E/DX2                !
 ! D81   D(18,11,12,8)          -0.4829         estimate D2E/DX2                !
 ! D82   D(18,11,12,13)        179.3347         estimate D2E/DX2                !
 ! D83   D(8,12,13,14)        -179.7924         estimate D2E/DX2                !
 ! D84   D(8,12,13,19)          -0.3082         estimate D2E/DX2                !
 ! D85   D(11,12,13,14)          0.3934         estimate D2E/DX2                !
 ! D86   D(11,12,13,19)        179.8776         estimate D2E/DX2                !
 ! D87   D(12,13,14,9)          -0.2903         estimate D2E/DX2                !
 ! D88   D(12,13,14,17)        179.7577         estimate D2E/DX2                !
 ! D89   D(19,13,14,9)        -179.7746         estimate D2E/DX2                !
 ! D90   D(19,13,14,17)          0.2734         estimate D2E/DX2                !
 --------------------------------------------------------------------------------
 Trust Radius=1.00D-02 FncErr=1.00D-07 GrdErr=1.00D-06
 Number of steps in this run=    100 maximum allowed number of steps=    216.
 GradGradGradGradGradGradGradGradGradGradGradGradGradGradGradGradGradGrad

                          Input orientation:                          
 ---------------------------------------------------------------------
 Center     Atomic      Atomic             Coordinates (Angstroms)
 Number     Number       Type             X           Y           Z
 ---------------------------------------------------------------------
      1          6           0       -2.491554   -0.040060   -0.819299
      2          6           0       -2.381644    0.176646    0.695794
      3          6           0       -3.062251   -0.924051    1.532211
      4          6           0       -2.605285   -0.959284    3.015816
      5          6           0       -2.787642    0.389749    3.713057
      6          8           0       -2.626042    0.186669    5.119968
      7          7           0       -4.526015   -0.753299    1.456495
      8          6           0       -5.277832   -2.009262    1.576763
      9          6           0       -9.537580   -1.338900    1.083163
     10          6           0       -8.674739   -1.173342   -0.002275
     11          6           0       -7.320165   -1.397263    0.198879
     12          6           0       -6.763059   -1.778730    1.421045
     13          6           0       -7.673656   -1.923067    2.469069
     14          6           0       -9.042164   -1.716385    2.331062
     15          1           0      -10.601676   -1.171046    0.954771
     16          1           0       -9.031669   -0.878264   -0.982120
     17          1           0       -9.690920   -1.850831    3.188823
     18          9           0       -6.470362   -1.230390   -0.848947
     19          9           0       -7.201451   -2.293555    3.681520
     20          1           0       -2.015064    0.779198   -1.366699
     21          1           0       -1.999658   -0.972467   -1.117478
     22          1           0       -3.531309   -0.095671   -1.161198
     23          1           0       -1.321748    0.231260    0.964993
     24          1           0       -2.820209    1.146283    0.964491
     25          1           0       -3.277275   -1.655198    3.536586
     26          1           0       -3.788058    0.779340    3.482516
     27          1           0       -2.045930    1.114400    3.341794
     28          1           0       -2.726348    1.045227    5.550952
     29          1           0       -4.955540   -2.760658    0.833605
     30          1           0       -5.095107   -2.441499    2.562455
     31          1           0       -2.767986   -1.896666    1.092011
     32          6           0       -1.177408   -1.497762    3.179139
     33          1           0       -0.439127   -0.851079    2.691391
     34          1           0       -0.915298   -1.555057    4.238349
     35          1           0       -1.080458   -2.499950    2.747653
     36          1           0       -4.761577   -0.345323    0.556315
 ---------------------------------------------------------------------
                    Distance matrix (angstroms):
                    1          2          3          4          5
     1  C    0.000000
     2  C    1.534454   0.000000
     3  C    2.576186   1.540893   0.000000
     4  C    3.945379   2.592847   1.552786   0.000000
     5  C    4.562308   3.051904   2.560775   1.529473   0.000000
     6  O    5.945114   4.430931   3.781002   2.396058   1.430649
     7  N    3.134801   2.458005   1.475633   2.482562   3.069295
     8  C    4.169198   3.733927   2.467482   3.211827   4.064487
     9  C    7.413017   7.324913   6.504123   7.206661   7.447565
    10  C    6.339056   6.474011   5.823814   6.781811   7.134764
    11  C    5.118024   5.207025   4.486818   5.509724   6.007215
    12  C    5.127169   4.852451   3.799843   4.527899   5.075387
    13  C    6.419755   5.963111   4.810488   5.188082   5.547050
    14  C    7.459580   7.114787   6.084843   6.517323   6.742756
    15  H    8.378575   8.333803   7.565538   8.260449   8.432280
    16  H    6.595619   6.939097   6.477492   7.568914   7.914570
    17  H    8.436516   7.984446   6.895110   7.143599   7.276694
    18  F    4.153152   4.591687   4.168810   5.472542   6.082693
    19  F    6.893383   6.184415   4.860868   4.831995   5.165542
    20  H    1.094474   2.179754   3.521553   4.751539   5.152909
    21  H    1.095562   2.180442   2.855223   4.177449   5.080415
    22  H    1.095936   2.200979   2.856691   4.364722   4.954497
    23  H    2.150758   1.094911   2.164677   2.696430   3.118624
    24  H    2.167332   1.097603   2.160364   2.947464   2.850968
    25  H    4.711662   3.496842   2.144372   1.098666   2.110141
    26  H    4.567050   3.179160   2.689243   2.153967   1.098072
    27  H    4.341204   2.827261   2.909086   2.172396   1.101404
    28  H    6.466303   4.944271   4.487892   3.234136   1.952247
    29  H    4.025540   3.907901   2.728685   3.678409   4.787076
    30  H    4.897107   4.207374   2.737984   2.932868   3.829393
    31  H    2.678900   2.145897   1.107407   2.146203   3.478213
    32  C    4.454142   3.228131   2.567908   1.534753   2.537838
    33  H    4.146704   2.968501   2.868764   2.192989   2.845871
    34  H    5.509955   4.206977   3.511518   2.169237   2.750251
    35  H    4.556906   3.614882   2.808605   2.184184   3.492398
    36  H    2.671797   2.440489   2.043283   3.328016   3.794967
                    6          7          8          9         10
     6  O    0.000000
     7  N    4.232549   0.000000
     8  C    4.940486   1.468720   0.000000
     9  C    8.148160   5.059455   4.340331   0.000000
    10  C    8.041998   4.417732   3.838111   1.396452   0.000000
    11  C    6.982890   3.131064   2.538549   2.387947   1.387614
    12  C    5.887251   2.461124   1.511056   2.829414   2.459036
    13  C    6.079199   3.507323   2.558049   2.395036   2.769801
    14  C    7.250257   4.699788   3.850317   1.394698   2.423707
    15  H    9.099615   6.110638   5.425199   1.084878   2.151517
    16  H    8.910758   5.124780   4.681701   2.175667   1.083774
    17  H    7.602186   5.557138   4.700977   2.172415   3.416829
    18  F    7.239806   3.053385   2.812977   3.626658   2.362072
    19  F    5.399537   3.805402   2.865507   3.622199   4.122596
    20  H    6.542265   4.077235   5.204339   8.190019   7.072860
    21  H    6.375083   3.613288   4.368101   7.861130   6.770579
    22  H    6.352344   2.876496   3.769431   6.531314   5.381390
    23  H    4.355110   3.387957   4.587461   8.365360   7.548178
    24  H    4.269257   2.600049   4.046264   7.163329   6.371093
    25  H    2.514692   2.588349   2.822852   6.731326   6.472120
    26  H    2.093511   2.645435   3.691561   6.580337   6.311608
    27  H    2.087850   3.632282   4.828850   8.200299   7.769020
    28  H    0.965884   4.820589   5.624425   8.487525   8.434675
    29  H    5.699667   2.145222   1.104877   4.804036   4.129250
    30  H    4.420908   2.096911   1.091699   4.810363   4.582557
    31  H    4.537056   2.128568   2.558709   6.792539   6.050652
    32  C    2.950028   3.838606   4.432011   8.620373   8.150866
    33  H    3.428922   4.270502   5.098711   9.252362   8.670928
    34  H    2.595671   4.628046   5.130502   9.183990   8.850849
    35  H    3.903156   4.073050   4.385169   8.697210   8.185053
    36  H    5.066602   1.016001   2.019042   4.906625   4.038623
                   11         12         13         14         15
    11  C    0.000000
    12  C    1.396272   0.000000
    13  C    2.356945   1.395842   0.000000
    14  C    2.759225   2.454860   1.390891   0.000000
    15  H    3.375034   3.914291   3.381114   2.150267   0.000000
    16  H    2.143213   3.425293   3.853118   3.417562   2.510416
    17  H    3.842651   3.420908   2.143039   1.083842   2.506506
    18  F    1.359394   2.353553   3.596797   4.118594   4.508289
    19  F    3.598086   2.359444   1.352877   2.354801   4.500746
    20  H    5.944083   6.071077   7.350852   8.323552   9.106184
    21  H    5.497367   5.457485   6.779470   7.876721   8.850331
    22  H    4.230767   4.465969   5.803211   6.722509   7.458140
    23  H    6.262589   5.818582   6.873871   8.078631   9.385287
    24  H    5.225456   4.930538   5.936381   6.983918   8.119195
    25  H    5.248979   4.079395   4.532054   5.889905   7.781197
    26  H    5.291092   4.432157   4.840244   5.929598   7.524553
    27  H    6.633545   5.857540   6.454391   7.614605   9.171801
    28  H    7.464155   6.428522   6.540997   7.608136   9.383898
    29  H    2.802352   2.139251   3.280924   4.475867   5.866890
    30  H    3.409957   2.127003   2.631807   4.019775   5.875457
    31  H    4.665772   4.010334   5.095350   6.397895   7.868421
    32  C    6.828288   5.862536   6.548765   7.913370   9.688725
    33  H    7.338912   6.516627   7.316898   8.653950  10.314826
    34  H    7.573939   6.494885   6.995798   8.349235  10.235002
    35  H    6.829796   5.879795   6.624248   8.011010   9.779263
    36  H    2.789393   2.609281   3.824672   4.832491   5.911628
                   16         17         18         19         20
    16  H    0.000000
    17  H    4.333274   0.000000
    18  F    2.588826   5.201973   0.000000
    19  F    5.205985   2.576085   4.710620   0.000000
    20  H    7.219961   9.305300   4.914895   7.862883   0.000000
    21  H    7.033944   8.858401   4.486182   7.199604   1.769372
    22  H    5.558640   7.742356   3.165932   6.461622   1.762562
    23  H    8.029020   8.906377   5.651108   6.951626   2.493534
    24  H    6.816914   7.819016   4.718130   6.197581   2.493482
    25  H    7.357675   6.426046   5.441430   3.978399   5.617977
    26  H    7.083508   6.468991   5.476800   4.597123   5.163176
    27  H    8.453844   8.201333   6.529621   6.189423   4.720511
    28  H    9.281052   7.903928   7.755952   5.888021   6.959209
    29  H    4.843045   5.366439   2.732652   3.656901   5.100816
    30  H    5.523063   4.675759   3.872438   2.389744   5.941196
    31  H    6.676293   7.233653   4.233064   5.149630   3.711118
    32  C    8.910066   8.520836   6.656751   6.097111   5.152753
    33  H    9.344902   9.318939   7.003832   6.984992   4.648599
    34  H    9.674028   8.843107   7.539544   6.353830   6.170478
    35  H    8.931003   8.646158   6.602906   6.195261   5.343612
    36  H    4.569955   5.787493   2.382866   4.417635   3.536363
                   21         22         23         24         25
    21  H    0.000000
    22  H    1.765400   0.000000
    23  H    2.499041   3.083785   0.000000
    24  H    3.081720   2.562551   1.755748   0.000000
    25  H    4.874293   4.956393   3.741109   3.830519   0.000000
    26  H    5.237093   4.732404   3.566650   2.722467   2.488132
    27  H    4.923643   4.893625   2.636960   2.500419   3.037240
    28  H    7.004793   6.855843   4.864819   4.588535   3.413721
    29  H    3.967567   3.620750   4.708851   4.454319   3.368193
    30  H    5.028098   4.670543   4.892215   4.538814   2.207196
    31  H    2.515216   2.983823   2.576006   3.046068   2.508710
    32  C    4.406013   5.132761   2.812969   3.820267   2.135883
    33  H    4.117945   4.997467   2.220569   3.555445   3.068557
    34  H    5.495464   6.174822   3.751131   4.652319   2.466057
    35  H    4.256450   5.202532   3.270413   4.416040   2.482342
    36  H    3.289846   2.127378   3.511678   2.482016   3.577840
                   26         27         28         29         30
    26  H    0.000000
    27  H    1.779628   0.000000
    28  H    2.340161   2.312603   0.000000
    29  H    4.572891   5.456457   6.458129   0.000000
    30  H    3.595650   4.748607   5.167146   1.763594   0.000000
    31  H    3.730425   3.827455   5.342156   2.366146   2.806162
    32  C    3.477459   2.757567   3.806771   4.622848   4.076679
    33  H    3.807819   2.620678   4.123645   5.243649   4.921810
    34  H    3.778022   3.034492   3.429914   5.419346   4.589685
    35  H    4.315653   3.787964   4.809961   4.329874   4.019343
    36  H    3.282569   4.155048   5.569757   2.438925   2.920582
                   31         32         33         34         35
    31  H    0.000000
    32  C    2.654274   0.000000
    33  H    3.012450   1.095973   0.000000
    34  H    3.667232   1.092661   1.765050   0.000000
    35  H    2.439846   1.095427   1.770098   1.772646   0.000000
    36  H    2.582255   4.588419   4.847465   5.460284   4.795312
                   36
    36  H    0.000000
 Stoichiometry    C13H19F2NO
 Framework group  C1[X(C13H19F2NO)]
 Deg. of freedom   102
 Full point group                 C1      NOp   1
 Largest Abelian subgroup         C1      NOp   1
 Largest concise Abelian subgroup C1      NOp   1
                         Standard orientation:                         
 ---------------------------------------------------------------------
 Center     Atomic      Atomic             Coordinates (Angstroms)
 Number     Number       Type             X           Y           Z
 ---------------------------------------------------------------------
      1          6           0       -2.053283    3.195820   -0.207823
      2          6           0       -2.554044    1.779347   -0.519902
      3          6           0       -1.895077    0.683509    0.339896
      4          6           0       -2.672391   -0.660680    0.349072
      5          6           0       -2.914331   -1.202598   -1.060566
      6          8           0       -3.360498   -2.556887   -0.943986
      7          7           0       -0.512924    0.466699   -0.129295
      8          6           0        0.410994    0.029539    0.925411
      9          6           0        4.464891   -0.314565   -0.586537
     10          6           0        3.865425    0.941873   -0.476606
     11          6           0        2.567956    1.007116    0.011031
     12          6           0        1.821203   -0.106716    0.400021
     13          6           0        2.471033   -1.334380    0.262405
     14          6           0        3.770207   -1.465962   -0.216561
     15          1           0        5.478685   -0.395542   -0.964193
     16          1           0        4.380544    1.852611   -0.759050
     17          1           0        4.213034   -2.452261   -0.292923
     18          9           0        1.971858    2.224511    0.113844
     19          9           0        1.805495   -2.455494    0.623570
     20          1           0       -2.532680    3.932254   -0.860293
     21          1           0       -2.278162    3.470380    0.828662
     22          1           0       -0.970828    3.298297   -0.345178
     23          1           0       -3.638473    1.751456   -0.371362
     24          1           0       -2.380088    1.549467   -1.578971
     25          1           0       -2.023328   -1.397228    0.842307
     26          1           0       -1.978803   -1.142734   -1.632375
     27          1           0       -3.670348   -0.592337   -1.579326
     28          1           0       -3.526508   -2.886063   -1.836744
     29          1           0        0.418419    0.722099    1.786259
     30          1           0        0.086341   -0.941510    1.304185
     31          1           0       -1.890595    1.048380    1.385457
     32          6           0       -3.972072   -0.583350    1.161670
     33          1           0       -4.682909    0.129053    0.727678
     34          1           0       -4.459835   -1.560798    1.185984
     35          1           0       -3.775876   -0.272749    2.193656
     36          1           0       -0.153387    1.340558   -0.502606
 ---------------------------------------------------------------------
 Rotational constants (GHZ):      0.6644700      0.2590234      0.2024769
 Standard basis: 6-31G(d,p) (6D, 7F)
 There are   350 symmetry adapted cartesian basis functions of A   symmetry.
 There are   350 symmetry adapted basis functions of A   symmetry.
   350 basis functions,   609 primitive gaussians,   350 cartesian basis functions
    65 alpha electrons       65 beta electrons
       nuclear repulsion energy      1254.9254173230 Hartrees.
 NAtoms=   36 NActive=   36 NUniq=   36 SFac= 1.00D+00 NAtFMM=   60 NAOKFM=F Big=F
 Integral buffers will be    131072 words long.
 Raffenetti 2 integral format.
 Two-electron integral symmetry is turned on.
 ------------------------------------------------------------------------------
 Polarizable Continuum Model (PCM)
 =================================
 Model                : PCM (using non-symmetric T matrix).
 Atomic radii         : UFF (Universal Force Field).
 Polarization charges : Total charges.
 Charge compensation  : None.
 Solution method      : On-the-fly selection.
 Cavity type          : Scaled VdW (van der Waals Surface) (Alpha=1.100).
 Cavity algorithm     : GePol (No added spheres)
                        Default sphere list used, NSphG=   36.
                        Lebedev-Laikov grids with approx.  5.0 points / Ang**2.
                        Smoothing algorithm: Karplus/York (Gamma=1.0000).
                        Polarization charges: spherical gaussians, with
                                              point-specific exponents (IZeta= 3).
                        Self-potential: point-specific (ISelfS= 7).
                        Self-field    : sphere-specific E.n sum rule (ISelfD= 2).
 1st derivatives      : Analytical E(r).r(x)/FMM algorithm (CHGder, D1EAlg=3).
                        Cavity 1st derivative terms included.
 Solvent              : Chloroform, Eps=   4.711300 Eps(inf)=   2.090627
 ------------------------------------------------------------------------------
 One-electron integrals computed using PRISM.
 NBasis=   350 RedAO= T EigKep=  4.11D-04  NBF=   350
 NBsUse=   350 1.00D-06 EigRej= -1.00D+00 NBFU=   350
 ExpMin= 1.61D-01 ExpMax= 7.00D+03 ExpMxC= 1.05D+03 IAcc=1 IRadAn=         1 AccDes= 0.00D+00
 Harris functional with IExCor=  402 and IRadAn=       1 diagonalized for initial guess.
 HarFok:  IExCor=  402 AccDes= 0.00D+00 IRadAn=         1 IDoV= 1 UseB2=F ITyADJ=14
 ICtDFT=  3500011 ScaDFX=  1.000000  1.000000  1.000000  1.000000
 FoFCou: FMM=F IPFlag=           0 FMFlag=      100000 FMFlg1=           0
         NFxFlg=           0 DoJE=T BraDBF=F KetDBF=T FulRan=T
         wScrn=  0.000000 ICntrl=     500 IOpCl=  0 I1Cent=   200000004 NGrid=           0
         NMat0=    1 NMatS0=      1 NMatT0=    0 NMatD0=    1 NMtDS0=    0 NMtDT0=    0
 Petite list used in FoFCou.
 Requested convergence on RMS density matrix=1.00D-08 within 128 cycles.
 Requested convergence on MAX density matrix=1.00D-06.
 Requested convergence on             energy=1.00D-06.
 No special actions if energy rises.
 Inv3:  Mode=1 IEnd=    19907328.
 Iteration    1 A*A^-1 deviation from unit magnitude is 7.55D-15 for   2477.
 Iteration    1 A*A^-1 deviation from orthogonality  is 5.69D-15 for   2049   2030.
 Iteration    1 A^-1*A deviation from unit magnitude is 9.66D-15 for   2134.
 Iteration    1 A^-1*A deviation from orthogonality  is 4.21D-08 for   2145   2144.
 Iteration    2 A*A^-1 deviation from unit magnitude is 9.10D-15 for    568.
 Iteration    2 A*A^-1 deviation from orthogonality  is 1.33D-14 for   2304    392.
 Iteration    2 A^-1*A deviation from unit magnitude is 2.00D-15 for    328.
 Iteration    2 A^-1*A deviation from orthogonality  is 8.33D-16 for   2038    578.
 Error on total polarization charges =  0.00772
 SCF Done:  E(RB3LYP) =  -836.492128804     A.U. after   12 cycles
            NFock= 12  Conv=0.63D-08     -V/T= 2.0089

 **********************************************************************

            Population analysis using the SCF density.

 **********************************************************************

 Orbital symmetries:
       Occupied  (A) (A) (A) (A) (A) (A) (A) (A) (A) (A) (A) (A)
                 (A) (A) (A) (A) (A) (A) (A) (A) (A) (A) (A) (A)
                 (A) (A) (A) (A) (A) (A) (A) (A) (A) (A) (A) (A)
                 (A) (A) (A) (A) (A) (A) (A) (A) (A) (A) (A) (A)
                 (A) (A) (A) (A) (A) (A) (A) (A) (A) (A) (A) (A)
                 (A) (A) (A) (A) (A)
       Virtual   (A) (A) (A) (A) (A) (A) (A) (A) (A) (A) (A) (A)
                 (A) (A) (A) (A) (A) (A) (A) (A) (A) (A) (A) (A)
                 (A) (A) (A) (A) (A) (A) (A) (A) (A) (A) (A) (A)
                 (A) (A) (A) (A) (A) (A) (A) (A) (A) (A) (A) (A)
                 (A) (A) (A) (A) (A) (A) (A) (A) (A) (A) (A) (A)
                 (A) (A) (A) (A) (A) (A) (A) (A) (A) (A) (A) (A)
                 (A) (A) (A) (A) (A) (A) (A) (A) (A) (A) (A) (A)
                 (A) (A) (A) (A) (A) (A) (A) (A) (A) (A) (A) (A)
                 (A) (A) (A) (A) (A) (A) (A) (A) (A) (A) (A) (A)
                 (A) (A) (A) (A) (A) (A) (A) (A) (A) (A) (A) (A)
                 (A) (A) (A) (A) (A) (A) (A) (A) (A) (A) (A) (A)
                 (A) (A) (A) (A) (A) (A) (A) (A) (A) (A) (A) (A)
                 (A) (A) (A) (A) (A) (A) (A) (A) (A) (A) (A) (A)
                 (A) (A) (A) (A) (A) (A) (A) (A) (A) (A) (A) (A)
                 (A) (A) (A) (A) (A) (A) (A) (A) (A) (A) (A) (A)
                 (A) (A) (A) (A) (A) (A) (A) (A) (A) (A) (A) (A)
                 (A) (A) (A) (A) (A) (A) (A) (A) (A) (A) (A) (A)
                 (A) (A) (A) (A) (A) (A) (A) (A) (A) (A) (A) (A)
                 (A) (A) (A) (A) (A) (A) (A) (A) (A) (A) (A) (A)
                 (A) (A) (A) (A) (A) (A) (A) (A) (A) (A) (A) (A)
                 (A) (A) (A) (A) (A) (A) (A) (A) (A) (A) (A) (A)
                 (A) (A) (A) (A) (A) (A) (A) (A) (A) (A) (A) (A)
                 (A) (A) (A) (A) (A) (A) (A) (A) (A) (A) (A) (A)
                 (A) (A) (A) (A) (A) (A) (A) (A) (A)
 The electronic state is 1-A.
 Alpha  occ. eigenvalues --  -24.71756 -24.71268 -19.13604 -14.31636 -10.28144
 Alpha  occ. eigenvalues --  -10.28139 -10.21766 -10.21689 -10.20995 -10.20898
 Alpha  occ. eigenvalues --  -10.20858 -10.20083 -10.19999 -10.18107 -10.17930
 Alpha  occ. eigenvalues --  -10.17560 -10.16650  -1.22598  -1.22320  -1.00543
 Alpha  occ. eigenvalues --   -0.90822  -0.87090  -0.80039  -0.76956  -0.75524
 Alpha  occ. eigenvalues --   -0.75425  -0.68715  -0.66742  -0.64785  -0.62803
 Alpha  occ. eigenvalues --   -0.61156  -0.60140  -0.55662  -0.53868  -0.52616
 Alpha  occ. eigenvalues --   -0.50421  -0.49843  -0.48854  -0.48111  -0.47220
 Alpha  occ. eigenvalues --   -0.46432  -0.45888  -0.44868  -0.43864  -0.43433
 Alpha  occ. eigenvalues --   -0.42185  -0.41808  -0.40495  -0.40197  -0.39143
 Alpha  occ. eigenvalues --   -0.37972  -0.37329  -0.36899  -0.35973  -0.35563
 Alpha  occ. eigenvalues --   -0.35402  -0.34694  -0.33639  -0.32413  -0.31704
 Alpha  occ. eigenvalues --   -0.30034  -0.26046  -0.25604  -0.24965  -0.22336
 Alpha virt. eigenvalues --   -0.01572  -0.00245   0.07164   0.08728   0.09085
 Alpha virt. eigenvalues --    0.10451   0.11167   0.12762   0.13665   0.13933
 Alpha virt. eigenvalues --    0.14549   0.14944   0.15930   0.16279   0.16928
 Alpha virt. eigenvalues --    0.17041   0.17621   0.17990   0.18644   0.19584
 Alpha virt. eigenvalues --    0.19929   0.20989   0.21655   0.22227   0.23276
 Alpha virt. eigenvalues --    0.23683   0.25475   0.25986   0.26497   0.27667
 Alpha virt. eigenvalues --    0.28340   0.29030   0.29776   0.31697   0.33000
 Alpha virt. eigenvalues --    0.37276   0.39343   0.46155   0.48567   0.50023
 Alpha virt. eigenvalues --    0.50267   0.50455   0.51703   0.52237   0.52676
 Alpha virt. eigenvalues --    0.53172   0.54149   0.55328   0.56831   0.58103
 Alpha virt. eigenvalues --    0.58416   0.59263   0.59464   0.60379   0.61445
 Alpha virt. eigenvalues --    0.62117   0.63510   0.64096   0.64285   0.66283
 Alpha virt. eigenvalues --    0.67519   0.68243   0.69759   0.70367   0.71436
 Alpha virt. eigenvalues --    0.72160   0.75361   0.76435   0.76452   0.79125
 Alpha virt. eigenvalues --    0.80046   0.81047   0.81885   0.82363   0.82980
 Alpha virt. eigenvalues --    0.84124   0.85074   0.85645   0.86457   0.86492
 Alpha virt. eigenvalues --    0.86967   0.87441   0.88032   0.89125   0.89965
 Alpha virt. eigenvalues --    0.91469   0.91950   0.92437   0.92947   0.94383
 Alpha virt. eigenvalues --    0.94662   0.95781   0.97261   0.98324   0.99532
 Alpha virt. eigenvalues --    1.00473   1.00734   1.02002   1.03332   1.03946
 Alpha virt. eigenvalues --    1.07708   1.09007   1.10043   1.11828   1.16014
 Alpha virt. eigenvalues --    1.20202   1.21546   1.21913   1.22151   1.23087
 Alpha virt. eigenvalues --    1.25037   1.25402   1.27786   1.29614   1.31712
 Alpha virt. eigenvalues --    1.34613   1.35799   1.36557   1.38471   1.39203
 Alpha virt. eigenvalues --    1.39702   1.41724   1.42453   1.43677   1.45326
 Alpha virt. eigenvalues --    1.47806   1.49538   1.51324   1.52037   1.53393
 Alpha virt. eigenvalues --    1.57609   1.59492   1.61490   1.63206   1.65276
 Alpha virt. eigenvalues --    1.67344   1.69922   1.71115   1.73084   1.75287
 Alpha virt. eigenvalues --    1.76292   1.77175   1.78466   1.79687   1.80928
 Alpha virt. eigenvalues --    1.81506   1.82636   1.84167   1.84650   1.85061
 Alpha virt. eigenvalues --    1.85605   1.87424   1.88387   1.89507   1.89631
 Alpha virt. eigenvalues --    1.90135   1.90771   1.92701   1.93749   1.95078
 Alpha virt. eigenvalues --    1.96324   1.96431   1.97576   1.99227   2.00032
 Alpha virt. eigenvalues --    2.00619   2.02336   2.03581   2.04818   2.05371
 Alpha virt. eigenvalues --    2.05715   2.06869   2.07070   2.08407   2.11136
 Alpha virt. eigenvalues --    2.11806   2.12614   2.15254   2.15821   2.16759
 Alpha virt. eigenvalues --    2.18701   2.19587   2.20443   2.23576   2.25748
 Alpha virt. eigenvalues --    2.26262   2.27955   2.28570   2.29445   2.31264
 Alpha virt. eigenvalues --    2.31521   2.32313   2.32542   2.33125   2.35109
 Alpha virt. eigenvalues --    2.36072   2.36631   2.37557   2.38713   2.40311
 Alpha virt. eigenvalues --    2.41527   2.43331   2.45775   2.47458   2.48311
 Alpha virt. eigenvalues --    2.50328   2.51549   2.52446   2.53430   2.54009
 Alpha virt. eigenvalues --    2.56290   2.57619   2.59030   2.61735   2.63191
 Alpha virt. eigenvalues --    2.64147   2.65500   2.66991   2.67608   2.69214
 Alpha virt. eigenvalues --    2.70353   2.72401   2.73172   2.74310   2.74371
 Alpha virt. eigenvalues --    2.76253   2.76469   2.78186   2.79273   2.81757
 Alpha virt. eigenvalues --    2.83009   2.83085   2.87032   2.87562   2.89014
 Alpha virt. eigenvalues --    2.89956   2.90117   2.93232   2.93707   2.98677
 Alpha virt. eigenvalues --    3.00001   3.01864   3.04447   3.06516   3.07381
 Alpha virt. eigenvalues --    3.10548   3.13477   3.20144   3.20888   3.21556
 Alpha virt. eigenvalues --    3.25897   3.28349   3.30644   3.31413   3.34275
 Alpha virt. eigenvalues --    3.34876   3.38310   3.39899   3.42725   3.44601
 Alpha virt. eigenvalues --    3.46084   3.46954   3.49032   3.49858   3.54415
 Alpha virt. eigenvalues --    3.56191   3.57395   3.80763   3.97569   4.08247
 Alpha virt. eigenvalues --    4.10046   4.12790   4.18241   4.31966   4.37781
 Alpha virt. eigenvalues --    4.39735   4.42678   4.54525   4.55258   4.60464
 Alpha virt. eigenvalues --    4.66938   4.75810   4.78266   5.36085   5.46293
          Condensed to atoms (all electrons):
               1          2          3          4          5          6
     1  C    4.940750   0.362527  -0.036770   0.004454   0.000145   0.000000
     2  C    0.362527   4.956332   0.366888  -0.031781  -0.010269   0.000032
     3  C   -0.036770   0.366888   4.842690   0.343840  -0.030761   0.002166
     4  C    0.004454  -0.031781   0.343840   5.002306   0.369748  -0.050669
     5  C    0.000145  -0.010269  -0.030761   0.369748   4.765436   0.233141
     6  O    0.000000   0.000032   0.002166  -0.050669   0.233141   8.167322
     7  N   -0.004335  -0.042811   0.278899  -0.059604  -0.011499   0.000024
     8  C    0.000190   0.004022  -0.030915  -0.003818   0.000293  -0.000003
     9  C    0.000000   0.000000   0.000000   0.000000   0.000000   0.000000
    10  C   -0.000001   0.000000   0.000008   0.000000   0.000000   0.000000
    11  C   -0.000019  -0.000052   0.000463  -0.000002   0.000003   0.000000
    12  C    0.000022  -0.000213   0.004206   0.000065  -0.000008  -0.000001
    13  C    0.000000   0.000001  -0.000112   0.000014  -0.000009   0.000000
    14  C    0.000000   0.000000   0.000003   0.000000   0.000000   0.000000
    15  H    0.000000   0.000000   0.000000   0.000000   0.000000   0.000000
    16  H    0.000000   0.000000   0.000000   0.000000   0.000000   0.000000
    17  H    0.000000   0.000000   0.000000   0.000000   0.000000   0.000000
    18  F   -0.000249  -0.000023   0.000009  -0.000001   0.000000   0.000000
    19  F    0.000000   0.000000   0.000005  -0.000003   0.000000   0.000000
    20  H    0.379472  -0.027066   0.003797  -0.000130   0.000001   0.000000
    21  H    0.385196  -0.034362  -0.005077  -0.000070   0.000011   0.000000
    22  H    0.382612  -0.036796  -0.004083   0.000109  -0.000008   0.000000
    23  H   -0.036304   0.381695  -0.036594  -0.003453  -0.001589  -0.000010
    24  H   -0.040407   0.376091  -0.033968  -0.008241   0.002329  -0.000008
    25  H   -0.000134   0.005466  -0.035587   0.371637  -0.046643   0.004723
    26  H   -0.000064  -0.002651  -0.001243  -0.045882   0.371304  -0.035910
    27  H    0.000001   0.004478  -0.003960  -0.038844   0.363712  -0.039146
    28  H    0.000000   0.000003  -0.000267   0.006077  -0.024446   0.284539
    29  H   -0.000039   0.000413  -0.008932  -0.001171  -0.000018   0.000000
    30  H   -0.000009   0.000021  -0.001399   0.002548   0.000266  -0.000030
    31  H   -0.009440  -0.049564   0.375263  -0.062644   0.005516  -0.000057
    32  C   -0.000007  -0.006441  -0.035620   0.351960  -0.044489  -0.002589
    33  H   -0.000196   0.001041  -0.005650  -0.034628  -0.005525  -0.000164
    34  H    0.000002   0.000084   0.004211  -0.029132  -0.006206   0.010330
    35  H   -0.000036  -0.000150  -0.005154  -0.030159   0.005078   0.000044
    36  H    0.002900  -0.008236  -0.038709   0.005378   0.000297   0.000001
               7          8          9         10         11         12
     1  C   -0.004335   0.000190   0.000000  -0.000001  -0.000019   0.000022
     2  C   -0.042811   0.004022   0.000000   0.000000  -0.000052  -0.000213
     3  C    0.278899  -0.030915   0.000000   0.000008   0.000463   0.004206
     4  C   -0.059604  -0.003818   0.000000   0.000000  -0.000002   0.000065
     5  C   -0.011499   0.000293   0.000000   0.000000   0.000003  -0.000008
     6  O    0.000024  -0.000003   0.000000   0.000000   0.000000  -0.000001
     7  N    6.930148   0.282390   0.000021  -0.000171  -0.007507  -0.035034
     8  C    0.282390   4.938792  -0.000653   0.008334  -0.052891   0.303931
     9  C    0.000021  -0.000653   4.862929   0.486004  -0.006426  -0.027418
    10  C   -0.000171   0.008334   0.486004   5.042353   0.483888  -0.081073
    11  C   -0.007507  -0.052891  -0.006426   0.483888   4.637836   0.384365
    12  C   -0.035034   0.303931  -0.027418  -0.081073   0.384365   5.289317
    13  C    0.003400  -0.046372  -0.004361  -0.049176   0.021583   0.420484
    14  C   -0.000077   0.007546   0.483355  -0.036828  -0.046738  -0.072899
    15  H    0.000000   0.000005   0.373663  -0.034736   0.003568   0.000442
    16  H    0.000001  -0.000134  -0.035977   0.361177  -0.032206   0.006150
    17  H    0.000001  -0.000118  -0.036520   0.004462   0.000326   0.006111
    18  F   -0.004739   0.004862   0.002820  -0.045919   0.291767  -0.057575
    19  F   -0.000057  -0.006791   0.003034   0.000018   0.002800  -0.047822
    20  H    0.000121   0.000008   0.000000   0.000000   0.000000   0.000000
    21  H   -0.000182  -0.000008   0.000000   0.000000   0.000001  -0.000002
    22  H    0.000933  -0.000048   0.000000   0.000005   0.000065  -0.000077
    23  H    0.004139  -0.000187   0.000000   0.000000   0.000000   0.000003
    24  H   -0.002335   0.000051   0.000000   0.000000  -0.000007   0.000015
    25  H   -0.004224   0.000830   0.000000   0.000000  -0.000015  -0.000258
    26  H    0.016851  -0.000076   0.000000   0.000000  -0.000005  -0.000003
    27  H    0.000468  -0.000027   0.000000   0.000000   0.000000   0.000000
    28  H    0.000013   0.000000   0.000000   0.000000   0.000000   0.000000
    29  H   -0.048956   0.351351   0.000012  -0.000197  -0.010962  -0.029456
    30  H   -0.045172   0.373421  -0.000036  -0.000138   0.005887  -0.029934
    31  H   -0.054852  -0.009707   0.000000  -0.000001  -0.000073   0.000542
    32  C    0.003565   0.000013   0.000000   0.000000   0.000000   0.000001
    33  H    0.000000  -0.000002   0.000000   0.000000   0.000000   0.000000
    34  H   -0.000108  -0.000001   0.000000   0.000000   0.000000   0.000000
    35  H    0.000044  -0.000001   0.000000   0.000000   0.000000   0.000000
    36  H    0.333103  -0.041772  -0.000018  -0.000089   0.004100  -0.010561
              13         14         15         16         17         18
     1  C    0.000000   0.000000   0.000000   0.000000   0.000000  -0.000249
     2  C    0.000001   0.000000   0.000000   0.000000   0.000000  -0.000023
     3  C   -0.000112   0.000003   0.000000   0.000000   0.000000   0.000009
     4  C    0.000014   0.000000   0.000000   0.000000   0.000000  -0.000001
     5  C   -0.000009   0.000000   0.000000   0.000000   0.000000   0.000000
     6  O    0.000000   0.000000   0.000000   0.000000   0.000000   0.000000
     7  N    0.003400  -0.000077   0.000000   0.000001   0.000001  -0.004739
     8  C   -0.046372   0.007546   0.000005  -0.000134  -0.000118   0.004862
     9  C   -0.004361   0.483355   0.373663  -0.035977  -0.036520   0.002820
    10  C   -0.049176  -0.036828  -0.034736   0.361177   0.004462  -0.045919
    11  C    0.021583  -0.046738   0.003568  -0.032206   0.000326   0.291767
    12  C    0.420484  -0.072899   0.000442   0.006150   0.006111  -0.057575
    13  C    4.598754   0.473794   0.003553   0.000352  -0.032103   0.002581
    14  C    0.473794   5.042953  -0.033744   0.004347   0.361966  -0.000016
    15  H    0.003553  -0.033744   0.581160  -0.005631  -0.005655  -0.000024
    16  H    0.000352   0.004347  -0.005631   0.585223  -0.000131  -0.000372
    17  H   -0.032103   0.361966  -0.005655  -0.000131   0.585311   0.000001
    18  F    0.002581  -0.000016  -0.000024  -0.000372   0.000001   9.093746
    19  F    0.294609  -0.044176  -0.000025   0.000001  -0.000611  -0.000001
    20  H    0.000000   0.000000   0.000000   0.000000   0.000000   0.000001
    21  H    0.000000   0.000000   0.000000   0.000000   0.000000  -0.000001
    22  H   -0.000002   0.000000   0.000000   0.000000   0.000000   0.001348
    23  H    0.000000   0.000000   0.000000   0.000000   0.000000   0.000000
    24  H    0.000000   0.000000   0.000000   0.000000   0.000000   0.000000
    25  H    0.000032   0.000000   0.000000   0.000000   0.000000   0.000000
    26  H    0.000019   0.000000   0.000000   0.000000   0.000000   0.000000
    27  H    0.000000   0.000000   0.000000   0.000000   0.000000   0.000000
    28  H    0.000000   0.000000   0.000000   0.000000   0.000000   0.000000
    29  H    0.004035  -0.000221   0.000000   0.000001   0.000002   0.002346
    30  H   -0.007282   0.000502   0.000000   0.000002  -0.000008   0.000168
    31  H    0.000006   0.000000   0.000000   0.000000   0.000000  -0.000004
    32  C    0.000000   0.000000   0.000000   0.000000   0.000000   0.000000
    33  H    0.000000   0.000000   0.000000   0.000000   0.000000   0.000000
    34  H    0.000000   0.000000   0.000000   0.000000   0.000000   0.000000
    35  H    0.000000   0.000000   0.000000   0.000000   0.000000   0.000000
    36  H   -0.000041   0.000006   0.000000   0.000005   0.000000   0.012696
              19         20         21         22         23         24
     1  C    0.000000   0.379472   0.385196   0.382612  -0.036304  -0.040407
     2  C    0.000000  -0.027066  -0.034362  -0.036796   0.381695   0.376091
     3  C    0.000005   0.003797  -0.005077  -0.004083  -0.036594  -0.033968
     4  C   -0.000003  -0.000130  -0.000070   0.000109  -0.003453  -0.008241
     5  C    0.000000   0.000001   0.000011  -0.000008  -0.001589   0.002329
     6  O    0.000000   0.000000   0.000000   0.000000  -0.000010  -0.000008
     7  N   -0.000057   0.000121  -0.000182   0.000933   0.004139  -0.002335
     8  C   -0.006791   0.000008  -0.000008  -0.000048  -0.000187   0.000051
     9  C    0.003034   0.000000   0.000000   0.000000   0.000000   0.000000
    10  C    0.000018   0.000000   0.000000   0.000005   0.000000   0.000000
    11  C    0.002800   0.000000   0.000001   0.000065   0.000000  -0.000007
    12  C   -0.047822   0.000000  -0.000002  -0.000077   0.000003   0.000015
    13  C    0.294609   0.000000   0.000000  -0.000002   0.000000   0.000000
    14  C   -0.044176   0.000000   0.000000   0.000000   0.000000   0.000000
    15  H   -0.000025   0.000000   0.000000   0.000000   0.000000   0.000000
    16  H    0.000001   0.000000   0.000000   0.000000   0.000000   0.000000
    17  H   -0.000611   0.000000   0.000000   0.000000   0.000000   0.000000
    18  F   -0.000001   0.000001  -0.000001   0.001348   0.000000   0.000000
    19  F    9.084557   0.000000   0.000000   0.000000   0.000000   0.000000
    20  H    0.000000   0.604132  -0.030773  -0.030549  -0.003053  -0.003208
    21  H    0.000000  -0.030773   0.601277  -0.032478  -0.004935   0.005260
    22  H    0.000000  -0.030549  -0.032478   0.607783   0.005131  -0.004651
    23  H    0.000000  -0.003053  -0.004935   0.005131   0.618690  -0.034679
    24  H    0.000000  -0.003208   0.005260  -0.004651  -0.034679   0.627784
    25  H   -0.000047   0.000003  -0.000006  -0.000001   0.000103  -0.000114
    26  H    0.000000  -0.000001   0.000000  -0.000001   0.000131   0.002255
    27  H    0.000000   0.000004  -0.000001   0.000001   0.000936   0.000484
    28  H    0.000000   0.000000   0.000000   0.000000   0.000001   0.000005
    29  H    0.000220  -0.000003   0.000020  -0.000102  -0.000001   0.000066
    30  H    0.012247   0.000000   0.000002   0.000008   0.000006  -0.000025
    31  H    0.000000   0.000022   0.006057  -0.000729  -0.000890   0.007115
    32  C    0.000000  -0.000002   0.000022  -0.000007   0.001001   0.000455
    33  H    0.000000   0.000012   0.000008   0.000001   0.004367   0.000020
    34  H    0.000000   0.000000   0.000000   0.000000  -0.000173  -0.000007
    35  H    0.000000   0.000000   0.000004   0.000001   0.000122   0.000009
    36  H   -0.000010  -0.000395  -0.000125   0.007170   0.000128   0.000023
              25         26         27         28         29         30
     1  C   -0.000134  -0.000064   0.000001   0.000000  -0.000039  -0.000009
     2  C    0.005466  -0.002651   0.004478   0.000003   0.000413   0.000021
     3  C   -0.035587  -0.001243  -0.003960  -0.000267  -0.008932  -0.001399
     4  C    0.371637  -0.045882  -0.038844   0.006077  -0.001171   0.002548
     5  C   -0.046643   0.371304   0.363712  -0.024446  -0.000018   0.000266
     6  O    0.004723  -0.035910  -0.039146   0.284539   0.000000  -0.000030
     7  N   -0.004224   0.016851   0.000468   0.000013  -0.048956  -0.045172
     8  C    0.000830  -0.000076  -0.000027   0.000000   0.351351   0.373421
     9  C    0.000000   0.000000   0.000000   0.000000   0.000012  -0.000036
    10  C    0.000000   0.000000   0.000000   0.000000  -0.000197  -0.000138
    11  C   -0.000015  -0.000005   0.000000   0.000000  -0.010962   0.005887
    12  C   -0.000258  -0.000003   0.000000   0.000000  -0.029456  -0.029934
    13  C    0.000032   0.000019   0.000000   0.000000   0.004035  -0.007282
    14  C    0.000000   0.000000   0.000000   0.000000  -0.000221   0.000502
    15  H    0.000000   0.000000   0.000000   0.000000   0.000000   0.000000
    16  H    0.000000   0.000000   0.000000   0.000000   0.000001   0.000002
    17  H    0.000000   0.000000   0.000000   0.000000   0.000002  -0.000008
    18  F    0.000000   0.000000   0.000000   0.000000   0.002346   0.000168
    19  F   -0.000047   0.000000   0.000000   0.000000   0.000220   0.012247
    20  H    0.000003  -0.000001   0.000004   0.000000  -0.000003   0.000000
    21  H   -0.000006   0.000000  -0.000001   0.000000   0.000020   0.000002
    22  H   -0.000001  -0.000001   0.000001   0.000000  -0.000102   0.000008
    23  H    0.000103   0.000131   0.000936   0.000001  -0.000001   0.000006
    24  H   -0.000114   0.002255   0.000484   0.000005   0.000066  -0.000025
    25  H    0.656376  -0.006233   0.007729  -0.000088   0.000253   0.003085
    26  H   -0.006233   0.657021  -0.054052  -0.003173   0.000067  -0.000266
    27  H    0.007729  -0.054052   0.691919  -0.004121   0.000002  -0.000010
    28  H   -0.000088  -0.003173  -0.004121   0.423588   0.000000   0.000000
    29  H    0.000253   0.000067   0.000002   0.000000   0.679106  -0.048087
    30  H    0.003085  -0.000266  -0.000010   0.000000  -0.048087   0.606993
    31  H   -0.004235   0.000492  -0.000066   0.000005   0.014849  -0.002207
    32  C   -0.044771   0.006650  -0.011453   0.000213   0.000064  -0.000368
    33  H    0.005753  -0.000039   0.005110  -0.000019   0.000002   0.000002
    34  H   -0.003775   0.000271   0.000000  -0.000455  -0.000001   0.000013
    35  H   -0.004249  -0.000166  -0.000015   0.000006   0.000008   0.000011
    36  H   -0.000101  -0.000463  -0.000024   0.000000  -0.004698   0.006287
              31         32         33         34         35         36
     1  C   -0.009440  -0.000007  -0.000196   0.000002  -0.000036   0.002900
     2  C   -0.049564  -0.006441   0.001041   0.000084  -0.000150  -0.008236
     3  C    0.375263  -0.035620  -0.005650   0.004211  -0.005154  -0.038709
     4  C   -0.062644   0.351960  -0.034628  -0.029132  -0.030159   0.005378
     5  C    0.005516  -0.044489  -0.005525  -0.006206   0.005078   0.000297
     6  O   -0.000057  -0.002589  -0.000164   0.010330   0.000044   0.000001
     7  N   -0.054852   0.003565   0.000000  -0.000108   0.000044   0.333103
     8  C   -0.009707   0.000013  -0.000002  -0.000001  -0.000001  -0.041772
     9  C    0.000000   0.000000   0.000000   0.000000   0.000000  -0.000018
    10  C   -0.000001   0.000000   0.000000   0.000000   0.000000  -0.000089
    11  C   -0.000073   0.000000   0.000000   0.000000   0.000000   0.004100
    12  C    0.000542   0.000001   0.000000   0.000000   0.000000  -0.010561
    13  C    0.000006   0.000000   0.000000   0.000000   0.000000  -0.000041
    14  C    0.000000   0.000000   0.000000   0.000000   0.000000   0.000006
    15  H    0.000000   0.000000   0.000000   0.000000   0.000000   0.000000
    16  H    0.000000   0.000000   0.000000   0.000000   0.000000   0.000005
    17  H    0.000000   0.000000   0.000000   0.000000   0.000000   0.000000
    18  F   -0.000004   0.000000   0.000000   0.000000   0.000000   0.012696
    19  F    0.000000   0.000000   0.000000   0.000000   0.000000  -0.000010
    20  H    0.000022  -0.000002   0.000012   0.000000   0.000000  -0.000395
    21  H    0.006057   0.000022   0.000008   0.000000   0.000004  -0.000125
    22  H   -0.000729  -0.000007   0.000001   0.000000   0.000001   0.007170
    23  H   -0.000890   0.001001   0.004367  -0.000173   0.000122   0.000128
    24  H    0.007115   0.000455   0.000020  -0.000007   0.000009   0.000023
    25  H   -0.004235  -0.044771   0.005753  -0.003775  -0.004249  -0.000101
    26  H    0.000492   0.006650  -0.000039   0.000271  -0.000166  -0.000463
    27  H   -0.000066  -0.011453   0.005110   0.000000  -0.000015  -0.000024
    28  H    0.000005   0.000213  -0.000019  -0.000455   0.000006   0.000000
    29  H    0.014849   0.000064   0.000002  -0.000001   0.000008  -0.004698
    30  H   -0.002207  -0.000368   0.000002   0.000013   0.000011   0.006287
    31  H    0.712417  -0.001666  -0.000326  -0.000066   0.006232   0.001280
    32  C   -0.001666   4.972106   0.379809   0.379296   0.378190  -0.000184
    33  H   -0.000326   0.379809   0.614856  -0.030119  -0.033081   0.000000
    34  H   -0.000066   0.379296  -0.030119   0.590086  -0.030262   0.000003
    35  H    0.006232   0.378190  -0.033081  -0.030262   0.614947  -0.000002
    36  H    0.001280  -0.000184   0.000000   0.000003  -0.000002   0.484082
 Mulliken charges:
               1
     1  C   -0.330261
     2  C   -0.208678
     3  C    0.092354
     4  C   -0.057906
     5  C    0.064193
     6  O   -0.573736
     7  N   -0.532458
     8  C   -0.082515
     9  C   -0.100427
    10  C   -0.137918
    11  C    0.320251
    12  C   -0.023322
    13  C    0.316239
    14  C   -0.139773
    15  H    0.117423
    16  H    0.117193
    17  H    0.116965
    18  F   -0.303420
    19  F   -0.297948
    20  H    0.107610
    21  H    0.110162
    22  H    0.104364
    23  H    0.105416
    24  H    0.105688
    25  H    0.094496
    26  H    0.095166
    27  H    0.076877
    28  H    0.318120
    29  H    0.100031
    30  H    0.123505
    31  H    0.066730
    32  C   -0.325746
    33  H    0.098768
    34  H    0.116008
    35  H    0.098580
    36  H    0.247970
 Sum of Mulliken charges =   0.00000
 Mulliken charges with hydrogens summed into heavy atoms:
               1
     1  C   -0.008125
     2  C    0.002426
     3  C    0.159084
     4  C    0.036589
     5  C    0.236236
     6  O   -0.255616
     7  N   -0.284488
     8  C    0.141020
     9  C    0.016996
    10  C   -0.020725
    11  C    0.320251
    12  C   -0.023322
    13  C    0.316239
    14  C   -0.022807
    18  F   -0.303420
    19  F   -0.297948
    32  C   -0.012390
 Electronic spatial extent (au):  <R**2>=           5356.2337
 Charge=              0.0000 electrons
 Dipole moment (field-independent basis, Debye):
    X=              1.6114    Y=              1.6400    Z=             -1.3723  Tot=              2.6776
 Quadrupole moment (field-independent basis, Debye-Ang):
   XX=            -88.3447   YY=           -103.4135   ZZ=            -96.9187
   XY=             -4.4611   XZ=              1.5948   YZ=              3.2737
 Traceless Quadrupole moment (field-independent basis, Debye-Ang):
   XX=              7.8809   YY=             -7.1878   ZZ=             -0.6931
   XY=             -4.4611   XZ=              1.5948   YZ=              3.2737
 Octapole moment (field-independent basis, Debye-Ang**2):
  XXX=             83.6861  YYY=             -6.7089  ZZZ=             -7.4336  XYY=              9.9574
  XXY=              0.9895  XXZ=            -39.9667  XZZ=            -16.8663  YZZ=            -14.6173
  YYZ=            -17.7072  XYZ=            -13.6338
 Hexadecapole moment (field-independent basis, Debye-Ang**3):
 XXXX=          -4549.2245 YYYY=          -1630.8541 ZZZZ=           -390.5550 XXXY=            -20.3665
 XXXZ=             -4.6253 YYYX=             16.0358 YYYZ=             38.8054 ZZZX=             68.8056
 ZZZY=             32.5281 XXYY=          -1042.0392 XXZZ=           -844.1874 YYZZ=           -297.4810
 XXYZ=             49.3197 YYXZ=             42.2685 ZZXY=             61.3549
 N-N= 1.254925417323D+03 E-N=-4.464129200364D+03  KE= 8.290995153224D+02
 D1PCM: PCM CHGder 1st derivatives, ID1Alg=3 FixD1E=F DoIter=F DoCFld=F I1PDM=0.
 Calling FoFJK, ICntrl=      2127 FMM=F ISym2X=0 I1Cent= 0 IOpClX= 0 NMat=1 NMatS=1 NMatT=0.
 ***** Axes restored to original set *****
 -------------------------------------------------------------------
 Center     Atomic                   Forces (Hartrees/Bohr)
 Number     Number              X              Y              Z
 -------------------------------------------------------------------
      1        6          -0.000001941    0.000004004   -0.000001250
      2        6          -0.000002676    0.000005964    0.000002316
      3        6          -0.000016134    0.000000388    0.000002783
      4        6           0.000005430   -0.000015146    0.000001015
      5        6          -0.000005751   -0.000001151    0.000005997
      6        8           0.000009444   -0.000005298    0.000000174
      7        7           0.000007903   -0.000005968   -0.000001596
      8        6           0.000005829    0.000013156   -0.000014074
      9        6          -0.000001071   -0.000000293    0.000009352
     10        6           0.000014978    0.000003723   -0.000012383
     11        6          -0.000023249   -0.000004242   -0.000001964
     12        6           0.000003502   -0.000005777    0.000024791
     13        6           0.000005702    0.000007997   -0.000010069
     14        6          -0.000005328   -0.000004393   -0.000006504
     15        1           0.000000508   -0.000000709   -0.000000556
     16        1          -0.000001470    0.000004351    0.000001268
     17        1          -0.000000585   -0.000003996   -0.000003196
     18        9           0.000009628    0.000010741   -0.000008770
     19        9           0.000000997   -0.000007087   -0.000001729
     20        1           0.000000472    0.000005867    0.000003155
     21        1           0.000000132    0.000005897   -0.000000371
     22        1           0.000000216    0.000005311    0.000003459
     23        1          -0.000001990    0.000001257    0.000002842
     24        1           0.000002183    0.000004880    0.000003528
     25        1          -0.000001526    0.000000287   -0.000003108
     26        1           0.000003487    0.000003407    0.000005028
     27        1           0.000000563   -0.000002623    0.000003285
     28        1          -0.000008389   -0.000008145    0.000002705
     29        1           0.000000843   -0.000001679   -0.000004770
     30        1           0.000000557   -0.000003135    0.000000182
     31        1           0.000004579   -0.000002071   -0.000002964
     32        6          -0.000002950    0.000005674    0.000000839
     33        1          -0.000002597   -0.000002097   -0.000000470
     34        1           0.000000035   -0.000005539   -0.000004643
     35        1           0.000000639   -0.000002115   -0.000002175
     36        1          -0.000001969   -0.000001441    0.000007871
 -------------------------------------------------------------------
 Cartesian Forces:  Max     0.000024791 RMS     0.000006326

 GradGradGradGradGradGradGradGradGradGradGradGradGradGradGradGradGradGrad
 Berny optimization.
 FormGI is forming the generalized inverse of G from B-inverse, IUseBI=4.
 Internal  Forces:  Max     0.000015744 RMS     0.000003516
 Search for a local minimum.
 Step number   1 out of a maximum of  100
 All quantities printed in internal units (Hartrees-Bohrs-Radians)
 Mixed Optimization -- En-DIIS/RFO-DIIS
 Second derivative matrix not updated -- first step.
 ITU=  0
     Eigenvalues ---    0.00230   0.00230   0.00306   0.00310   0.00376
     Eigenvalues ---    0.00620   0.00691   0.00783   0.01286   0.01490
     Eigenvalues ---    0.02143   0.02147   0.02169   0.02171   0.02185
     Eigenvalues ---    0.02190   0.02195   0.02212   0.02776   0.03104
     Eigenvalues ---    0.03349   0.03758   0.04694   0.04740   0.04765
     Eigenvalues ---    0.04979   0.05054   0.05302   0.05323   0.05392
     Eigenvalues ---    0.05482   0.05546   0.05870   0.05948   0.06516
     Eigenvalues ---    0.08481   0.09827   0.11043   0.11071   0.12321
     Eigenvalues ---    0.13184   0.13616   0.16000   0.16000   0.16000
     Eigenvalues ---    0.16000   0.16000   0.16000   0.16000   0.16000
     Eigenvalues ---    0.16000   0.16000   0.17177   0.17391   0.17493
     Eigenvalues ---    0.17851   0.21927   0.21953   0.21984   0.22082
     Eigenvalues ---    0.23520   0.23523   0.24901   0.24999   0.24999
     Eigenvalues ---    0.25000   0.27416   0.28440   0.28989   0.29016
     Eigenvalues ---    0.29472   0.31245   0.32876   0.33148   0.33527
     Eigenvalues ---    0.33830   0.33896   0.33949   0.34131   0.34136
     Eigenvalues ---    0.34178   0.34193   0.34251   0.34301   0.34507
     Eigenvalues ---    0.34617   0.35074   0.35411   0.35534   0.35542
     Eigenvalues ---    0.35894   0.40896   0.42398   0.42672   0.44982
     Eigenvalues ---    0.46263   0.46371   0.46735   0.47508   0.53070
     Eigenvalues ---    0.54227   0.54414
 RFO step:  Lambda=-3.61858545D-08 EMin= 2.30000000D-03
 Linear search not attempted -- first point.
 Iteration  1 RMS(Cart)=  0.00078266 RMS(Int)=  0.00000012
 Iteration  2 RMS(Cart)=  0.00000023 RMS(Int)=  0.00000000
 Variable       Old X    -DE/DX   Delta X   Delta X   Delta X     New X
                                 (Linear)    (Quad)   (Total)
    R1        2.89970   0.00000   0.00000   0.00001   0.00001   2.89970
    R2        2.06826   0.00000   0.00000   0.00000   0.00000   2.06826
    R3        2.07031   0.00000   0.00000   0.00000   0.00000   2.07031
    R4        2.07102   0.00000   0.00000   0.00000   0.00000   2.07102
    R5        2.91187   0.00000   0.00000   0.00001   0.00001   2.91187
    R6        2.06908   0.00000   0.00000   0.00000   0.00000   2.06908
    R7        2.07417   0.00000   0.00000   0.00000   0.00000   2.07417
    R8        2.93434   0.00000   0.00000   0.00000   0.00000   2.93434
    R9        2.78854  -0.00001   0.00000  -0.00004  -0.00004   2.78850
   R10        2.09270   0.00000   0.00000   0.00001   0.00001   2.09271
   R11        2.89029   0.00001   0.00000   0.00003   0.00003   2.89031
   R12        2.07618   0.00000   0.00000  -0.00001  -0.00001   2.07617
   R13        2.90026  -0.00001   0.00000  -0.00002  -0.00002   2.90024
   R14        2.70353   0.00000   0.00000  -0.00001  -0.00001   2.70353
   R15        2.07506   0.00000   0.00000   0.00000   0.00000   2.07505
   R16        2.08135   0.00000   0.00000   0.00000   0.00000   2.08135
   R17        1.82526   0.00000   0.00000   0.00000   0.00000   1.82525
   R18        2.77548  -0.00001   0.00000  -0.00003  -0.00003   2.77545
   R19        1.91996  -0.00001   0.00000  -0.00002  -0.00002   1.91995
   R20        2.85548   0.00000   0.00000  -0.00001  -0.00001   2.85548
   R21        2.08791   0.00000   0.00000   0.00001   0.00001   2.08792
   R22        2.06301   0.00000   0.00000   0.00001   0.00001   2.06302
   R23        2.63891   0.00001   0.00000   0.00002   0.00002   2.63893
   R24        2.63560   0.00000   0.00000  -0.00001  -0.00001   2.63559
   R25        2.05012   0.00000   0.00000   0.00000   0.00000   2.05012
   R26        2.62221  -0.00001   0.00000  -0.00002  -0.00002   2.62219
   R27        2.04804   0.00000   0.00000   0.00000   0.00000   2.04803
   R28        2.63857   0.00001   0.00000   0.00003   0.00003   2.63860
   R29        2.56888   0.00001   0.00000   0.00002   0.00002   2.56891
   R30        2.63776  -0.00001   0.00000  -0.00002  -0.00002   2.63774
   R31        2.62840   0.00000   0.00000   0.00001   0.00001   2.62841
   R32        2.55657   0.00000   0.00000   0.00000   0.00000   2.55657
   R33        2.04816   0.00000   0.00000   0.00000   0.00000   2.04816
   R34        2.07109   0.00000   0.00000  -0.00001  -0.00001   2.07108
   R35        2.06483   0.00000   0.00000  -0.00001  -0.00001   2.06482
   R36        2.07006   0.00000   0.00000   0.00000   0.00000   2.07006
    A1        1.93579   0.00000   0.00000   0.00001   0.00001   1.93579
    A2        1.93560   0.00000   0.00000   0.00000   0.00000   1.93561
    A3        1.96401   0.00000   0.00000  -0.00002  -0.00002   1.96399
    A4        1.88123   0.00000   0.00000   0.00000   0.00000   1.88122
    A5        1.87025   0.00000   0.00000   0.00001   0.00001   1.87026
    A6        1.87327   0.00000   0.00000   0.00000   0.00000   1.87326
    A7        1.98607  -0.00001   0.00000  -0.00003  -0.00003   1.98605
    A8        1.89562   0.00000   0.00000   0.00001   0.00001   1.89563
    A9        1.91543   0.00000   0.00000   0.00001   0.00001   1.91544
   A10        1.90683   0.00000   0.00000  -0.00002  -0.00002   1.90681
   A11        1.89829   0.00000   0.00000   0.00004   0.00004   1.89833
   A12        1.85723   0.00000   0.00000  -0.00001  -0.00001   1.85722
   A13        1.98761   0.00000   0.00000   0.00001   0.00001   1.98762
   A14        1.90459   0.00000   0.00000  -0.00001  -0.00001   1.90458
   A15        1.86945   0.00000   0.00000  -0.00003  -0.00003   1.86943
   A16        1.92151   0.00001   0.00000   0.00005   0.00005   1.92156
   A17        1.85633   0.00000   0.00000  -0.00001  -0.00001   1.85632
   A18        1.92284   0.00000   0.00000  -0.00001  -0.00001   1.92284
   A19        1.96109   0.00000   0.00000   0.00001   0.00001   1.96109
   A20        1.86216   0.00000   0.00000   0.00001   0.00001   1.86216
   A21        1.96430   0.00000   0.00000  -0.00003  -0.00003   1.96427
   A22        1.84386   0.00000   0.00000   0.00001   0.00001   1.84387
   A23        1.95183   0.00000   0.00000  -0.00002  -0.00002   1.95180
   A24        1.87168   0.00000   0.00000   0.00004   0.00004   1.87172
   A25        1.88561   0.00000   0.00000  -0.00001  -0.00001   1.88560
[...]
    31  H   -0.009442  -0.049552   0.375266  -0.062654   0.005515  -0.000057
    32  C   -0.000007  -0.006434  -0.035620   0.351946  -0.044492  -0.002590
    33  H   -0.000196   0.001043  -0.005650  -0.034628  -0.005525  -0.000163
    34  H    0.000002   0.000084   0.004212  -0.029132  -0.006206   0.010329
    35  H   -0.000036  -0.000149  -0.005157  -0.030157   0.005078   0.000044
    36  H    0.002900  -0.008239  -0.038719   0.005377   0.000296   0.000001
               7          8          9         10         11         12
     1  C   -0.004337   0.000191   0.000000  -0.000001  -0.000019   0.000022
     2  C   -0.042811   0.004021   0.000000   0.000000  -0.000052  -0.000213
     3  C    0.278882  -0.030915   0.000000   0.000008   0.000464   0.004205
     4  C   -0.059597  -0.003813   0.000000   0.000000  -0.000002   0.000065
     5  C   -0.011480   0.000293   0.000000   0.000000   0.000003  -0.000008
     6  O    0.000024  -0.000003   0.000000   0.000000   0.000000  -0.000001
     7  N    6.930158   0.282391   0.000021  -0.000171  -0.007507  -0.035020
     8  C    0.282391   4.938793  -0.000653   0.008335  -0.052893   0.303929
     9  C    0.000021  -0.000653   4.862931   0.485998  -0.006425  -0.027418
    10  C   -0.000171   0.008335   0.485998   5.042341   0.483895  -0.081071
    11  C   -0.007507  -0.052893  -0.006425   0.483895   4.637855   0.384366
    12  C   -0.035020   0.303929  -0.027418  -0.081071   0.384366   5.289296
    13  C    0.003400  -0.046372  -0.004358  -0.049177   0.021586   0.420489
    14  C   -0.000077   0.007547   0.483357  -0.036827  -0.046738  -0.072898
    15  H    0.000000   0.000005   0.373663  -0.034736   0.003568   0.000442
    16  H    0.000001  -0.000134  -0.035976   0.361179  -0.032206   0.006149
    17  H    0.000001  -0.000118  -0.036520   0.004462   0.000326   0.006111
    18  F   -0.004746   0.004862   0.002819  -0.045918   0.291744  -0.057570
    19  F   -0.000057  -0.006789   0.003034   0.000018   0.002800  -0.047823
    20  H    0.000121   0.000008   0.000000   0.000000   0.000000   0.000000
    21  H   -0.000183  -0.000008   0.000000   0.000000   0.000001  -0.000002
    22  H    0.000932  -0.000048   0.000000   0.000006   0.000065  -0.000078
    23  H    0.004139  -0.000187   0.000000   0.000000   0.000000   0.000003
    24  H   -0.002339   0.000051   0.000000   0.000000  -0.000007   0.000015
    25  H   -0.004223   0.000830   0.000000   0.000000  -0.000015  -0.000258
    26  H    0.016832  -0.000076   0.000000   0.000000  -0.000005  -0.000003
    27  H    0.000467  -0.000027   0.000000   0.000000   0.000000   0.000000
    28  H    0.000013   0.000000   0.000000   0.000000   0.000000   0.000000
    29  H   -0.048964   0.351352   0.000012  -0.000197  -0.010962  -0.029453
    30  H   -0.045172   0.373425  -0.000036  -0.000138   0.005886  -0.029935
    31  H   -0.054857  -0.009711   0.000000  -0.000001  -0.000073   0.000543
    32  C    0.003565   0.000013   0.000000   0.000000   0.000000   0.000001
    33  H    0.000000  -0.000002   0.000000   0.000000   0.000000   0.000000
    34  H   -0.000108  -0.000001   0.000000   0.000000   0.000000   0.000000
    35  H    0.000044  -0.000001   0.000000   0.000000   0.000000   0.000000
    36  H    0.333126  -0.041793  -0.000018  -0.000090   0.004096  -0.010561
              13         14         15         16         17         18
     1  C    0.000000   0.000000   0.000000   0.000000   0.000000  -0.000251
     2  C    0.000001   0.000000   0.000000   0.000000   0.000000  -0.000023
     3  C   -0.000112   0.000003   0.000000   0.000000   0.000000   0.000009
     4  C    0.000014   0.000000   0.000000   0.000000   0.000000  -0.000001
     5  C   -0.000009   0.000000   0.000000   0.000000   0.000000   0.000000
     6  O    0.000000   0.000000   0.000000   0.000000   0.000000   0.000000
     7  N    0.003400  -0.000077   0.000000   0.000001   0.000001  -0.004746
     8  C   -0.046372   0.007547   0.000005  -0.000134  -0.000118   0.004862
     9  C   -0.004358   0.483357   0.373663  -0.035976  -0.036520   0.002819
    10  C   -0.049177  -0.036827  -0.034736   0.361179   0.004462  -0.045918
    11  C    0.021586  -0.046738   0.003568  -0.032206   0.000326   0.291744
    12  C    0.420489  -0.072898   0.000442   0.006149   0.006111  -0.057570
    13  C    4.598763   0.473777   0.003553   0.000352  -0.032103   0.002581
    14  C    0.473777   5.042959  -0.033744   0.004347   0.361968  -0.000016
    15  H    0.003553  -0.033744   0.581158  -0.005630  -0.005655  -0.000024
    16  H    0.000352   0.004347  -0.005630   0.585216  -0.000131  -0.000372
    17  H   -0.032103   0.361968  -0.005655  -0.000131   0.585307   0.000001
    18  F    0.002581  -0.000016  -0.000024  -0.000372   0.000001   9.093750
    19  F    0.294613  -0.044176  -0.000025   0.000001  -0.000611  -0.000001
    20  H    0.000000   0.000000   0.000000   0.000000   0.000000   0.000001
    21  H    0.000000   0.000000   0.000000   0.000000   0.000000  -0.000001
    22  H   -0.000002   0.000000   0.000000   0.000000   0.000000   0.001358
    23  H    0.000000   0.000000   0.000000   0.000000   0.000000   0.000000
    24  H    0.000000   0.000000   0.000000   0.000000   0.000000   0.000000
    25  H    0.000032   0.000000   0.000000   0.000000   0.000000   0.000000
    26  H    0.000019   0.000000   0.000000   0.000000   0.000000   0.000000
    27  H    0.000000   0.000000   0.000000   0.000000   0.000000   0.000000
    28  H    0.000000   0.000000   0.000000   0.000000   0.000000   0.000000
    29  H    0.004033  -0.000221   0.000000   0.000001   0.000002   0.002345
    30  H   -0.007279   0.000502   0.000000   0.000002  -0.000008   0.000168
    31  H    0.000006   0.000000   0.000000   0.000000   0.000000  -0.000004
    32  C    0.000000   0.000000   0.000000   0.000000   0.000000   0.000000
    33  H    0.000000   0.000000   0.000000   0.000000   0.000000   0.000000
    34  H    0.000000   0.000000   0.000000   0.000000   0.000000   0.000000
    35  H    0.000000   0.000000   0.000000   0.000000   0.000000   0.000000
    36  H   -0.000040   0.000006   0.000000   0.000005   0.000000   0.012709
              19         20         21         22         23         24
     1  C    0.000000   0.379469   0.385193   0.382599  -0.036302  -0.040408
     2  C    0.000000  -0.027066  -0.034361  -0.036798   0.381693   0.376095
     3  C    0.000005   0.003797  -0.005076  -0.004084  -0.036593  -0.033962
     4  C   -0.000003  -0.000130  -0.000070   0.000109  -0.003446  -0.008244
     5  C    0.000000   0.000001   0.000011  -0.000008  -0.001592   0.002330
     6  O    0.000000   0.000000   0.000000   0.000000  -0.000010  -0.000008
     7  N   -0.000057   0.000121  -0.000183   0.000932   0.004139  -0.002339
     8  C   -0.006789   0.000008  -0.000008  -0.000048  -0.000187   0.000051
     9  C    0.003034   0.000000   0.000000   0.000000   0.000000   0.000000
    10  C    0.000018   0.000000   0.000000   0.000006   0.000000   0.000000
    11  C    0.002800   0.000000   0.000001   0.000065   0.000000  -0.000007
    12  C   -0.047823   0.000000  -0.000002  -0.000078   0.000003   0.000015
    13  C    0.294613   0.000000   0.000000  -0.000002   0.000000   0.000000
    14  C   -0.044176   0.000000   0.000000   0.000000   0.000000   0.000000
    15  H   -0.000025   0.000000   0.000000   0.000000   0.000000   0.000000
    16  H    0.000001   0.000000   0.000000   0.000000   0.000000   0.000000
    17  H   -0.000611   0.000000   0.000000   0.000000   0.000000   0.000000
    18  F   -0.000001   0.000001  -0.000001   0.001358   0.000000   0.000000
    19  F    9.084557   0.000000   0.000000   0.000000   0.000000   0.000000
    20  H    0.000000   0.604131  -0.030773  -0.030545  -0.003053  -0.003208
    21  H    0.000000  -0.030773   0.601276  -0.032477  -0.004935   0.005260
    22  H    0.000000  -0.030545  -0.032477   0.607783   0.005131  -0.004651
    23  H    0.000000  -0.003053  -0.004935   0.005131   0.618695  -0.034683
    24  H    0.000000  -0.003208   0.005260  -0.004651  -0.034683   0.627781
    25  H   -0.000047   0.000003  -0.000006  -0.000001   0.000102  -0.000114
    26  H    0.000000  -0.000001   0.000000  -0.000001   0.000131   0.002258
    27  H    0.000000   0.000004  -0.000001   0.000001   0.000936   0.000482
    28  H    0.000000   0.000000   0.000000   0.000000   0.000001   0.000005
    29  H    0.000220  -0.000003   0.000020  -0.000102  -0.000001   0.000066
    30  H    0.012243   0.000000   0.000002   0.000008   0.000006  -0.000025
    31  H    0.000000   0.000022   0.006058  -0.000730  -0.000894   0.007114
    32  C    0.000000  -0.000002   0.000022  -0.000007   0.001001   0.000455
    33  H    0.000000   0.000012   0.000008   0.000001   0.004365   0.000020
    34  H    0.000000   0.000000   0.000000   0.000000  -0.000173  -0.000007
    35  H    0.000000   0.000000   0.000003   0.000001   0.000122   0.000009
    36  H   -0.000010  -0.000396  -0.000125   0.007174   0.000128   0.000025
              25         26         27         28         29         30
     1  C   -0.000134  -0.000064   0.000001   0.000000  -0.000040  -0.000009
     2  C    0.005465  -0.002654   0.004480   0.000003   0.000414   0.000021
     3  C   -0.035592  -0.001237  -0.003964  -0.000267  -0.008939  -0.001396
     4  C    0.371639  -0.045877  -0.038842   0.006077  -0.001172   0.002549
     5  C   -0.046635   0.371300   0.363714  -0.024446  -0.000018   0.000265
     6  O    0.004723  -0.035908  -0.039152   0.284539   0.000000  -0.000030
     7  N   -0.004223   0.016832   0.000467   0.000013  -0.048964  -0.045172
     8  C    0.000830  -0.000076  -0.000027   0.000000   0.351352   0.373425
     9  C    0.000000   0.000000   0.000000   0.000000   0.000012  -0.000036
    10  C    0.000000   0.000000   0.000000   0.000000  -0.000197  -0.000138
    11  C   -0.000015  -0.000005   0.000000   0.000000  -0.010962   0.005886
    12  C   -0.000258  -0.000003   0.000000   0.000000  -0.029453  -0.029935
    13  C    0.000032   0.000019   0.000000   0.000000   0.004033  -0.007279
    14  C    0.000000   0.000000   0.000000   0.000000  -0.000221   0.000502
    15  H    0.000000   0.000000   0.000000   0.000000   0.000000   0.000000
    16  H    0.000000   0.000000   0.000000   0.000000   0.000001   0.000002
    17  H    0.000000   0.000000   0.000000   0.000000   0.000002  -0.000008
    18  F    0.000000   0.000000   0.000000   0.000000   0.002345   0.000168
    19  F   -0.000047   0.000000   0.000000   0.000000   0.000220   0.012243
    20  H    0.000003  -0.000001   0.000004   0.000000  -0.000003   0.000000
    21  H   -0.000006   0.000000  -0.000001   0.000000   0.000020   0.000002
    22  H   -0.000001  -0.000001   0.000001   0.000000  -0.000102   0.000008
    23  H    0.000102   0.000131   0.000936   0.000001  -0.000001   0.000006
    24  H   -0.000114   0.002258   0.000482   0.000005   0.000066  -0.000025
    25  H    0.656361  -0.006232   0.007728  -0.000088   0.000253   0.003083
    26  H   -0.006232   0.657051  -0.054060  -0.003177   0.000067  -0.000265
    27  H    0.007728  -0.054060   0.691924  -0.004118   0.000002  -0.000010
    28  H   -0.000088  -0.003177  -0.004118   0.423587   0.000000   0.000000
    29  H    0.000253   0.000067   0.000002   0.000000   0.679110  -0.048092
    30  H    0.003083  -0.000265  -0.000010   0.000000  -0.048092   0.607002
    31  H   -0.004226   0.000492  -0.000066   0.000005   0.014855  -0.002207
    32  C   -0.044773   0.006650  -0.011454   0.000213   0.000064  -0.000368
    33  H    0.005753  -0.000039   0.005110  -0.000019   0.000002   0.000002
    34  H   -0.003775   0.000271   0.000000  -0.000455  -0.000001   0.000013
    35  H   -0.004250  -0.000166  -0.000015   0.000006   0.000008   0.000011
    36  H   -0.000100  -0.000463  -0.000024   0.000000  -0.004694   0.006286
              31         32         33         34         35         36
     1  C   -0.009442  -0.000007  -0.000196   0.000002  -0.000036   0.002900
     2  C   -0.049552  -0.006434   0.001043   0.000084  -0.000149  -0.008239
     3  C    0.375266  -0.035620  -0.005650   0.004212  -0.005157  -0.038719
     4  C   -0.062654   0.351946  -0.034628  -0.029132  -0.030157   0.005377
     5  C    0.005515  -0.044492  -0.005525  -0.006206   0.005078   0.000296
     6  O   -0.000057  -0.002590  -0.000163   0.010329   0.000044   0.000001
     7  N   -0.054857   0.003565   0.000000  -0.000108   0.000044   0.333126
     8  C   -0.009711   0.000013  -0.000002  -0.000001  -0.000001  -0.041793
     9  C    0.000000   0.000000   0.000000   0.000000   0.000000  -0.000018
    10  C   -0.000001   0.000000   0.000000   0.000000   0.000000  -0.000090
    11  C   -0.000073   0.000000   0.000000   0.000000   0.000000   0.004096
    12  C    0.000543   0.000001   0.000000   0.000000   0.000000  -0.010561
    13  C    0.000006   0.000000   0.000000   0.000000   0.000000  -0.000040
    14  C    0.000000   0.000000   0.000000   0.000000   0.000000   0.000006
    15  H    0.000000   0.000000   0.000000   0.000000   0.000000   0.000000
    16  H    0.000000   0.000000   0.000000   0.000000   0.000000   0.000005
    17  H    0.000000   0.000000   0.000000   0.000000   0.000000   0.000000
    18  F   -0.000004   0.000000   0.000000   0.000000   0.000000   0.012709
    19  F    0.000000   0.000000   0.000000   0.000000   0.000000  -0.000010
    20  H    0.000022  -0.000002   0.000012   0.000000   0.000000  -0.000396
    21  H    0.006058   0.000022   0.000008   0.000000   0.000003  -0.000125
    22  H   -0.000730  -0.000007   0.000001   0.000000   0.000001   0.007174
    23  H   -0.000894   0.001001   0.004365  -0.000173   0.000122   0.000128
    24  H    0.007114   0.000455   0.000020  -0.000007   0.000009   0.000025
    25  H   -0.004226  -0.044773   0.005753  -0.003775  -0.004250  -0.000100
    26  H    0.000492   0.006650  -0.000039   0.000271  -0.000166  -0.000463
    27  H   -0.000066  -0.011454   0.005110   0.000000  -0.000015  -0.000024
    28  H    0.000005   0.000213  -0.000019  -0.000455   0.000006   0.000000
    29  H    0.014855   0.000064   0.000002  -0.000001   0.000008  -0.004694
    30  H   -0.002207  -0.000368   0.000002   0.000013   0.000011   0.006286
    31  H    0.712410  -0.001666  -0.000326  -0.000065   0.006233   0.001285
    32  C   -0.001666   4.972117   0.379809   0.379298   0.378190  -0.000184
    33  H   -0.000326   0.379809   0.614859  -0.030120  -0.033080   0.000000
    34  H   -0.000065   0.379298  -0.030120   0.590086  -0.030263   0.000003
    35  H    0.006233   0.378190  -0.033080  -0.030263   0.614947  -0.000002
    36  H    0.001285  -0.000184   0.000000   0.000003  -0.000002   0.484064
 Mulliken charges:
               1
     1  C   -0.330269
     2  C   -0.208686
     3  C    0.092349
     4  C   -0.057878
     5  C    0.064182
     6  O   -0.573733
     7  N   -0.532469
     8  C   -0.082500
     9  C   -0.100431
    10  C   -0.137911
    11  C    0.320249
    12  C   -0.023327
    13  C    0.316231
    14  C   -0.139768
    15  H    0.117425
    16  H    0.117198
    17  H    0.116968
    18  F   -0.303420
    19  F   -0.297949
    20  H    0.107609
    21  H    0.110162
    22  H    0.104363
    23  H    0.105416
    24  H    0.105690
    25  H    0.094497
    26  H    0.095154
    27  H    0.076882
    28  H    0.318120
    29  H    0.100033
    30  H    0.123496
    31  H    0.066728
    32  C   -0.325746
    33  H    0.098766
    34  H    0.116009
    35  H    0.098581
    36  H    0.247978
 Sum of Mulliken charges =   0.00000
 Mulliken charges with hydrogens summed into heavy atoms:
               1
     1  C   -0.008134
     2  C    0.002420
     3  C    0.159076
     4  C    0.036619
     5  C    0.236219
     6  O   -0.255612
     7  N   -0.284492
     8  C    0.141030
     9  C    0.016994
    10  C   -0.020713
    11  C    0.320249
    12  C   -0.023327
    13  C    0.316231
    14  C   -0.022800
    18  F   -0.303420
    19  F   -0.297949
    32  C   -0.012390
 Electronic spatial extent (au):  <R**2>=           5356.5340
 Charge=              0.0000 electrons
 Dipole moment (field-independent basis, Debye):
    X=              1.6119    Y=              1.6409    Z=             -1.3720  Tot=              2.6783
 Quadrupole moment (field-independent basis, Debye-Ang):
   XX=            -88.3417   YY=           -103.4169   ZZ=            -96.9167
   XY=             -4.4604   XZ=              1.5974   YZ=              3.2698
 Traceless Quadrupole moment (field-independent basis, Debye-Ang):
   XX=              7.8834   YY=             -7.1918   ZZ=             -0.6916
   XY=             -4.4604   XZ=              1.5974   YZ=              3.2698
 Octapole moment (field-independent basis, Debye-Ang**2):
  XXX=             83.6892  YYY=             -6.6891  ZZZ=             -7.4515  XYY=              9.9636
  XXY=              0.9963  XXZ=            -39.9934  XZZ=            -16.8846  YZZ=            -14.6171
  YYZ=            -17.6897  XYZ=            -13.6345
 Hexadecapole moment (field-independent basis, Debye-Ang**3):
 XXXX=          -4549.6227 YYYY=          -1630.6261 ZZZZ=           -390.6363 XXXY=            -20.3962
 XXXZ=             -4.4883 YYYX=             15.9842 YYYZ=             38.7231 ZZZX=             68.8919
 ZZZY=             32.5372 XXYY=          -1042.0893 XXZZ=           -844.2005 YYZZ=           -297.4734
 XXYZ=             49.3450 YYXZ=             42.2436 ZZXY=             61.3855
 N-N= 1.254919164059D+03 E-N=-4.464116511120D+03  KE= 8.290995960643D+02
 1\1\GINC-SWANNODE-0-1\FOpt\RB3LYP\6-31G(d,p)\C13H19F2N1O1\KE291\06-Mar
 -2019\0\\# b3lyp/6-31g(d,p) Opt=(maxcycles=100,MaxStep=1) scrf=(solven
 t=chloroform)\\AT3_2ginp008\\0,1\C,-2.4925034427,-0.0400689078,-0.8191
 322603\C,-2.381990126,0.1766703414,0.6959155637\C,-3.0624241812,-0.923
 9423754,1.5325907727\C,-2.6051393818,-0.959039486,3.0161002198\C,-2.78
 65726359,0.3902902359,3.713037424\O,-2.6247356542,0.1874751626,5.11995
 63926\N,-4.5261820489,-0.7532227718,1.4571018389\C,-5.2778950995,-2.00
 92530521,1.5771089742\C,-9.5375662999,-1.3392367911,1.0824540579\C,-8.
 6743987942,-1.1731931918,-0.0026601344\C,-7.3198791737,-1.3970403476,0
 .1988620472\C,-6.7631027767,-1.7788239802,1.4210960883\C,-7.6740076064
 ,-1.9235828115,2.4687817159\C,-9.042508283,-1.7170827567,2.3303806367\
 H,-10.6016440414,-1.1714905724,0.9537770296\H,-9.0310560162,-0.8777968
 759,-0.9825072176\H,-9.6915359041,-1.8519207109,3.1878735221\F,-6.4697
 257809,-1.2295760245,-0.8486021291\F,-7.2021533411,-2.2944769567,3.681
 2472911\H,-2.0160842914,0.7790893481,-1.3667441555\H,-2.0008757191,-0.
 9725680506,-1.1174663826\H,-3.5323989657,-0.0955241804,-1.1606228873\H
 ,-1.3219896224,0.2311297423,0.9647216084\H,-2.8203004432,1.1463865403,
 0.9647513578\H,-3.2773817419,-1.6544516736,3.5372069681\H,-3.786806320
 2,0.78043386,3.4826537314\H,-2.0445324876,1.1144217025,3.3414142127\H,
 -2.724750857,1.0461571782,5.5507605688\H,-4.9554121937,-2.7605256371,0
 .8339007759\H,-5.0953099574,-2.4416150385,2.5627778203\H,-2.7682218889
 ,-1.8965961238,1.0924133113\C,-1.1775088284,-1.498210498,3.1791850282\
 H,-0.4390418313,-0.8520722836,2.6910041983\H,-0.9151103266,-1.55531937
 55,4.2383275888\H,-1.0812111546,-2.5005874384,2.7479882045\H,-4.761847
 7826,-0.3451231992,0.5570142178\\Version=EM64L-G09RevD.01\State=1-A\HF
 =-836.4921287\RMSD=4.471e-09\RMSF=4.095e-06\Dipole=-0.5813513,0.489681
 3,-0.7297955\Quadrupole=6.1561598,-0.38425,-5.7719098,2.1606073,-0.978
 8776,2.9349565\PG=C01 [X(C13H19F2N1O1)]\\@


 WERE I TO AWAIT PERFECTION, MY BOOK WOULD NEVER BE FINISHED.
                                    -- HISTORY OF CHINESE WRITING

                                       TAI T'UNG, 13TH CENTURY
 Job cpu time:       0 days  0 hours 22 minutes 11.9 seconds.
 File lengths (MBytes):  RWF=    187 Int=      0 D2E=      0 Chk=     12 Scr=      1
 Normal termination of Gaussian 09 at Wed Mar  6 18:39:19 2019.
