 Entering Gaussian System, Link 0=/usr/local/shared/gaussian/em64t/09-D01/g09/g09
 Initial command:
 /usr/local/shared/gaussian/em64t/09-D01/g09/l1.exe "/scratch/ke291/AT3_1ginp017/Gau-11838.inp" -scrdir="/scratch/ke291/AT3_1ginp017/"
 Entering Link 1 = /usr/local/shared/gaussian/em64t/09-D01/g09/l1.exe PID=     11843.
  
 Copyright (c) 1988,1990,1992,1993,1995,1998,2003,2009,2013,
            Gaussian, Inc.  All Rights Reserved.
  
 This is part of the Gaussian(R) 09 program.  It is based on
 the Gaussian(R) 03 system (copyright 2003, Gaussian, Inc.),
 the Gaussian(R) 98 system (copyright 1998, Gaussian, Inc.),
 the Gaussian(R) 94 system (copyright 1995, Gaussian, Inc.),
 the Gaussian 92(TM) system (copyright 1992, Gaussian, Inc.),
 the Gaussian 90(TM) system (copyright 1990, Gaussian, Inc.),
 the Gaussian 88(TM) system (copyright 1988, Gaussian, Inc.),
 the Gaussian 86(TM) system (copyright 1986, Carnegie Mellon
 University), and the Gaussian 82(TM) system (copyright 1983,
 Carnegie Mellon University). Gaussian is a federally registered
 trademark of Gaussian, Inc.
  
 This software contains proprietary and confidential information,
 including trade secrets, belonging to Gaussian, Inc.
  
 This software is provided under written license and may be
 used, copied, transmitted, or stored only in accord with that
 written license.
  
 The following legend is applicable only to US Government
 contracts under FAR:
  
                    RESTRICTED RIGHTS LEGEND
  
 Use, reproduction and disclosure by the US Government is
 subject to restrictions as set forth in subparagraphs (a)
 and (c) of the Commercial Computer Software - Restricted
 Rights clause in FAR 52.227-19.
  
 Gaussian, Inc.
 340 Quinnipiac St., Bldg. 40, Wallingford CT 06492
  
  
 ---------------------------------------------------------------
 Warning -- This program may not be used in any manner that
 competes with the business of Gaussian, Inc. or will provide
 assistance to any competitor of Gaussian, Inc.  The licensee
 of this program is prohibited from giving any competitor of
 Gaussian, Inc. access to this program.  By using this program,
 the user acknowledges that Gaussian, Inc. is engaged in the
 business of creating and licensing software in the field of
 computational chemistry and represents and warrants to the
 licensee that it is not a competitor of Gaussian, Inc. and that
 it will not use this program in any manner prohibited above.
 ---------------------------------------------------------------
  

 Cite this work as:
 Gaussian 09, Revision D.01,
 M. J. Frisch, G. W. Trucks, H. B. Schlegel, G. E. Scuseria, 
 M. A. Robb, J. R. Cheeseman, G. Scalmani, V. Barone, B. Mennucci, 
 G. A. Petersson, H. Nakatsuji, M. Caricato, X. Li, H. P. Hratchian, 
 A. F. Izmaylov, J. Bloino, G. Zheng, J. L. Sonnenberg, M. Hada, 
 M. Ehara, K. Toyota, R. Fukuda, J. Hasegawa, M. Ishida, T. Nakajima, 
 Y. Honda, O. Kitao, H. Nakai, T. Vreven, J. A. Montgomery, Jr., 
 J. E. Peralta, F. Ogliaro, M. Bearpark, J. J. Heyd, E. Brothers, 
 K. N. Kudin, V. N. Staroverov, T. Keith, R. Kobayashi, J. Normand, 
 K. Raghavachari, A. Rendell, J. C. Burant, S. S. Iyengar, J. Tomasi, 
 M. Cossi, N. Rega, J. M. Millam, M. Klene, J. E. Knox, J. B. Cross, 
 V. Bakken, C. Adamo, J. Jaramillo, R. Gomperts, R. E. Stratmann, 
 O. Yazyev, A. J. Austin, R. Cammi, C. Pomelli, J. W. Ochterski, 
 R. L. Martin, K. Morokuma, V. G. Zakrzewski, G. A. Voth, 
 P. Salvador, J. J. Dannenberg, S. Dapprich, A. D. Daniels, 
 O. Farkas, J. B. Foresman, J. V. Ortiz, J. Cioslowski, 
 and D. J. Fox, Gaussian, Inc., Wallingford CT, 2013.
 
 ******************************************
 Gaussian 09:  EM64L-G09RevD.01 24-Apr-2013
                 6-Mar-2019 
 ******************************************
 %nprocshared=2
 Will use up to    2 processors via shared memory.
 %mem=6000MB
 %chk=AT3_1ginp017.chk
 ---------------------------------------------------------------
 # b3lyp/6-31g(d,p) Opt=(maxcycles=50) scrf=(solvent=chloroform)
 ---------------------------------------------------------------
 1/6=50,14=-1,18=20,19=15,26=3,38=1/1,3;
 2/9=110,12=2,17=6,18=5,40=1/2;
 3/5=1,6=6,7=101,11=2,16=1,25=1,30=1,70=2201,71=1,72=7,74=-5/1,2,3;
 4//1;
 5/5=2,38=5,53=7/2;
 6/7=2,8=2,9=2,10=2,28=1/1;
 7//1,2,3,16;
 1/6=50,14=-1,18=20,19=15,26=3/3(2);
 2/9=110/2;
 99//99;
 2/9=110/2;
 3/5=1,6=6,7=101,11=2,16=1,25=1,30=1,70=2205,71=1,72=7,74=-5/1,2,3;
 4/5=5,16=3,69=1/1;
 5/5=2,38=5,53=7/2;
 7//1,2,3,16;
 1/6=50,14=-1,18=20,19=15,26=3/3(-5);
 2/9=110/2;
 6/7=2,8=2,9=2,10=2,19=2,28=1/1;
 99/9=1/99;
 ------------
 AT3_1ginp017
 ------------
 Symbolic Z-matrix:
 Charge =  0 Multiplicity = 1
 C                    -1.88029   0.6213    0.47365 
 C                    -1.09982  -0.06111   1.59023 
 C                    -0.188     0.86743   2.42934 
 C                    -0.95515   1.99726   3.183 
 C                    -0.00355   2.78622   4.10627 
 O                    -0.68572   3.87642   4.72294 
 N                     0.86842   1.49412   1.61695 
 C                     1.89836   0.55785   1.16603 
 C                     5.13222   2.68273  -0.75505 
 C                     3.93909   2.45197  -1.43756 
 C                     2.90354   1.76231  -0.8081 
 C                     3.02864   1.28812   0.49934 
 C                     4.22993   1.5321    1.16604 
 C                     5.27657   2.22029   0.55222 
 H                     5.94396   3.22106  -1.23746 
 H                     3.80551   2.80619  -2.4553 
 H                     6.19752   2.39101   1.10193 
 F                     1.76329   1.55721  -1.48439 
 F                     4.40311   1.09353   2.42125 
 H                    -2.53545   1.40729   0.85899 
 H                    -1.21444   1.05902  -0.2756 
 H                    -2.51154  -0.11268  -0.03831 
 H                    -1.80779  -0.57326   2.25208 
 H                    -0.50137  -0.86727   1.14935 
 H                    -1.37859   2.70457   2.45714 
 H                     0.84923   3.20351   3.56233 
 H                     0.38747   2.14361   4.90226 
 H                    -0.9332    4.49195   4.01198 
 H                     2.2873   -0.01754   2.01485 
 H                     1.49053  -0.17047   0.45557 
 H                     0.28973   0.24357   3.1977 
 C                    -2.12968   1.45287   4.0117 
 H                    -1.79195   0.68486   4.71564 
 H                    -2.61509   2.24772   4.58752 
 H                    -2.90349   1.01724   3.37296 
 H                     0.4634    1.95786   0.80391 
 

 GradGradGradGradGradGradGradGradGradGradGradGradGradGradGradGradGradGrad
 Berny optimization.
 Initialization pass.
                           ----------------------------
                           !    Initial Parameters    !
                           ! (Angstroms and Degrees)  !
 --------------------------                            --------------------------
 ! Name  Definition              Value          Derivative Info.                !
 --------------------------------------------------------------------------------
 ! R1    R(1,2)                  1.5237         estimate D2E/DX2                !
 ! R2    R(1,20)                 1.0934         estimate D2E/DX2                !
 ! R3    R(1,21)                 1.0938         estimate D2E/DX2                !
 ! R4    R(1,22)                 1.0951         estimate D2E/DX2                !
 ! R5    R(2,3)                  1.5485         estimate D2E/DX2                !
 ! R6    R(2,23)                 1.0962         estimate D2E/DX2                !
 ! R7    R(2,24)                 1.0965         estimate D2E/DX2                !
 ! R8    R(3,4)                  1.5598         estimate D2E/DX2                !
 ! R9    R(3,7)                  1.4727         estimate D2E/DX2                !
 ! R10   R(3,31)                 1.099          estimate D2E/DX2                !
 ! R11   R(4,5)                  1.5429         estimate D2E/DX2                !
 ! R12   R(4,25)                 1.0984         estimate D2E/DX2                !
 ! R13   R(4,32)                 1.5371         estimate D2E/DX2                !
 ! R14   R(5,6)                  1.4262         estimate D2E/DX2                !
 ! R15   R(5,26)                 1.0942         estimate D2E/DX2                !
 ! R16   R(5,27)                 1.0952         estimate D2E/DX2                !
 ! R17   R(6,28)                 0.9724         estimate D2E/DX2                !
 ! R18   R(7,8)                  1.4631         estimate D2E/DX2                !
 ! R19   R(7,36)                 1.0199         estimate D2E/DX2                !
 ! R20   R(8,12)                 1.5018         estimate D2E/DX2                !
 ! R21   R(8,29)                 1.0967         estimate D2E/DX2                !
 ! R22   R(8,30)                 1.0961         estimate D2E/DX2                !
 ! R23   R(9,10)                 1.3938         estimate D2E/DX2                !
 ! R24   R(9,14)                 1.3941         estimate D2E/DX2                !
 ! R25   R(9,15)                 1.0869         estimate D2E/DX2                !
 ! R26   R(10,11)                1.3944         estimate D2E/DX2                !
 ! R27   R(10,16)                1.0859         estimate D2E/DX2                !
 ! R28   R(11,12)                1.3964         estimate D2E/DX2                !
 ! R29   R(11,18)                1.3415         estimate D2E/DX2                !
 ! R30   R(12,13)                1.3954         estimate D2E/DX2                !
 ! R31   R(13,14)                1.3949         estimate D2E/DX2                !
 ! R32   R(13,19)                1.3409         estimate D2E/DX2                !
 ! R33   R(14,17)                1.086          estimate D2E/DX2                !
 ! R34   R(32,33)                1.0952         estimate D2E/DX2                !
 ! R35   R(32,34)                1.095          estimate D2E/DX2                !
 ! R36   R(32,35)                1.0939         estimate D2E/DX2                !
 ! A1    A(2,1,20)             111.7537         estimate D2E/DX2                !
 ! A2    A(2,1,21)             111.6784         estimate D2E/DX2                !
 ! A3    A(2,1,22)             109.7349         estimate D2E/DX2                !
 ! A4    A(20,1,21)            108.5733         estimate D2E/DX2                !
 ! A5    A(20,1,22)            107.5271         estimate D2E/DX2                !
 ! A6    A(21,1,22)            107.391          estimate D2E/DX2                !
 ! A7    A(1,2,3)              115.4792         estimate D2E/DX2                !
 ! A8    A(1,2,23)             108.7173         estimate D2E/DX2                !
 ! A9    A(1,2,24)             108.3112         estimate D2E/DX2                !
 ! A10   A(3,2,23)             109.4687         estimate D2E/DX2                !
 ! A11   A(3,2,24)             109.7162         estimate D2E/DX2                !
 ! A12   A(23,2,24)            104.5815         estimate D2E/DX2                !
 ! A13   A(2,3,4)              113.9896         estimate D2E/DX2                !
 ! A14   A(2,3,7)              112.2507         estimate D2E/DX2                !
 ! A15   A(2,3,31)             107.1241         estimate D2E/DX2                !
 ! A16   A(4,3,7)              108.1261         estimate D2E/DX2                !
 ! A17   A(4,3,31)             106.6884         estimate D2E/DX2                !
 ! A18   A(7,3,31)             108.3857         estimate D2E/DX2                !
 ! A19   A(3,4,5)              110.8663         estimate D2E/DX2                !
 ! A20   A(3,4,25)             109.6787         estimate D2E/DX2                !
 ! A21   A(3,4,32)             112.3194         estimate D2E/DX2                !
 ! A22   A(5,4,25)             107.694          estimate D2E/DX2                !
 ! A23   A(5,4,32)             109.2548         estimate D2E/DX2                !
 ! A24   A(25,4,32)            106.8448         estimate D2E/DX2                !
 ! A25   A(4,5,6)              110.7698         estimate D2E/DX2                !
 ! A26   A(4,5,26)             112.224          estimate D2E/DX2                !
 ! A27   A(4,5,27)             110.7995         estimate D2E/DX2                !
 ! A28   A(6,5,26)             107.2295         estimate D2E/DX2                !
 ! A29   A(6,5,27)             107.7598         estimate D2E/DX2                !
 ! A30   A(26,5,27)            107.8676         estimate D2E/DX2                !
 ! A31   A(5,6,28)             106.826          estimate D2E/DX2                !
 ! A32   A(3,7,8)              113.7454         estimate D2E/DX2                !
 ! A33   A(3,7,36)             110.3885         estimate D2E/DX2                !
 ! A34   A(8,7,36)             108.9556         estimate D2E/DX2                !
 ! A35   A(7,8,12)             110.8208         estimate D2E/DX2                !
 ! A36   A(7,8,29)             110.2935         estimate D2E/DX2                !
 ! A37   A(7,8,30)             111.2868         estimate D2E/DX2                !
 ! A38   A(12,8,29)            109.3775         estimate D2E/DX2                !
 ! A39   A(12,8,30)            108.3839         estimate D2E/DX2                !
 ! A40   A(29,8,30)            106.5587         estimate D2E/DX2                !
 ! A41   A(10,9,14)            119.5307         estimate D2E/DX2                !
 ! A42   A(10,9,15)            120.2625         estimate D2E/DX2                !
 ! A43   A(14,9,15)            120.2067         estimate D2E/DX2                !
 ! A44   A(9,10,11)            119.7744         estimate D2E/DX2                !
 ! A45   A(9,10,16)            120.6815         estimate D2E/DX2                !
 ! A46   A(11,10,16)           119.5439         estimate D2E/DX2                !
 ! A47   A(10,11,12)           121.6078         estimate D2E/DX2                !
 ! A48   A(10,11,18)           118.6402         estimate D2E/DX2                !
 ! A49   A(12,11,18)           119.7519         estimate D2E/DX2                !
 ! A50   A(8,12,11)            120.8881         estimate D2E/DX2                !
 ! A51   A(8,12,13)            121.3896         estimate D2E/DX2                !
 ! A52   A(11,12,13)           117.7171         estimate D2E/DX2                !
 ! A53   A(12,13,14)           121.4637         estimate D2E/DX2                !
 ! A54   A(12,13,19)           120.0844         estimate D2E/DX2                !
 ! A55   A(14,13,19)           118.4499         estimate D2E/DX2                !
 ! A56   A(9,14,13)            119.9056         estimate D2E/DX2                !
 ! A57   A(9,14,17)            120.6829         estimate D2E/DX2                !
 ! A58   A(13,14,17)           119.4114         estimate D2E/DX2                !
 ! A59   A(4,32,33)            111.0551         estimate D2E/DX2                !
 ! A60   A(4,32,34)            111.4182         estimate D2E/DX2                !
 ! A61   A(4,32,35)            111.5172         estimate D2E/DX2                !
 ! A62   A(33,32,34)           107.9233         estimate D2E/DX2                !
 ! A63   A(33,32,35)           108.3123         estimate D2E/DX2                !
 ! A64   A(34,32,35)           106.4128         estimate D2E/DX2                !
 ! D1    D(20,1,2,3)           -59.2547         estimate D2E/DX2                !
 ! D2    D(20,1,2,23)           64.1997         estimate D2E/DX2                !
 ! D3    D(20,1,2,24)          177.2861         estimate D2E/DX2                !
 ! D4    D(21,1,2,3)            62.5929         estimate D2E/DX2                !
 ! D5    D(21,1,2,23)         -173.9527         estimate D2E/DX2                !
 ! D6    D(21,1,2,24)          -60.8662         estimate D2E/DX2                !
 ! D7    D(22,1,2,3)          -178.4396         estimate D2E/DX2                !
 ! D8    D(22,1,2,23)          -54.9852         estimate D2E/DX2                !
 ! D9    D(22,1,2,24)           58.1013         estimate D2E/DX2                !
 ! D10   D(1,2,3,4)             61.2136         estimate D2E/DX2                !
 ! D11   D(1,2,3,7)            -62.1524         estimate D2E/DX2                !
 ! D12   D(1,2,3,31)           178.989          estimate D2E/DX2                !
 ! D13   D(23,2,3,4)           -61.8442         estimate D2E/DX2                !
 ! D14   D(23,2,3,7)           174.7898         estimate D2E/DX2                !
 ! D15   D(23,2,3,31)           55.9312         estimate D2E/DX2                !
 ! D16   D(24,2,3,4)          -176.0703         estimate D2E/DX2                !
 ! D17   D(24,2,3,7)            60.5636         estimate D2E/DX2                !
 ! D18   D(24,2,3,31)          -58.295          estimate D2E/DX2                !
 ! D19   D(2,3,4,5)            174.181          estimate D2E/DX2                !
 ! D20   D(2,3,4,25)           -67.0181         estimate D2E/DX2                !
 ! D21   D(2,3,4,32)            51.6344         estimate D2E/DX2                !
 ! D22   D(7,3,4,5)            -60.2432         estimate D2E/DX2                !
 ! D23   D(7,3,4,25)            58.5577         estimate D2E/DX2                !
 ! D24   D(7,3,4,32)           177.2102         estimate D2E/DX2                !
 ! D25   D(31,3,4,5)            56.1555         estimate D2E/DX2                !
 ! D26   D(31,3,4,25)          174.9564         estimate D2E/DX2                !
 ! D27   D(31,3,4,32)          -66.3911         estimate D2E/DX2                !
 ! D28   D(2,3,7,8)            -70.0758         estimate D2E/DX2                !
 ! D29   D(2,3,7,36)            52.7509         estimate D2E/DX2                !
 ! D30   D(4,3,7,8)            163.3297         estimate D2E/DX2                !
 ! D31   D(4,3,7,36)           -73.8437         estimate D2E/DX2                !
 ! D32   D(31,3,7,8)            48.0383         estimate D2E/DX2                !
 ! D33   D(31,3,7,36)          170.865          estimate D2E/DX2                !
 ! D34   D(3,4,5,6)            175.9497         estimate D2E/DX2                !
 ! D35   D(3,4,5,26)            56.1369         estimate D2E/DX2                !
 ! D36   D(3,4,5,27)           -64.5101         estimate D2E/DX2                !
 ! D37   D(25,4,5,6)            55.9573         estimate D2E/DX2                !
 ! D38   D(25,4,5,26)          -63.8555         estimate D2E/DX2                !
 ! D39   D(25,4,5,27)          175.4975         estimate D2E/DX2                !
 ! D40   D(32,4,5,6)           -59.741          estimate D2E/DX2                !
 ! D41   D(32,4,5,26)         -179.5538         estimate D2E/DX2                !
 ! D42   D(32,4,5,27)           59.7992         estimate D2E/DX2                !
 ! D43   D(3,4,32,33)           55.781          estimate D2E/DX2                !
 ! D44   D(3,4,32,34)          176.1277         estimate D2E/DX2                !
 ! D45   D(3,4,32,35)          -65.1277         estimate D2E/DX2                !
 ! D46   D(5,4,32,33)          -67.6718         estimate D2E/DX2                !
 ! D47   D(5,4,32,34)           52.6749         estimate D2E/DX2                !
 ! D48   D(5,4,32,35)          171.4194         estimate D2E/DX2                !
 ! D49   D(25,4,32,33)         176.0879         estimate D2E/DX2                !
 ! D50   D(25,4,32,34)         -63.5654         estimate D2E/DX2                !
 ! D51   D(25,4,32,35)          55.1792         estimate D2E/DX2                !
 ! D52   D(4,5,6,28)           -65.3377         estimate D2E/DX2                !
 ! D53   D(26,5,6,28)           57.4234         estimate D2E/DX2                !
 ! D54   D(27,5,6,28)          173.3127         estimate D2E/DX2                !
 ! D55   D(3,7,8,12)          -172.6844         estimate D2E/DX2                !
 ! D56   D(3,7,8,29)           -51.4135         estimate D2E/DX2                !
 ! D57   D(3,7,8,30)            66.6326         estimate D2E/DX2                !
 ! D58   D(36,7,8,12)           63.7066         estimate D2E/DX2                !
 ! D59   D(36,7,8,29)         -175.0225         estimate D2E/DX2                !
 ! D60   D(36,7,8,30)          -56.9764         estimate D2E/DX2                !
 ! D61   D(7,8,12,11)          -77.4514         estimate D2E/DX2                !
 ! D62   D(7,8,12,13)          101.6956         estimate D2E/DX2                !
 ! D63   D(29,8,12,11)         160.7394         estimate D2E/DX2                !
 ! D64   D(29,8,12,13)         -20.1137         estimate D2E/DX2                !
 ! D65   D(30,8,12,11)          44.9382         estimate D2E/DX2                !
 ! D66   D(30,8,12,13)        -135.9149         estimate D2E/DX2                !
 ! D67   D(14,9,10,11)          -0.007          estimate D2E/DX2                !
 ! D68   D(14,9,10,16)         179.8324         estimate D2E/DX2                !
 ! D69   D(15,9,10,11)        -179.8876         estimate D2E/DX2                !
 ! D70   D(15,9,10,16)          -0.0483         estimate D2E/DX2                !
 ! D71   D(10,9,14,13)           0.0114         estimate D2E/DX2                !
 ! D72   D(10,9,14,17)        -179.9064         estimate D2E/DX2                !
 ! D73   D(15,9,14,13)         179.8922         estimate D2E/DX2                !
 ! D74   D(15,9,14,17)          -0.0257         estimate D2E/DX2                !
 ! D75   D(9,10,11,12)          -0.1406         estimate D2E/DX2                !
 ! D76   D(9,10,11,18)         179.7559         estimate D2E/DX2                !
 ! D77   D(16,10,11,12)       -179.9818         estimate D2E/DX2                !
 ! D78   D(16,10,11,18)         -0.0853         estimate D2E/DX2                !
 ! D79   D(10,11,12,8)         179.4519         estimate D2E/DX2                !
 ! D80   D(10,11,12,13)          0.2745         estimate D2E/DX2                !
 ! D81   D(18,11,12,8)          -0.4435         estimate D2E/DX2                !
 ! D82   D(18,11,12,13)       -179.6209         estimate D2E/DX2                !
 ! D83   D(8,12,13,14)        -179.4425         estimate D2E/DX2                !
 ! D84   D(8,12,13,19)           1.0822         estimate D2E/DX2                !
 ! D85   D(11,12,13,14)         -0.2695         estimate D2E/DX2                !
 ! D86   D(11,12,13,19)       -179.7448         estimate D2E/DX2                !
 ! D87   D(12,13,14,9)           0.1314         estimate D2E/DX2                !
 ! D88   D(12,13,14,17)       -179.9497         estimate D2E/DX2                !
 ! D89   D(19,13,14,9)         179.6151         estimate D2E/DX2                !
 ! D90   D(19,13,14,17)         -0.4661         estimate D2E/DX2                !
 --------------------------------------------------------------------------------
 Trust Radius=3.00D-01 FncErr=1.00D-07 GrdErr=1.00D-06
 Number of steps in this run=     50 maximum allowed number of steps=    216.
 GradGradGradGradGradGradGradGradGradGradGradGradGradGradGradGradGradGrad

                          Input orientation:                          
 ---------------------------------------------------------------------
 Center     Atomic      Atomic             Coordinates (Angstroms)
 Number     Number       Type             X           Y           Z
 ---------------------------------------------------------------------
      1          6           0       -1.880293    0.621302    0.473646
      2          6           0       -1.099819   -0.061108    1.590229
      3          6           0       -0.188004    0.867428    2.429344
      4          6           0       -0.955154    1.997259    3.182995
      5          6           0       -0.003553    2.786221    4.106273
      6          8           0       -0.685718    3.876419    4.722938
      7          7           0        0.868423    1.494115    1.616954
      8          6           0        1.898359    0.557848    1.166030
      9          6           0        5.132219    2.682729   -0.755051
     10          6           0        3.939094    2.451974   -1.437563
     11          6           0        2.903536    1.762312   -0.808103
     12          6           0        3.028636    1.288123    0.499340
     13          6           0        4.229931    1.532100    1.166045
     14          6           0        5.276572    2.220293    0.552219
     15          1           0        5.943964    3.221059   -1.237463
     16          1           0        3.805508    2.806193   -2.455297
     17          1           0        6.197518    2.391006    1.101930
     18          9           0        1.763289    1.557208   -1.484386
     19          9           0        4.403112    1.093530    2.421254
     20          1           0       -2.535453    1.407285    0.858986
     21          1           0       -1.214440    1.059017   -0.275599
     22          1           0       -2.511542   -0.112677   -0.038308
     23          1           0       -1.807786   -0.573259    2.252084
     24          1           0       -0.501369   -0.867265    1.149346
     25          1           0       -1.378587    2.704567    2.457143
     26          1           0        0.849233    3.203514    3.562325
     27          1           0        0.387469    2.143613    4.902263
     28          1           0       -0.933204    4.491955    4.011980
     29          1           0        2.287302   -0.017535    2.014855
     30          1           0        1.490534   -0.170468    0.455566
     31          1           0        0.289725    0.243570    3.197700
     32          6           0       -2.129676    1.452870    4.011700
     33          1           0       -1.791946    0.684858    4.715641
     34          1           0       -2.615092    2.247717    4.587520
     35          1           0       -2.903490    1.017241    3.372964
     36          1           0        0.463400    1.957856    0.803914
 ---------------------------------------------------------------------
                    Distance matrix (angstroms):
                    1          2          3          4          5
     1  C    0.000000
     2  C    1.523673   0.000000
     3  C    2.597917   1.548451   0.000000
     4  C    3.176431   2.606666   1.559816   0.000000
     5  C    4.626554   3.954688   2.554972   1.542870   0.000000
     6  O    5.484458   5.048709   3.816061   2.444435   1.426239
     7  N    3.102321   2.508667   1.472668   2.455824   2.937106
     8  C    3.842087   3.090651   2.458600   3.779231   4.150656
     9  C    7.411781   7.201894   6.460686   7.282457   7.072435
    10  C    6.392914   6.393258   5.873389   6.746109   6.811043
    11  C    5.082303   5.010360   4.565030   5.556397   5.800918
    12  C    4.954079   4.478237   3.774741   4.855457   4.944536
    13  C    6.216414   5.578932   4.642829   5.582971   5.304729
    14  C    7.333735   6.851322   5.934259   6.767949   6.389937
    15  H    8.420548   8.269422   7.522372   8.284683   8.007344
    16  H    6.758756   6.974950   6.600505   7.423518   7.587064
    17  H    8.293228   7.713782   6.697627   7.459664   6.901851
    18  F    4.240931   4.502176   4.427259   5.419227   5.990632
    19  F    6.595252   5.683840   4.596687   5.487075   5.012304
    20  H    1.093385   2.179894   2.875411   2.871660   4.342448
    21  H    1.093765   2.179250   2.899482   3.592965   4.863156
    22  H    1.095124   2.155865   3.528277   4.153428   5.645456
    23  H    2.143613   1.096161   2.175016   2.863763   4.240210
    24  H    2.138652   1.096544   2.178475   3.542195   4.726436
    25  H    2.919925   2.911737   2.189370   1.098381   2.148724
    26  H    4.863956   4.283191   2.795855   2.203351   1.094192
    27  H    5.203155   4.247633   2.841680   2.186307   1.095191
    28  H    5.329047   5.159750   4.024581   2.628917   1.944909
    29  H    4.489130   3.413912   2.661222   3.992176   4.181279
    30  H    3.462615   2.830079   2.791150   4.256677   4.929703
    31  H    3.503160   2.146538   1.098997   2.150666   2.715988
    32  C    3.643010   3.035829   2.572291   1.537079   2.511408
    33  H    4.243391   3.286899   2.798770   2.184404   2.825846
    34  H    4.484319   4.075595   3.528977   2.188793   2.709561
    35  H    3.099959   2.755759   2.878668   2.189186   3.475150
    36  H    2.718152   2.671734   2.062858   2.770176   3.436540
                    6          7          8          9         10
     6  O    0.000000
     7  N    4.211634   0.000000
     8  C    5.508354   1.463112   0.000000
     9  C    8.079706   5.021869   4.320130   0.000000
    10  C    7.833882   4.435830   3.811956   1.393778   0.000000
    11  C    6.924204   3.177187   2.521570   2.411848   1.394358
    12  C    6.191485   2.440904   1.501767   2.818419   2.436201
    13  C    6.504685   3.391828   2.526934   2.414266   2.776604
    14  C    7.462342   4.592687   3.814815   1.394145   2.408683
    15  H    8.939159   6.073808   5.407069   1.086945   2.156626
    16  H    8.534843   5.189532   4.669720   2.160149   1.085863
    17  H    7.918149   5.428528   4.674114   2.160635   3.399003
    18  F    7.064506   3.228479   2.835784   3.626075   2.353067
    19  F    6.240065   3.647108   2.852425   3.625750   4.117178
    20  H    4.944519   3.488327   4.524877   7.938833   6.948760
    21  H    5.762176   2.847698   3.466840   6.568592   5.463461
    22  H    6.474255   4.092168   4.620310   8.170379   7.081388
    23  H    5.211889   3.440860   4.024230   8.234561   7.469415
    24  H    5.941976   2.769676   2.791043   6.925785   6.117774
    25  H    2.643318   2.687037   4.124773   7.260114   6.596231
    26  H    2.038602   2.589765   3.720543   6.103681   5.925448
    27  H    2.046095   3.383256   4.330921   7.403276   7.273412
    28  H    0.972417   4.238992   5.620888   7.923840   7.589356
    29  H    5.597807   2.111073   1.096743   4.801808   4.554787
    30  H    6.270872   2.122894   1.096141   4.782070   4.056672
    31  H    4.058994   2.097025   2.610394   6.709954   6.299254
    32  C    2.909375   3.837331   5.012381   8.773231   8.217216
    33  H    3.377848   4.163451   5.121935   9.047874   8.592406
    34  H    2.528536   4.639726   5.910456   9.420888   8.905094
    35  H    3.862103   4.187876   5.304654   9.186238   8.486494
    36  H    4.512217   1.019869   2.037218   4.975307   4.165192
                   11         12         13         14         15
    11  C    0.000000
    12  C    1.396393   0.000000
    13  C    2.389473   1.395396   0.000000
    14  C    2.773359   2.434123   1.394937   0.000000
    15  H    3.399485   3.905363   3.401080   2.156364   0.000000
    16  H    2.148602   3.411443   3.862326   3.398891   2.495642
    17  H    3.859249   3.409000   2.147843   1.086033   2.495203
    18  F    1.341488   2.368265   3.620737   4.114681   4.506375
    19  F    3.622809   2.370824   1.340852   2.350706   4.504089
    20  H    5.699810   5.576973   6.773499   7.860205   8.921064
    21  H    4.211402   4.319342   5.651842   6.645832   7.539387
    22  H    5.781975   5.739763   7.042955   8.151453   9.167734
    23  H    6.084093   5.470634   6.485834   7.802666   9.309319
    24  H    4.726485   4.186782   5.304944   6.578311   7.997097
    25  H    5.466832   5.026223   5.873422   6.939337   8.218067
    26  H    5.039629   4.219052   4.468210   5.443234   6.999611
    27  H    6.251741   5.205128   5.394236   6.544623   8.350555
    28  H    6.738303   6.188647   6.596821   7.462688   8.744556
    29  H    3.393625   2.133332   2.625958   4.010351   5.868325
    30  H    2.707226   2.120180   3.302698   4.478746   5.848234
    31  H    5.018470   3.984203   4.616617   5.981191   7.778594
    32  C    6.975635   6.242756   6.967685   8.210326   9.791010
    33  H    7.329407   6.432661   7.041339   8.345992  10.085438
    34  H    7.733280   7.034607   7.685892   8.863564  10.398811
    35  H    7.194304   6.597061   7.484736   8.735980  10.217157
    36  H    2.931058   2.668659   3.807777   4.826888   5.983267
                   16         17         18         19         20
    16  H    0.000000
    17  H    4.306734   0.000000
    18  F    2.583271   5.200638   0.000000
    19  F    5.202989   2.577587   4.736844   0.000000
    20  H    7.290350   8.791559   4.898270   7.119186   0.000000
    21  H    5.744875   7.655645   3.252112   6.231460   1.775852
    22  H    7.366597   9.133252   4.811843   7.437528   1.765217
    23  H    8.067788   8.613630   5.590409   6.432889   2.528394
    24  H    6.710956   7.449407   4.235952   5.432900   3.065189
    25  H    7.142635   7.702746   5.169475   6.002064   2.361225
    26  H    6.716338   5.942884   5.386568   4.287672   4.689411
    27  H    8.139760   6.946971   6.559424   4.835646   5.043188
    28  H    8.192854   7.983080   6.789245   6.523494   4.692948
    29  H    5.500968   4.682338   3.872866   2.424103   5.159953
    30  H    4.763690   5.397651   2.612025   3.734264   4.342882
    31  H    7.133312   6.626142   5.081237   4.271446   3.847785
    32  C    8.881438   8.870683   6.735950   6.733199   3.179047
    33  H    9.340980   8.933162   7.200071   6.618910   3.993556
    34  H    9.546584   9.477973   7.517650   7.435055   3.822909
    35  H    9.065298   9.480146   6.757532   7.368718   2.570539
    36  H    4.744662   5.758172   2.662057   4.345593   3.049472
                   21         22         23         24         25
    21  H    0.000000
    22  H    1.763986   0.000000
    23  H    3.066849   2.439939   0.000000
    24  H    2.499900   2.453716   1.734703   0.000000
    25  H    3.194160   3.930360   3.312160   3.903566   0.000000
    26  H    4.856673   5.937718   4.800052   4.921162   2.536446
    27  H    5.527451   6.156651   4.384517   4.892832   3.067937
    28  H    5.499772   6.332347   5.433095   6.091173   2.410527
    29  H    4.320572   5.220482   4.139427   3.041025   4.587396
    30  H    3.059922   4.032848   3.777384   2.221381   4.528133
    31  H    3.871856   4.294852   2.441506   2.460800   3.064016
    32  C    4.401558   4.358821   2.702788   4.028335   2.132493
    33  H    5.038451   4.873798   2.766265   4.097943   3.057925
    34  H    5.198534   5.194273   3.750188   5.098233   2.505227
    35  H    4.020777   3.614846   2.233076   3.777039   2.451760
    36  H    2.188243   3.721119   3.696218   3.005231   2.585277
                   26         27         28         29         30
    26  H    0.000000
    27  H    1.769760   0.000000
    28  H    2.244850   2.837515   0.000000
    29  H    3.851995   4.076402   5.890303   0.000000
    30  H    4.631088   5.132722   6.345138   1.757729   0.000000
    31  H    3.034348   2.554457   4.495262   2.336153   3.022031
    32  C    3.484335   2.757943   3.266127   5.065489   5.327967
    33  H    3.827479   2.629191   3.965673   4.942455   5.445594
    34  H    3.737127   3.020807   2.862970   5.981926   6.306887
    35  H    4.347249   3.799721   4.045245   5.464389   5.406414
    36  H    3.051125   4.103259   4.320168   2.948757   2.388747
                   31         32         33         34         35
    31  H    0.000000
    32  C    2.824625   0.000000
    33  H    2.613854   1.095188   0.000000
    34  H    3.792910   1.094979   1.771020   0.000000
    35  H    3.290275   1.093867   1.774483   1.752824   0.000000
    36  H    2.949432   4.155592   4.691345   4.886390   4.338286
                   36
    36  H    0.000000
 Stoichiometry    C13H19F2NO
 Framework group  C1[X(C13H19F2NO)]
 Deg. of freedom   102
 Full point group                 C1      NOp   1
 Largest Abelian subgroup         C1      NOp   1
 Largest concise Abelian subgroup C1      NOp   1
                         Standard orientation:                         
 ---------------------------------------------------------------------
 Center     Atomic      Atomic             Coordinates (Angstroms)
 Number     Number       Type             X           Y           Z
 ---------------------------------------------------------------------
      1          6           0        2.271830    2.743694   -0.159880
      2          6           0        2.221822    1.776762    1.016607
      3          6           0        1.870029    0.311547    0.660115
      4          6           0        2.889595   -0.368721   -0.304638
      5          6           0        2.552528   -1.862061   -0.496390
      6          8           0        3.428450   -2.459847   -1.450102
      7          7           0        0.527113    0.188643    0.068319
      8          6           0       -0.559526    0.429088    1.018108
      9          6           0       -4.375569   -0.472312   -0.795401
     10          6           0       -3.721091    0.722139   -1.091309
     11          6           0       -2.491273    1.003375   -0.497433
     12          6           0       -1.890428    0.115347    0.397164
     13          6           0       -2.560573   -1.076012    0.677696
     14          6           0       -3.791439   -1.374135    0.092940
     15          1           0       -5.333686   -0.700432   -1.255209
     16          1           0       -4.157731    1.436671   -1.782603
     17          1           0       -4.284263   -2.310977    0.335669
     18          9           0       -1.878965    2.157390   -0.802255
     19          9           0       -2.029139   -1.960597    1.533835
     20          1           0        3.010240    2.436768   -0.905560
     21          1           0        1.298335    2.834066   -0.650249
     22          1           0        2.554434    3.741144    0.193002
     23          1           0        3.186594    1.804796    1.536219
     24          1           0        1.502502    2.162219    1.749008
     25          1           0        2.843938    0.113099   -1.290643
     26          1           0        1.530229   -2.012693   -0.856211
     27          1           0        2.661135   -2.409381    0.445995
     28          1           0        3.244132   -2.036302   -2.305808
     29          1           0       -0.422914   -0.185699    1.916006
     30          1           0       -0.571704    1.472755    1.352975
     31          1           0        1.890020   -0.263099    1.596693
     32          6           0        4.338993   -0.235621    0.189469
     33          1           0        4.447239   -0.634937    1.203504
     34          1           0        5.034507   -0.775657   -0.461376
     35          1           0        4.667041    0.807886    0.194178
     36          1           0        0.426114    0.828364   -0.719520
 ---------------------------------------------------------------------
 Rotational constants (GHZ):      0.6808998      0.2462836      0.2088842
 Standard basis: 6-31G(d,p) (6D, 7F)
 There are   350 symmetry adapted cartesian basis functions of A   symmetry.
 There are   350 symmetry adapted basis functions of A   symmetry.
   350 basis functions,   609 primitive gaussians,   350 cartesian basis functions
    65 alpha electrons       65 beta electrons
       nuclear repulsion energy      1256.6962216942 Hartrees.
 NAtoms=   36 NActive=   36 NUniq=   36 SFac= 1.00D+00 NAtFMM=   60 NAOKFM=F Big=F
 Integral buffers will be    131072 words long.
 Raffenetti 2 integral format.
 Two-electron integral symmetry is turned on.
 ------------------------------------------------------------------------------
 Polarizable Continuum Model (PCM)
 =================================
 Model                : PCM (using non-symmetric T matrix).
 Atomic radii         : UFF (Universal Force Field).
 Polarization charges : Total charges.
 Charge compensation  : None.
 Solution method      : On-the-fly selection.
 Cavity type          : Scaled VdW (van der Waals Surface) (Alpha=1.100).
 Cavity algorithm     : GePol (No added spheres)
                        Default sphere list used, NSphG=   36.
                        Lebedev-Laikov grids with approx.  5.0 points / Ang**2.
                        Smoothing algorithm: Karplus/York (Gamma=1.0000).
                        Polarization charges: spherical gaussians, with
                                              point-specific exponents (IZeta= 3).
                        Self-potential: point-specific (ISelfS= 7).
                        Self-field    : sphere-specific E.n sum rule (ISelfD= 2).
 1st derivatives      : Analytical E(r).r(x)/FMM algorithm (CHGder, D1EAlg=3).
                        Cavity 1st derivative terms included.
 Solvent              : Chloroform, Eps=   4.711300 Eps(inf)=   2.090627
 ------------------------------------------------------------------------------
 One-electron integrals computed using PRISM.
 NBasis=   350 RedAO= T EigKep=  4.10D-04  NBF=   350
 NBsUse=   350 1.00D-06 EigRej= -1.00D+00 NBFU=   350
 ExpMin= 1.61D-01 ExpMax= 7.00D+03 ExpMxC= 1.05D+03 IAcc=1 IRadAn=         1 AccDes= 0.00D+00
 Harris functional with IExCor=  402 and IRadAn=       1 diagonalized for initial guess.
 HarFok:  IExCor=  402 AccDes= 0.00D+00 IRadAn=         1 IDoV= 1 UseB2=F ITyADJ=14
 ICtDFT=  3500011 ScaDFX=  1.000000  1.000000  1.000000  1.000000
 FoFCou: FMM=F IPFlag=           0 FMFlag=      100000 FMFlg1=           0
         NFxFlg=           0 DoJE=T BraDBF=F KetDBF=T FulRan=T
         wScrn=  0.000000 ICntrl=     500 IOpCl=  0 I1Cent=   200000004 NGrid=           0
         NMat0=    1 NMatS0=      1 NMatT0=    0 NMatD0=    1 NMtDS0=    0 NMtDT0=    0
 Petite list used in FoFCou.
 Requested convergence on RMS density matrix=1.00D-08 within 128 cycles.
 Requested convergence on MAX density matrix=1.00D-06.
 Requested convergence on             energy=1.00D-06.
 No special actions if energy rises.
 Inv3:  Mode=1 IEnd=    19172352.
 Iteration    1 A*A^-1 deviation from unit magnitude is 7.22D-15 for    866.
 Iteration    1 A*A^-1 deviation from orthogonality  is 4.88D-15 for   2258    388.
 Iteration    1 A^-1*A deviation from unit magnitude is 8.77D-15 for   1253.
 Iteration    1 A^-1*A deviation from orthogonality  is 3.46D-13 for   2216   2166.
 Error on total polarization charges =  0.00760
 SCF Done:  E(RB3LYP) =  -836.488616697     A.U. after   12 cycles
            NFock= 12  Conv=0.66D-08     -V/T= 2.0088

 **********************************************************************

            Population analysis using the SCF density.

 **********************************************************************

 Orbital symmetries:
       Occupied  (A) (A) (A) (A) (A) (A) (A) (A) (A) (A) (A) (A)
                 (A) (A) (A) (A) (A) (A) (A) (A) (A) (A) (A) (A)
                 (A) (A) (A) (A) (A) (A) (A) (A) (A) (A) (A) (A)
                 (A) (A) (A) (A) (A) (A) (A) (A) (A) (A) (A) (A)
                 (A) (A) (A) (A) (A) (A) (A) (A) (A) (A) (A) (A)
                 (A) (A) (A) (A) (A)
       Virtual   (A) (A) (A) (A) (A) (A) (A) (A) (A) (A) (A) (A)
                 (A) (A) (A) (A) (A) (A) (A) (A) (A) (A) (A) (A)
                 (A) (A) (A) (A) (A) (A) (A) (A) (A) (A) (A) (A)
                 (A) (A) (A) (A) (A) (A) (A) (A) (A) (A) (A) (A)
                 (A) (A) (A) (A) (A) (A) (A) (A) (A) (A) (A) (A)
                 (A) (A) (A) (A) (A) (A) (A) (A) (A) (A) (A) (A)
                 (A) (A) (A) (A) (A) (A) (A) (A) (A) (A) (A) (A)
                 (A) (A) (A) (A) (A) (A) (A) (A) (A) (A) (A) (A)
                 (A) (A) (A) (A) (A) (A) (A) (A) (A) (A) (A) (A)
                 (A) (A) (A) (A) (A) (A) (A) (A) (A) (A) (A) (A)
                 (A) (A) (A) (A) (A) (A) (A) (A) (A) (A) (A) (A)
                 (A) (A) (A) (A) (A) (A) (A) (A) (A) (A) (A) (A)
                 (A) (A) (A) (A) (A) (A) (A) (A) (A) (A) (A) (A)
                 (A) (A) (A) (A) (A) (A) (A) (A) (A) (A) (A) (A)
                 (A) (A) (A) (A) (A) (A) (A) (A) (A) (A) (A) (A)
                 (A) (A) (A) (A) (A) (A) (A) (A) (A) (A) (A) (A)
                 (A) (A) (A) (A) (A) (A) (A) (A) (A) (A) (A) (A)
                 (A) (A) (A) (A) (A) (A) (A) (A) (A) (A) (A) (A)
                 (A) (A) (A) (A) (A) (A) (A) (A) (A) (A) (A) (A)
                 (A) (A) (A) (A) (A) (A) (A) (A) (A) (A) (A) (A)
                 (A) (A) (A) (A) (A) (A) (A) (A) (A) (A) (A) (A)
                 (A) (A) (A) (A) (A) (A) (A) (A) (A) (A) (A) (A)
                 (A) (A) (A) (A) (A) (A) (A) (A) (A) (A) (A) (A)
                 (A) (A) (A) (A) (A) (A) (A) (A) (A)
 The electronic state is 1-A.
 Alpha  occ. eigenvalues --  -24.72158 -24.71712 -19.13542 -14.31630 -10.28130
 Alpha  occ. eigenvalues --  -10.28070 -10.21613 -10.21528 -10.21094 -10.20713
 Alpha  occ. eigenvalues --  -10.20636 -10.19861 -10.19802 -10.18301 -10.17593
 Alpha  occ. eigenvalues --  -10.17338 -10.16668  -1.23478  -1.23070  -1.00627
 Alpha  occ. eigenvalues --   -0.90937  -0.86845  -0.79938  -0.76732  -0.75303
 Alpha  occ. eigenvalues --   -0.75153  -0.68867  -0.66469  -0.65293  -0.62949
 Alpha  occ. eigenvalues --   -0.61287  -0.59389  -0.56166  -0.55631  -0.52840
 Alpha  occ. eigenvalues --   -0.49739  -0.49266  -0.48811  -0.48327  -0.47017
 Alpha  occ. eigenvalues --   -0.46670  -0.46488  -0.45665  -0.44186  -0.42975
 Alpha  occ. eigenvalues --   -0.42198  -0.41546  -0.40855  -0.39911  -0.39211
 Alpha  occ. eigenvalues --   -0.38706  -0.37143  -0.36427  -0.35764  -0.35716
 Alpha  occ. eigenvalues --   -0.35335  -0.34488  -0.33870  -0.33033  -0.31524
 Alpha  occ. eigenvalues --   -0.30431  -0.26023  -0.25420  -0.24695  -0.21650
 Alpha virt. eigenvalues --   -0.01293  -0.00207   0.07067   0.07976   0.09030
 Alpha virt. eigenvalues --    0.10107   0.11721   0.12764   0.14251   0.14532
 Alpha virt. eigenvalues --    0.14831   0.14960   0.15610   0.15807   0.16969
 Alpha virt. eigenvalues --    0.17455   0.18046   0.18430   0.18775   0.19352
 Alpha virt. eigenvalues --    0.20201   0.21069   0.21431   0.22481   0.22969
 Alpha virt. eigenvalues --    0.23704   0.24918   0.25506   0.26200   0.27575
 Alpha virt. eigenvalues --    0.28270   0.28869   0.29180   0.31810   0.34202
 Alpha virt. eigenvalues --    0.37389   0.38600   0.46509   0.48993   0.49673
 Alpha virt. eigenvalues --    0.49765   0.50929   0.51448   0.52660   0.53153
 Alpha virt. eigenvalues --    0.53848   0.54730   0.55386   0.57336   0.57956
 Alpha virt. eigenvalues --    0.58498   0.59408   0.59567   0.59835   0.60879
 Alpha virt. eigenvalues --    0.61209   0.62978   0.63266   0.64853   0.65962
 Alpha virt. eigenvalues --    0.66895   0.67463   0.68042   0.70132   0.71665
 Alpha virt. eigenvalues --    0.73612   0.75611   0.76420   0.78446   0.78959
 Alpha virt. eigenvalues --    0.79449   0.80562   0.81551   0.82640   0.83736
 Alpha virt. eigenvalues --    0.84443   0.84688   0.85614   0.85976   0.86787
 Alpha virt. eigenvalues --    0.87489   0.88228   0.88888   0.89549   0.90038
 Alpha virt. eigenvalues --    0.91105   0.91595   0.92026   0.92901   0.93958
 Alpha virt. eigenvalues --    0.96028   0.96661   0.97101   0.98038   0.98869
 Alpha virt. eigenvalues --    1.01042   1.02778   1.03166   1.03801   1.04831
 Alpha virt. eigenvalues --    1.07519   1.09447   1.10179   1.10833   1.16478
 Alpha virt. eigenvalues --    1.17292   1.21140   1.21205   1.21866   1.23605
 Alpha virt. eigenvalues --    1.24489   1.25126   1.27138   1.29859   1.32083
 Alpha virt. eigenvalues --    1.35522   1.36184   1.37897   1.39135   1.39217
 Alpha virt. eigenvalues --    1.39990   1.40822   1.41953   1.43193   1.43934
 Alpha virt. eigenvalues --    1.46376   1.48426   1.50461   1.51292   1.52519
 Alpha virt. eigenvalues --    1.54390   1.58695   1.60293   1.63212   1.65766
 Alpha virt. eigenvalues --    1.66000   1.70176   1.72171   1.73107   1.73999
 Alpha virt. eigenvalues --    1.75665   1.77742   1.78149   1.79370   1.80944
 Alpha virt. eigenvalues --    1.81714   1.82211   1.82521   1.84601   1.85252
 Alpha virt. eigenvalues --    1.86359   1.87717   1.88254   1.89008   1.89372
 Alpha virt. eigenvalues --    1.90068   1.90195   1.91625   1.93335   1.93795
 Alpha virt. eigenvalues --    1.96010   1.96168   1.98026   1.99008   2.00284
 Alpha virt. eigenvalues --    2.01706   2.03431   2.04553   2.05198   2.05858
 Alpha virt. eigenvalues --    2.06473   2.07814   2.09295   2.10066   2.10894
 Alpha virt. eigenvalues --    2.12684   2.13863   2.15729   2.16934   2.18739
 Alpha virt. eigenvalues --    2.19799   2.20549   2.22015   2.23140   2.26399
 Alpha virt. eigenvalues --    2.27319   2.28263   2.29213   2.29434   2.30475
 Alpha virt. eigenvalues --    2.31011   2.32176   2.33169   2.34598   2.34949
 Alpha virt. eigenvalues --    2.36435   2.37254   2.38005   2.38860   2.40444
 Alpha virt. eigenvalues --    2.40961   2.41337   2.44961   2.46131   2.48593
 Alpha virt. eigenvalues --    2.51021   2.52244   2.52570   2.53161   2.54817
 Alpha virt. eigenvalues --    2.56028   2.57874   2.57954   2.62248   2.62722
 Alpha virt. eigenvalues --    2.64651   2.65550   2.65979   2.67162   2.67462
 Alpha virt. eigenvalues --    2.69824   2.71683   2.72050   2.74146   2.74932
 Alpha virt. eigenvalues --    2.76172   2.76404   2.77301   2.79600   2.82262
 Alpha virt. eigenvalues --    2.83327   2.86570   2.87360   2.88642   2.89520
 Alpha virt. eigenvalues --    2.91200   2.92252   2.92841   2.95537   2.96221
 Alpha virt. eigenvalues --    2.97672   3.02258   3.04326   3.04944   3.06567
 Alpha virt. eigenvalues --    3.10709   3.14714   3.19807   3.20403   3.22230
 Alpha virt. eigenvalues --    3.25434   3.27905   3.30232   3.32281   3.35455
 Alpha virt. eigenvalues --    3.35639   3.39008   3.39854   3.40119   3.44076
 Alpha virt. eigenvalues --    3.46268   3.47853   3.49734   3.52845   3.55381
 Alpha virt. eigenvalues --    3.56023   3.56867   3.80402   3.94699   4.05223
 Alpha virt. eigenvalues --    4.09644   4.11428   4.16681   4.33776   4.38001
 Alpha virt. eigenvalues --    4.40440   4.43844   4.53693   4.56189   4.60687
 Alpha virt. eigenvalues --    4.65699   4.75397   4.79160   5.49717   5.62122
          Condensed to atoms (all electrons):
               1          2          3          4          5          6
     1  C    4.941567   0.366500  -0.041768  -0.005820   0.000060   0.000000
     2  C    0.366500   4.998486   0.356176  -0.048791   0.003843  -0.000047
     3  C   -0.041768   0.356176   4.847347   0.328573  -0.030245   0.002902
     4  C   -0.005820  -0.048791   0.328573   5.046968   0.360692  -0.044932
     5  C    0.000060   0.003843  -0.030245   0.360692   4.765227   0.230399
     6  O    0.000000  -0.000047   0.002902  -0.044932   0.230399   8.158818
     7  N   -0.006873  -0.061690   0.296473  -0.051347  -0.012691   0.000109
     8  C   -0.000866  -0.005187  -0.039706   0.004957   0.000388   0.000000
     9  C    0.000000   0.000000   0.000000   0.000000   0.000000   0.000000
    10  C   -0.000001   0.000000   0.000005   0.000000   0.000000   0.000000
    11  C   -0.000043  -0.000026   0.000208   0.000001   0.000003   0.000000
    12  C    0.000031   0.000159   0.004419  -0.000220  -0.000024   0.000000
    13  C    0.000000   0.000003  -0.000019  -0.000013  -0.000019   0.000000
    14  C    0.000000   0.000000   0.000004   0.000000   0.000000   0.000000
    15  H    0.000000   0.000000   0.000000   0.000000   0.000000   0.000000
    16  H    0.000000   0.000000   0.000000   0.000000   0.000000   0.000000
    17  H    0.000000   0.000000   0.000000   0.000000   0.000000   0.000000
    18  F   -0.000216   0.000000   0.000016   0.000000   0.000000   0.000000
    19  F    0.000000   0.000000  -0.000002   0.000000   0.000000   0.000000
    20  H    0.387669  -0.037276  -0.005486   0.003010  -0.000057   0.000002
    21  H    0.378645  -0.037727  -0.004219  -0.000424  -0.000014   0.000000
    22  H    0.382372  -0.028243   0.004255   0.000120  -0.000002   0.000000
    23  H   -0.039474   0.366760  -0.027425  -0.004769  -0.000067  -0.000001
    24  H   -0.042816   0.380128  -0.030914   0.004528  -0.000078   0.000000
    25  H    0.003313  -0.007926  -0.032221   0.373863  -0.042051  -0.001967
    26  H   -0.000008   0.000273  -0.001707  -0.046459   0.375626  -0.035230
    27  H    0.000003  -0.000117  -0.003003  -0.040899   0.378273  -0.034814
    28  H   -0.000002   0.000000  -0.000005  -0.004354  -0.034484   0.288032
    29  H    0.000044  -0.001649  -0.003804   0.000332   0.000025   0.000000
    30  H    0.001064   0.003959  -0.004262  -0.000247  -0.000014   0.000000
    31  H    0.005222  -0.050474   0.384711  -0.040587  -0.008003   0.000003
    32  C   -0.002489   0.000690  -0.036621   0.348008  -0.045599  -0.008447
    33  H    0.000168  -0.001672  -0.005340  -0.036118  -0.004559  -0.000060
    34  H   -0.000003   0.000045   0.004811  -0.027854  -0.009299   0.016699
    35  H    0.000510   0.000629  -0.005831  -0.028092   0.004616   0.000184
    36  H    0.004413  -0.008416  -0.034472  -0.003859   0.000057  -0.000010
               7          8          9         10         11         12
     1  C   -0.006873  -0.000866   0.000000  -0.000001  -0.000043   0.000031
     2  C   -0.061690  -0.005187   0.000000   0.000000  -0.000026   0.000159
     3  C    0.296473  -0.039706   0.000000   0.000005   0.000208   0.004419
     4  C   -0.051347   0.004957   0.000000   0.000000   0.000001  -0.000220
     5  C   -0.012691   0.000388   0.000000   0.000000   0.000003  -0.000024
     6  O    0.000109   0.000000   0.000000   0.000000   0.000000   0.000000
     7  N    6.908700   0.283574   0.000024  -0.000181  -0.007821  -0.046841
     8  C    0.283574   4.931865  -0.000587   0.008785  -0.048132   0.302316
     9  C    0.000024  -0.000587   4.854695   0.487650  -0.009595  -0.028243
    10  C   -0.000181   0.008785   0.487650   5.056242   0.476350  -0.075696
    11  C   -0.007821  -0.048132  -0.009595   0.476350   4.625026   0.390031
    12  C   -0.046841   0.302316  -0.028243  -0.075696   0.390031   5.307895
    13  C    0.004785  -0.047160  -0.008317  -0.050283   0.015071   0.416404
    14  C   -0.000081   0.008328   0.485403  -0.031326  -0.048885  -0.070772
    15  H    0.000000   0.000004   0.375443  -0.034912   0.003651   0.000215
    16  H    0.000001  -0.000156  -0.037259   0.358503  -0.032677   0.006480
    17  H    0.000002  -0.000146  -0.037464   0.004736   0.000484   0.006384
    18  F   -0.002148   0.003739   0.002971  -0.047915   0.308706  -0.058772
    19  F   -0.000216  -0.003106   0.003062  -0.000051   0.002528  -0.052072
    20  H   -0.000160   0.000027   0.000000   0.000000   0.000000   0.000002
    21  H    0.003704   0.001177   0.000000   0.000007   0.000132  -0.000216
    22  H    0.000202  -0.000002   0.000000   0.000000   0.000001   0.000000
    23  H    0.005077   0.000164   0.000000   0.000000   0.000001  -0.000001
    24  H   -0.005290   0.001746   0.000000   0.000000   0.000008  -0.000023
    25  H   -0.004944   0.000012   0.000000   0.000000  -0.000003   0.000008
    26  H    0.017537  -0.000512   0.000000   0.000000  -0.000017   0.000060
    27  H    0.000487  -0.000017   0.000000   0.000000   0.000000  -0.000007
    28  H    0.000029  -0.000001   0.000000   0.000000   0.000000   0.000000
    29  H   -0.042396   0.376889  -0.000030  -0.000166   0.005567  -0.028876
    30  H   -0.049740   0.350963  -0.000016  -0.000078  -0.013176  -0.033240
    31  H   -0.044945  -0.006503   0.000000   0.000000  -0.000007   0.000160
    32  C    0.003770  -0.000147   0.000000   0.000000   0.000000   0.000002
    33  H    0.000033   0.000001   0.000000   0.000000   0.000000   0.000000
    34  H   -0.000092   0.000002   0.000000   0.000000   0.000000   0.000000
    35  H    0.000003   0.000000   0.000000   0.000000   0.000000   0.000000
    36  H    0.333411  -0.036209  -0.000014  -0.000056   0.004597  -0.008389
              13         14         15         16         17         18
     1  C    0.000000   0.000000   0.000000   0.000000   0.000000  -0.000216
     2  C    0.000003   0.000000   0.000000   0.000000   0.000000   0.000000
     3  C   -0.000019   0.000004   0.000000   0.000000   0.000000   0.000016
     4  C   -0.000013   0.000000   0.000000   0.000000   0.000000   0.000000
     5  C   -0.000019   0.000000   0.000000   0.000000   0.000000   0.000000
     6  O    0.000000   0.000000   0.000000   0.000000   0.000000   0.000000
     7  N    0.004785  -0.000081   0.000000   0.000001   0.000002  -0.002148
     8  C   -0.047160   0.008328   0.000004  -0.000156  -0.000146   0.003739
     9  C   -0.008317   0.485403   0.375443  -0.037259  -0.037464   0.002971
    10  C   -0.050283  -0.031326  -0.034912   0.358503   0.004736  -0.047915
    11  C    0.015071  -0.048885   0.003651  -0.032677   0.000484   0.308706
    12  C    0.416404  -0.070772   0.000215   0.006480   0.006384  -0.058772
    13  C    4.592821   0.471243   0.003618   0.000502  -0.032537   0.002376
    14  C    0.471243   5.055628  -0.034427   0.004678   0.358937  -0.000071
    15  H    0.003618  -0.034427   0.581324  -0.005955  -0.005921  -0.000022
    16  H    0.000502   0.004678  -0.005955   0.595009  -0.000151  -0.000392
    17  H   -0.032537   0.358937  -0.005921  -0.000151   0.594456   0.000001
    18  F    0.002376  -0.000071  -0.000022  -0.000392   0.000001   9.072001
    19  F    0.309601  -0.046724  -0.000023   0.000001  -0.000539   0.000000
    20  H    0.000000   0.000000   0.000000   0.000000   0.000000   0.000001
    21  H   -0.000003   0.000000   0.000000   0.000000   0.000000   0.001251
    22  H    0.000000   0.000000   0.000000   0.000000   0.000000  -0.000001
    23  H    0.000000   0.000000   0.000000   0.000000   0.000000   0.000000
    24  H   -0.000006   0.000000   0.000000   0.000000   0.000000  -0.000014
    25  H    0.000001   0.000000   0.000000   0.000000   0.000000  -0.000001
    26  H    0.000126   0.000001   0.000000   0.000000   0.000000   0.000000
    27  H    0.000002   0.000000   0.000000   0.000000   0.000000   0.000000
    28  H    0.000000   0.000000   0.000000   0.000000   0.000000   0.000000
    29  H   -0.008823   0.000460   0.000000   0.000002  -0.000008   0.000172
    30  H    0.005835  -0.000202   0.000000   0.000001   0.000003   0.004104
    31  H    0.000007   0.000000   0.000000   0.000000   0.000000  -0.000001
    32  C    0.000000   0.000000   0.000000   0.000000   0.000000   0.000000
    33  H    0.000000   0.000000   0.000000   0.000000   0.000000   0.000000
    34  H    0.000000   0.000000   0.000000   0.000000   0.000000   0.000000
    35  H    0.000000   0.000000   0.000000   0.000000   0.000000   0.000000
    36  H   -0.000282   0.000008   0.000000   0.000002   0.000000   0.005577
              19         20         21         22         23         24
     1  C    0.000000   0.387669   0.378645   0.382372  -0.039474  -0.042816
     2  C    0.000000  -0.037276  -0.037727  -0.028243   0.366760   0.380128
     3  C   -0.000002  -0.005486  -0.004219   0.004255  -0.027425  -0.030914
     4  C    0.000000   0.003010  -0.000424   0.000120  -0.004769   0.004528
     5  C    0.000000  -0.000057  -0.000014  -0.000002  -0.000067  -0.000078
     6  O    0.000000   0.000002   0.000000   0.000000  -0.000001   0.000000
     7  N   -0.000216  -0.000160   0.003704   0.000202   0.005077  -0.005290
     8  C   -0.003106   0.000027   0.001177  -0.000002   0.000164   0.001746
     9  C    0.003062   0.000000   0.000000   0.000000   0.000000   0.000000
    10  C   -0.000051   0.000000   0.000007   0.000000   0.000000   0.000000
    11  C    0.002528   0.000000   0.000132   0.000001   0.000001   0.000008
    12  C   -0.052072   0.000002  -0.000216   0.000000  -0.000001  -0.000023
    13  C    0.309601   0.000000  -0.000003   0.000000   0.000000  -0.000006
    14  C   -0.046724   0.000000   0.000000   0.000000   0.000000   0.000000
    15  H   -0.000023   0.000000   0.000000   0.000000   0.000000   0.000000
    16  H    0.000001   0.000000   0.000000   0.000000   0.000000   0.000000
    17  H   -0.000539   0.000000   0.000000   0.000000   0.000000   0.000000
    18  F    0.000000   0.000001   0.001251  -0.000001   0.000000  -0.000014
    19  F    9.066475   0.000000   0.000000   0.000000   0.000000   0.000000
    20  H    0.000000   0.600338  -0.032844  -0.030413  -0.004960   0.005702
    21  H    0.000000  -0.032844   0.613397  -0.030143   0.006097  -0.005474
    22  H    0.000000  -0.030413  -0.030143   0.601887  -0.003924  -0.003242
    23  H    0.000000  -0.004960   0.006097  -0.003924   0.640208  -0.037053
    24  H    0.000000   0.005702  -0.005474  -0.003242  -0.037053   0.638954
    25  H    0.000000   0.001794  -0.000004  -0.000083   0.000136  -0.000040
    26  H    0.000003   0.000001  -0.000006   0.000000  -0.000019   0.000001
    27  H    0.000000   0.000000   0.000000   0.000000  -0.000019   0.000002
    28  H    0.000000  -0.000005   0.000000   0.000000   0.000000   0.000000
    29  H    0.009581   0.000000   0.000015   0.000001   0.000017   0.000492
    30  H    0.000204  -0.000019  -0.000791  -0.000071  -0.000445   0.002259
    31  H   -0.000022   0.000031   0.000030  -0.000152  -0.001592  -0.004180
    32  C    0.000000   0.000142   0.000075   0.000003   0.001547   0.000099
    33  H    0.000000  -0.000030  -0.000004   0.000000   0.001031  -0.000041
    34  H    0.000000  -0.000039   0.000002   0.000001  -0.000025  -0.000002
    35  H    0.000000   0.001721  -0.000037  -0.000033   0.000929   0.000018
    36  H   -0.000011   0.000104   0.005456  -0.000218   0.000069  -0.000044
              25         26         27         28         29         30
     1  C    0.003313  -0.000008   0.000003  -0.000002   0.000044   0.001064
     2  C   -0.007926   0.000273  -0.000117   0.000000  -0.001649   0.003959
     3  C   -0.032221  -0.001707  -0.003003  -0.000005  -0.003804  -0.004262
     4  C    0.373863  -0.046459  -0.040899  -0.004354   0.000332  -0.000247
     5  C   -0.042051   0.375626   0.378273  -0.034484   0.000025  -0.000014
     6  O   -0.001967  -0.035230  -0.034814   0.288032   0.000000   0.000000
     7  N   -0.004944   0.017537   0.000487   0.000029  -0.042396  -0.049740
     8  C    0.000012  -0.000512  -0.000017  -0.000001   0.376889   0.350963
     9  C    0.000000   0.000000   0.000000   0.000000  -0.000030  -0.000016
    10  C    0.000000   0.000000   0.000000   0.000000  -0.000166  -0.000078
    11  C   -0.000003  -0.000017   0.000000   0.000000   0.005567  -0.013176
    12  C    0.000008   0.000060  -0.000007   0.000000  -0.028876  -0.033240
    13  C    0.000001   0.000126   0.000002   0.000000  -0.008823   0.005835
    14  C    0.000000   0.000001   0.000000   0.000000   0.000460  -0.000202
    15  H    0.000000   0.000000   0.000000   0.000000   0.000000   0.000000
    16  H    0.000000   0.000000   0.000000   0.000000   0.000002   0.000001
    17  H    0.000000   0.000000   0.000000   0.000000  -0.000008   0.000003
    18  F   -0.000001   0.000000   0.000000   0.000000   0.000172   0.004104
    19  F    0.000000   0.000003   0.000000   0.000000   0.009581   0.000204
    20  H    0.001794   0.000001   0.000000  -0.000005   0.000000  -0.000019
    21  H   -0.000004  -0.000006   0.000000   0.000000   0.000015  -0.000791
    22  H   -0.000083   0.000000   0.000000   0.000000   0.000001  -0.000071
    23  H    0.000136  -0.000019  -0.000019   0.000000   0.000017  -0.000445
    24  H   -0.000040   0.000001   0.000002   0.000000   0.000492   0.002259
    25  H    0.665531  -0.005305   0.006141   0.006395   0.000006  -0.000003
    26  H   -0.005305   0.639563  -0.041558  -0.006854  -0.000096   0.000058
    27  H    0.006141  -0.041558   0.629155   0.007236  -0.000021   0.000004
    28  H    0.006395  -0.006854   0.007236   0.429667   0.000000   0.000000
    29  H    0.000006  -0.000096  -0.000021   0.000000   0.608171  -0.047640
    30  H   -0.000003   0.000058   0.000004   0.000000  -0.047640   0.689341
    31  H    0.006269  -0.000578   0.005306   0.000024   0.006888  -0.001015
    32  C   -0.049676   0.006153  -0.008542  -0.000423  -0.000014   0.000017
    33  H    0.006078  -0.000047   0.004790   0.000065  -0.000002   0.000000
    34  H   -0.002758   0.000438  -0.000331  -0.000290   0.000000   0.000000
    35  H   -0.005162  -0.000164  -0.000041  -0.000054   0.000000  -0.000001
    36  H    0.003786  -0.000196   0.000019  -0.000004   0.006168  -0.006502
              31         32         33         34         35         36
     1  C    0.005222  -0.002489   0.000168  -0.000003   0.000510   0.004413
     2  C   -0.050474   0.000690  -0.001672   0.000045   0.000629  -0.008416
     3  C    0.384711  -0.036621  -0.005340   0.004811  -0.005831  -0.034472
     4  C   -0.040587   0.348008  -0.036118  -0.027854  -0.028092  -0.003859
     5  C   -0.008003  -0.045599  -0.004559  -0.009299   0.004616   0.000057
     6  O    0.000003  -0.008447  -0.000060   0.016699   0.000184  -0.000010
     7  N   -0.044945   0.003770   0.000033  -0.000092   0.000003   0.333411
     8  C   -0.006503  -0.000147   0.000001   0.000002   0.000000  -0.036209
     9  C    0.000000   0.000000   0.000000   0.000000   0.000000  -0.000014
    10  C    0.000000   0.000000   0.000000   0.000000   0.000000  -0.000056
    11  C   -0.000007   0.000000   0.000000   0.000000   0.000000   0.004597
    12  C    0.000160   0.000002   0.000000   0.000000   0.000000  -0.008389
    13  C    0.000007   0.000000   0.000000   0.000000   0.000000  -0.000282
    14  C    0.000000   0.000000   0.000000   0.000000   0.000000   0.000008
    15  H    0.000000   0.000000   0.000000   0.000000   0.000000   0.000000
    16  H    0.000000   0.000000   0.000000   0.000000   0.000000   0.000002
    17  H    0.000000   0.000000   0.000000   0.000000   0.000000   0.000000
    18  F   -0.000001   0.000000   0.000000   0.000000   0.000000   0.005577
    19  F   -0.000022   0.000000   0.000000   0.000000   0.000000  -0.000011
    20  H    0.000031   0.000142  -0.000030  -0.000039   0.001721   0.000104
    21  H    0.000030   0.000075  -0.000004   0.000002  -0.000037   0.005456
    22  H   -0.000152   0.000003   0.000000   0.000001  -0.000033  -0.000218
    23  H   -0.001592   0.001547   0.001031  -0.000025   0.000929   0.000069
    24  H   -0.004180   0.000099  -0.000041  -0.000002   0.000018  -0.000044
    25  H    0.006269  -0.049676   0.006078  -0.002758  -0.005162   0.003786
    26  H   -0.000578   0.006153  -0.000047   0.000438  -0.000164  -0.000196
    27  H    0.005306  -0.008542   0.004790  -0.000331  -0.000041   0.000019
    28  H    0.000024  -0.000423   0.000065  -0.000290  -0.000054  -0.000004
    29  H    0.006888  -0.000014  -0.000002   0.000000   0.000000   0.006168
    30  H   -0.001015   0.000017   0.000000   0.000000  -0.000001  -0.006502
    31  H    0.651472  -0.005129   0.004936  -0.000080  -0.000114   0.006495
    32  C   -0.005129   4.987177   0.381685   0.371923   0.378386  -0.000120
    33  H    0.004936   0.381685   0.611600  -0.030008  -0.032291   0.000010
    34  H   -0.000080   0.371923  -0.030008   0.599051  -0.031924   0.000003
    35  H   -0.000114   0.378386  -0.032291  -0.031924   0.614497   0.000000
    36  H    0.006495  -0.000120   0.000010   0.000003   0.000000   0.483306
 Mulliken charges:
               1
     1  C   -0.331205
     2  C   -0.188413
     3  C    0.077151
     4  C   -0.086266
     5  C    0.067997
     6  O   -0.571639
     7  N   -0.520465
     8  C   -0.086503
     9  C   -0.087723
    10  C   -0.151613
    11  C    0.328017
    12  C   -0.031175
    13  C    0.325067
    14  C   -0.152203
    15  H    0.117005
    16  H    0.111410
    17  H    0.111761
    18  F   -0.291361
    19  F   -0.288690
    20  H    0.110744
    21  H    0.101918
    22  H    0.107684
    23  H    0.097737
    24  H    0.095277
    25  H    0.078811
    26  H    0.098917
    27  H    0.097952
    28  H    0.315029
    29  H    0.118697
    30  H    0.099649
    31  H    0.091828
    32  C   -0.322469
    33  H    0.099774
    34  H    0.109730
    35  H    0.102252
    36  H    0.245319
 Sum of Mulliken charges =   0.00000
 Mulliken charges with hydrogens summed into heavy atoms:
               1
     1  C   -0.010859
     2  C    0.004601
     3  C    0.168979
     4  C   -0.007456
     5  C    0.264865
     6  O   -0.256610
     7  N   -0.275146
     8  C    0.131842
     9  C    0.029281
    10  C   -0.040202
    11  C    0.328017
    12  C   -0.031175
    13  C    0.325067
    14  C   -0.040442
    18  F   -0.291361
    19  F   -0.288690
    32  C   -0.010712
 Electronic spatial extent (au):  <R**2>=           5355.6148
 Charge=              0.0000 electrons
 Dipole moment (field-independent basis, Debye):
    X=             -2.1510    Y=              2.2765    Z=             -0.6312  Tot=              3.1949
 Quadrupole moment (field-independent basis, Debye-Ang):
   XX=            -97.1555   YY=           -108.4440   ZZ=            -95.8149
   XY=             10.0956   XZ=              4.2133   YZ=             -0.8568
 Traceless Quadrupole moment (field-independent basis, Debye-Ang):
   XX=              3.3160   YY=             -7.9725   ZZ=              4.6566
   XY=             10.0956   XZ=              4.2133   YZ=             -0.8568
 Octapole moment (field-independent basis, Debye-Ang**2):
  XXX=           -104.5170  YYY=             11.5621  ZZZ=            -15.6749  XYY=            -30.5087
  XXY=             17.8918  XXZ=            -19.2502  XZZ=              8.4400  YZZ=             -3.4200
  YYZ=              7.7072  XYZ=             -6.1044
 Hexadecapole moment (field-independent basis, Debye-Ang**3):
 XXXX=          -4832.2489 YYYY=          -1481.4148 ZZZZ=           -504.5911 XXXY=            171.6562
 XXXZ=            103.9124 YYYX=             75.0945 YYYZ=            -43.0518 ZZZX=            -68.0206
 ZZZY=             -1.2436 XXYY=          -1130.5877 XXZZ=           -867.9841 YYZZ=           -328.6479
 XXYZ=            -50.2888 YYXZ=             29.8227 ZZXY=            -39.5388
 N-N= 1.256696221694D+03 E-N=-4.467364748952D+03  KE= 8.291621191787D+02
 D1PCM: PCM CHGder 1st derivatives, ID1Alg=3 FixD1E=F DoIter=F DoCFld=F I1PDM=0.
 Calling FoFJK, ICntrl=      2127 FMM=F ISym2X=0 I1Cent= 0 IOpClX= 0 NMat=1 NMatS=1 NMatT=0.
 ***** Axes restored to original set *****
 -------------------------------------------------------------------
 Center     Atomic                   Forces (Hartrees/Bohr)
 Number     Number              X              Y              Z
 -------------------------------------------------------------------
      1        6          -0.002447452   -0.000489660   -0.001846118
      2        6          -0.002973835   -0.005586404    0.005159098
      3        6          -0.008895081    0.008585917   -0.005797282
      4        6           0.001983045   -0.008024490    0.006471313
      5        6          -0.001939388    0.009275904   -0.009276878
      6        8          -0.004605663    0.005669418    0.005585473
      7        7           0.005748097   -0.000627320    0.010067563
      8        6          -0.004051657   -0.003546600   -0.004287987
      9        6          -0.003979357   -0.002790224    0.003340843
     10        6          -0.003784333    0.001696678   -0.007768100
     11        6           0.024142148    0.007979003    0.005009822
     12        6          -0.006124867   -0.005876449    0.004401010
     13        6           0.005674697    0.010679085   -0.019371790
     14        6           0.006196983    0.000288038    0.005512346
     15        1          -0.001444155   -0.000952189    0.000786977
     16        1          -0.001127143   -0.000779134    0.000517278
     17        1          -0.001037682   -0.000809839    0.000520640
     18        9          -0.009230332   -0.003094285   -0.001066224
     19        9          -0.002194530   -0.003191080    0.005771684
     20        1          -0.000553677    0.001269978   -0.000938041
     21        1          -0.000362453    0.001332394   -0.001405633
     22        1           0.000136949    0.001125933   -0.000977377
     23        1           0.000559457    0.000307976    0.001165978
     24        1           0.002508836    0.000728239    0.001279059
     25        1           0.003210411    0.000846798   -0.003033451
     26        1           0.002157334   -0.007734700   -0.004130662
     27        1          -0.002184233    0.000330781    0.001835095
     28        1           0.001834928   -0.003801984    0.004380854
     29        1          -0.002545891    0.004092690    0.000367022
     30        1           0.001733394   -0.004653252   -0.002408418
     31        1           0.003238662    0.001201143   -0.001378141
     32        6          -0.004162195    0.000190299   -0.001785554
     33        1          -0.000125705   -0.001135298    0.000536926
     34        1           0.003988615    0.000491944   -0.000245200
     35        1           0.000501689   -0.001633316    0.000426342
     36        1           0.000154386   -0.001365995    0.002581534
 -------------------------------------------------------------------
 Cartesian Forces:  Max     0.024142148 RMS     0.005015809

 GradGradGradGradGradGradGradGradGradGradGradGradGradGradGradGradGradGrad
 Berny optimization.
 FormGI is forming the generalized inverse of G from B-inverse, IUseBI=4.
 Internal  Forces:  Max     0.009164098 RMS     0.002748145
 Search for a local minimum.
 Step number   1 out of a maximum of   50
 All quantities printed in internal units (Hartrees-Bohrs-Radians)
 Mixed Optimization -- RFO/linear search
 Second derivative matrix not updated -- first step.
 ITU=  0
     Eigenvalues ---    0.00230   0.00230   0.00230   0.00275   0.00453
     Eigenvalues ---    0.00731   0.00743   0.00857   0.01345   0.01564
     Eigenvalues ---    0.02144   0.02151   0.02153   0.02158   0.02161
     Eigenvalues ---    0.02167   0.02167   0.02169   0.02621   0.03194
     Eigenvalues ---    0.03485   0.03628   0.04480   0.04629   0.04706
     Eigenvalues ---    0.04885   0.04970   0.05187   0.05377   0.05426
     Eigenvalues ---    0.05426   0.05466   0.05710   0.06032   0.06566
     Eigenvalues ---    0.08868   0.09796   0.11301   0.11662   0.12583
     Eigenvalues ---    0.13153   0.13850   0.16000   0.16000   0.16000
     Eigenvalues ---    0.16000   0.16000   0.16000   0.16000   0.16000
     Eigenvalues ---    0.16000   0.16000   0.16411   0.16946   0.17212
     Eigenvalues ---    0.18200   0.21894   0.21931   0.21995   0.22085
     Eigenvalues ---    0.23326   0.23490   0.24907   0.24997   0.24999
     Eigenvalues ---    0.25000   0.26833   0.27783   0.28266   0.28779
     Eigenvalues ---    0.30015   0.32193   0.33793   0.33862   0.34045
     Eigenvalues ---    0.34067   0.34110   0.34113   0.34220   0.34220
     Eigenvalues ---    0.34227   0.34244   0.34333   0.34370   0.34381
     Eigenvalues ---    0.34424   0.35168   0.35275   0.35295   0.35423
     Eigenvalues ---    0.36577   0.41535   0.42332   0.42491   0.44359
     Eigenvalues ---    0.46327   0.46488   0.46522   0.46623   0.52886
     Eigenvalues ---    0.56873   0.57014
 RFO step:  Lambda=-8.13441357D-03 EMin= 2.30000000D-03
 Linear search not attempted -- first point.
 Iteration  1 RMS(Cart)=  0.03570455 RMS(Int)=  0.00088972
 Iteration  2 RMS(Cart)=  0.00192392 RMS(Int)=  0.00032211
 Iteration  3 RMS(Cart)=  0.00000249 RMS(Int)=  0.00032210
 Iteration  4 RMS(Cart)=  0.00000000 RMS(Int)=  0.00032210
 Variable       Old X    -DE/DX   Delta X   Delta X   Delta X     New X
                                 (Linear)    (Quad)   (Total)
    R1        2.87933   0.00689   0.00000   0.02234   0.02234   2.90166
    R2        2.06620   0.00091   0.00000   0.00259   0.00259   2.06878
    R3        2.06692   0.00128   0.00000   0.00363   0.00363   2.07054
    R4        2.06949  -0.00038   0.00000  -0.00107  -0.00107   2.06841
    R5        2.92615   0.00132   0.00000   0.00460   0.00460   2.93075
    R6        2.07144   0.00020   0.00000   0.00057   0.00057   2.07201
    R7        2.07217   0.00032   0.00000   0.00092   0.00092   2.07309
    R8        2.94763  -0.00394   0.00000  -0.01424  -0.01424   2.93338
    R9        2.78294   0.00237   0.00000   0.00654   0.00654   2.78948
   R10        2.07680  -0.00024   0.00000  -0.00069  -0.00069   2.07612
   R11        2.91560  -0.00198   0.00000  -0.00681  -0.00681   2.90879
   R12        2.07564   0.00132   0.00000   0.00379   0.00379   2.07943
   R13        2.90466   0.00001   0.00000   0.00002   0.00002   2.90468
   R14        2.69520   0.00707   0.00000   0.01668   0.01668   2.71189
   R15        2.06772   0.00079   0.00000   0.00223   0.00223   2.06996
   R16        2.06961   0.00036   0.00000   0.00101   0.00101   2.07062
   R17        1.83760  -0.00607   0.00000  -0.01130  -0.01130   1.82630
   R18        2.76488   0.00487   0.00000   0.01302   0.01302   2.77790
   R19        1.92727  -0.00274   0.00000  -0.00607  -0.00607   1.92121
   R20        2.83793   0.00790   0.00000   0.02394   0.02394   2.86187
   R21        2.07254  -0.00276   0.00000  -0.00793  -0.00793   2.06462
   R22        2.07141   0.00401   0.00000   0.01147   0.01147   2.08288
   R23        2.63386   0.00154   0.00000   0.00342   0.00340   2.63726
   R24        2.63455   0.00082   0.00000   0.00195   0.00192   2.63647
   R25        2.05403  -0.00190   0.00000  -0.00528  -0.00528   2.04875
   R26        2.63495  -0.00376   0.00000  -0.00799  -0.00798   2.62698
   R27        2.05198  -0.00060   0.00000  -0.00167  -0.00167   2.05031
   R28        2.63880  -0.00123   0.00000  -0.00286  -0.00282   2.63598
   R29        2.53504   0.00885   0.00000   0.01535   0.01535   2.55039
   R30        2.63692   0.00024   0.00000   0.00034   0.00037   2.63728
   R31        2.63605  -0.00300   0.00000  -0.00628  -0.00629   2.62976
   R32        2.53384   0.00617   0.00000   0.01066   0.01066   2.54451
   R33        2.05230  -0.00074   0.00000  -0.00205  -0.00205   2.05025
   R34        2.06961   0.00110   0.00000   0.00313   0.00313   2.07274
   R35        2.06921  -0.00154   0.00000  -0.00439  -0.00439   2.06482
   R36        2.06711   0.00005   0.00000   0.00014   0.00014   2.06725
    A1        1.95047   0.00120   0.00000   0.00711   0.00707   1.95754
    A2        1.94916   0.00131   0.00000   0.00643   0.00641   1.95557
    A3        1.91524   0.00149   0.00000   0.01018   0.01013   1.92537
    A4        1.89496  -0.00170   0.00000  -0.01249  -0.01249   1.88247
    A5        1.87670  -0.00106   0.00000  -0.00374  -0.00380   1.87290
    A6        1.87433  -0.00145   0.00000  -0.00864  -0.00867   1.86566
    A7        2.01549   0.00092   0.00000   0.00327   0.00327   2.01877
    A8        1.89748   0.00046   0.00000   0.01177   0.01174   1.90921
    A9        1.89039   0.00128   0.00000   0.00954   0.00948   1.89987
   A10        1.91059  -0.00071   0.00000  -0.00407  -0.00413   1.90646
   A11        1.91491  -0.00250   0.00000  -0.02574  -0.02575   1.88916
   A12        1.82529   0.00056   0.00000   0.00589   0.00570   1.83099
   A13        1.98949  -0.00232   0.00000   0.00181   0.00116   1.99065
   A14        1.95914   0.00393   0.00000   0.03319   0.03298   1.99213
   A15        1.86967  -0.00007   0.00000  -0.00659  -0.00626   1.86341
   A16        1.88716   0.00034   0.00000   0.01293   0.01238   1.89953
   A17        1.86206   0.00108   0.00000  -0.00229  -0.00225   1.85981
   A18        1.89169  -0.00324   0.00000  -0.04428  -0.04405   1.84764
   A19        1.93498  -0.00047   0.00000  -0.00480  -0.00505   1.92994
   A20        1.91425  -0.00145   0.00000  -0.02624  -0.02651   1.88774
   A21        1.96034   0.00072   0.00000   0.01071   0.01075   1.97109
   A22        1.87961  -0.00058   0.00000  -0.01486  -0.01527   1.86435
   A23        1.90686   0.00046   0.00000   0.01091   0.01091   1.91777
   A24        1.86479   0.00132   0.00000   0.02417   0.02435   1.88914
   A25        1.93330   0.00806   0.00000   0.04203   0.04157   1.97487
   A26        1.95868  -0.00746   0.00000  -0.03509  -0.03735   1.92133
   A27        1.93382  -0.00173   0.00000  -0.02959  -0.02995   1.90386
   A28        1.87151   0.00500   0.00000   0.07709   0.07705   1.94856
[...]
    30  H    0.001099   0.005110  -0.005728  -0.000122  -0.000028   0.000000
    31  H    0.005394  -0.054017   0.382764  -0.040819  -0.008232   0.000015
    32  C   -0.002355  -0.000242  -0.036520   0.354888  -0.043568  -0.009258
    33  H    0.000187  -0.002079  -0.005606  -0.036357  -0.004321  -0.000006
    34  H   -0.000004   0.000105   0.005035  -0.031492  -0.010568   0.017963
    35  H    0.000545   0.000436  -0.004880  -0.025891   0.004476   0.000098
    36  H    0.004201  -0.007402  -0.035904  -0.005431   0.000045  -0.000013
               7          8          9         10         11         12
     1  C   -0.005339  -0.001170   0.000000  -0.000002  -0.000050   0.000046
     2  C   -0.060846  -0.006023   0.000000   0.000000  -0.000033   0.000181
     3  C    0.294080  -0.037527   0.000000   0.000006   0.000272   0.004131
     4  C   -0.045035   0.004622   0.000000   0.000000  -0.000009  -0.000202
     5  C   -0.016658   0.000447   0.000000   0.000000   0.000004  -0.000028
     6  O    0.000093   0.000000   0.000000   0.000000   0.000000   0.000000
     7  N    6.908745   0.284539   0.000021  -0.000164  -0.007487  -0.038606
     8  C    0.284539   4.921915  -0.000657   0.008250  -0.051014   0.309159
     9  C    0.000021  -0.000657   4.864029   0.485099  -0.006027  -0.027140
    10  C   -0.000164   0.008250   0.485099   5.045235   0.481658  -0.081757
    11  C   -0.007487  -0.051014  -0.006027   0.481658   4.636270   0.385880
    12  C   -0.038606   0.309159  -0.027140  -0.081757   0.385880   5.287173
    13  C    0.003718  -0.046209  -0.004283  -0.048270   0.021320   0.422493
    14  C   -0.000080   0.007617   0.482691  -0.036599  -0.046901  -0.073861
    15  H    0.000000   0.000005   0.373785  -0.034653   0.003549   0.000443
    16  H    0.000001  -0.000135  -0.036020   0.361221  -0.032123   0.006154
    17  H    0.000001  -0.000118  -0.036548   0.004461   0.000327   0.006127
    18  F   -0.003319   0.004129   0.002838  -0.045978   0.292827  -0.057550
    19  F   -0.000107  -0.005175   0.003039   0.000012   0.002769  -0.049299
    20  H   -0.000253   0.000038   0.000000   0.000000  -0.000001   0.000004
    21  H    0.003782   0.001733   0.000000   0.000025   0.000303  -0.000497
    22  H    0.000216  -0.000003   0.000000   0.000000   0.000001   0.000000
    23  H    0.004733   0.000180   0.000000   0.000000   0.000001  -0.000002
    24  H   -0.004482   0.001812   0.000000   0.000000   0.000004  -0.000001
    25  H   -0.006379   0.000023   0.000000   0.000000  -0.000007   0.000013
    26  H    0.021336  -0.000598   0.000000  -0.000001  -0.000013   0.000103
    27  H    0.000570  -0.000026   0.000000   0.000000   0.000000  -0.000002
    28  H    0.000034  -0.000001   0.000000   0.000000   0.000000   0.000000
    29  H   -0.046121   0.376159  -0.000030  -0.000146   0.005739  -0.029044
    30  H   -0.045500   0.348233   0.000007  -0.000224  -0.011722  -0.030674
    31  H   -0.050645  -0.005015   0.000000   0.000000   0.000000   0.000087
    32  C    0.003579  -0.000139   0.000000   0.000000   0.000000   0.000002
    33  H    0.000032   0.000001   0.000000   0.000000   0.000000   0.000000
    34  H   -0.000092   0.000002   0.000000   0.000000   0.000000   0.000000
    35  H   -0.000015   0.000000   0.000000   0.000000   0.000000   0.000000
    36  H    0.332076  -0.039026  -0.000014  -0.000105   0.004077  -0.009640
              13         14         15         16         17         18
     1  C    0.000000   0.000000   0.000000   0.000000   0.000000  -0.000974
     2  C    0.000002   0.000000   0.000000   0.000000   0.000000   0.000011
     3  C   -0.000061   0.000003   0.000000   0.000000   0.000000   0.000008
     4  C   -0.000003   0.000000   0.000000   0.000000   0.000000   0.000000
     5  C   -0.000010   0.000000   0.000000   0.000000   0.000000   0.000000
     6  O    0.000000   0.000000   0.000000   0.000000   0.000000   0.000000
     7  N    0.003718  -0.000080   0.000000   0.000001   0.000001  -0.003319
     8  C   -0.046209   0.007617   0.000005  -0.000135  -0.000118   0.004129
     9  C   -0.004283   0.482691   0.373785  -0.036020  -0.036548   0.002838
    10  C   -0.048270  -0.036599  -0.034653   0.361221   0.004461  -0.045978
    11  C    0.021320  -0.046901   0.003549  -0.032123   0.000327   0.292827
    12  C    0.422493  -0.073861   0.000443   0.006154   0.006127  -0.057550
    13  C    4.595308   0.472738   0.003525   0.000359  -0.032166   0.002513
    14  C    0.472738   5.045965  -0.033799   0.004343   0.361956  -0.000013
    15  H    0.003525  -0.033799   0.580935  -0.005620  -0.005660  -0.000024
    16  H    0.000359   0.004343  -0.005620   0.585153  -0.000131  -0.000420
    17  H   -0.032166   0.361956  -0.005660  -0.000131   0.585423   0.000001
    18  F    0.002513  -0.000013  -0.000024  -0.000420   0.000001   9.091706
    19  F    0.296922  -0.044665  -0.000025   0.000001  -0.000631  -0.000001
    20  H    0.000000   0.000000   0.000000   0.000000   0.000000   0.000006
    21  H   -0.000005   0.000000   0.000000   0.000000   0.000000   0.004915
    22  H    0.000000   0.000000   0.000000   0.000000   0.000000   0.000001
    23  H    0.000000   0.000000   0.000000   0.000000   0.000000   0.000000
    24  H   -0.000004   0.000000   0.000000   0.000000   0.000000  -0.000009
    25  H    0.000000   0.000000   0.000000   0.000000   0.000000  -0.000004
    26  H    0.000055   0.000000   0.000000   0.000000   0.000000   0.000000
    27  H    0.000001   0.000000   0.000000   0.000000   0.000000   0.000000
    28  H    0.000000   0.000000   0.000000   0.000000   0.000000   0.000000
    29  H   -0.007754   0.000454   0.000000   0.000001  -0.000007   0.000167
    30  H    0.004808  -0.000213   0.000000   0.000001   0.000003   0.002692
    31  H   -0.000002   0.000000   0.000000   0.000000   0.000000  -0.000002
    32  C    0.000000   0.000000   0.000000   0.000000   0.000000   0.000000
    33  H    0.000000   0.000000   0.000000   0.000000   0.000000   0.000000
    34  H    0.000000   0.000000   0.000000   0.000000   0.000000   0.000000
    35  H    0.000000   0.000000   0.000000   0.000000   0.000000   0.000000
    36  H   -0.000145   0.000009   0.000000   0.000004   0.000000   0.008761
              19         20         21         22         23         24
     1  C    0.000000   0.386629   0.376174   0.381778  -0.037089  -0.041661
     2  C    0.000000  -0.035892  -0.036669  -0.027257   0.367612   0.379572
     3  C    0.000000  -0.004940  -0.004280   0.004099  -0.027067  -0.031890
     4  C    0.000000   0.003089  -0.000517   0.000076  -0.006508   0.004796
     5  C    0.000000  -0.000048  -0.000009  -0.000001  -0.000027  -0.000082
     6  O    0.000000   0.000002   0.000000   0.000000  -0.000001   0.000000
     7  N   -0.000107  -0.000253   0.003782   0.000216   0.004733  -0.004482
     8  C   -0.005175   0.000038   0.001733  -0.000003   0.000180   0.001812
     9  C    0.003039   0.000000   0.000000   0.000000   0.000000   0.000000
    10  C    0.000012   0.000000   0.000025   0.000000   0.000000   0.000000
    11  C    0.002769  -0.000001   0.000303   0.000001   0.000001   0.000004
    12  C   -0.049299   0.000004  -0.000497   0.000000  -0.000002  -0.000001
    13  C    0.296922   0.000000  -0.000005   0.000000   0.000000  -0.000004
    14  C   -0.044665   0.000000   0.000000   0.000000   0.000000   0.000000
    15  H   -0.000025   0.000000   0.000000   0.000000   0.000000   0.000000
    16  H    0.000001   0.000000   0.000000   0.000000   0.000000   0.000000
    17  H   -0.000631   0.000000   0.000000   0.000000   0.000000   0.000000
    18  F   -0.000001   0.000006   0.004915   0.000001   0.000000  -0.000009
    19  F    9.084789   0.000000   0.000000   0.000000   0.000000   0.000000
    20  H    0.000000   0.602234  -0.033150  -0.030979  -0.004791   0.005463
    21  H    0.000000  -0.033150   0.610801  -0.030079   0.005596  -0.005139
    22  H    0.000000  -0.030979  -0.030079   0.601960  -0.003139  -0.003302
    23  H    0.000000  -0.004791   0.005596  -0.003139   0.633900  -0.036312
    24  H    0.000000   0.005463  -0.005139  -0.003302  -0.036312   0.639552
    25  H    0.000000   0.001364  -0.000018  -0.000073   0.000149  -0.000063
    26  H    0.000000   0.000001  -0.000007   0.000000  -0.000028   0.000000
    27  H    0.000000   0.000000   0.000000   0.000000  -0.000023   0.000002
    28  H    0.000000  -0.000002   0.000000   0.000000   0.000000   0.000000
    29  H    0.010642  -0.000002   0.000037   0.000001   0.000017   0.000412
    30  H    0.000205  -0.000023  -0.000973  -0.000098  -0.000405   0.001782
    31  H   -0.000012   0.000007   0.000067  -0.000146  -0.000712  -0.005144
    32  C    0.000000  -0.000003   0.000080   0.000012   0.002739   0.000073
    33  H    0.000000  -0.000024  -0.000004  -0.000001   0.001391  -0.000053
    34  H    0.000000  -0.000039   0.000002   0.000000  -0.000023  -0.000003
    35  H    0.000000   0.001730  -0.000042  -0.000023   0.000396   0.000039
    36  H   -0.000011   0.000129   0.003919  -0.000162   0.000006  -0.000047
              25         26         27         28         29         30
     1  C    0.003181  -0.000014   0.000002  -0.000001   0.000088   0.001099
     2  C   -0.007458   0.000439  -0.000114   0.000000  -0.001838   0.005110
     3  C   -0.036046  -0.002421  -0.003471  -0.000032  -0.002602  -0.005728
     4  C    0.372204  -0.051164  -0.044338  -0.004306   0.000150  -0.000122
     5  C   -0.044469   0.371697   0.378544  -0.034775   0.000056  -0.000028
     6  O   -0.001629  -0.030965  -0.037983   0.288435   0.000000   0.000000
     7  N   -0.006379   0.021336   0.000570   0.000034  -0.046121  -0.045500
     8  C    0.000023  -0.000598  -0.000026  -0.000001   0.376159   0.348233
     9  C    0.000000   0.000000   0.000000   0.000000  -0.000030   0.000007
    10  C    0.000000  -0.000001   0.000000   0.000000  -0.000146  -0.000224
    11  C   -0.000007  -0.000013   0.000000   0.000000   0.005739  -0.011722
    12  C    0.000013   0.000103  -0.000002   0.000000  -0.029044  -0.030674
    13  C    0.000000   0.000055   0.000001   0.000000  -0.007754   0.004808
    14  C    0.000000   0.000000   0.000000   0.000000   0.000454  -0.000213
    15  H    0.000000   0.000000   0.000000   0.000000   0.000000   0.000000
    16  H    0.000000   0.000000   0.000000   0.000000   0.000001   0.000001
    17  H    0.000000   0.000000   0.000000   0.000000  -0.000007   0.000003
    18  F   -0.000004   0.000000   0.000000   0.000000   0.000167   0.002692
    19  F    0.000000   0.000000   0.000000   0.000000   0.010642   0.000205
    20  H    0.001364   0.000001   0.000000  -0.000002  -0.000002  -0.000023
    21  H   -0.000018  -0.000007   0.000000   0.000000   0.000037  -0.000973
    22  H   -0.000073   0.000000   0.000000   0.000000   0.000001  -0.000098
    23  H    0.000149  -0.000028  -0.000023   0.000000   0.000017  -0.000405
    24  H   -0.000063   0.000000   0.000002   0.000000   0.000412   0.001782
    25  H    0.670315  -0.004986   0.006516   0.005779   0.000009  -0.000005
    26  H   -0.004986   0.635248  -0.039909  -0.006342  -0.000124   0.000071
    27  H    0.006516  -0.039909   0.635375   0.007591  -0.000021   0.000004
    28  H    0.005779  -0.006342   0.007591   0.429504   0.000000   0.000000
    29  H    0.000009  -0.000124  -0.000021   0.000000   0.608935  -0.048201
    30  H   -0.000005   0.000071   0.000004   0.000000  -0.048201   0.683234
    31  H    0.006797  -0.001021   0.005705   0.000025   0.007067  -0.001432
    32  C   -0.046950   0.006095  -0.008459  -0.000263  -0.000005   0.000013
    33  H    0.005945  -0.000046   0.004739   0.000048  -0.000001   0.000000
    34  H   -0.002035   0.000563  -0.000375  -0.000370   0.000000   0.000000
    35  H   -0.005544  -0.000184  -0.000025  -0.000035   0.000000  -0.000001
    36  H    0.005528  -0.000337   0.000030  -0.000003   0.006391  -0.005376
              31         32         33         34         35         36
     1  C    0.005394  -0.002355   0.000187  -0.000004   0.000545   0.004201
     2  C   -0.054017  -0.000242  -0.002079   0.000105   0.000436  -0.007402
     3  C    0.382764  -0.036520  -0.005606   0.005035  -0.004880  -0.035904
     4  C   -0.040819   0.354888  -0.036357  -0.031492  -0.025891  -0.005431
     5  C   -0.008232  -0.043568  -0.004321  -0.010568   0.004476   0.000045
     6  O    0.000015  -0.009258  -0.000006   0.017963   0.000098  -0.000013
     7  N   -0.050645   0.003579   0.000032  -0.000092  -0.000015   0.332076
     8  C   -0.005015  -0.000139   0.000001   0.000002   0.000000  -0.039026
     9  C    0.000000   0.000000   0.000000   0.000000   0.000000  -0.000014
    10  C    0.000000   0.000000   0.000000   0.000000   0.000000  -0.000105
    11  C    0.000000   0.000000   0.000000   0.000000   0.000000   0.004077
    12  C    0.000087   0.000002   0.000000   0.000000   0.000000  -0.009640
    13  C   -0.000002   0.000000   0.000000   0.000000   0.000000  -0.000145
    14  C    0.000000   0.000000   0.000000   0.000000   0.000000   0.000009
    15  H    0.000000   0.000000   0.000000   0.000000   0.000000   0.000000
    16  H    0.000000   0.000000   0.000000   0.000000   0.000000   0.000004
    17  H    0.000000   0.000000   0.000000   0.000000   0.000000   0.000000
    18  F   -0.000002   0.000000   0.000000   0.000000   0.000000   0.008761
    19  F   -0.000012   0.000000   0.000000   0.000000   0.000000  -0.000011
    20  H    0.000007  -0.000003  -0.000024  -0.000039   0.001730   0.000129
    21  H    0.000067   0.000080  -0.000004   0.000002  -0.000042   0.003919
    22  H   -0.000146   0.000012  -0.000001   0.000000  -0.000023  -0.000162
    23  H   -0.000712   0.002739   0.001391  -0.000023   0.000396   0.000006
    24  H   -0.005144   0.000073  -0.000053  -0.000003   0.000039  -0.000047
    25  H    0.006797  -0.046950   0.005945  -0.002035  -0.005544   0.005528
    26  H   -0.001021   0.006095  -0.000046   0.000563  -0.000184  -0.000337
    27  H    0.005705  -0.008459   0.004739  -0.000375  -0.000025   0.000030
    28  H    0.000025  -0.000263   0.000048  -0.000370  -0.000035  -0.000003
    29  H    0.007067  -0.000005  -0.000001   0.000000   0.000000   0.006391
    30  H   -0.001432   0.000013   0.000000   0.000000  -0.000001  -0.005376
    31  H    0.663714  -0.004646   0.004593  -0.000066  -0.000139   0.007127
    32  C   -0.004646   4.979175   0.381361   0.371588   0.379285  -0.000095
    33  H    0.004593   0.381361   0.612053  -0.029669  -0.033273   0.000016
    34  H   -0.000066   0.371588  -0.029669   0.598910  -0.030440   0.000002
    35  H   -0.000139   0.379285  -0.033273  -0.030440   0.609186  -0.000002
    36  H    0.007127  -0.000095   0.000016   0.000002  -0.000002   0.486304
 Mulliken charges:
               1
     1  C   -0.335871
     2  C   -0.186823
     3  C    0.078171
     4  C   -0.082359
     5  C    0.061998
     6  O   -0.569189
     7  N   -0.526427
     8  C   -0.076026
     9  C   -0.100789
    10  C   -0.138068
    11  C    0.320388
    12  C   -0.023693
    13  C    0.315149
    14  C   -0.139646
    15  H    0.117539
    16  H    0.117212
    17  H    0.116964
    18  F   -0.302280
    19  F   -0.298455
    20  H    0.109453
    21  H    0.103955
    22  H    0.107118
    23  H    0.099406
    24  H    0.094685
    25  H    0.077846
    26  H    0.102554
    27  H    0.095669
    28  H    0.314714
    29  H    0.119572
    30  H    0.103461
    31  H    0.088689
    32  C   -0.326388
    33  H    0.101076
    34  H    0.111006
    35  H    0.104303
    36  H    0.245086
 Sum of Mulliken charges =   0.00000
 Mulliken charges with hydrogens summed into heavy atoms:
               1
     1  C   -0.015344
     2  C    0.007269
     3  C    0.166860
     4  C   -0.004513
     5  C    0.260220
     6  O   -0.254475
     7  N   -0.281341
     8  C    0.147006
     9  C    0.016751
    10  C   -0.020857
    11  C    0.320388
    12  C   -0.023693
    13  C    0.315149
    14  C   -0.022682
    18  F   -0.302280
    19  F   -0.298455
    32  C   -0.010003
 Electronic spatial extent (au):  <R**2>=           5384.4390
 Charge=              0.0000 electrons
 Dipole moment (field-independent basis, Debye):
    X=             -2.5161    Y=              2.2150    Z=             -0.7890  Tot=              3.4437
 Quadrupole moment (field-independent basis, Debye-Ang):
   XX=            -96.9850   YY=           -108.7324   ZZ=            -95.6796
   XY=              9.4207   XZ=              5.2938   YZ=             -0.5285
 Traceless Quadrupole moment (field-independent basis, Debye-Ang):
   XX=              3.4807   YY=             -8.2668   ZZ=              4.7861
   XY=              9.4207   XZ=              5.2938   YZ=             -0.5285
 Octapole moment (field-independent basis, Debye-Ang**2):
  XXX=           -114.6687  YYY=             10.5355  ZZZ=            -18.5032  XYY=            -29.2229
  XXY=             18.7711  XXZ=            -16.9897  XZZ=              6.3481  YZZ=             -2.9098
  YYZ=              6.9145  XYZ=             -5.9392
 Hexadecapole moment (field-independent basis, Debye-Ang**3):
 XXXX=          -4888.8707 YYYY=          -1397.4197 ZZZZ=           -566.4090 XXXY=            191.8876
 XXXZ=            116.1539 YYYX=             72.3347 YYYZ=            -43.0737 ZZZX=            -65.7909
 ZZZY=             -1.8861 XXYY=          -1131.3002 XXZZ=           -885.6490 YYZZ=           -324.2684
 XXYZ=            -60.2201 YYXZ=             26.6152 ZZXY=            -39.9513
 N-N= 1.255672119185D+03 E-N=-4.465245675801D+03  KE= 8.290879816712D+02
 1\1\GINC-SWANNODE-0-13\FOpt\RB3LYP\6-31G(d,p)\C13H19F2N1O1\KE291\06-Ma
 r-2019\0\\# b3lyp/6-31g(d,p) Opt=(maxcycles=50) scrf=(solvent=chlorofo
 rm)\\AT3_1ginp017\\0,1\C,-1.7072680106,0.5300802971,0.4198326543\C,-1.
 0506562654,-0.0924908696,1.658021733\C,-0.1865139449,0.8783391111,2.50
 29969405\C,-0.9956017179,2.0101512231,3.1893667515\C,-0.1014492785,2.7
 821770035,4.1775717165\O,-0.7509323358,3.9198246249,4.7502595667\N,0.9
 287783905,1.4935600923,1.7587062119\C,1.924623359,0.552978686,1.233098
 9175\C,5.0782868979,2.6842713752,-0.8507114621\C,3.8083000987,2.582824
 2418,-1.4225258997\C,2.8294163643,1.8915325622,-0.7225968225\C,3.03523
 32594,1.2892105285,0.5197888462\C,4.3212502433,1.4292801174,1.04331387
 44\C,5.3457053404,2.1060636285,0.390166026\H,5.8631933621,3.2183408031
 ,-1.3757503705\H,3.5725018807,3.0245144794,-2.3837099584\H,6.322910392
 8,2.1716052484,0.8543816596\F,1.5867408151,1.7948169496,-1.2657243812\
 F,4.5877712389,0.8673461759,2.2448844532\H,-2.3869950065,1.3482685209,
 0.681355254\H,-0.9605231023,0.9263828962,-0.277040286\H,-2.2908114165,
 -0.2193141684,-0.1240353289\H,-1.8177932078,-0.5370695348,2.3008851827
 \H,-0.4185301894,-0.9303864465,1.3404245011\H,-1.3007230675,2.72452569
 74,2.4070886592\H,0.8337342869,3.0652597998,3.6830607997\H,0.151474061
 3,2.1321984799,5.024361202\H,-0.8836038055,4.5607094266,4.0384912386\H
 ,2.348478803,-0.001397558,2.0746398962\H,1.5055486304,-0.1909387687,0.
 5365756446\H,0.2737898655,0.27801762,3.3030664398\C,-2.2593831841,1.51
 37072388,3.9045403494\H,-2.0219217179,0.6965738461,4.5970034052\H,-2.6
 904736379,2.3307875549,4.4885831254\H,-3.0224143947,1.1548181428,3.208
 7870551\H,0.5505549929,2.0323009748,0.982256405\\Version=EM64L-G09RevD
 .01\State=1-A\HF=-836.4933202\RMSD=4.093e-09\RMSF=4.446e-06\Dipole=0.3
 535752,-0.0385526,-1.3073421\Quadrupole=4.934437,2.0109285,-6.9453655,
 3.4700956,-0.8213541,-6.4989866\PG=C01 [X(C13H19F2N1O1)]\\@


 A SUCCESSFUL PURSUIT OF SCIENCE MAKES A MAN THE
 BENEFACTOR OF ALL MANKIND OF EVERY AGE.
   --  JOSEPH PRIESTLEY, "EXPERIMENTS AND
 OBSERVATIONS ON DIFFERENT KINDS OF AIR", 1774
 Job cpu time:       0 days  2 hours 22 minutes  4.0 seconds.
 File lengths (MBytes):  RWF=    281 Int=      0 D2E=      0 Chk=     13 Scr=      1
 Normal termination of Gaussian 09 at Wed Mar  6 11:18:06 2019.
