 Entering Gaussian System, Link 0=/usr/local/shared/gaussian/em64t/09-D01/g09/g09
 Initial command:
 /usr/local/shared/gaussian/em64t/09-D01/g09/l1.exe "/scratch/ke291/AT3_1ginp016/Gau-27830.inp" -scrdir="/scratch/ke291/AT3_1ginp016/"
 Entering Link 1 = /usr/local/shared/gaussian/em64t/09-D01/g09/l1.exe PID=     27839.
  
 Copyright (c) 1988,1990,1992,1993,1995,1998,2003,2009,2013,
            Gaussian, Inc.  All Rights Reserved.
  
 This is part of the Gaussian(R) 09 program.  It is based on
 the Gaussian(R) 03 system (copyright 2003, Gaussian, Inc.),
 the Gaussian(R) 98 system (copyright 1998, Gaussian, Inc.),
 the Gaussian(R) 94 system (copyright 1995, Gaussian, Inc.),
 the Gaussian 92(TM) system (copyright 1992, Gaussian, Inc.),
 the Gaussian 90(TM) system (copyright 1990, Gaussian, Inc.),
 the Gaussian 88(TM) system (copyright 1988, Gaussian, Inc.),
 the Gaussian 86(TM) system (copyright 1986, Carnegie Mellon
 University), and the Gaussian 82(TM) system (copyright 1983,
 Carnegie Mellon University). Gaussian is a federally registered
 trademark of Gaussian, Inc.
  
 This software contains proprietary and confidential information,
 including trade secrets, belonging to Gaussian, Inc.
  
 This software is provided under written license and may be
 used, copied, transmitted, or stored only in accord with that
 written license.
  
 The following legend is applicable only to US Government
 contracts under FAR:
  
                    RESTRICTED RIGHTS LEGEND
  
 Use, reproduction and disclosure by the US Government is
 subject to restrictions as set forth in subparagraphs (a)
 and (c) of the Commercial Computer Software - Restricted
 Rights clause in FAR 52.227-19.
  
 Gaussian, Inc.
 340 Quinnipiac St., Bldg. 40, Wallingford CT 06492
  
  
 ---------------------------------------------------------------
 Warning -- This program may not be used in any manner that
 competes with the business of Gaussian, Inc. or will provide
 assistance to any competitor of Gaussian, Inc.  The licensee
 of this program is prohibited from giving any competitor of
 Gaussian, Inc. access to this program.  By using this program,
 the user acknowledges that Gaussian, Inc. is engaged in the
 business of creating and licensing software in the field of
 computational chemistry and represents and warrants to the
 licensee that it is not a competitor of Gaussian, Inc. and that
 it will not use this program in any manner prohibited above.
 ---------------------------------------------------------------
  

 Cite this work as:
 Gaussian 09, Revision D.01,
 M. J. Frisch, G. W. Trucks, H. B. Schlegel, G. E. Scuseria, 
 M. A. Robb, J. R. Cheeseman, G. Scalmani, V. Barone, B. Mennucci, 
 G. A. Petersson, H. Nakatsuji, M. Caricato, X. Li, H. P. Hratchian, 
 A. F. Izmaylov, J. Bloino, G. Zheng, J. L. Sonnenberg, M. Hada, 
 M. Ehara, K. Toyota, R. Fukuda, J. Hasegawa, M. Ishida, T. Nakajima, 
 Y. Honda, O. Kitao, H. Nakai, T. Vreven, J. A. Montgomery, Jr., 
 J. E. Peralta, F. Ogliaro, M. Bearpark, J. J. Heyd, E. Brothers, 
 K. N. Kudin, V. N. Staroverov, T. Keith, R. Kobayashi, J. Normand, 
 K. Raghavachari, A. Rendell, J. C. Burant, S. S. Iyengar, J. Tomasi, 
 M. Cossi, N. Rega, J. M. Millam, M. Klene, J. E. Knox, J. B. Cross, 
 V. Bakken, C. Adamo, J. Jaramillo, R. Gomperts, R. E. Stratmann, 
 O. Yazyev, A. J. Austin, R. Cammi, C. Pomelli, J. W. Ochterski, 
 R. L. Martin, K. Morokuma, V. G. Zakrzewski, G. A. Voth, 
 P. Salvador, J. J. Dannenberg, S. Dapprich, A. D. Daniels, 
 O. Farkas, J. B. Foresman, J. V. Ortiz, J. Cioslowski, 
 and D. J. Fox, Gaussian, Inc., Wallingford CT, 2013.
 
 ******************************************
 Gaussian 09:  EM64L-G09RevD.01 24-Apr-2013
                 6-Mar-2019 
 ******************************************
 %nprocshared=2
 Will use up to    2 processors via shared memory.
 %mem=6000MB
 %chk=AT3_1ginp016.chk
 ---------------------------------------------------------------
 # b3lyp/6-31g(d,p) Opt=(maxcycles=50) scrf=(solvent=chloroform)
 ---------------------------------------------------------------
 1/6=50,14=-1,18=20,19=15,26=3,38=1/1,3;
 2/9=110,12=2,17=6,18=5,40=1/2;
 3/5=1,6=6,7=101,11=2,16=1,25=1,30=1,70=2201,71=1,72=7,74=-5/1,2,3;
 4//1;
 5/5=2,38=5,53=7/2;
 6/7=2,8=2,9=2,10=2,28=1/1;
 7//1,2,3,16;
 1/6=50,14=-1,18=20,19=15,26=3/3(2);
 2/9=110/2;
 99//99;
 2/9=110/2;
 3/5=1,6=6,7=101,11=2,16=1,25=1,30=1,70=2205,71=1,72=7,74=-5/1,2,3;
 4/5=5,16=3,69=1/1;
 5/5=2,38=5,53=7/2;
 7//1,2,3,16;
 1/6=50,14=-1,18=20,19=15,26=3/3(-5);
 2/9=110/2;
 6/7=2,8=2,9=2,10=2,19=2,28=1/1;
 99/9=1/99;
 ------------
 AT3_1ginp016
 ------------
 Symbolic Z-matrix:
 Charge =  0 Multiplicity = 1
 C                    -1.98382   0.60395   0.34498 
 C                    -1.76992   1.63982   1.44574 
 C                    -0.39835   1.51682   2.1555 
 C                    -0.31021   2.38888   3.44889 
 C                    -1.28628   1.93542   4.54547 
 O                    -1.09658   0.56179   4.85984 
 N                     0.67719   1.89613   1.21474 
 C                     1.95302   1.24604   1.53011 
 C                     5.05488   2.6209   -1.1437 
 C                     4.96299   3.13713   0.14807 
 C                     3.96116   2.68597   1.00753 
 C                     3.03906   1.71808   0.6069 
 C                     3.14648   1.21674  -0.69168 
 C                     4.14133   1.65597  -1.56443 
 H                     5.83202   2.97033  -1.81847 
 H                     5.66376   3.89081   0.49473 
 H                     4.19342   1.24343  -2.56753 
 F                     3.90495   3.19584   2.24662 
 F                     2.2767    0.29089  -1.12234 
 H                    -1.84192  -0.4109    0.72976 
 H                    -3.00587   0.67744  -0.04117 
 H                    -1.30461   0.75274  -0.49881 
 H                    -1.89427   2.64107   1.01584 
 H                    -2.57914   1.50655   2.17063 
 H                     0.6959    2.25498   3.86724 
 H                    -2.32986   2.07777   4.25125 
 H                    -1.13075   2.51351   5.46345 
 H                    -0.20763   0.47405   5.24558 
 H                     2.25328   1.44304   2.56485 
 H                     1.85841   0.15619   1.43974 
 H                    -0.2746    0.46113   2.43116 
 C                    -0.49719   3.88816   3.188 
 H                    -1.50839   4.11429   2.83523 
 H                    -0.33511   4.4589    4.10918 
 H                     0.21675   4.25955   2.44642 
 H                     0.42418   1.62237   0.26622 
 

 GradGradGradGradGradGradGradGradGradGradGradGradGradGradGradGradGradGrad
 Berny optimization.
 Initialization pass.
                           ----------------------------
                           !    Initial Parameters    !
                           ! (Angstroms and Degrees)  !
 --------------------------                            --------------------------
 ! Name  Definition              Value          Derivative Info.                !
 --------------------------------------------------------------------------------
 ! R1    R(1,2)                  1.5266         estimate D2E/DX2                !
 ! R2    R(1,20)                 1.0946         estimate D2E/DX2                !
 ! R3    R(1,21)                 1.095          estimate D2E/DX2                !
 ! R4    R(1,22)                 1.0934         estimate D2E/DX2                !
 ! R5    R(2,3)                  1.5492         estimate D2E/DX2                !
 ! R6    R(2,23)                 1.0967         estimate D2E/DX2                !
 ! R7    R(2,24)                 1.0946         estimate D2E/DX2                !
 ! R8    R(3,4)                  1.5624         estimate D2E/DX2                !
 ! R9    R(3,7)                  1.4784         estimate D2E/DX2                !
 ! R10   R(3,31)                 1.0981         estimate D2E/DX2                !
 ! R11   R(4,5)                  1.5365         estimate D2E/DX2                !
 ! R12   R(4,25)                 1.0978         estimate D2E/DX2                !
 ! R13   R(4,32)                 1.5332         estimate D2E/DX2                !
 ! R14   R(5,6)                  1.4219         estimate D2E/DX2                !
 ! R15   R(5,26)                 1.0936         estimate D2E/DX2                !
 ! R16   R(5,27)                 1.0959         estimate D2E/DX2                !
 ! R17   R(6,28)                 0.973          estimate D2E/DX2                !
 ! R18   R(7,8)                  1.4662         estimate D2E/DX2                !
 ! R19   R(7,36)                 1.0191         estimate D2E/DX2                !
 ! R20   R(8,12)                 1.5015         estimate D2E/DX2                !
 ! R21   R(8,29)                 1.0953         estimate D2E/DX2                !
 ! R22   R(8,30)                 1.0977         estimate D2E/DX2                !
 ! R23   R(9,10)                 1.3941         estimate D2E/DX2                !
 ! R24   R(9,14)                 1.3938         estimate D2E/DX2                !
 ! R25   R(9,15)                 1.0869         estimate D2E/DX2                !
 ! R26   R(10,11)                1.3949         estimate D2E/DX2                !
 ! R27   R(10,16)                1.086          estimate D2E/DX2                !
 ! R28   R(11,12)                1.3956         estimate D2E/DX2                !
 ! R29   R(11,18)                1.3411         estimate D2E/DX2                !
 ! R30   R(12,13)                1.3961         estimate D2E/DX2                !
 ! R31   R(13,14)                1.3944         estimate D2E/DX2                !
 ! R32   R(13,19)                1.3413         estimate D2E/DX2                !
 ! R33   R(14,17)                1.0859         estimate D2E/DX2                !
 ! R34   R(32,33)                1.0946         estimate D2E/DX2                !
 ! R35   R(32,34)                1.0957         estimate D2E/DX2                !
 ! R36   R(32,35)                1.0943         estimate D2E/DX2                !
 ! A1    A(2,1,20)             110.9459         estimate D2E/DX2                !
 ! A2    A(2,1,21)             109.8472         estimate D2E/DX2                !
 ! A3    A(2,1,22)             112.1535         estimate D2E/DX2                !
 ! A4    A(20,1,21)            107.8898         estimate D2E/DX2                !
 ! A5    A(20,1,22)            108.4771         estimate D2E/DX2                !
 ! A6    A(21,1,22)            107.3692         estimate D2E/DX2                !
 ! A7    A(1,2,3)              113.6107         estimate D2E/DX2                !
 ! A8    A(1,2,23)             108.7204         estimate D2E/DX2                !
 ! A9    A(1,2,24)             106.9374         estimate D2E/DX2                !
 ! A10   A(3,2,23)             110.6378         estimate D2E/DX2                !
 ! A11   A(3,2,24)             109.9654         estimate D2E/DX2                !
 ! A12   A(23,2,24)            106.6745         estimate D2E/DX2                !
 ! A13   A(2,3,4)              112.6364         estimate D2E/DX2                !
 ! A14   A(2,3,7)              109.4007         estimate D2E/DX2                !
 ! A15   A(2,3,31)             106.9249         estimate D2E/DX2                !
 ! A16   A(4,3,7)              110.031          estimate D2E/DX2                !
 ! A17   A(4,3,31)             108.81           estimate D2E/DX2                !
 ! A18   A(7,3,31)             108.9303         estimate D2E/DX2                !
 ! A19   A(3,4,5)              112.9696         estimate D2E/DX2                !
 ! A20   A(3,4,25)             107.4023         estimate D2E/DX2                !
 ! A21   A(3,4,32)             113.4561         estimate D2E/DX2                !
 ! A22   A(5,4,25)             105.9158         estimate D2E/DX2                !
 ! A23   A(5,4,32)             109.424          estimate D2E/DX2                !
 ! A24   A(25,4,32)            107.21           estimate D2E/DX2                !
 ! A25   A(4,5,6)              110.9872         estimate D2E/DX2                !
 ! A26   A(4,5,26)             112.0728         estimate D2E/DX2                !
 ! A27   A(4,5,27)             110.6079         estimate D2E/DX2                !
 ! A28   A(6,5,26)             108.2136         estimate D2E/DX2                !
 ! A29   A(6,5,27)             107.786          estimate D2E/DX2                !
 ! A30   A(26,5,27)            106.9856         estimate D2E/DX2                !
 ! A31   A(5,6,28)             107.2567         estimate D2E/DX2                !
 ! A32   A(3,7,8)              112.4828         estimate D2E/DX2                !
 ! A33   A(3,7,36)             110.0426         estimate D2E/DX2                !
 ! A34   A(8,7,36)             107.2838         estimate D2E/DX2                !
 ! A35   A(7,8,12)             110.9614         estimate D2E/DX2                !
 ! A36   A(7,8,29)             111.2224         estimate D2E/DX2                !
 ! A37   A(7,8,30)             110.3352         estimate D2E/DX2                !
 ! A38   A(12,8,29)            109.0277         estimate D2E/DX2                !
 ! A39   A(12,8,30)            108.8959         estimate D2E/DX2                !
 ! A40   A(29,8,30)            106.2594         estimate D2E/DX2                !
 ! A41   A(10,9,14)            119.5279         estimate D2E/DX2                !
 ! A42   A(10,9,15)            120.2201         estimate D2E/DX2                !
 ! A43   A(14,9,15)            120.2519         estimate D2E/DX2                !
 ! A44   A(9,10,11)            119.8986         estimate D2E/DX2                !
 ! A45   A(9,10,16)            120.6797         estimate D2E/DX2                !
 ! A46   A(11,10,16)           119.4216         estimate D2E/DX2                !
 ! A47   A(10,11,12)           121.4644         estimate D2E/DX2                !
 ! A48   A(10,11,18)           118.4513         estimate D2E/DX2                !
 ! A49   A(12,11,18)           120.0816         estimate D2E/DX2                !
 ! A50   A(8,12,11)            121.2943         estimate D2E/DX2                !
 ! A51   A(8,12,13)            120.9732         estimate D2E/DX2                !
 ! A52   A(11,12,13)           117.7248         estimate D2E/DX2                !
 ! A53   A(12,13,14)           121.597          estimate D2E/DX2                !
 ! A54   A(12,13,19)           119.7758         estimate D2E/DX2                !
 ! A55   A(14,13,19)           118.6271         estimate D2E/DX2                !
 ! A56   A(9,14,13)            119.7865         estimate D2E/DX2                !
 ! A57   A(9,14,17)            120.6925         estimate D2E/DX2                !
 ! A58   A(13,14,17)           119.5207         estimate D2E/DX2                !
 ! A59   A(4,32,33)            111.6858         estimate D2E/DX2                !
 ! A60   A(4,32,34)            110.3804         estimate D2E/DX2                !
 ! A61   A(4,32,35)            111.5681         estimate D2E/DX2                !
 ! A62   A(33,32,34)           107.4572         estimate D2E/DX2                !
 ! A63   A(33,32,35)           108.3115         estimate D2E/DX2                !
 ! A64   A(34,32,35)           107.2432         estimate D2E/DX2                !
 ! D1    D(20,1,2,3)            54.8536         estimate D2E/DX2                !
 ! D2    D(20,1,2,23)          178.5144         estimate D2E/DX2                !
 ! D3    D(20,1,2,24)          -66.6573         estimate D2E/DX2                !
 ! D4    D(21,1,2,3)           174.0537         estimate D2E/DX2                !
 ! D5    D(21,1,2,23)          -62.2856         estimate D2E/DX2                !
 ! D6    D(21,1,2,24)           52.5428         estimate D2E/DX2                !
 ! D7    D(22,1,2,3)           -66.6295         estimate D2E/DX2                !
 ! D8    D(22,1,2,23)           57.0312         estimate D2E/DX2                !
 ! D9    D(22,1,2,24)          171.8595         estimate D2E/DX2                !
 ! D10   D(1,2,3,4)           -168.7306         estimate D2E/DX2                !
 ! D11   D(1,2,3,7)             68.5643         estimate D2E/DX2                !
 ! D12   D(1,2,3,31)           -49.2551         estimate D2E/DX2                !
 ! D13   D(23,2,3,4)            68.6592         estimate D2E/DX2                !
 ! D14   D(23,2,3,7)           -54.0459         estimate D2E/DX2                !
 ! D15   D(23,2,3,31)         -171.8652         estimate D2E/DX2                !
 ! D16   D(24,2,3,4)           -48.9243         estimate D2E/DX2                !
 ! D17   D(24,2,3,7)          -171.6294         estimate D2E/DX2                !
 ! D18   D(24,2,3,31)           70.5513         estimate D2E/DX2                !
 ! D19   D(2,3,4,5)             64.7712         estimate D2E/DX2                !
 ! D20   D(2,3,4,25)          -178.8073         estimate D2E/DX2                !
 ! D21   D(2,3,4,32)           -60.5135         estimate D2E/DX2                !
 ! D22   D(7,3,4,5)           -172.8779         estimate D2E/DX2                !
 ! D23   D(7,3,4,25)           -56.4564         estimate D2E/DX2                !
 ! D24   D(7,3,4,32)            61.8374         estimate D2E/DX2                !
 ! D25   D(31,3,4,5)           -53.6047         estimate D2E/DX2                !
 ! D26   D(31,3,4,25)           62.8168         estimate D2E/DX2                !
 ! D27   D(31,3,4,32)         -178.8894         estimate D2E/DX2                !
 ! D28   D(2,3,7,8)           -153.0789         estimate D2E/DX2                !
 ! D29   D(2,3,7,36)           -33.5242         estimate D2E/DX2                !
 ! D30   D(4,3,7,8)             82.6769         estimate D2E/DX2                !
 ! D31   D(4,3,7,36)          -157.7683         estimate D2E/DX2                !
 ! D32   D(31,3,7,8)           -36.5228         estimate D2E/DX2                !
 ! D33   D(31,3,7,36)           83.032          estimate D2E/DX2                !
 ! D34   D(3,4,5,6)             55.376          estimate D2E/DX2                !
 ! D35   D(3,4,5,26)           -65.7419         estimate D2E/DX2                !
 ! D36   D(3,4,5,27)           174.9654         estimate D2E/DX2                !
 ! D37   D(25,4,5,6)           -61.9238         estimate D2E/DX2                !
 ! D38   D(25,4,5,26)          176.9583         estimate D2E/DX2                !
 ! D39   D(25,4,5,27)           57.6656         estimate D2E/DX2                !
 ! D40   D(32,4,5,6)          -177.1879         estimate D2E/DX2                !
 ! D41   D(32,4,5,26)           61.6942         estimate D2E/DX2                !
 ! D42   D(32,4,5,27)          -57.5984         estimate D2E/DX2                !
 ! D43   D(3,4,32,33)           65.708          estimate D2E/DX2                !
 ! D44   D(3,4,32,34)         -174.8109         estimate D2E/DX2                !
 ! D45   D(3,4,32,35)          -55.6751         estimate D2E/DX2                !
 ! D46   D(5,4,32,33)          -61.4542         estimate D2E/DX2                !
 ! D47   D(5,4,32,34)           58.0268         estimate D2E/DX2                !
 ! D48   D(5,4,32,35)          177.1627         estimate D2E/DX2                !
 ! D49   D(25,4,32,33)        -175.8872         estimate D2E/DX2                !
 ! D50   D(25,4,32,34)         -56.4061         estimate D2E/DX2                !
 ! D51   D(25,4,32,35)          62.7298         estimate D2E/DX2                !
 ! D52   D(4,5,6,28)            64.9813         estimate D2E/DX2                !
 ! D53   D(26,5,6,28)         -171.6558         estimate D2E/DX2                !
 ! D54   D(27,5,6,28)          -56.2813         estimate D2E/DX2                !
 ! D55   D(3,7,8,12)          -176.5563         estimate D2E/DX2                !
 ! D56   D(3,7,8,29)           -55.0028         estimate D2E/DX2                !
 ! D57   D(3,7,8,30)            62.6581         estimate D2E/DX2                !
 ! D58   D(36,7,8,12)           62.2973         estimate D2E/DX2                !
 ! D59   D(36,7,8,29)         -176.1492         estimate D2E/DX2                !
 ! D60   D(36,7,8,30)          -58.4883         estimate D2E/DX2                !
 ! D61   D(7,8,12,11)          100.3499         estimate D2E/DX2                !
 ! D62   D(7,8,12,13)          -78.6186         estimate D2E/DX2                !
 ! D63   D(29,8,12,11)         -22.4812         estimate D2E/DX2                !
 ! D64   D(29,8,12,13)         158.5504         estimate D2E/DX2                !
 ! D65   D(30,8,12,11)        -138.0177         estimate D2E/DX2                !
 ! D66   D(30,8,12,13)          43.0138         estimate D2E/DX2                !
 ! D67   D(14,9,10,11)           0.0068         estimate D2E/DX2                !
 ! D68   D(14,9,10,16)        -179.8895         estimate D2E/DX2                !
 ! D69   D(15,9,10,11)         179.8616         estimate D2E/DX2                !
 ! D70   D(15,9,10,16)          -0.0347         estimate D2E/DX2                !
 ! D71   D(10,9,14,13)          -0.0092         estimate D2E/DX2                !
 ! D72   D(10,9,14,17)         179.7967         estimate D2E/DX2                !
 ! D73   D(15,9,14,13)        -179.8639         estimate D2E/DX2                !
 ! D74   D(15,9,14,17)          -0.058          estimate D2E/DX2                !
 ! D75   D(9,10,11,12)           0.1657         estimate D2E/DX2                !
 ! D76   D(9,10,11,18)         179.57           estimate D2E/DX2                !
 ! D77   D(16,10,11,12)       -179.9367         estimate D2E/DX2                !
 ! D78   D(16,10,11,18)         -0.5324         estimate D2E/DX2                !
 ! D79   D(10,11,12,8)        -179.3256         estimate D2E/DX2                !
 ! D80   D(10,11,12,13)         -0.3248         estimate D2E/DX2                !
 ! D81   D(18,11,12,8)           1.2797         estimate D2E/DX2                !
 ! D82   D(18,11,12,13)       -179.7195         estimate D2E/DX2                !
 ! D83   D(8,12,13,14)         179.3271         estimate D2E/DX2                !
 ! D84   D(8,12,13,19)          -0.5991         estimate D2E/DX2                !
 ! D85   D(11,12,13,14)          0.3228         estimate D2E/DX2                !
 ! D86   D(11,12,13,19)       -179.6034         estimate D2E/DX2                !
 ! D87   D(12,13,14,9)          -0.1611         estimate D2E/DX2                !
 ! D88   D(12,13,14,17)       -179.9693         estimate D2E/DX2                !
 ! D89   D(19,13,14,9)         179.7659         estimate D2E/DX2                !
 ! D90   D(19,13,14,17)         -0.0422         estimate D2E/DX2                !
 --------------------------------------------------------------------------------
 Trust Radius=3.00D-01 FncErr=1.00D-07 GrdErr=1.00D-06
 Number of steps in this run=     50 maximum allowed number of steps=    216.
 GradGradGradGradGradGradGradGradGradGradGradGradGradGradGradGradGradGrad

                          Input orientation:                          
 ---------------------------------------------------------------------
 Center     Atomic      Atomic             Coordinates (Angstroms)
 Number     Number       Type             X           Y           Z
 ---------------------------------------------------------------------
      1          6           0       -1.983821    0.603954    0.344983
      2          6           0       -1.769920    1.639824    1.445743
      3          6           0       -0.398350    1.516820    2.155501
      4          6           0       -0.310213    2.388882    3.448892
      5          6           0       -1.286282    1.935421    4.545470
      6          8           0       -1.096583    0.561785    4.859843
      7          7           0        0.677185    1.896128    1.214740
      8          6           0        1.953015    1.246037    1.530106
      9          6           0        5.054877    2.620902   -1.143696
     10          6           0        4.962985    3.137129    0.148067
     11          6           0        3.961164    2.685967    1.007532
     12          6           0        3.039059    1.718075    0.606904
     13          6           0        3.146475    1.216735   -0.691677
     14          6           0        4.141331    1.655974   -1.564431
     15          1           0        5.832022    2.970326   -1.818470
     16          1           0        5.663759    3.890812    0.494727
     17          1           0        4.193421    1.243431   -2.567529
     18          9           0        3.904951    3.195841    2.246622
     19          9           0        2.276702    0.290890   -1.122340
     20          1           0       -1.841915   -0.410903    0.729764
     21          1           0       -3.005871    0.677443   -0.041166
     22          1           0       -1.304613    0.752744   -0.498812
     23          1           0       -1.894274    2.641067    1.015841
     24          1           0       -2.579137    1.506553    2.170635
     25          1           0        0.695898    2.254978    3.867241
     26          1           0       -2.329864    2.077773    4.251247
     27          1           0       -1.130746    2.513508    5.463446
     28          1           0       -0.207631    0.474054    5.245584
     29          1           0        2.253277    1.443041    2.564854
     30          1           0        1.858408    0.156190    1.439736
     31          1           0       -0.274598    0.461134    2.431163
     32          6           0       -0.497192    3.888157    3.188000
     33          1           0       -1.508385    4.114290    2.835234
     34          1           0       -0.335109    4.458900    4.109184
     35          1           0        0.216750    4.259555    2.446415
     36          1           0        0.424176    1.622373    0.266216
 ---------------------------------------------------------------------
                    Distance matrix (angstroms):
                    1          2          3          4          5
     1  C    0.000000
     2  C    1.526582   0.000000
     3  C    2.573911   1.549223   0.000000
     4  C    3.952364   2.589293   1.562409   0.000000
     5  C    4.461329   3.151125   2.583719   1.536496   0.000000
     6  O    4.601405   3.643025   2.951794   2.438738   1.421862
     7  N    3.083366   2.471311   1.478405   2.491826   3.866589
     8  C    4.161186   3.744654   2.448134   3.179628   4.478919
     9  C    7.471781   7.365159   6.468492   7.066108   8.546742
    10  C    7.396882   7.018397   5.949715   6.265935   7.735282
    11  C    6.333766   5.842240   4.657263   4.928809   6.373069
    12  C    5.151620   4.882218   3.775505   4.443478   5.853898
    13  C    5.269734   5.377593   4.556562   5.519686   6.898808
    14  C    6.501546   6.633573   5.870772   6.744391   8.177283
    15  H    8.447937   8.379430   7.531445   8.112350   9.604218
    16  H    8.325343   7.825022   6.718867   6.831634   8.278595
    17  H    6.859298   7.198952   6.592884   7.602111   9.005595
    18  F    6.709079   5.938582   4.620153   4.456932   5.815691
    19  F    4.516979   4.978938   4.404889   5.655958   6.893722
    20  H    1.094591   2.173313   2.798700   4.192680   4.513710
    21  H    1.095033   2.159780   3.511277   4.730338   5.057344
    22  H    1.093367   2.187399   2.906975   4.387499   5.181104
    23  H    2.146602   1.096707   2.191015   2.914204   3.650462
    24  H    2.121813   1.094560   2.180864   2.749629   2.737744
    25  H    4.723672   3.510317   2.161553   1.097819   2.119233
    26  H    4.189366   2.894165   2.904749   2.195348   1.093570
    27  H    5.529267   4.160986   3.531613   2.178815   1.095927
    28  H    5.214174   4.270663   3.266856   2.627773   1.946597
    29  H    4.856428   4.180580   2.684053   2.871867   4.085799
    30  H    4.020162   3.919945   2.730676   3.704664   4.764485
    31  H    2.700738   2.143910   1.098079   2.180196   2.768993
    32  C    4.591166   3.116135   2.588255   1.533249   2.505707
    33  H    4.330109   2.849924   2.905351   2.188430   2.778796
    34  H    5.634542   4.135189   3.532239   2.172920   2.731853
    35  H    4.756254   3.436742   2.825876   2.186794   3.473721
    36  H    2.615689   2.491113   2.063271   3.355039   4.619056
                    6          7          8          9         10
     6  O    0.000000
     7  N    4.267728   0.000000
     8  C    4.566771   1.466225   0.000000
     9  C    8.838716   5.025107   4.319840   0.000000
    10  C    8.096394   4.587587   3.813945   1.394126   0.000000
    11  C    6.703227   3.383977   2.525697   2.414171   1.394945
    12  C    6.043842   2.445325   1.501537   2.818372   2.434284
    13  C    7.017968   3.192709   2.522206   2.412054   2.773588
    14  C    8.360878   4.447671   3.812209   1.393797   2.408648
    15  H    9.920005   6.076727   5.406739   1.086909   2.156459
    16  H    8.708552   5.418773   4.672950   2.160518   1.085954
    17  H    9.144104   5.205333   4.670122   2.160285   3.398938
    18  F    6.227561   3.629395   2.850471   3.625899   2.350918
    19  F    6.873060   3.255332   2.837701   3.625971   4.114745
    20  H    4.308038   3.450139   4.217522   7.763210   7.696335
    21  H    5.261050   4.077670   5.232852   8.364703   8.341974
    22  H    5.366090   2.858515   3.869365   6.659505   6.736952
    23  H    4.442530   2.684566   4.124586   7.276998   6.929727
    24  H    3.212848   3.416012   4.584599   8.396710   7.977040
    25  H    2.658035   2.676730   2.839103   6.651623   5.728741
    26  H    2.046849   4.277349   5.141930   9.161594   8.434688
    27  H    2.043215   4.658463   5.156280   9.051397   8.110223
    28  H    0.973000   4.364962   4.366821   8.551365   7.733817
    29  H    4.155135   2.124185   1.095295   4.794754   4.006658
    30  H    4.538018   2.115017   1.097672   4.792321   4.493640
    31  H    2.565985   2.108266   2.527892   6.771080   6.309180
    32  C    3.770819   3.039917   3.966475   7.155068   6.294344
    33  H    4.109612   3.510407   4.680975   7.819111   7.074909
    34  H    4.041143   3.996291   4.712711   7.747447   6.745912
    35  H    4.606841   2.704591   3.596600   6.243521   5.391567
    36  H    4.953682   1.019143   2.019009   4.942500   4.786359
                   11         12         13         14         15
    11  C    0.000000
    12  C    1.395563   0.000000
    13  C    2.389492   1.396135   0.000000
    14  C    2.776390   2.435889   1.394406   0.000000
    15  H    3.401067   3.905280   3.399545   2.156500   0.000000
    16  H    2.147894   3.409167   3.859399   3.398885   2.495293
    17  H    3.862113   3.410992   2.148402   1.085869   2.495650
    18  F    1.341072   2.371126   3.622947   4.117182   4.504379
    19  F    3.620796   2.368191   1.341329   2.352815   4.506026
    20  H    6.583577   5.326495   5.436335   6.733093   8.764446
    21  H    7.326221   6.167989   6.210102   7.372948   9.301853
    22  H    5.808169   4.584971   4.479360   5.622248   7.588855
    23  H    5.855616   5.035565   5.509400   6.637525   8.236345
    24  H    6.746804   5.835591   6.407765   7.690106   9.423544
    25  H    4.361840   4.050736   5.278921   6.460099   7.695375
    26  H    7.104127   6.498919   7.427259   8.710705  10.210509
    27  H    6.768490   6.450270   7.606693   8.827299  10.085391
    28  H    6.342909   5.797063   6.859495   8.166193   9.623390
    29  H    2.624308   2.127596   3.384378   4.545446   5.861190
    30  H    3.317854   2.127682   2.706805   4.060309   5.858744
    31  H    4.991822   3.985994   4.693272   6.073948   7.851512
    32  C    5.106529   4.886347   5.955224   7.006007   8.121952
    33  H    5.941091   5.602370   6.519405   7.570975   8.766253
    34  H    5.587620   5.582392   6.758796   7.751440   8.682536
    35  H    4.308967   4.219994   5.262097   6.186102   7.168168
    36  H    3.767103   2.638719   2.914277   4.143626   5.950436
                   16         17         18         19         20
    16  H    0.000000
    17  H    4.306731   0.000000
    18  F    2.577892   5.202996   0.000000
    19  F    5.200625   2.582580   4.737071   0.000000
    20  H    8.654198   7.073489   6.952405   4.570099   0.000000
    21  H    9.261501   7.650664   7.702971   5.405917   1.770204
    22  H    7.706672   5.894806   6.375397   3.664412   1.775434
    23  H    7.678365   7.200969   5.954293   5.243300   3.065796
    24  H    8.742922   8.269642   6.700960   5.991719   2.509232
    25  H    6.223299   7.393386   3.716134   5.590394   4.836443
    26  H    9.016461   9.473388   6.643908   7.299920   4.339637
    27  H    8.529386   9.718869   6.014298   7.741015   5.609428
    28  H    8.289638   9.000330   5.771935   6.837830   4.883305
    29  H    4.680641   5.490479   2.429322   3.863082   4.855436
    30  H    5.414900   4.763670   3.752184   2.599490   3.810255
    31  H    7.125767   6.749971   4.998130   4.377842   2.472183
    32  C    6.723916   7.881785   4.554597   6.262096   5.131581
    33  H    7.547686   8.363150   5.522157   6.678897   5.002161
    34  H    7.026624   8.684775   4.800267   7.180718   6.116038
    35  H    5.797841   7.074641   3.843726   5.720989   5.384995
    36  H    5.714128   4.730847   4.302744   2.670728   3.079652
                   21         22         23         24         25
    21  H    0.000000
    22  H    1.763346   0.000000
    23  H    2.491733   2.491513   0.000000
    24  H    2.400331   3.052636   1.757757   0.000000
    25  H    5.609577   5.032015   3.871503   3.763571   0.000000
    26  H    4.565383   5.036854   3.312837   2.171952   3.055176
    27  H    6.098195   6.219248   4.514470   3.735559   2.439536
    28  H    5.985085   5.854838   5.042959   4.018135   2.426496
    29  H    5.919132   4.745644   4.586599   4.848883   2.186523
    30  H    5.111358   3.757465   4.520721   4.695689   3.413081
    31  H    3.690400   3.119410   3.062449   2.543949   2.494406
    32  C    5.199006   4.906661   2.867986   3.322885   2.133566
    33  H    4.725258   4.738922   2.372654   2.896290   3.062833
    34  H    6.217539   5.992425   3.912069   4.184494   2.445155
    35  H    5.422626   4.825622   3.020342   3.933454   2.503329
    36  H    3.571078   2.080921   2.641001   3.558106   3.666252
                   26         27         28         29         30
    26  H    0.000000
    27  H    1.759879   0.000000
    28  H    2.839805   2.249217   0.000000
    29  H    4.924631   4.582504   3.765809   0.000000
    30  H    5.398027   5.539154   4.342123   1.754365   0.000000
    31  H    3.185961   3.760315   2.815247   2.715173   2.371842
    32  C    2.786875   2.732893   3.996698   3.732557   4.746879
    33  H    2.612914   3.100421   4.555553   4.621556   5.380452
    34  H    3.109501   2.500323   4.145679   4.263813   5.518223
    35  H    3.808259   3.737232   4.727099   3.477675   4.532775
    36  H    4.865449   5.497554   5.148973   2.943044   2.363020
                   31         32         33         34         35
    31  H    0.000000
    32  C    3.516651   0.000000
    33  H    3.876990   1.094574   0.000000
    34  H    4.336075   1.095718   1.765866   0.000000
    35  H    3.830099   1.094348   1.774365   1.763260   0.000000
    36  H    2.554165   3.810449   4.067468   4.836404   3.427976
                   36
    36  H    0.000000
 Stoichiometry    C13H19F2NO
 Framework group  C1[X(C13H19F2NO)]
 Deg. of freedom   102
 Full point group                 C1      NOp   1
 Largest Abelian subgroup         C1      NOp   1
 Largest concise Abelian subgroup C1      NOp   1
                         Standard orientation:                         
 ---------------------------------------------------------------------
 Center     Atomic      Atomic             Coordinates (Angstroms)
 Number     Number       Type             X           Y           Z
 ---------------------------------------------------------------------
      1          6           0       -2.243676    2.932447    0.507270
      2          6           0       -2.617605    1.495860    0.863425
      3          6           0       -1.895222    0.433739   -0.002688
      4          6           0       -2.492135   -0.998518    0.180217
      5          6           0       -3.943779   -1.110317   -0.310752
      6          8           0       -4.056311   -0.695706   -1.666158
      7          7           0       -0.454277    0.427843    0.327955
      8          6           0        0.375910   -0.028537   -0.791118
      9          6           0        4.528261   -0.222429    0.384214
     10          6           0        3.760130   -1.384540    0.328923
     11          6           0        2.420861   -1.315200   -0.055036
     12          6           0        1.821836   -0.100826   -0.392764
     13          6           0        2.607591    1.051354   -0.327479
     14          6           0        3.947802    1.001017    0.054189
     15          1           0        5.571673   -0.270119    0.684860
     16          1           0        4.192839   -2.347398    0.583801
     17          1           0        4.527626    1.918261    0.093906
     18          9           0        1.711343   -2.452034   -0.106675
     19          9           0        2.071398    2.241632   -0.635540
     20          1           0       -2.411203    3.128120   -0.556579
     21          1           0       -2.863518    3.630697    1.079407
     22          1           0       -1.199259    3.156556    0.740552
     23          1           0       -2.411135    1.332002    1.927986
     24          1           0       -3.701184    1.407573    0.736444
     25          1           0       -1.907588   -1.680863   -0.450590
     26          1           0       -4.628487   -0.505020    0.289819
     27          1           0       -4.293560   -2.147008   -0.247652
     28          1           0       -3.546853   -1.326363   -2.204166
     29          1           0        0.054156   -1.012850   -1.147871
     30          1           0        0.275901    0.655241   -1.643955
     31          1           0       -2.019029    0.737749   -1.050556
     32          6           0       -2.399052   -1.519298    1.619305
     33          1           0       -3.018523   -0.930672    2.303313
     34          1           0       -2.745736   -2.557357    1.672627
     35          1           0       -1.368644   -1.502101    1.987491
     36          1           0       -0.147251    1.369409    0.568458
 ---------------------------------------------------------------------
 Rotational constants (GHZ):      0.7340790      0.2477868      0.2068633
 Standard basis: 6-31G(d,p) (6D, 7F)
 There are   350 symmetry adapted cartesian basis functions of A   symmetry.
 There are   350 symmetry adapted basis functions of A   symmetry.
   350 basis functions,   609 primitive gaussians,   350 cartesian basis functions
    65 alpha electrons       65 beta electrons
       nuclear repulsion energy      1260.0254439934 Hartrees.
 NAtoms=   36 NActive=   36 NUniq=   36 SFac= 1.00D+00 NAtFMM=   60 NAOKFM=F Big=F
 Integral buffers will be    131072 words long.
 Raffenetti 2 integral format.
 Two-electron integral symmetry is turned on.
 ------------------------------------------------------------------------------
 Polarizable Continuum Model (PCM)
 =================================
 Model                : PCM (using non-symmetric T matrix).
 Atomic radii         : UFF (Universal Force Field).
 Polarization charges : Total charges.
 Charge compensation  : None.
 Solution method      : On-the-fly selection.
 Cavity type          : Scaled VdW (van der Waals Surface) (Alpha=1.100).
 Cavity algorithm     : GePol (No added spheres)
                        Default sphere list used, NSphG=   36.
                        Lebedev-Laikov grids with approx.  5.0 points / Ang**2.
                        Smoothing algorithm: Karplus/York (Gamma=1.0000).
                        Polarization charges: spherical gaussians, with
                                              point-specific exponents (IZeta= 3).
                        Self-potential: point-specific (ISelfS= 7).
                        Self-field    : sphere-specific E.n sum rule (ISelfD= 2).
 1st derivatives      : Analytical E(r).r(x)/FMM algorithm (CHGder, D1EAlg=3).
                        Cavity 1st derivative terms included.
 Solvent              : Chloroform, Eps=   4.711300 Eps(inf)=   2.090627
 ------------------------------------------------------------------------------
 One-electron integrals computed using PRISM.
 NBasis=   350 RedAO= T EigKep=  4.10D-04  NBF=   350
 NBsUse=   350 1.00D-06 EigRej= -1.00D+00 NBFU=   350
 ExpMin= 1.61D-01 ExpMax= 7.00D+03 ExpMxC= 1.05D+03 IAcc=1 IRadAn=         1 AccDes= 0.00D+00
 Harris functional with IExCor=  402 and IRadAn=       1 diagonalized for initial guess.
 HarFok:  IExCor=  402 AccDes= 0.00D+00 IRadAn=         1 IDoV= 1 UseB2=F ITyADJ=14
 ICtDFT=  3500011 ScaDFX=  1.000000  1.000000  1.000000  1.000000
 FoFCou: FMM=F IPFlag=           0 FMFlag=      100000 FMFlg1=           0
         NFxFlg=           0 DoJE=T BraDBF=F KetDBF=T FulRan=T
         wScrn=  0.000000 ICntrl=     500 IOpCl=  0 I1Cent=   200000004 NGrid=           0
         NMat0=    1 NMatS0=      1 NMatT0=    0 NMatD0=    1 NMtDS0=    0 NMtDT0=    0
 Petite list used in FoFCou.
 Requested convergence on RMS density matrix=1.00D-08 within 128 cycles.
 Requested convergence on MAX density matrix=1.00D-06.
 Requested convergence on             energy=1.00D-06.
 No special actions if energy rises.
 Inv3:  Mode=1 IEnd=    19922787.
 Iteration    1 A*A^-1 deviation from unit magnitude is 9.21D-15 for   1787.
 Iteration    1 A*A^-1 deviation from orthogonality  is 6.00D-15 for   2107    554.
 Iteration    1 A^-1*A deviation from unit magnitude is 7.99D-15 for   1636.
 Iteration    1 A^-1*A deviation from orthogonality  is 1.29D-10 for   1889   1787.
 Iteration    2 A*A^-1 deviation from unit magnitude is 9.77D-15 for    434.
 Iteration    2 A*A^-1 deviation from orthogonality  is 7.77D-15 for   2300    434.
 Iteration    2 A^-1*A deviation from unit magnitude is 2.22D-15 for   1277.
 Iteration    2 A^-1*A deviation from orthogonality  is 8.88D-16 for   2449    286.
 Error on total polarization charges =  0.00769
 SCF Done:  E(RB3LYP) =  -836.488599792     A.U. after   12 cycles
            NFock= 12  Conv=0.60D-08     -V/T= 2.0088

 **********************************************************************

            Population analysis using the SCF density.

 **********************************************************************

 Orbital symmetries:
       Occupied  (A) (A) (A) (A) (A) (A) (A) (A) (A) (A) (A) (A)
                 (A) (A) (A) (A) (A) (A) (A) (A) (A) (A) (A) (A)
                 (A) (A) (A) (A) (A) (A) (A) (A) (A) (A) (A) (A)
                 (A) (A) (A) (A) (A) (A) (A) (A) (A) (A) (A) (A)
                 (A) (A) (A) (A) (A) (A) (A) (A) (A) (A) (A) (A)
                 (A) (A) (A) (A) (A)
       Virtual   (A) (A) (A) (A) (A) (A) (A) (A) (A) (A) (A) (A)
                 (A) (A) (A) (A) (A) (A) (A) (A) (A) (A) (A) (A)
                 (A) (A) (A) (A) (A) (A) (A) (A) (A) (A) (A) (A)
                 (A) (A) (A) (A) (A) (A) (A) (A) (A) (A) (A) (A)
                 (A) (A) (A) (A) (A) (A) (A) (A) (A) (A) (A) (A)
                 (A) (A) (A) (A) (A) (A) (A) (A) (A) (A) (A) (A)
                 (A) (A) (A) (A) (A) (A) (A) (A) (A) (A) (A) (A)
                 (A) (A) (A) (A) (A) (A) (A) (A) (A) (A) (A) (A)
                 (A) (A) (A) (A) (A) (A) (A) (A) (A) (A) (A) (A)
                 (A) (A) (A) (A) (A) (A) (A) (A) (A) (A) (A) (A)
                 (A) (A) (A) (A) (A) (A) (A) (A) (A) (A) (A) (A)
                 (A) (A) (A) (A) (A) (A) (A) (A) (A) (A) (A) (A)
                 (A) (A) (A) (A) (A) (A) (A) (A) (A) (A) (A) (A)
                 (A) (A) (A) (A) (A) (A) (A) (A) (A) (A) (A) (A)
                 (A) (A) (A) (A) (A) (A) (A) (A) (A) (A) (A) (A)
                 (A) (A) (A) (A) (A) (A) (A) (A) (A) (A) (A) (A)
                 (A) (A) (A) (A) (A) (A) (A) (A) (A) (A) (A) (A)
                 (A) (A) (A) (A) (A) (A) (A) (A) (A) (A) (A) (A)
                 (A) (A) (A) (A) (A) (A) (A) (A) (A) (A) (A) (A)
                 (A) (A) (A) (A) (A) (A) (A) (A) (A) (A) (A) (A)
                 (A) (A) (A) (A) (A) (A) (A) (A) (A) (A) (A) (A)
                 (A) (A) (A) (A) (A) (A) (A) (A) (A) (A) (A) (A)
                 (A) (A) (A) (A) (A) (A) (A) (A) (A) (A) (A) (A)
                 (A) (A) (A) (A) (A) (A) (A) (A) (A)
 The electronic state is 1-A.
 Alpha  occ. eigenvalues --  -24.72055 -24.71726 -19.13997 -14.31442 -10.28097
 Alpha  occ. eigenvalues --  -10.28057 -10.22316 -10.21406 -10.20689 -10.20619
 Alpha  occ. eigenvalues --  -10.20570 -10.19825 -10.19784 -10.18221 -10.17735
 Alpha  occ. eigenvalues --  -10.17266 -10.16631  -1.23392  -1.23072  -1.01194
 Alpha  occ. eigenvalues --   -0.90628  -0.86783  -0.79783  -0.76888  -0.75450
 Alpha  occ. eigenvalues --   -0.75276  -0.68532  -0.66569  -0.64956  -0.62916
 Alpha  occ. eigenvalues --   -0.61045  -0.60174  -0.56014  -0.54796  -0.52992
 Alpha  occ. eigenvalues --   -0.49663  -0.49483  -0.49235  -0.48177  -0.47456
 Alpha  occ. eigenvalues --   -0.46520  -0.46154  -0.46028  -0.44127  -0.43159
 Alpha  occ. eigenvalues --   -0.42105  -0.41132  -0.40446  -0.39804  -0.39071
 Alpha  occ. eigenvalues --   -0.38631  -0.37401  -0.36991  -0.36270  -0.35778
 Alpha  occ. eigenvalues --   -0.35317  -0.34707  -0.33500  -0.32153  -0.31378
 Alpha  occ. eigenvalues --   -0.30400  -0.26310  -0.25409  -0.24668  -0.21919
 Alpha virt. eigenvalues --   -0.01288  -0.00180   0.07167   0.07703   0.09082
 Alpha virt. eigenvalues --    0.10652   0.10784   0.12661   0.14082   0.14375
 Alpha virt. eigenvalues --    0.14855   0.15590   0.15812   0.16192   0.16471
 Alpha virt. eigenvalues --    0.17496   0.17575   0.18045   0.19663   0.19875
 Alpha virt. eigenvalues --    0.20319   0.21143   0.22028   0.22784   0.23088
 Alpha virt. eigenvalues --    0.23723   0.25486   0.25966   0.26974   0.27610
 Alpha virt. eigenvalues --    0.28227   0.28679   0.29605   0.30477   0.32852
 Alpha virt. eigenvalues --    0.37461   0.38595   0.46109   0.49204   0.49841
 Alpha virt. eigenvalues --    0.50228   0.50764   0.52032   0.52624   0.53328
 Alpha virt. eigenvalues --    0.53478   0.55099   0.56295   0.56570   0.58007
 Alpha virt. eigenvalues --    0.58517   0.59423   0.59667   0.59734   0.61245
 Alpha virt. eigenvalues --    0.62095   0.62345   0.63835   0.64866   0.66171
 Alpha virt. eigenvalues --    0.66698   0.67930   0.69533   0.70071   0.71193
 Alpha virt. eigenvalues --    0.72617   0.73588   0.76089   0.77082   0.78448
 Alpha virt. eigenvalues --    0.79505   0.80466   0.82182   0.83206   0.83348
 Alpha virt. eigenvalues --    0.84431   0.84889   0.85505   0.86732   0.86844
 Alpha virt. eigenvalues --    0.87411   0.88053   0.89128   0.89923   0.90136
 Alpha virt. eigenvalues --    0.90646   0.91521   0.92319   0.93272   0.94143
 Alpha virt. eigenvalues --    0.95205   0.95926   0.98171   0.99044   0.99420
 Alpha virt. eigenvalues --    1.00702   1.01544   1.02473   1.03278   1.06255
 Alpha virt. eigenvalues --    1.07341   1.09613   1.10590   1.11199   1.14794
 Alpha virt. eigenvalues --    1.17052   1.20799   1.21277   1.21741   1.22109
 Alpha virt. eigenvalues --    1.24063   1.25036   1.25992   1.30674   1.32459
 Alpha virt. eigenvalues --    1.35235   1.35699   1.38328   1.39004   1.39329
 Alpha virt. eigenvalues --    1.40781   1.41715   1.42791   1.43421   1.45858
 Alpha virt. eigenvalues --    1.46822   1.47327   1.49584   1.51210   1.52741
 Alpha virt. eigenvalues --    1.56868   1.58146   1.59617   1.63453   1.66063
 Alpha virt. eigenvalues --    1.68476   1.69437   1.72018   1.73344   1.75484
 Alpha virt. eigenvalues --    1.76814   1.77041   1.78683   1.79638   1.81037
 Alpha virt. eigenvalues --    1.82198   1.82724   1.82870   1.83877   1.85486
 Alpha virt. eigenvalues --    1.85976   1.86389   1.88702   1.89101   1.89353
 Alpha virt. eigenvalues --    1.90350   1.90748   1.91347   1.92960   1.93749
 Alpha virt. eigenvalues --    1.96942   1.97638   1.98087   1.99024   2.01080
 Alpha virt. eigenvalues --    2.02581   2.03298   2.04430   2.04936   2.05280
 Alpha virt. eigenvalues --    2.06145   2.06438   2.07602   2.08326   2.10383
 Alpha virt. eigenvalues --    2.12562   2.13640   2.15957   2.17784   2.19035
 Alpha virt. eigenvalues --    2.19633   2.20200   2.22979   2.23630   2.25352
 Alpha virt. eigenvalues --    2.27335   2.28787   2.29134   2.29963   2.30376
 Alpha virt. eigenvalues --    2.30949   2.31331   2.31802   2.32804   2.35364
 Alpha virt. eigenvalues --    2.36400   2.37640   2.38067   2.38446   2.40423
 Alpha virt. eigenvalues --    2.41095   2.41658   2.45047   2.47728   2.48758
 Alpha virt. eigenvalues --    2.50675   2.52394   2.52956   2.53978   2.54686
 Alpha virt. eigenvalues --    2.56758   2.57896   2.58388   2.60368   2.63914
 Alpha virt. eigenvalues --    2.64827   2.65254   2.66759   2.67372   2.68870
 Alpha virt. eigenvalues --    2.69954   2.72333   2.73676   2.74009   2.74506
 Alpha virt. eigenvalues --    2.75287   2.77112   2.77569   2.78209   2.81545
 Alpha virt. eigenvalues --    2.84543   2.85002   2.85363   2.88443   2.89806
 Alpha virt. eigenvalues --    2.91524   2.91588   2.92175   2.94217   2.95319
 Alpha virt. eigenvalues --    2.99127   3.03515   3.04248   3.05132   3.06747
 Alpha virt. eigenvalues --    3.10159   3.14746   3.20101   3.20694   3.22414
 Alpha virt. eigenvalues --    3.25755   3.28348   3.31303   3.31749   3.34960
 Alpha virt. eigenvalues --    3.35505   3.36851   3.39956   3.43035   3.43657
 Alpha virt. eigenvalues --    3.46433   3.47617   3.50598   3.52689   3.54091
 Alpha virt. eigenvalues --    3.55657   3.57921   3.80448   3.94745   4.07914
 Alpha virt. eigenvalues --    4.09726   4.12251   4.17785   4.32517   4.37879
 Alpha virt. eigenvalues --    4.41321   4.44242   4.52858   4.55802   4.60801
 Alpha virt. eigenvalues --    4.67153   4.74731   4.78890   5.50057   5.61122
          Condensed to atoms (all electrons):
               1          2          3          4          5          6
     1  C    4.939885   0.362097  -0.037206   0.004836   0.000048  -0.000020
     2  C    0.362097   4.950324   0.369822  -0.035613  -0.004829  -0.000661
     3  C   -0.037206   0.369822   4.836236   0.348984  -0.034868  -0.005497
     4  C    0.004836  -0.035613   0.348984   5.069755   0.352263  -0.047899
     5  C    0.000048  -0.004829  -0.034868   0.352263   4.761393   0.232699
     6  O   -0.000020  -0.000661  -0.005497  -0.047899   0.232699   8.151558
     7  N   -0.003405  -0.042792   0.279551  -0.058877   0.002929   0.000170
     8  C    0.000350   0.004012  -0.032148  -0.004470   0.000047  -0.000041
     9  C    0.000000   0.000000   0.000000   0.000000   0.000000   0.000000
    10  C    0.000000   0.000000   0.000003   0.000000   0.000000   0.000000
    11  C    0.000000   0.000000  -0.000103   0.000025   0.000000   0.000000
    12  C    0.000008  -0.000247   0.004966  -0.000007   0.000000   0.000000
    13  C   -0.000007  -0.000033   0.000364  -0.000001   0.000000   0.000000
    14  C    0.000000   0.000000   0.000007   0.000000   0.000000   0.000000
    15  H    0.000000   0.000000   0.000000   0.000000   0.000000   0.000000
    16  H    0.000000   0.000000   0.000000   0.000000   0.000000   0.000000
    17  H    0.000000   0.000000   0.000000   0.000000   0.000000   0.000000
    18  F    0.000000   0.000000   0.000002  -0.000017   0.000000   0.000000
    19  F   -0.000025  -0.000002   0.000003   0.000000   0.000000   0.000000
    20  H    0.385607  -0.035973  -0.005241   0.000014   0.000003  -0.000023
    21  H    0.379823  -0.028502   0.003988  -0.000122  -0.000005   0.000000
    22  H    0.384927  -0.036364  -0.004433   0.000016  -0.000002   0.000000
    23  H   -0.041777   0.376834  -0.032307  -0.006996   0.000116  -0.000003
    24  H   -0.038224   0.382025  -0.032440  -0.005954   0.000599   0.000857
    25  H   -0.000153   0.005271  -0.043397   0.372982  -0.041355  -0.001645
    26  H   -0.000185   0.002326  -0.009824  -0.038722   0.381205  -0.035687
    27  H    0.000000   0.000012   0.005590  -0.045564   0.375875  -0.035011
    28  H    0.000000   0.000057  -0.001248  -0.003099  -0.032853   0.288220
    29  H    0.000002   0.000064  -0.002708   0.001896  -0.000376   0.000019
    30  H   -0.000224   0.000445  -0.007122  -0.001155   0.000054  -0.000024
    31  H   -0.009853  -0.044840   0.371220  -0.059523  -0.004822   0.016387
    32  C    0.000137  -0.009441  -0.036664   0.325126  -0.041236   0.003646
    33  H   -0.000096   0.002889  -0.006635  -0.036056  -0.006261   0.000009
    34  H   -0.000002   0.000081   0.005017  -0.032604  -0.003937   0.000027
    35  H   -0.000027  -0.000663  -0.005674  -0.023664   0.003965  -0.000078
    36  H    0.004410  -0.009138  -0.038261   0.005445  -0.000158   0.000002
               7          8          9         10         11         12
     1  C   -0.003405   0.000350   0.000000   0.000000   0.000000   0.000008
     2  C   -0.042792   0.004012   0.000000   0.000000   0.000000  -0.000247
     3  C    0.279551  -0.032148   0.000000   0.000003  -0.000103   0.004966
     4  C   -0.058877  -0.004470   0.000000   0.000000   0.000025  -0.000007
     5  C    0.002929   0.000047   0.000000   0.000000   0.000000   0.000000
     6  O    0.000170  -0.000041   0.000000   0.000000   0.000000   0.000000
     7  N    6.938147   0.282479   0.000025  -0.000060   0.004852  -0.046043
     8  C    0.282479   4.943521  -0.000620   0.008440  -0.047498   0.296238
     9  C    0.000025  -0.000620   4.854132   0.485055  -0.007962  -0.028585
    10  C   -0.000060   0.008440   0.485055   5.057350   0.470535  -0.070489
    11  C    0.004852  -0.047498  -0.007962   0.470535   4.594822   0.412506
    12  C   -0.046043   0.296238  -0.028585  -0.070489   0.412506   5.316369
    13  C   -0.007822  -0.049693  -0.009602  -0.049424   0.015605   0.391538
    14  C   -0.000169   0.008841   0.488284  -0.031273  -0.050619  -0.075144
    15  H    0.000000   0.000004   0.375423  -0.034494   0.003621   0.000215
    16  H    0.000002  -0.000146  -0.037432   0.358912  -0.032655   0.006379
    17  H    0.000001  -0.000156  -0.037238   0.004679   0.000500   0.006496
    18  F   -0.000258  -0.002759   0.003064  -0.046928   0.309601  -0.052375
    19  F   -0.002395   0.003662   0.002961  -0.000071   0.002415  -0.058252
    20  H   -0.000595  -0.000048   0.000000   0.000000   0.000000  -0.000001
    21  H    0.000185   0.000007   0.000000   0.000000   0.000000   0.000000
    22  H    0.000297  -0.000211   0.000000   0.000000  -0.000001   0.000007
    23  H   -0.001768   0.000001   0.000000   0.000000   0.000000   0.000012
    24  H    0.003911  -0.000189   0.000000   0.000000   0.000000   0.000003
    25  H   -0.003924   0.000818   0.000000   0.000000   0.000037  -0.000301
    26  H   -0.000014  -0.000001   0.000000   0.000000   0.000000   0.000000
    27  H   -0.000063  -0.000006   0.000000   0.000000   0.000000   0.000000
    28  H   -0.000060   0.000016   0.000000   0.000000   0.000000   0.000000
    29  H   -0.041891   0.373008  -0.000027   0.000382  -0.009266  -0.028079
    30  H   -0.051765   0.354284  -0.000019  -0.000183   0.005761  -0.032179
    31  H   -0.057766  -0.008761   0.000000   0.000000   0.000027   0.000488
    32  C   -0.009985   0.000224   0.000000   0.000000  -0.000030   0.000007
    33  H    0.000250  -0.000005   0.000000   0.000000   0.000000   0.000001
    34  H    0.000164  -0.000019   0.000000   0.000000   0.000000  -0.000002
    35  H    0.014906   0.000051   0.000000   0.000002   0.000177  -0.000137
    36  H    0.331819  -0.038261  -0.000017   0.000001  -0.000326  -0.009066
              13         14         15         16         17         18
     1  C   -0.000007   0.000000   0.000000   0.000000   0.000000   0.000000
     2  C   -0.000033   0.000000   0.000000   0.000000   0.000000   0.000000
     3  C    0.000364   0.000007   0.000000   0.000000   0.000000   0.000002
     4  C   -0.000001   0.000000   0.000000   0.000000   0.000000  -0.000017
     5  C    0.000000   0.000000   0.000000   0.000000   0.000000   0.000000
     6  O    0.000000   0.000000   0.000000   0.000000   0.000000   0.000000
     7  N   -0.007822  -0.000169   0.000000   0.000002   0.000001  -0.000258
     8  C   -0.049693   0.008841   0.000004  -0.000146  -0.000156  -0.002759
     9  C   -0.009602   0.488284   0.375423  -0.037432  -0.037238   0.003064
    10  C   -0.049424  -0.031273  -0.034494   0.358912   0.004679  -0.046928
    11  C    0.015605  -0.050619   0.003621  -0.032655   0.000500   0.309601
    12  C    0.391538  -0.075144   0.000215   0.006379   0.006496  -0.052375
    13  C    4.623134   0.477159   0.003655   0.000482  -0.032536   0.002530
    14  C    0.477159   5.054270  -0.034858   0.004734   0.358360  -0.000055
    15  H    0.003655  -0.034858   0.581453  -0.005931  -0.005956  -0.000023
    16  H    0.000482   0.004734  -0.005931   0.595095  -0.000151  -0.000527
    17  H   -0.032536   0.358360  -0.005956  -0.000151   0.594789   0.000001
    18  F    0.002530  -0.000055  -0.000023  -0.000527   0.000001   9.067387
    19  F    0.307187  -0.047550  -0.000023   0.000001  -0.000355   0.000000
    20  H    0.000001   0.000000   0.000000   0.000000   0.000000   0.000000
    21  H    0.000000   0.000000   0.000000   0.000000   0.000000   0.000000
    22  H    0.000005   0.000001   0.000000   0.000000   0.000000   0.000000
    23  H   -0.000003   0.000000   0.000000   0.000000   0.000000   0.000000
    24  H    0.000000   0.000000   0.000000   0.000000   0.000000   0.000000
    25  H   -0.000010   0.000000   0.000000   0.000000   0.000000   0.000024
    26  H    0.000000   0.000000   0.000000   0.000000   0.000000   0.000000
    27  H    0.000000   0.000000   0.000000   0.000000   0.000000   0.000000
    28  H    0.000000   0.000000   0.000000   0.000000   0.000000   0.000000
    29  H    0.005783  -0.000170   0.000000  -0.000008   0.000002   0.009518
    30  H   -0.013174  -0.000034   0.000000   0.000003   0.000001   0.000204
    31  H   -0.000097  -0.000001   0.000000   0.000000   0.000000   0.000000
    32  C    0.000003   0.000000   0.000000   0.000000   0.000000  -0.000017
    33  H    0.000000   0.000000   0.000000   0.000000   0.000000   0.000000
    34  H    0.000000   0.000000   0.000000   0.000000   0.000000   0.000000
    35  H   -0.000010   0.000000   0.000000   0.000000   0.000000   0.000096
    36  H    0.005315  -0.000054   0.000000   0.000000   0.000002  -0.000011
              19         20         21         22         23         24
     1  C   -0.000025   0.385607   0.379823   0.384927  -0.041777  -0.038224
     2  C   -0.000002  -0.035973  -0.028502  -0.036364   0.376834   0.382025
     3  C    0.000003  -0.005241   0.003988  -0.004433  -0.032307  -0.032440
     4  C    0.000000   0.000014  -0.000122   0.000016  -0.006996  -0.005954
     5  C    0.000000   0.000003  -0.000005  -0.000002   0.000116   0.000599
     6  O    0.000000  -0.000023   0.000000   0.000000  -0.000003   0.000857
     7  N   -0.002395  -0.000595   0.000185   0.000297  -0.001768   0.003911
     8  C    0.003662  -0.000048   0.000007  -0.000211   0.000001  -0.000189
     9  C    0.002961   0.000000   0.000000   0.000000   0.000000   0.000000
    10  C   -0.000071   0.000000   0.000000   0.000000   0.000000   0.000000
    11  C    0.002415   0.000000   0.000000  -0.000001   0.000000   0.000000
    12  C   -0.058252  -0.000001   0.000000   0.000007   0.000012   0.000003
    13  C    0.307187   0.000001   0.000000   0.000005  -0.000003   0.000000
    14  C   -0.047550   0.000000   0.000000   0.000001   0.000000   0.000000
    15  H   -0.000023   0.000000   0.000000   0.000000   0.000000   0.000000
    16  H    0.000001   0.000000   0.000000   0.000000   0.000000   0.000000
    17  H   -0.000355   0.000000   0.000000   0.000000   0.000000   0.000000
    18  F    0.000000   0.000000   0.000000   0.000000   0.000000   0.000000
    19  F    9.072819   0.000001   0.000000   0.000043   0.000000   0.000000
    20  H    0.000001   0.600940  -0.030661  -0.032658   0.005592  -0.004213
    21  H    0.000000  -0.030661   0.607373  -0.030202  -0.002458  -0.004964
    22  H    0.000043  -0.032658  -0.030202   0.609181  -0.005874   0.005509
    23  H    0.000000   0.005592  -0.002458  -0.005874   0.629035  -0.035740
    24  H    0.000000  -0.004213  -0.004964   0.005509  -0.035740   0.621041
    25  H    0.000000  -0.000007   0.000003   0.000000  -0.000068   0.000066
    26  H    0.000000   0.000005   0.000012   0.000002   0.000033   0.003351
    27  H    0.000000  -0.000001   0.000000   0.000000  -0.000029   0.000022
    28  H    0.000000   0.000001   0.000000   0.000000   0.000001  -0.000038
    29  H    0.000183   0.000001   0.000000  -0.000001  -0.000020   0.000001
    30  H    0.004229   0.000097  -0.000006   0.000023   0.000053   0.000006
    31  H   -0.000006   0.006675  -0.000061  -0.000374   0.006665  -0.001298
    32  C    0.000000   0.000004   0.000000  -0.000009   0.002130  -0.000441
    33  H    0.000000   0.000000   0.000007   0.000004   0.001621   0.000578
    34  H    0.000000   0.000000   0.000000   0.000000  -0.000051  -0.000038
    35  H    0.000000   0.000000   0.000000   0.000001   0.001128   0.000061
    36  H    0.006708  -0.000043  -0.000387   0.006790  -0.000225   0.000148
              25         26         27         28         29         30
     1  C   -0.000153  -0.000185   0.000000   0.000000   0.000002  -0.000224
     2  C    0.005271   0.002326   0.000012   0.000057   0.000064   0.000445
     3  C   -0.043397  -0.009824   0.005590  -0.001248  -0.002708  -0.007122
     4  C    0.372982  -0.038722  -0.045564  -0.003099   0.001896  -0.001155
     5  C   -0.041355   0.381205   0.375875  -0.032853  -0.000376   0.000054
     6  O   -0.001645  -0.035687  -0.035011   0.288220   0.000019  -0.000024
     7  N   -0.003924  -0.000014  -0.000063  -0.000060  -0.041891  -0.051765
     8  C    0.000818  -0.000001  -0.000006   0.000016   0.373008   0.354284
     9  C    0.000000   0.000000   0.000000   0.000000  -0.000027  -0.000019
    10  C    0.000000   0.000000   0.000000   0.000000   0.000382  -0.000183
    11  C    0.000037   0.000000   0.000000   0.000000  -0.009266   0.005761
    12  C   -0.000301   0.000000   0.000000   0.000000  -0.028079  -0.032179
    13  C   -0.000010   0.000000   0.000000   0.000000   0.005783  -0.013174
    14  C    0.000000   0.000000   0.000000   0.000000  -0.000170  -0.000034
    15  H    0.000000   0.000000   0.000000   0.000000   0.000000   0.000000
    16  H    0.000000   0.000000   0.000000   0.000000  -0.000008   0.000003
    17  H    0.000000   0.000000   0.000000   0.000000   0.000002   0.000001
    18  F    0.000024   0.000000   0.000000   0.000000   0.009518   0.000204
    19  F    0.000000   0.000000   0.000000   0.000000   0.000183   0.004229
    20  H   -0.000007   0.000005  -0.000001   0.000001   0.000001   0.000097
    21  H    0.000003   0.000012   0.000000   0.000000   0.000000  -0.000006
    22  H    0.000000   0.000002   0.000000   0.000000  -0.000001   0.000023
    23  H   -0.000068   0.000033  -0.000029   0.000001  -0.000020   0.000053
    24  H    0.000066   0.003351   0.000022  -0.000038   0.000001   0.000006
    25  H    0.670739   0.006352  -0.007914   0.006036   0.003565   0.000129
    26  H    0.006352   0.620049  -0.045062   0.007217  -0.000001   0.000001
    27  H   -0.007914  -0.045062   0.668218  -0.008016   0.000021  -0.000001
    28  H    0.006036   0.007217  -0.008016   0.426498   0.000009   0.000014
    29  H    0.003565  -0.000001   0.000021   0.000009   0.615608  -0.048819
    30  H    0.000129   0.000001  -0.000001   0.000014  -0.048819   0.686382
    31  H   -0.004314  -0.000210   0.000355  -0.000176  -0.002487   0.013714
    32  C   -0.040399  -0.001849   0.000256  -0.000026   0.000248  -0.000007
    33  H    0.005790   0.004685  -0.000464   0.000020   0.000000   0.000001
    34  H   -0.004880  -0.000375   0.004735  -0.000010  -0.000015   0.000001
    35  H   -0.003723  -0.000187  -0.000190   0.000000  -0.000343   0.000071
    36  H   -0.000199  -0.000004   0.000003   0.000001   0.006465  -0.006798
              31         32         33         34         35         36
     1  C   -0.009853   0.000137  -0.000096  -0.000002  -0.000027   0.004410
     2  C   -0.044840  -0.009441   0.002889   0.000081  -0.000663  -0.009138
     3  C    0.371220  -0.036664  -0.006635   0.005017  -0.005674  -0.038261
     4  C   -0.059523   0.325126  -0.036056  -0.032604  -0.023664   0.005445
     5  C   -0.004822  -0.041236  -0.006261  -0.003937   0.003965  -0.000158
     6  O    0.016387   0.003646   0.000009   0.000027  -0.000078   0.000002
     7  N   -0.057766  -0.009985   0.000250   0.000164   0.014906   0.331819
     8  C   -0.008761   0.000224  -0.000005  -0.000019   0.000051  -0.038261
     9  C    0.000000   0.000000   0.000000   0.000000   0.000000  -0.000017
    10  C    0.000000   0.000000   0.000000   0.000000   0.000002   0.000001
    11  C    0.000027  -0.000030   0.000000   0.000000   0.000177  -0.000326
    12  C    0.000488   0.000007   0.000001  -0.000002  -0.000137  -0.009066
    13  C   -0.000097   0.000003   0.000000   0.000000  -0.000010   0.005315
    14  C   -0.000001   0.000000   0.000000   0.000000   0.000000  -0.000054
    15  H    0.000000   0.000000   0.000000   0.000000   0.000000   0.000000
    16  H    0.000000   0.000000   0.000000   0.000000   0.000000   0.000000
    17  H    0.000000   0.000000   0.000000   0.000000   0.000000   0.000002
    18  F    0.000000  -0.000017   0.000000   0.000000   0.000096  -0.000011
    19  F   -0.000006   0.000000   0.000000   0.000000   0.000000   0.006708
    20  H    0.006675   0.000004   0.000000   0.000000   0.000000  -0.000043
    21  H   -0.000061   0.000000   0.000007   0.000000   0.000000  -0.000387
    22  H   -0.000374  -0.000009   0.000004   0.000000   0.000001   0.006790
    23  H    0.006665   0.002130   0.001621  -0.000051   0.001128  -0.000225
    24  H   -0.001298  -0.000441   0.000578  -0.000038   0.000061   0.000148
    25  H   -0.004314  -0.040399   0.005790  -0.004880  -0.003723  -0.000199
    26  H   -0.000210  -0.001849   0.004685  -0.000375  -0.000187  -0.000004
    27  H    0.000355   0.000256  -0.000464   0.004735  -0.000190   0.000003
    28  H   -0.000176  -0.000026   0.000020  -0.000010   0.000000   0.000001
    29  H   -0.002487   0.000248   0.000000  -0.000015  -0.000343   0.006465
    30  H    0.013714  -0.000007   0.000001   0.000001   0.000071  -0.006798
    31  H    0.697105   0.006234   0.000025  -0.000113   0.000301   0.001094
    32  C    0.006234   4.989833   0.385430   0.377731   0.371335   0.000260
    33  H    0.000025   0.385430   0.609148  -0.033011  -0.029901  -0.000050
    34  H   -0.000113   0.377731  -0.033011   0.623022  -0.031244   0.000005
    35  H    0.000301   0.371335  -0.029901  -0.031244   0.587599  -0.000384
    36  H    0.001094   0.000260  -0.000050   0.000005  -0.000384   0.488509
 Mulliken charges:
               1
     1  C   -0.330927
     2  C   -0.207160
     3  C    0.110022
     4  C   -0.080997
     5  C    0.059502
     6  O   -0.567006
     7  N   -0.530037
     8  C   -0.090972
     9  C   -0.087443
    10  C   -0.152436
    11  C    0.327974
    12  C   -0.034324
    13  C    0.329651
    14  C   -0.151730
    15  H    0.116912
    16  H    0.111243
    17  H    0.111562
    18  F   -0.289455
    19  F   -0.291535
    20  H    0.110522
    21  H    0.105969
    22  H    0.103323
    23  H    0.104099
    24  H    0.105359
    25  H    0.080476
    26  H    0.106881
    27  H    0.087232
    28  H    0.317437
    29  H    0.117435
    30  H    0.096035
    31  H    0.074412
    32  C   -0.322500
    33  H    0.102023
    34  H    0.095516
    35  H    0.116534
    36  H    0.246403
 Sum of Mulliken charges =   0.00000
 Mulliken charges with hydrogens summed into heavy atoms:
               1
     1  C   -0.011113
     2  C    0.002299
     3  C    0.184434
     4  C   -0.000521
     5  C    0.253615
     6  O   -0.249569
     7  N   -0.283634
     8  C    0.122498
     9  C    0.029469
    10  C   -0.041193
    11  C    0.327974
    12  C   -0.034324
    13  C    0.329651
    14  C   -0.040168
    18  F   -0.289455
    19  F   -0.291535
    32  C   -0.008427
 Electronic spatial extent (au):  <R**2>=           5306.5612
 Charge=              0.0000 electrons
 Dipole moment (field-independent basis, Debye):
    X=              1.8911    Y=             -0.5444    Z=              0.1217  Tot=              1.9717
 Quadrupole moment (field-independent basis, Debye-Ang):
   XX=            -94.5844   YY=            -98.2950   ZZ=           -101.9275
   XY=              2.7620   XZ=             -1.5073   YZ=              3.9290
 Traceless Quadrupole moment (field-independent basis, Debye-Ang):
   XX=              3.6845   YY=             -0.0260   ZZ=             -3.6585
   XY=              2.7620   XZ=             -1.5073   YZ=              3.9290
 Octapole moment (field-independent basis, Debye-Ang**2):
  XXX=            115.4552  YYY=             -8.2516  ZZZ=            -20.8241  XYY=             -6.9831
  XXY=            -12.6491  XXZ=             37.6077  XZZ=             -1.3800  YZZ=             -6.9470
  YYZ=             -4.9726  XYZ=            -11.0366
 Hexadecapole moment (field-independent basis, Debye-Ang**3):
 XXXX=          -4780.4527 YYYY=          -1403.4510 ZZZZ=           -468.9375 XXXY=             31.0339
 XXXZ=            -42.4748 YYYX=             29.1062 YYYZ=             12.5373 ZZZX=             26.9412
 ZZZY=             19.0357 XXYY=           -976.9218 XXZZ=           -962.3945 YYZZ=           -300.2580
 XXYZ=             13.3669 YYXZ=             34.4742 ZZXY=             19.7261
 N-N= 1.260025443993D+03 E-N=-4.474192110598D+03  KE= 8.291594531064D+02
 D1PCM: PCM CHGder 1st derivatives, ID1Alg=3 FixD1E=F DoIter=F DoCFld=F I1PDM=0.
 Calling FoFJK, ICntrl=      2127 FMM=F ISym2X=0 I1Cent= 0 IOpClX= 0 NMat=1 NMatS=1 NMatT=0.
 ***** Axes restored to original set *****
 -------------------------------------------------------------------
 Center     Atomic                   Forces (Hartrees/Bohr)
 Number     Number              X              Y              Z
 -------------------------------------------------------------------
      1        6          -0.001917814   -0.000826577   -0.001597356
      2        6           0.001941544   -0.000913800    0.001449309
      3        6          -0.006896118    0.007211904   -0.005578071
      4        6          -0.003935289    0.004241128   -0.002869922
      5        6           0.011369885   -0.004467659    0.002128844
      6        8          -0.001536293   -0.010489239    0.003664964
      7        7          -0.000269654    0.006048428    0.005834693
      8        6          -0.002308975   -0.005454354   -0.001024030
      9        6          -0.004146160   -0.001320409    0.003989765
     10        6           0.004287933    0.005569748    0.004466353
     11        6           0.008207283   -0.002354920   -0.021512292
     12        6          -0.006101872   -0.003518573    0.007588068
     13        6           0.019648912    0.016083743   -0.000619193
     14        6          -0.001817267   -0.004687276   -0.007127422
     15        1          -0.001341669   -0.000648148    0.001145768
     16        1          -0.000903892   -0.000553864    0.000891914
     17        1          -0.001002562   -0.000606173    0.000862660
     18        9          -0.002936068    0.000499865    0.006279109
     19        9          -0.007268281   -0.005381738    0.000764970
     20        1           0.000319525   -0.000872291   -0.000853329
     21        1           0.000650466   -0.000881520   -0.001342128
     22        1           0.000320181   -0.001687175   -0.001746952
     23        1           0.001830341    0.000881102    0.001920246
     24        1           0.001811025    0.001454299    0.002440188
     25        1           0.001447816   -0.000786151   -0.000088836
     26        1          -0.000369200   -0.003183093   -0.001106120
     27        1          -0.000085039    0.007677056   -0.001232939
     28        1          -0.006000472    0.000990860   -0.003066374
     29        1          -0.003304071    0.002954702   -0.002348162
     30        1           0.002183878   -0.004615783    0.001111911
     31        1          -0.001843097   -0.001874252    0.005301981
     32        6           0.002811462    0.003198670   -0.000658939
     33        1          -0.000253537    0.000438882   -0.000318424
     34        1          -0.000743298   -0.000144386    0.000401462
     35        1          -0.001432139   -0.002074841   -0.000440246
     36        1          -0.000417486    0.000091836    0.003288532
 -------------------------------------------------------------------
 Cartesian Forces:  Max     0.021512292 RMS     0.004767271

 GradGradGradGradGradGradGradGradGradGradGradGradGradGradGradGradGradGrad
 Berny optimization.
 FormGI is forming the generalized inverse of G from B-inverse, IUseBI=4.
 Internal  Forces:  Max     0.011446811 RMS     0.002802615
 Search for a local minimum.
 Step number   1 out of a maximum of   50
 All quantities printed in internal units (Hartrees-Bohrs-Radians)
 Mixed Optimization -- RFO/linear search
 Second derivative matrix not updated -- first step.
 ITU=  0
     Eigenvalues ---    0.00230   0.00230   0.00283   0.00326   0.00414
     Eigenvalues ---    0.00655   0.00746   0.00816   0.01403   0.01566
     Eigenvalues ---    0.02146   0.02151   0.02152   0.02158   0.02161
     Eigenvalues ---    0.02166   0.02167   0.02169   0.02821   0.03161
     Eigenvalues ---    0.03411   0.03877   0.04572   0.04629   0.04768
     Eigenvalues ---    0.04862   0.05110   0.05142   0.05359   0.05428
     Eigenvalues ---    0.05554   0.05556   0.05685   0.05862   0.06542
     Eigenvalues ---    0.08482   0.09820   0.10914   0.11671   0.12305
     Eigenvalues ---    0.13171   0.13887   0.16000   0.16000   0.16000
     Eigenvalues ---    0.16000   0.16000   0.16000   0.16000   0.16000
     Eigenvalues ---    0.16000   0.16000   0.16899   0.16909   0.17624
     Eigenvalues ---    0.17777   0.21923   0.21932   0.21970   0.22085
     Eigenvalues ---    0.23473   0.23490   0.24907   0.24996   0.24999
     Eigenvalues ---    0.25000   0.26623   0.27717   0.28832   0.29125
     Eigenvalues ---    0.29741   0.32217   0.33895   0.33925   0.33941
     Eigenvalues ---    0.34049   0.34137   0.34160   0.34208   0.34237
     Eigenvalues ---    0.34287   0.34289   0.34291   0.34315   0.34403
     Eigenvalues ---    0.34426   0.34753   0.35172   0.35284   0.35294
     Eigenvalues ---    0.36196   0.42181   0.42335   0.42491   0.44475
     Eigenvalues ---    0.46345   0.46482   0.46516   0.46620   0.52769
     Eigenvalues ---    0.56908   0.56965
 RFO step:  Lambda=-7.83606453D-03 EMin= 2.30000000D-03
 Linear search not attempted -- first point.
 Iteration  1 RMS(Cart)=  0.04625684 RMS(Int)=  0.00074201
 Iteration  2 RMS(Cart)=  0.00106376 RMS(Int)=  0.00030327
 Iteration  3 RMS(Cart)=  0.00000064 RMS(Int)=  0.00030326
 Variable       Old X    -DE/DX   Delta X   Delta X   Delta X     New X
                                 (Linear)    (Quad)   (Total)
    R1        2.88482   0.00698   0.00000   0.02287   0.02287   2.90770
    R2        2.06848   0.00056   0.00000   0.00159   0.00159   2.07007
    R3        2.06931  -0.00020   0.00000  -0.00056  -0.00056   2.06875
    R4        2.06616   0.00131   0.00000   0.00373   0.00373   2.06989
    R5        2.92761  -0.00475   0.00000  -0.01668  -0.01668   2.91093
    R6        2.07248  -0.00016   0.00000  -0.00045  -0.00045   2.07202
    R7        2.06842   0.00010   0.00000   0.00029   0.00029   2.06870
    R8        2.95252  -0.00543   0.00000  -0.01983  -0.01983   2.93270
    R9        2.79378   0.00005   0.00000   0.00015   0.00015   2.79393
   R10        2.07507   0.00292   0.00000   0.00843   0.00843   2.08350
   R11        2.90356   0.00091   0.00000   0.00308   0.00308   2.90664
   R12        2.07458   0.00139   0.00000   0.00399   0.00399   2.07857
   R13        2.89742   0.00155   0.00000   0.00518   0.00518   2.90260
   R14        2.68693   0.00828   0.00000   0.01926   0.01926   2.70619
   R15        2.06655   0.00024   0.00000   0.00068   0.00068   2.06723
   R16        2.07100   0.00301   0.00000   0.00862   0.00862   2.07962
   R17        1.83870  -0.00679   0.00000  -0.01267  -0.01267   1.82603
   R18        2.77076   0.00343   0.00000   0.00927   0.00927   2.78003
   R19        1.92590  -0.00298   0.00000  -0.00659  -0.00659   1.91931
   R20        2.83749   0.00775   0.00000   0.02349   0.02349   2.86098
   R21        2.06981  -0.00259   0.00000  -0.00740  -0.00740   2.06241
   R22        2.07430   0.00430   0.00000   0.01239   0.01239   2.08669
   R23        2.63452   0.00085   0.00000   0.00199   0.00195   2.63647
   R24        2.63389   0.00136   0.00000   0.00302   0.00299   2.63688
   R25        2.05396  -0.00188   0.00000  -0.00523  -0.00523   2.04873
   R26        2.63606  -0.00317   0.00000  -0.00667  -0.00668   2.62939
   R27        2.05216  -0.00069   0.00000  -0.00191  -0.00191   2.05025
   R28        2.63723   0.00026   0.00000   0.00039   0.00042   2.63765
   R29        2.53426   0.00611   0.00000   0.01058   0.01058   2.54484
   R30        2.63831  -0.00076   0.00000  -0.00182  -0.00178   2.63653
   R31        2.63505  -0.00365   0.00000  -0.00774  -0.00773   2.62732
   R32        2.53475   0.00819   0.00000   0.01419   0.01419   2.54894
   R33        2.05199  -0.00061   0.00000  -0.00170  -0.00170   2.05030
   R34        2.06844   0.00043   0.00000   0.00124   0.00124   2.06968
   R35        2.07061   0.00015   0.00000   0.00042   0.00042   2.07103
   R36        2.06802  -0.00133   0.00000  -0.00380  -0.00380   2.06422
    A1        1.93637   0.00057   0.00000   0.00262   0.00261   1.93898
    A2        1.91720   0.00183   0.00000   0.01238   0.01231   1.92950
    A3        1.95745   0.00218   0.00000   0.01230   0.01225   1.96970
    A4        1.88303  -0.00106   0.00000  -0.00490  -0.00493   1.87810
    A5        1.89328  -0.00184   0.00000  -0.01365  -0.01364   1.87964
    A6        1.87395  -0.00192   0.00000  -0.01002  -0.01011   1.86383
    A7        1.98288   0.00162   0.00000   0.00870   0.00880   1.99168
    A8        1.89753   0.00117   0.00000   0.01546   0.01550   1.91303
    A9        1.86641   0.00157   0.00000   0.02193   0.02197   1.88838
   A10        1.93099  -0.00233   0.00000  -0.02316  -0.02331   1.90768
   A11        1.91926  -0.00228   0.00000  -0.02016  -0.02039   1.89887
   A12        1.86182   0.00033   0.00000  -0.00170  -0.00233   1.85949
   A13        1.96588   0.00332   0.00000   0.01517   0.01522   1.98110
   A14        1.90940  -0.00081   0.00000   0.00323   0.00320   1.91260
   A15        1.86619  -0.00044   0.00000   0.00007   0.00000   1.86619
   A16        1.92040  -0.00185   0.00000  -0.00936  -0.00940   1.91100
   A17        1.89909  -0.00271   0.00000  -0.03575  -0.03563   1.86346
   A18        1.90119   0.00256   0.00000   0.02751   0.02732   1.92851
   A19        1.97169  -0.00168   0.00000  -0.00716  -0.00726   1.96443
   A20        1.87452   0.00024   0.00000  -0.01183  -0.01189   1.86263
   A21        1.98018  -0.00094   0.00000  -0.00149  -0.00151   1.97868
   A22        1.84858  -0.00051   0.00000  -0.00570  -0.00584   1.84274
   A23        1.90981   0.00314   0.00000   0.02358   0.02359   1.93340
   A24        1.87117  -0.00026   0.00000   0.00166   0.00164   1.87281
   A25        1.93709   0.01145   0.00000   0.05575   0.05526   1.99235
[...]
    28  H   -0.000001   0.000019  -0.000867  -0.003642  -0.034705   0.288595
    29  H   -0.000010   0.000043  -0.001653   0.002214  -0.000470   0.000049
    30  H    0.000023   0.000408  -0.007603  -0.001140   0.000104  -0.000041
    31  H   -0.008176  -0.047086   0.374217  -0.066755  -0.005408   0.018748
    32  C    0.000187  -0.009345  -0.036265   0.329121  -0.038512   0.003138
    33  H   -0.000062   0.003202  -0.006682  -0.036698  -0.005938   0.000012
    34  H   -0.000004   0.000149   0.004964  -0.029882  -0.003829   0.000011
    35  H   -0.000034  -0.001493  -0.005945  -0.026934   0.004120  -0.000069
    36  H    0.002420  -0.007550  -0.040422   0.005365  -0.000178   0.000001
               7          8          9         10         11         12
     1  C   -0.004511   0.000215   0.000000   0.000000   0.000000   0.000026
     2  C   -0.042188   0.003820   0.000000   0.000000   0.000001  -0.000226
     3  C    0.276458  -0.030693   0.000000   0.000003  -0.000116   0.004456
     4  C   -0.058340  -0.003877   0.000000   0.000000   0.000020  -0.000021
     5  C    0.003257  -0.000004   0.000000   0.000000   0.000000   0.000000
     6  O    0.000118  -0.000029   0.000000   0.000000   0.000000   0.000000
     7  N    6.932781   0.284430   0.000020  -0.000073   0.003492  -0.036086
     8  C    0.284430   4.937752  -0.000669   0.007574  -0.046431   0.302762
     9  C    0.000020  -0.000669   4.863294   0.483084  -0.004130  -0.027508
    10  C   -0.000073   0.007574   0.483084   5.043591   0.473226  -0.072754
    11  C    0.003492  -0.046431  -0.004130   0.473226   4.600874   0.420419
    12  C   -0.036086   0.302762  -0.027508  -0.072754   0.420419   5.289704
    13  C   -0.007494  -0.052796  -0.006192  -0.046869   0.021533   0.385236
    14  C   -0.000168   0.008389   0.485612  -0.036662  -0.049333  -0.081227
    15  H    0.000000   0.000005   0.373664  -0.033772   0.003549   0.000448
    16  H    0.000001  -0.000118  -0.036497   0.361974  -0.032260   0.006104
    17  H    0.000001  -0.000134  -0.035983   0.004341   0.000357   0.006147
    18  F   -0.000065  -0.006483   0.003040  -0.044278   0.294335  -0.048025
    19  F   -0.004530   0.004859   0.002826  -0.000016   0.002582  -0.057588
    20  H   -0.000217  -0.000003   0.000000   0.000000   0.000000  -0.000002
    21  H    0.000117   0.000008   0.000000   0.000000   0.000000   0.000000
    22  H    0.001340   0.000009   0.000000   0.000000  -0.000002  -0.000107
    23  H   -0.002938   0.000051   0.000000   0.000000   0.000000   0.000020
    24  H    0.004132  -0.000185   0.000000   0.000000   0.000000   0.000003
    25  H   -0.004602   0.000842   0.000000   0.000000   0.000022  -0.000224
    26  H    0.000003   0.000000   0.000000   0.000000   0.000000   0.000000
    27  H   -0.000097  -0.000006   0.000000   0.000000   0.000000   0.000000
    28  H   -0.000065   0.000039   0.000000   0.000000   0.000000   0.000001
    29  H   -0.045580   0.372010  -0.000035   0.000477  -0.007620  -0.029995
    30  H   -0.049332   0.351960   0.000011  -0.000215   0.004210  -0.029372
    31  H   -0.053725  -0.009040   0.000000   0.000000   0.000007   0.000573
    32  C   -0.010560   0.000288   0.000000   0.000000  -0.000008   0.000002
    33  H    0.000275  -0.000009   0.000000   0.000000   0.000000   0.000001
    34  H   -0.000020  -0.000008   0.000000   0.000000   0.000000  -0.000001
    35  H    0.015401  -0.000090   0.000000   0.000000   0.000016  -0.000012
    36  H    0.335121  -0.042130  -0.000017   0.000005  -0.000068  -0.010453
              13         14         15         16         17         18
     1  C   -0.000022  -0.000001   0.000000   0.000000   0.000000   0.000000
     2  C   -0.000050   0.000000   0.000000   0.000000   0.000000   0.000000
     3  C    0.000434   0.000007   0.000000   0.000000   0.000000   0.000004
     4  C   -0.000003   0.000000   0.000000   0.000000   0.000000  -0.000003
     5  C    0.000000   0.000000   0.000000   0.000000   0.000000   0.000000
     6  O    0.000000   0.000000   0.000000   0.000000   0.000000   0.000000
     7  N   -0.007494  -0.000168   0.000000   0.000001   0.000001  -0.000065
     8  C   -0.052796   0.008389   0.000005  -0.000118  -0.000134  -0.006483
     9  C   -0.006192   0.485612   0.373664  -0.036497  -0.035983   0.003040
    10  C   -0.046869  -0.036662  -0.033772   0.361974   0.004341  -0.044278
    11  C    0.021533  -0.049333   0.003549  -0.032260   0.000357   0.294335
    12  C    0.385236  -0.081227   0.000448   0.006104   0.006147  -0.048025
    13  C    4.636566   0.483268   0.003555   0.000324  -0.032095   0.002792
    14  C    0.483268   5.043463  -0.034661   0.004468   0.361174   0.000016
    15  H    0.003555  -0.034661   0.581062  -0.005658  -0.005622  -0.000025
    16  H    0.000324   0.004468  -0.005658   0.585843  -0.000131  -0.000627
    17  H   -0.032095   0.361174  -0.005622  -0.000131   0.584879   0.000001
    18  F    0.002792   0.000016  -0.000025  -0.000627   0.000001   9.086921
    19  F    0.292287  -0.046012  -0.000024   0.000001  -0.000378  -0.000001
    20  H    0.000001   0.000000   0.000000   0.000000   0.000000   0.000000
    21  H    0.000000   0.000000   0.000000   0.000000   0.000000   0.000000
    22  H    0.000091   0.000007   0.000000   0.000000   0.000000   0.000000
    23  H   -0.000008   0.000000   0.000000   0.000000   0.000000   0.000000
    24  H    0.000000   0.000000   0.000000   0.000000   0.000000   0.000000
    25  H   -0.000012   0.000000   0.000000   0.000000   0.000000  -0.000036
    26  H    0.000000   0.000000   0.000000   0.000000   0.000000   0.000000
    27  H    0.000000   0.000000   0.000000   0.000000   0.000000   0.000000
    28  H    0.000000   0.000000   0.000000   0.000000   0.000000   0.000000
    29  H    0.005955  -0.000142   0.000000  -0.000008   0.000002   0.011906
    30  H   -0.011202  -0.000200   0.000000   0.000002   0.000001   0.000217
    31  H   -0.000067  -0.000001   0.000000   0.000000   0.000000   0.000000
    32  C    0.000003   0.000000   0.000000   0.000000   0.000000   0.000000
    33  H    0.000000   0.000000   0.000000   0.000000   0.000000   0.000000
    34  H    0.000000   0.000000   0.000000   0.000000   0.000000   0.000000
    35  H   -0.000005   0.000000   0.000000   0.000000   0.000000   0.000000
    36  H    0.004192  -0.000095   0.000000   0.000000   0.000004  -0.000010
              19         20         21         22         23         24
     1  C   -0.000294   0.385688   0.379204   0.382092  -0.040921  -0.035955
     2  C   -0.000024  -0.034082  -0.027433  -0.037070   0.375546   0.380780
     3  C    0.000012  -0.004757   0.003851  -0.004420  -0.033909  -0.036345
     4  C   -0.000001  -0.000049  -0.000136   0.000118  -0.007324  -0.003050
     5  C    0.000000   0.000032  -0.000004  -0.000008   0.000265  -0.000101
     6  O    0.000000  -0.000025   0.000000   0.000001  -0.000014   0.000129
     7  N   -0.004530  -0.000217   0.000117   0.001340  -0.002938   0.004132
     8  C    0.004859  -0.000003   0.000008   0.000009   0.000051  -0.000185
     9  C    0.002826   0.000000   0.000000   0.000000   0.000000   0.000000
    10  C   -0.000016   0.000000   0.000000   0.000000   0.000000   0.000000
    11  C    0.002582   0.000000   0.000000  -0.000002   0.000000   0.000000
    12  C   -0.057588  -0.000002   0.000000  -0.000107   0.000020   0.000003
    13  C    0.292287   0.000001   0.000000   0.000091  -0.000008   0.000000
    14  C   -0.046012   0.000000   0.000000   0.000007   0.000000   0.000000
    15  H   -0.000024   0.000000   0.000000   0.000000   0.000000   0.000000
    16  H    0.000001   0.000000   0.000000   0.000000   0.000000   0.000000
    17  H   -0.000378   0.000000   0.000000   0.000000   0.000000   0.000000
    18  F   -0.000001   0.000000   0.000000   0.000000   0.000000   0.000000
    19  F    9.092854  -0.000001   0.000001   0.001642  -0.000001   0.000000
    20  H   -0.000001   0.599349  -0.030824  -0.032437   0.005274  -0.005069
    21  H    0.000001  -0.030824   0.606464  -0.030797  -0.003164  -0.002961
    22  H    0.001642  -0.032437  -0.030797   0.610182  -0.004740   0.005197
    23  H   -0.000001   0.005274  -0.003164  -0.004740   0.630935  -0.035153
    24  H    0.000000  -0.005069  -0.002961   0.005197  -0.035153   0.622610
    25  H    0.000000  -0.000005   0.000003  -0.000001  -0.000094   0.000094
    26  H    0.000000   0.000007   0.000012   0.000002  -0.000035   0.004627
    27  H    0.000000  -0.000001   0.000000   0.000000  -0.000024  -0.000133
    28  H    0.000000   0.000001   0.000000   0.000000   0.000001  -0.000003
    29  H    0.000169   0.000002   0.000000   0.000012  -0.000028   0.000007
    30  H    0.002445   0.000027  -0.000004  -0.000154   0.000076  -0.000006
    31  H   -0.000005   0.005523   0.000031  -0.000815   0.006787  -0.001191
    32  C    0.000000   0.000007   0.000003  -0.000009   0.002356  -0.001474
    33  H    0.000000  -0.000001   0.000006   0.000002   0.000596   0.001128
    34  H    0.000000   0.000000   0.000000   0.000000  -0.000047  -0.000050
    35  H    0.000000   0.000000   0.000000  -0.000002   0.002018   0.000099
    36  H    0.012038  -0.000109  -0.000395   0.007091   0.000158   0.000148
              25         26         27         28         29         30
     1  C   -0.000156  -0.000236   0.000002  -0.000001  -0.000010   0.000023
     2  C    0.005314   0.001989   0.000041   0.000019   0.000043   0.000408
     3  C   -0.045445  -0.009857   0.005421  -0.000867  -0.001653  -0.007603
     4  C    0.374738  -0.038957  -0.049113  -0.003642   0.002214  -0.001140
     5  C   -0.043536   0.380510   0.370802  -0.034705  -0.000470   0.000104
     6  O   -0.002139  -0.038282  -0.033326   0.288595   0.000049  -0.000041
     7  N   -0.004602   0.000003  -0.000097  -0.000065  -0.045580  -0.049332
     8  C    0.000842   0.000000  -0.000006   0.000039   0.372010   0.351960
     9  C    0.000000   0.000000   0.000000   0.000000  -0.000035   0.000011
    10  C    0.000000   0.000000   0.000000   0.000000   0.000477  -0.000215
    11  C    0.000022   0.000000   0.000000   0.000000  -0.007620   0.004210
    12  C   -0.000224   0.000000   0.000000   0.000001  -0.029995  -0.029372
    13  C   -0.000012   0.000000   0.000000   0.000000   0.005955  -0.011202
    14  C    0.000000   0.000000   0.000000   0.000000  -0.000142  -0.000200
    15  H    0.000000   0.000000   0.000000   0.000000   0.000000   0.000000
    16  H    0.000000   0.000000   0.000000   0.000000  -0.000008   0.000002
    17  H    0.000000   0.000000   0.000000   0.000000   0.000002   0.000001
    18  F   -0.000036   0.000000   0.000000   0.000000   0.011906   0.000217
    19  F    0.000000   0.000000   0.000000   0.000000   0.000169   0.002445
    20  H   -0.000005   0.000007  -0.000001   0.000001   0.000002   0.000027
    21  H    0.000003   0.000012   0.000000   0.000000   0.000000  -0.000004
    22  H   -0.000001   0.000002   0.000000   0.000000   0.000012  -0.000154
    23  H   -0.000094  -0.000035  -0.000024   0.000001  -0.000028   0.000076
    24  H    0.000094   0.004627  -0.000133  -0.000003   0.000007  -0.000006
    25  H    0.668761   0.006481  -0.006848   0.006050   0.003335   0.000213
    26  H    0.006481   0.625850  -0.044609   0.007530   0.000001   0.000002
    27  H   -0.006848  -0.044609   0.673101  -0.006253   0.000020  -0.000001
    28  H    0.006050   0.007530  -0.006253   0.427433   0.000067   0.000017
    29  H    0.003335   0.000001   0.000020   0.000067   0.616739  -0.048976
    30  H    0.000213   0.000002  -0.000001   0.000017  -0.048976   0.679120
    31  H   -0.002807  -0.000521   0.000607  -0.000338  -0.002022   0.013428
    32  C   -0.039103  -0.002240   0.000746  -0.000011   0.000191  -0.000020
    33  H    0.005720   0.004555  -0.000526   0.000023   0.000000   0.000001
    34  H   -0.005486  -0.000320   0.004802  -0.000007  -0.000003   0.000000
    35  H   -0.003171  -0.000199  -0.000181  -0.000002  -0.000242   0.000050
    36  H   -0.000110  -0.000003   0.000004   0.000001   0.006419  -0.004865
              31         32         33         34         35         36
     1  C   -0.008176   0.000187  -0.000062  -0.000004  -0.000034   0.002420
     2  C   -0.047086  -0.009345   0.003202   0.000149  -0.001493  -0.007550
     3  C    0.374217  -0.036265  -0.006682   0.004964  -0.005945  -0.040422
     4  C   -0.066755   0.329121  -0.036698  -0.029882  -0.026934   0.005365
     5  C   -0.005408  -0.038512  -0.005938  -0.003829   0.004120  -0.000178
     6  O    0.018748   0.003138   0.000012   0.000011  -0.000069   0.000001
     7  N   -0.053725  -0.010560   0.000275  -0.000020   0.015401   0.335121
     8  C   -0.009040   0.000288  -0.000009  -0.000008  -0.000090  -0.042130
     9  C    0.000000   0.000000   0.000000   0.000000   0.000000  -0.000017
    10  C    0.000000   0.000000   0.000000   0.000000   0.000000   0.000005
    11  C    0.000007  -0.000008   0.000000   0.000000   0.000016  -0.000068
    12  C    0.000573   0.000002   0.000001  -0.000001  -0.000012  -0.010453
    13  C   -0.000067   0.000003   0.000000   0.000000  -0.000005   0.004192
    14  C   -0.000001   0.000000   0.000000   0.000000   0.000000  -0.000095
    15  H    0.000000   0.000000   0.000000   0.000000   0.000000   0.000000
    16  H    0.000000   0.000000   0.000000   0.000000   0.000000   0.000000
    17  H    0.000000   0.000000   0.000000   0.000000   0.000000   0.000004
    18  F    0.000000   0.000000   0.000000   0.000000   0.000000  -0.000010
    19  F   -0.000005   0.000000   0.000000   0.000000   0.000000   0.012038
    20  H    0.005523   0.000007  -0.000001   0.000000   0.000000  -0.000109
    21  H    0.000031   0.000003   0.000006   0.000000   0.000000  -0.000395
    22  H   -0.000815  -0.000009   0.000002   0.000000  -0.000002   0.007091
    23  H    0.006787   0.002356   0.000596  -0.000047   0.002018   0.000158
    24  H   -0.001191  -0.001474   0.001128  -0.000050   0.000099   0.000148
    25  H   -0.002807  -0.039103   0.005720  -0.005486  -0.003171  -0.000110
    26  H   -0.000521  -0.002240   0.004555  -0.000320  -0.000199  -0.000003
    27  H    0.000607   0.000746  -0.000526   0.004802  -0.000181   0.000004
    28  H   -0.000338  -0.000011   0.000023  -0.000007  -0.000002   0.000001
    29  H   -0.002022   0.000191   0.000000  -0.000003  -0.000242   0.006419
    30  H    0.013428  -0.000020   0.000001   0.000000   0.000050  -0.004865
    31  H    0.692450   0.006385   0.000061  -0.000144   0.000353   0.002091
    32  C    0.006385   4.987615   0.384610   0.379045   0.371158   0.000225
    33  H    0.000061   0.384610   0.610880  -0.033493  -0.030096  -0.000023
    34  H   -0.000144   0.379045  -0.033493   0.616050  -0.030201   0.000008
    35  H    0.000353   0.371158  -0.030096  -0.030201   0.588848  -0.000494
    36  H    0.002091   0.000225  -0.000023   0.000008  -0.000494   0.484045
 Mulliken charges:
               1
     1  C   -0.329728
     2  C   -0.208233
     3  C    0.103826
     4  C   -0.076272
     5  C    0.060474
     6  O   -0.563902
     7  N   -0.536358
     8  C   -0.082307
     9  C   -0.100520
    10  C   -0.139637
    11  C    0.315324
    12  C   -0.022299
    13  C    0.320575
    14  C   -0.137904
    15  H    0.117479
    16  H    0.116582
    17  H    0.117436
    18  F   -0.299678
    19  F   -0.302842
    20  H    0.111670
    21  H    0.106019
    22  H    0.102775
    23  H    0.104315
    24  H    0.102724
    25  H    0.082200
    26  H    0.103689
    27  H    0.085573
    28  H    0.316116
    29  H    0.117166
    30  H    0.100816
    31  H    0.076840
    32  C   -0.327533
    33  H    0.102454
    34  H    0.098466
    35  H    0.117107
    36  H    0.247586
 Sum of Mulliken charges =   0.00000
 Mulliken charges with hydrogens summed into heavy atoms:
               1
     1  C   -0.009264
     2  C   -0.001194
     3  C    0.180665
     4  C    0.005928
     5  C    0.249736
     6  O   -0.247786
     7  N   -0.288772
     8  C    0.135674
     9  C    0.016959
    10  C   -0.023055
    11  C    0.315324
    12  C   -0.022299
    13  C    0.320575
    14  C   -0.020467
    18  F   -0.299678
    19  F   -0.302842
    32  C   -0.009506
 Electronic spatial extent (au):  <R**2>=           5360.8010
 Charge=              0.0000 electrons
 Dipole moment (field-independent basis, Debye):
    X=              2.1947    Y=             -0.2760    Z=              0.4737  Tot=              2.2622
 Quadrupole moment (field-independent basis, Debye-Ang):
   XX=            -92.8015   YY=            -97.5352   ZZ=           -104.2214
   XY=              2.2321   XZ=             -3.0181   YZ=              2.8943
 Traceless Quadrupole moment (field-independent basis, Debye-Ang):
   XX=              5.3845   YY=              0.6508   ZZ=             -6.0354
   XY=              2.2321   XZ=             -3.0181   YZ=              2.8943
 Octapole moment (field-independent basis, Debye-Ang**2):
  XXX=            118.8826  YYY=            -11.8829  ZZZ=            -14.6993  XYY=             -7.3524
  XXY=             -2.8229  XXZ=             40.5770  XZZ=              6.6126  YZZ=             -5.8043
  YYZ=             -5.6940  XYZ=             -4.7316
 Hexadecapole moment (field-independent basis, Debye-Ang**3):
 XXXX=          -4774.1544 YYYY=          -1388.6449 ZZZZ=           -503.5627 XXXY=             -8.4883
 XXXZ=            -48.0018 YYYX=             44.0236 YYYZ=             25.8448 ZZZX=              7.5780
 ZZZY=             18.5145 XXYY=           -983.8006 XXZZ=          -1006.3414 YYZZ=           -301.3711
 XXYZ=             -5.8162 YYXZ=             32.2209 ZZXY=              8.5274
 N-N= 1.256512704197D+03 E-N=-4.467073535521D+03  KE= 8.290965279598D+02
 1\1\GINC-SWANNODE-0-11\FOpt\RB3LYP\6-31G(d,p)\C13H19F2N1O1\KE291\06-Ma
 r-2019\0\\# b3lyp/6-31g(d,p) Opt=(maxcycles=50) scrf=(solvent=chlorofo
 rm)\\AT3_1ginp016\\0,1\C,-1.8792848814,0.5337470401,0.344999578\C,-1.7
 20987255,1.6664793286,1.3681491924\C,-0.4057406936,1.5985322777,2.1646
 400064\C,-0.4099572045,2.4600038542,3.4557343601\C,-1.25793611,1.83859
 035,4.575689644\O,-0.8594019509,0.515967492,4.9361689871\N,0.713456571
 7,2.01877496,1.2949050584\C,1.9758268156,1.3265481121,1.5845199349\C,5
 .0866670434,2.5134497468,-1.1998793586\C,5.179108621,2.8996636119,0.13
 71421638\C,4.1704397125,2.5122408039,1.0128085821\C,3.0675994466,1.748
 1358894,0.6285266188\C,3.0315735144,1.3951659845,-0.7219692142\C,4.003
 5177417,1.7529909637,-1.6454681102\H,5.861869192,2.8072629768,-1.89966
 63177\H,6.0092500576,3.490081362,0.5072605748\H,3.904806938,1.44119293
 12,-2.6787043577\F,4.2692339624,2.8878430187,2.3093530161\F,1.96912394
 98,0.6615785261,-1.1467548201\H,-1.8983156337,-0.4420438784,0.84231288
 64\H,-2.8118610921,0.6416534103,-0.2177283062\H,-1.0612035779,0.512799
 533,-0.3840726378\H,-1.7783606447,2.6377329074,0.8607973683\H,-2.56814
 3222,1.6309474217,2.0618186498\H,0.6279100507,2.4711124902,3.823410853
 6\H,-2.3056360197,1.7544737591,4.2662634319\H,-1.2378750325,2.50438211
 69,5.4522861963\H,0.0483050524,0.5687686463,5.2656380906\H,2.290908103
 6,1.5710305236,2.6014423653\H,1.8700569893,0.2279413651,1.5393235326\H
 ,-0.2688478525,0.5521746219,2.4877376581\C,-0.8205580042,3.9186329918,
 3.2131553341\H,-1.8838730317,4.0058172275,2.9634791496\H,-0.6414337844
 ,4.5291376764,4.1046020489\H,-0.241257158,4.3401074559,2.3879301409\H,
 0.4719703861,1.8128725017,0.329716699\\Version=EM64L-G09RevD.01\State=
 1-A\HF=-836.4933999\RMSD=2.692e-09\RMSF=4.611e-06\Dipole=0.7161336,0.2
 677816,-0.4555918\Quadrupole=2.7830835,-5.5621849,2.7791015,-1.5434466
 ,-1.6444126,1.5254525\PG=C01 [X(C13H19F2N1O1)]\\@


 SI MONUMENTUM REQUIRIS, CIRCUMSPICE
     -- FROM SIR CHRISTOPHER WREN'S TOMBSTONE
 Job cpu time:       0 days  2 hours 30 minutes 17.5 seconds.
 File lengths (MBytes):  RWF=    292 Int=      0 D2E=      0 Chk=     12 Scr=      1
 Normal termination of Gaussian 09 at Wed Mar  6 11:23:06 2019.
