 Entering Gaussian System, Link 0=/usr/local/shared/gaussian/em64t/09-D01/g09/g09
 Initial command:
 /usr/local/shared/gaussian/em64t/09-D01/g09/l1.exe "/scratch/ke291/AT3_2ginp001/Gau-28749.inp" -scrdir="/scratch/ke291/AT3_2ginp001/"
 Entering Link 1 = /usr/local/shared/gaussian/em64t/09-D01/g09/l1.exe PID=     28755.
  
 Copyright (c) 1988,1990,1992,1993,1995,1998,2003,2009,2013,
            Gaussian, Inc.  All Rights Reserved.
  
 This is part of the Gaussian(R) 09 program.  It is based on
 the Gaussian(R) 03 system (copyright 2003, Gaussian, Inc.),
 the Gaussian(R) 98 system (copyright 1998, Gaussian, Inc.),
 the Gaussian(R) 94 system (copyright 1995, Gaussian, Inc.),
 the Gaussian 92(TM) system (copyright 1992, Gaussian, Inc.),
 the Gaussian 90(TM) system (copyright 1990, Gaussian, Inc.),
 the Gaussian 88(TM) system (copyright 1988, Gaussian, Inc.),
 the Gaussian 86(TM) system (copyright 1986, Carnegie Mellon
 University), and the Gaussian 82(TM) system (copyright 1983,
 Carnegie Mellon University). Gaussian is a federally registered
 trademark of Gaussian, Inc.
  
 This software contains proprietary and confidential information,
 including trade secrets, belonging to Gaussian, Inc.
  
 This software is provided under written license and may be
 used, copied, transmitted, or stored only in accord with that
 written license.
  
 The following legend is applicable only to US Government
 contracts under FAR:
  
                    RESTRICTED RIGHTS LEGEND
  
 Use, reproduction and disclosure by the US Government is
 subject to restrictions as set forth in subparagraphs (a)
 and (c) of the Commercial Computer Software - Restricted
 Rights clause in FAR 52.227-19.
  
 Gaussian, Inc.
 340 Quinnipiac St., Bldg. 40, Wallingford CT 06492
  
  
 ---------------------------------------------------------------
 Warning -- This program may not be used in any manner that
 competes with the business of Gaussian, Inc. or will provide
 assistance to any competitor of Gaussian, Inc.  The licensee
 of this program is prohibited from giving any competitor of
 Gaussian, Inc. access to this program.  By using this program,
 the user acknowledges that Gaussian, Inc. is engaged in the
 business of creating and licensing software in the field of
 computational chemistry and represents and warrants to the
 licensee that it is not a competitor of Gaussian, Inc. and that
 it will not use this program in any manner prohibited above.
 ---------------------------------------------------------------
  

 Cite this work as:
 Gaussian 09, Revision D.01,
 M. J. Frisch, G. W. Trucks, H. B. Schlegel, G. E. Scuseria, 
 M. A. Robb, J. R. Cheeseman, G. Scalmani, V. Barone, B. Mennucci, 
 G. A. Petersson, H. Nakatsuji, M. Caricato, X. Li, H. P. Hratchian, 
 A. F. Izmaylov, J. Bloino, G. Zheng, J. L. Sonnenberg, M. Hada, 
 M. Ehara, K. Toyota, R. Fukuda, J. Hasegawa, M. Ishida, T. Nakajima, 
 Y. Honda, O. Kitao, H. Nakai, T. Vreven, J. A. Montgomery, Jr., 
 J. E. Peralta, F. Ogliaro, M. Bearpark, J. J. Heyd, E. Brothers, 
 K. N. Kudin, V. N. Staroverov, T. Keith, R. Kobayashi, J. Normand, 
 K. Raghavachari, A. Rendell, J. C. Burant, S. S. Iyengar, J. Tomasi, 
 M. Cossi, N. Rega, J. M. Millam, M. Klene, J. E. Knox, J. B. Cross, 
 V. Bakken, C. Adamo, J. Jaramillo, R. Gomperts, R. E. Stratmann, 
 O. Yazyev, A. J. Austin, R. Cammi, C. Pomelli, J. W. Ochterski, 
 R. L. Martin, K. Morokuma, V. G. Zakrzewski, G. A. Voth, 
 P. Salvador, J. J. Dannenberg, S. Dapprich, A. D. Daniels, 
 O. Farkas, J. B. Foresman, J. V. Ortiz, J. Cioslowski, 
 and D. J. Fox, Gaussian, Inc., Wallingford CT, 2013.
 
 ******************************************
 Gaussian 09:  EM64L-G09RevD.01 24-Apr-2013
                 6-Mar-2019 
 ******************************************
 %nprocshared=2
 Will use up to    2 processors via shared memory.
 %mem=6000MB
 %chk=AT3_2ginp001.chk
 ---------------------------------------------------------------
 # b3lyp/6-31g(d,p) Opt=(maxcycles=50) scrf=(solvent=chloroform)
 ---------------------------------------------------------------
 1/6=50,14=-1,18=20,19=15,26=3,38=1/1,3;
 2/9=110,12=2,17=6,18=5,40=1/2;
 3/5=1,6=6,7=101,11=2,16=1,25=1,30=1,70=2201,71=1,72=7,74=-5/1,2,3;
 4//1;
 5/5=2,38=5,53=7/2;
 6/7=2,8=2,9=2,10=2,28=1/1;
 7//1,2,3,16;
 1/6=50,14=-1,18=20,19=15,26=3/3(2);
 2/9=110/2;
 99//99;
 2/9=110/2;
 3/5=1,6=6,7=101,11=2,16=1,25=1,30=1,70=2205,71=1,72=7,74=-5/1,2,3;
 4/5=5,16=3,69=1/1;
 5/5=2,38=5,53=7/2;
 7//1,2,3,16;
 1/6=50,14=-1,18=20,19=15,26=3/3(-5);
 2/9=110/2;
 6/7=2,8=2,9=2,10=2,19=2,28=1/1;
 99/9=1/99;
 ------------
 AT3_2ginp001
 ------------
 Symbolic Z-matrix:
 Charge =  0 Multiplicity = 1
 C                    -0.81934  -1.73032   0.37397 
 C                    -2.29679  -1.36091   0.40261 
 C                    -2.88871  -1.26168   1.82807 
 C                    -2.14057  -0.2435    2.7468 
 C                    -2.69082  -0.26822   4.18754 
 O                    -4.00997   0.25427   4.2688 
 N                    -4.32513  -0.92036   1.77483 
 C                    -5.17464  -2.05163   1.38873 
 C                    -9.34131  -0.96665   1.7309 
 C                    -8.73294  -1.73329   2.72381 
 C                    -7.38849  -2.08449   2.60462 
 C                    -6.62643  -1.68725   1.50523 
 C                    -7.25408  -0.91794   0.5236 
 C                    -8.59711  -0.55772   0.62556 
 H                    -10.38794  -0.68724   1.8203 
 H                    -9.29446  -2.05936   3.59438 
 H                    -9.05148   0.04303  -0.15661 
 F                    -6.83329  -2.82882   3.57176 
 F                    -6.55706  -0.5079   -0.5466 
 H                    -0.50074  -1.91691  -0.65687 
 H                    -0.19359  -0.92454   0.76783 
 H                    -0.62936  -2.63757   0.95589 
 H                    -2.44324  -0.42314  -0.14628 
 H                    -2.83258  -2.13227  -0.16295 
 H                    -1.09476  -0.5668    2.82259 
 H                    -2.05579   0.3328    4.84683 
 H                    -2.70073  -1.29008   4.58157 
 H                    -4.49891  -0.15426   3.52069 
 H                    -4.97446  -2.36804   0.35866 
 H                    -4.96597  -2.91814   2.02788 
 H                    -2.77943  -2.24437   2.30757 
 C                    -2.14089   1.19065   2.20152 
 H                    -3.15387   1.58394   2.07142 
 H                    -1.61121   1.85991   2.88855 
 H                    -1.62781   1.24938   1.23713 
 H                    -4.46828  -0.16636   1.09777 
 

 GradGradGradGradGradGradGradGradGradGradGradGradGradGradGradGradGradGrad
 Berny optimization.
 Initialization pass.
                           ----------------------------
                           !    Initial Parameters    !
                           ! (Angstroms and Degrees)  !
 --------------------------                            --------------------------
 ! Name  Definition              Value          Derivative Info.                !
 --------------------------------------------------------------------------------
 ! R1    R(1,2)                  1.5232         estimate D2E/DX2                !
 ! R2    R(1,20)                 1.095          estimate D2E/DX2                !
 ! R3    R(1,21)                 1.0936         estimate D2E/DX2                !
 ! R4    R(1,22)                 1.0945         estimate D2E/DX2                !
 ! R5    R(2,3)                  1.5467         estimate D2E/DX2                !
 ! R6    R(2,23)                 1.0964         estimate D2E/DX2                !
 ! R7    R(2,24)                 1.0963         estimate D2E/DX2                !
 ! R8    R(3,4)                  1.5622         estimate D2E/DX2                !
 ! R9    R(3,7)                  1.4774         estimate D2E/DX2                !
 ! R10   R(3,31)                 1.0989         estimate D2E/DX2                !
 ! R11   R(4,5)                  1.5424         estimate D2E/DX2                !
 ! R12   R(4,25)                 1.0973         estimate D2E/DX2                !
 ! R13   R(4,32)                 1.5343         estimate D2E/DX2                !
 ! R14   R(5,6)                  1.4212         estimate D2E/DX2                !
 ! R15   R(5,26)                 1.0951         estimate D2E/DX2                !
 ! R16   R(5,27)                 1.0952         estimate D2E/DX2                !
 ! R17   R(6,28)                 0.9827         estimate D2E/DX2                !
 ! R18   R(7,8)                  1.4665         estimate D2E/DX2                !
 ! R19   R(7,36)                 1.0234         estimate D2E/DX2                !
 ! R20   R(8,12)                 1.5013         estimate D2E/DX2                !
 ! R21   R(8,29)                 1.096          estimate D2E/DX2                !
 ! R22   R(8,30)                 1.0968         estimate D2E/DX2                !
 ! R23   R(9,10)                 1.3942         estimate D2E/DX2                !
 ! R24   R(9,14)                 1.3939         estimate D2E/DX2                !
 ! R25   R(9,15)                 1.087          estimate D2E/DX2                !
 ! R26   R(10,11)                1.3947         estimate D2E/DX2                !
 ! R27   R(10,16)                1.0861         estimate D2E/DX2                !
 ! R28   R(11,12)                1.3954         estimate D2E/DX2                !
 ! R29   R(11,18)                1.3408         estimate D2E/DX2                !
 ! R30   R(12,13)                1.3962         estimate D2E/DX2                !
 ! R31   R(13,14)                1.3942         estimate D2E/DX2                !
 ! R32   R(13,19)                1.3414         estimate D2E/DX2                !
 ! R33   R(14,17)                1.0859         estimate D2E/DX2                !
 ! R34   R(32,33)                1.0944         estimate D2E/DX2                !
 ! R35   R(32,34)                1.0957         estimate D2E/DX2                !
 ! R36   R(32,35)                1.094          estimate D2E/DX2                !
 ! A1    A(2,1,20)             109.9542         estimate D2E/DX2                !
 ! A2    A(2,1,21)             111.6872         estimate D2E/DX2                !
 ! A3    A(2,1,22)             111.0641         estimate D2E/DX2                !
 ! A4    A(20,1,21)            107.3448         estimate D2E/DX2                !
 ! A5    A(20,1,22)            107.9865         estimate D2E/DX2                !
 ! A6    A(21,1,22)            108.6606         estimate D2E/DX2                !
 ! A7    A(1,2,3)              113.835          estimate D2E/DX2                !
 ! A8    A(1,2,23)             109.1213         estimate D2E/DX2                !
 ! A9    A(1,2,24)             107.0793         estimate D2E/DX2                !
 ! A10   A(3,2,23)             110.8178         estimate D2E/DX2                !
 ! A11   A(3,2,24)             109.4845         estimate D2E/DX2                !
 ! A12   A(23,2,24)            106.156          estimate D2E/DX2                !
 ! A13   A(2,3,4)              113.6127         estimate D2E/DX2                !
 ! A14   A(2,3,7)              110.7145         estimate D2E/DX2                !
 ! A15   A(2,3,31)             107.8624         estimate D2E/DX2                !
 ! A16   A(4,3,7)              109.6477         estimate D2E/DX2                !
 ! A17   A(4,3,31)             106.1767         estimate D2E/DX2                !
 ! A18   A(7,3,31)             108.6034         estimate D2E/DX2                !
 ! A19   A(3,4,5)              111.5945         estimate D2E/DX2                !
 ! A20   A(3,4,25)             107.7601         estimate D2E/DX2                !
 ! A21   A(3,4,32)             113.5849         estimate D2E/DX2                !
 ! A22   A(5,4,25)             105.7103         estimate D2E/DX2                !
 ! A23   A(5,4,32)             110.2953         estimate D2E/DX2                !
 ! A24   A(25,4,32)            107.467          estimate D2E/DX2                !
 ! A25   A(4,5,6)              112.2501         estimate D2E/DX2                !
 ! A26   A(4,5,26)             110.285          estimate D2E/DX2                !
 ! A27   A(4,5,27)             110.7457         estimate D2E/DX2                !
 ! A28   A(6,5,26)             107.5817         estimate D2E/DX2                !
 ! A29   A(6,5,27)             108.3033         estimate D2E/DX2                !
 ! A30   A(26,5,27)            107.5007         estimate D2E/DX2                !
 ! A31   A(5,6,28)             105.3944         estimate D2E/DX2                !
 ! A32   A(3,7,8)              113.2342         estimate D2E/DX2                !
 ! A33   A(3,7,36)             109.2711         estimate D2E/DX2                !
 ! A34   A(8,7,36)             108.248          estimate D2E/DX2                !
 ! A35   A(7,8,12)             110.641          estimate D2E/DX2                !
 ! A36   A(7,8,29)             111.3678         estimate D2E/DX2                !
 ! A37   A(7,8,30)             110.2328         estimate D2E/DX2                !
 ! A38   A(12,8,29)            108.6392         estimate D2E/DX2                !
 ! A39   A(12,8,30)            109.2995         estimate D2E/DX2                !
 ! A40   A(29,8,30)            106.5501         estimate D2E/DX2                !
 ! A41   A(10,9,14)            119.5459         estimate D2E/DX2                !
 ! A42   A(10,9,15)            120.1953         estimate D2E/DX2                !
 ! A43   A(14,9,15)            120.2585         estimate D2E/DX2                !
 ! A44   A(9,10,11)            119.885          estimate D2E/DX2                !
 ! A45   A(9,10,16)            120.6882         estimate D2E/DX2                !
 ! A46   A(11,10,16)           119.4266         estimate D2E/DX2                !
 ! A47   A(10,11,12)           121.4726         estimate D2E/DX2                !
 ! A48   A(10,11,18)           118.5115         estimate D2E/DX2                !
 ! A49   A(12,11,18)           120.0141         estimate D2E/DX2                !
 ! A50   A(8,12,11)            121.3409         estimate D2E/DX2                !
 ! A51   A(8,12,13)            120.9224         estimate D2E/DX2                !
 ! A52   A(11,12,13)           117.7283         estimate D2E/DX2                !
 ! A53   A(12,13,14)           121.5994         estimate D2E/DX2                !
 ! A54   A(12,13,19)           119.7206         estimate D2E/DX2                !
 ! A55   A(14,13,19)           118.6799         estimate D2E/DX2                !
 ! A56   A(9,14,13)            119.7684         estimate D2E/DX2                !
 ! A57   A(9,14,17)            120.6716         estimate D2E/DX2                !
 ! A58   A(13,14,17)           119.5595         estimate D2E/DX2                !
 ! A59   A(4,32,33)            112.2314         estimate D2E/DX2                !
 ! A60   A(4,32,34)            110.3652         estimate D2E/DX2                !
 ! A61   A(4,32,35)            111.3076         estimate D2E/DX2                !
 ! A62   A(33,32,34)           107.6077         estimate D2E/DX2                !
 ! A63   A(33,32,35)           108.061          estimate D2E/DX2                !
 ! A64   A(34,32,35)           107.0523         estimate D2E/DX2                !
 ! D1    D(20,1,2,3)           172.2989         estimate D2E/DX2                !
 ! D2    D(20,1,2,23)          -63.3413         estimate D2E/DX2                !
 ! D3    D(20,1,2,24)           51.1535         estimate D2E/DX2                !
 ! D4    D(21,1,2,3)           -68.6421         estimate D2E/DX2                !
 ! D5    D(21,1,2,23)           55.7177         estimate D2E/DX2                !
 ! D6    D(21,1,2,24)          170.2125         estimate D2E/DX2                !
 ! D7    D(22,1,2,3)            52.8352         estimate D2E/DX2                !
 ! D8    D(22,1,2,23)          177.1951         estimate D2E/DX2                !
 ! D9    D(22,1,2,24)          -68.3101         estimate D2E/DX2                !
 ! D10   D(1,2,3,4)             56.9366         estimate D2E/DX2                !
 ! D11   D(1,2,3,7)           -179.171          estimate D2E/DX2                !
 ! D12   D(1,2,3,31)           -60.4723         estimate D2E/DX2                !
 ! D13   D(23,2,3,4)           -66.5059         estimate D2E/DX2                !
 ! D14   D(23,2,3,7)            57.3865         estimate D2E/DX2                !
 ! D15   D(23,2,3,31)          176.0853         estimate D2E/DX2                !
 ! D16   D(24,2,3,4)           176.7312         estimate D2E/DX2                !
 ! D17   D(24,2,3,7)           -59.3763         estimate D2E/DX2                !
 ! D18   D(24,2,3,31)           59.3224         estimate D2E/DX2                !
 ! D19   D(2,3,4,5)           -175.1834         estimate D2E/DX2                !
 ! D20   D(2,3,4,25)           -59.553          estimate D2E/DX2                !
 ! D21   D(2,3,4,32)            59.3768         estimate D2E/DX2                !
 ! D22   D(7,3,4,5)             60.3467         estimate D2E/DX2                !
 ! D23   D(7,3,4,25)           175.9772         estimate D2E/DX2                !
 ! D24   D(7,3,4,32)           -65.093          estimate D2E/DX2                !
 ! D25   D(31,3,4,5)           -56.7999         estimate D2E/DX2                !
 ! D26   D(31,3,4,25)           58.8306         estimate D2E/DX2                !
 ! D27   D(31,3,4,32)          177.7604         estimate D2E/DX2                !
 ! D28   D(2,3,7,8)             75.8587         estimate D2E/DX2                !
 ! D29   D(2,3,7,36)           -44.8779         estimate D2E/DX2                !
 ! D30   D(4,3,7,8)           -158.004          estimate D2E/DX2                !
 ! D31   D(4,3,7,36)            81.2594         estimate D2E/DX2                !
 ! D32   D(31,3,7,8)           -42.3899         estimate D2E/DX2                !
 ! D33   D(31,3,7,36)         -163.1265         estimate D2E/DX2                !
 ! D34   D(3,4,5,6)            -68.8411         estimate D2E/DX2                !
 ! D35   D(3,4,5,26)           171.2145         estimate D2E/DX2                !
 ! D36   D(3,4,5,27)            52.3439         estimate D2E/DX2                !
 ! D37   D(25,4,5,6)           174.2788         estimate D2E/DX2                !
 ! D38   D(25,4,5,26)           54.3344         estimate D2E/DX2                !
 ! D39   D(25,4,5,27)          -64.5362         estimate D2E/DX2                !
 ! D40   D(32,4,5,6)            58.4002         estimate D2E/DX2                !
 ! D41   D(32,4,5,26)          -61.5442         estimate D2E/DX2                !
 ! D42   D(32,4,5,27)          179.5852         estimate D2E/DX2                !
 ! D43   D(3,4,32,33)           59.5178         estimate D2E/DX2                !
 ! D44   D(3,4,32,34)          179.5378         estimate D2E/DX2                !
 ! D45   D(3,4,32,35)          -61.7421         estimate D2E/DX2                !
 ! D46   D(5,4,32,33)          -66.6119         estimate D2E/DX2                !
 ! D47   D(5,4,32,34)           53.4081         estimate D2E/DX2                !
 ! D48   D(5,4,32,35)          172.1282         estimate D2E/DX2                !
 ! D49   D(25,4,32,33)         178.6153         estimate D2E/DX2                !
 ! D50   D(25,4,32,34)         -61.3646         estimate D2E/DX2                !
 ! D51   D(25,4,32,35)          57.3554         estimate D2E/DX2                !
 ! D52   D(4,5,6,28)            45.3172         estimate D2E/DX2                !
 ! D53   D(26,5,6,28)          166.8221         estimate D2E/DX2                !
 ! D54   D(27,5,6,28)          -77.2603         estimate D2E/DX2                !
 ! D55   D(3,7,8,12)           173.5082         estimate D2E/DX2                !
 ! D56   D(3,7,8,29)           -65.553          estimate D2E/DX2                !
 ! D57   D(3,7,8,30)            52.4944         estimate D2E/DX2                !
 ! D58   D(36,7,8,12)          -65.1774         estimate D2E/DX2                !
 ! D59   D(36,7,8,29)           55.7614         estimate D2E/DX2                !
 ! D60   D(36,7,8,30)          173.8087         estimate D2E/DX2                !
 ! D61   D(7,8,12,11)         -100.4656         estimate D2E/DX2                !
 ! D62   D(7,8,12,13)           78.4541         estimate D2E/DX2                !
 ! D63   D(29,8,12,11)         136.9897         estimate D2E/DX2                !
 ! D64   D(29,8,12,13)         -44.0906         estimate D2E/DX2                !
 ! D65   D(30,8,12,11)          21.1            estimate D2E/DX2                !
 ! D66   D(30,8,12,13)        -159.9802         estimate D2E/DX2                !
 ! D67   D(14,9,10,11)           0.002          estimate D2E/DX2                !
 ! D68   D(14,9,10,16)         179.8105         estimate D2E/DX2                !
 ! D69   D(15,9,10,11)        -179.7946         estimate D2E/DX2                !
 ! D70   D(15,9,10,16)           0.0139         estimate D2E/DX2                !
 ! D71   D(10,9,14,13)          -0.0233         estimate D2E/DX2                !
 ! D72   D(10,9,14,17)        -179.7649         estimate D2E/DX2                !
 ! D73   D(15,9,14,13)         179.7732         estimate D2E/DX2                !
 ! D74   D(15,9,14,17)           0.0316         estimate D2E/DX2                !
 ! D75   D(9,10,11,12)          -0.1083         estimate D2E/DX2                !
 ! D76   D(9,10,11,18)        -179.6237         estimate D2E/DX2                !
 ! D77   D(16,10,11,12)       -179.9192         estimate D2E/DX2                !
 ! D78   D(16,10,11,18)          0.5653         estimate D2E/DX2                !
 ! D79   D(10,11,12,8)         179.1813         estimate D2E/DX2                !
 ! D80   D(10,11,12,13)          0.2283         estimate D2E/DX2                !
 ! D81   D(18,11,12,8)          -1.3104         estimate D2E/DX2                !
 ! D82   D(18,11,12,13)        179.7366         estimate D2E/DX2                !
 ! D83   D(8,12,13,14)        -179.2081         estimate D2E/DX2                !
 ! D84   D(8,12,13,19)           0.6677         estimate D2E/DX2                !
 ! D85   D(11,12,13,14)         -0.2505         estimate D2E/DX2                !
 ! D86   D(11,12,13,19)        179.6254         estimate D2E/DX2                !
 ! D87   D(12,13,14,9)           0.152          estimate D2E/DX2                !
 ! D88   D(12,13,14,17)        179.8965         estimate D2E/DX2                !
 ! D89   D(19,13,14,9)        -179.7251         estimate D2E/DX2                !
 ! D90   D(19,13,14,17)          0.0194         estimate D2E/DX2                !
 --------------------------------------------------------------------------------
 Trust Radius=3.00D-01 FncErr=1.00D-07 GrdErr=1.00D-06
 Number of steps in this run=     50 maximum allowed number of steps=    216.
 GradGradGradGradGradGradGradGradGradGradGradGradGradGradGradGradGradGrad

                          Input orientation:                          
 ---------------------------------------------------------------------
 Center     Atomic      Atomic             Coordinates (Angstroms)
 Number     Number       Type             X           Y           Z
 ---------------------------------------------------------------------
      1          6           0       -0.819343   -1.730319    0.373965
      2          6           0       -2.296789   -1.360910    0.402611
      3          6           0       -2.888705   -1.261681    1.828068
      4          6           0       -2.140568   -0.243502    2.746797
      5          6           0       -2.690822   -0.268220    4.187539
      6          8           0       -4.009974    0.254271    4.268804
      7          7           0       -4.325134   -0.920355    1.774834
      8          6           0       -5.174638   -2.051625    1.388733
      9          6           0       -9.341306   -0.966647    1.730904
     10          6           0       -8.732944   -1.733286    2.723809
     11          6           0       -7.388485   -2.084493    2.604620
     12          6           0       -6.626431   -1.687247    1.505231
     13          6           0       -7.254083   -0.917937    0.523599
     14          6           0       -8.597112   -0.557715    0.625559
     15          1           0      -10.387942   -0.687237    1.820300
     16          1           0       -9.294461   -2.059356    3.594377
     17          1           0       -9.051482    0.043026   -0.156613
     18          9           0       -6.833286   -2.828821    3.571764
     19          9           0       -6.557061   -0.507903   -0.546603
     20          1           0       -0.500736   -1.916910   -0.656865
     21          1           0       -0.193587   -0.924535    0.767829
     22          1           0       -0.629360   -2.637571    0.955892
     23          1           0       -2.443235   -0.423135   -0.146279
     24          1           0       -2.832577   -2.132274   -0.162949
     25          1           0       -1.094761   -0.566798    2.822589
     26          1           0       -2.055792    0.332799    4.846828
     27          1           0       -2.700725   -1.290076    4.581567
     28          1           0       -4.498908   -0.154257    3.520687
     29          1           0       -4.974460   -2.368039    0.358662
     30          1           0       -4.965971   -2.918143    2.027876
     31          1           0       -2.779428   -2.244366    2.307570
     32          6           0       -2.140895    1.190652    2.201520
     33          1           0       -3.153870    1.583941    2.071423
     34          1           0       -1.611212    1.859908    2.888545
     35          1           0       -1.627814    1.249380    1.237132
     36          1           0       -4.468279   -0.166363    1.097771
 ---------------------------------------------------------------------
                    Distance matrix (angstroms):
                    1          2          3          4          5
     1  C    0.000000
     2  C    1.523197   0.000000
     3  C    2.572216   1.546654   0.000000
     4  C    3.096222   2.601579   1.562197   0.000000
     5  C    4.492607   3.959156   2.567728   1.542442   0.000000
     6  O    5.411885   4.526727   3.084242   2.461496   1.421184
     7  N    3.861223   2.488226   1.477385   2.484989   2.986202
     8  C    4.483479   3.119541   2.458153   3.784075   4.145261
     9  C    8.663044   7.179486   6.460073   7.307914   7.124029
    10  C    8.255111   6.852059   5.931264   6.758654   6.387187
    11  C    6.946574   5.594442   4.639835   5.563281   5.279443
    12  C    5.916408   4.479740   3.775702   4.873279   4.969651
    13  C    6.487545   4.978517   4.569062   5.616539   5.888118
    14  C    7.869688   6.355226   5.876011   6.803333   6.903316
    15  H    9.733344   8.241992   7.521210   8.311106   8.063811
    16  H    9.072317   7.722863   6.692521   7.429260   6.867901
    17  H    8.437676   6.921679   6.604623   7.501508   7.708860
    18  F    6.899285   5.725216   4.588695   5.420890   4.908754
    19  F    5.938279   4.447308   4.434420   5.515596   6.116972
    20  H    1.094960   2.158108   3.508078   4.132101   5.566229
    21  H    1.093612   2.178822   2.915722   2.858471   4.285014
    22  H    1.094458   2.171705   2.785391   3.350023   4.506328
    23  H    2.148583   1.096425   2.190810   2.914406   4.343648
    24  H    2.122017   1.096325   2.173760   3.537366   4.735139
    25  H    2.724958   2.816341   2.165680   1.097259   2.121237
    26  H    5.078559   4.762121   3.514118   2.179321   1.095057
    27  H    4.630046   4.199030   2.760054   2.185286   1.095238
    28  H    5.091663   4.003466   2.585363   2.483674   1.930506
    29  H    4.203798   2.861147   2.780927   4.271743   4.927935
    30  H    4.619618   3.491560   2.664362   3.956445   4.106402
    31  H    2.800894   2.154601   1.098878   2.145814   2.728972
    32  C    3.690329   3.125835   2.590873   1.534316   2.524876
    33  H    4.394963   3.491657   2.868292   2.196010   2.850063
    34  H    4.454200   4.125961   3.535664   2.173625   2.716960
    35  H    3.205821   2.820916   2.871320   2.184194   3.483963
    36  H    4.035417   2.574016   2.056237   2.853678   3.566005
                    6          7          8          9         10
     6  O    0.000000
     7  N    2.774700   0.000000
     8  C    3.868903   1.466459   0.000000
     9  C    6.029484   5.016578   4.319187   0.000000
    10  C    5.351994   4.581506   3.813831   1.394166   0.000000
    11  C    4.433245   3.380515   2.525981   2.413808   1.394676
    12  C    4.272315   2.440651   1.501348   2.817932   2.434019
    13  C    5.091648   3.185018   2.521467   2.411733   2.773580
    14  C    5.913915   4.438709   3.811500   1.393857   2.408956
    15  H    6.896382   6.067458   5.406139   1.086972   2.156285
    16  H    5.808057   5.413157   4.673100   2.160727   1.086053
    17  H    6.711613   5.195859   4.669644   2.160129   3.399056
    18  F    4.238209   3.627951   2.849697   3.625827   2.351154
    19  F    5.500610   3.246642   2.835436   3.626225   4.114806
    20  H    6.425807   4.640291   5.103722   9.206526   8.901232
    21  H    5.311423   4.252500   5.144582   9.198372   8.797758
    22  H    5.546773   4.156711   4.603285   8.904529   8.343341
    23  H    4.733551   2.734858   3.531119   7.169561   7.036643
    24  H    5.169361   2.729739   2.810600   6.878148   6.580797
    25  H    3.356212   3.414396   4.572313   8.328095   7.727373
    26  H    2.039389   4.019634   5.231740   8.029711   7.304812
    27  H    2.048649   3.263916   4.110279   7.233823   6.327351
    28  H    0.982665   1.914447   2.932890   5.226100   4.588617
    29  H    4.805825   2.126724   1.096009   4.787096   4.485870
    30  H    3.999987   2.113258   1.096768   4.800009   4.009775
    31  H    3.406445   2.103811   2.572633   6.709944   5.989892
    32  C    2.940056   3.067460   4.514042   7.531357   7.230305
    33  H    2.707290   2.780526   4.215081   6.701180   6.523471
    34  H    3.199569   4.041731   5.499776   8.311672   7.978549
    35  H    3.981955   3.503200   4.847636   8.040681   7.847890
    36  H    3.231474   1.023430   2.034162   4.978725   4.825621
                   11         12         13         14         15
    11  C    0.000000
    12  C    1.395416   0.000000
    13  C    2.389470   1.396204   0.000000
    14  C    2.776421   2.435826   1.394232   0.000000
    15  H    3.400621   3.904901   3.399372   2.156677   0.000000
    16  H    2.147788   3.409015   3.859489   3.399280   2.495147
    17  H    3.862163   3.411223   2.148670   1.085880   2.495515
    18  F    1.340760   2.369924   3.622134   4.116932   4.504396
    19  F    3.620374   2.367633   1.341380   2.353349   4.506666
    20  H    7.622759   6.500119   6.928141   8.309231  10.266708
    21  H    7.515708   6.519737   7.064722   8.412730  10.251287
    22  H    6.979253   6.096700   6.857913   8.241359   9.989040
    23  H    5.897716   4.671680   4.882399   6.203551   8.188745
    24  H    5.330855   4.168237   4.636343   6.027507   7.943862
    25  H    6.477798   5.795706   6.583760   7.817435   9.347850
    26  H    6.269642   6.011455   6.875818   7.835879   8.923288
    27  H    5.149224   5.003274   6.110537   7.138188   8.190318
    28  H    3.593695   3.307337   4.142069   5.033867   6.152732
    29  H    3.309417   2.122995   2.706784   4.058585   5.853825
    30  H    2.626058   2.131992   3.391037   4.552285   5.866668
    31  H    4.621386   3.969076   4.996449   6.286446   7.781489
    32  C    6.198892   5.374677   5.779815   6.871912   8.466734
    33  H    5.627937   4.804157   5.046474   6.025454   7.586377
    34  H    7.001128   6.296689   6.719478   7.731029   9.201091
    35  H    6.794856   5.803605   6.071350   7.225699   8.990574
    36  H    3.804920   2.671466   2.941979   4.174135   5.986298
                   16         17         18         19         20
    16  H    0.000000
    17  H    4.306852   0.000000
    18  F    2.578754   5.202758   0.000000
    19  F    5.200777   2.584134   4.735389   0.000000
    20  H    9.768467   8.786743   7.669033   6.219046   0.000000
    21  H    9.597036   8.958408   7.454794   6.511153   1.763208
    22  H    9.076338   8.908165   6.735582   6.475385   1.771124
    23  H    7.975527   6.624677   6.235681   4.134127   2.503071
    24  H    7.475210   6.588380   5.517149   4.081367   2.393286
    25  H    8.370094   8.518036   6.213588   6.418072   3.779189
    26  H    7.725889   8.605700   5.869078   7.075118   6.145732
    27  H    6.711460   8.034900   4.523881   6.463842   5.716121
    28  H    5.160636   5.855543   3.550383   4.572079   6.045185
    29  H    5.406251   4.764541   3.740532   2.604657   4.609666
    30  H    4.682656   5.498356   2.424548   3.868949   5.305528
    31  H    6.643475   7.116391   4.286437   5.043027   3.753337
    32  C    7.979731   7.391485   6.328686   5.471727   4.529617
    33  H    7.300675   6.490022   5.938147   4.776147   5.170941
    34  H    8.653967   8.242067   7.051314   6.470564   5.297872
    35  H    8.676509   7.649095   7.012786   5.528764   3.857839
    36  H    5.753998   4.756372   4.336194   2.680229   4.678094
                   21         22         23         24         25
    21  H    0.000000
    22  H    1.777571   0.000000
    23  H    2.479498   3.067352   0.000000
    24  H    3.047827   2.522161   1.753003   0.000000
    25  H    2.272032   2.826527   3.263924   3.792645   0.000000
    26  H    4.656923   5.098744   5.064846   5.637184   2.414622
    27  H    4.578642   4.387689   4.813566   4.820489   2.489228
    28  H    5.167915   5.264829   4.212449   4.500932   3.499392
    29  H    5.010775   4.394226   3.231829   2.217053   4.936342
    30  H    5.323330   4.475943   4.161275   3.157321   4.598550
    31  H    3.286233   2.569910   3.074294   2.473632   2.432608
    32  C    3.212708   4.300188   2.864939   4.136541   2.137464
    33  H    4.093298   5.043682   3.074339   4.348092   3.070807
    34  H    3.776271   4.992644   3.887763   5.171157   2.481929
    35  H    2.646348   4.022983   2.318630   3.853215   2.469073
    36  H    4.353927   4.567745   2.390480   2.851270   3.809983
                   26         27         28         29         30
    26  H    0.000000
    27  H    1.766359   0.000000
    28  H    2.822178   2.376765   0.000000
    29  H    5.996397   4.915771   3.889136   0.000000
    30  H    5.194637   3.781968   3.175799   1.757544   0.000000
    31  H    3.689615   2.467372   2.965943   2.937976   2.305032
    32  C    2.782231   3.483108   3.018146   4.908105   4.989329
    33  H    3.236357   3.842673   2.632646   4.676136   4.853284
    34  H    2.522813   3.738417   3.577045   5.965508   5.901265
    35  H    3.748759   4.334192   3.927849   5.005744   5.397853
    36  H    4.486054   4.064949   2.423140   2.376947   2.947047
                   31         32         33         34         35
    31  H    0.000000
    32  C    3.495471   0.000000
    33  H    3.853817   1.094404   0.000000
    34  H    4.306661   1.095660   1.767382   0.000000
    35  H    3.831229   1.093959   1.771107   1.760734   0.000000
    36  H    2.938355   2.911437   2.395670   3.933888   3.176789
                   36
    36  H    0.000000
 Stoichiometry    C13H19F2NO
 Framework group  C1[X(C13H19F2NO)]
 Deg. of freedom   102
 Full point group                 C1      NOp   1
 Largest Abelian subgroup         C1      NOp   1
 Largest concise Abelian subgroup C1      NOp   1
                         Standard orientation:                         
 ---------------------------------------------------------------------
 Center     Atomic      Atomic             Coordinates (Angstroms)
 Number     Number       Type             X           Y           Z
 ---------------------------------------------------------------------
      1          6           0       -3.958980   -1.788935   -1.142602
      2          6           0       -2.547456   -1.651292   -0.586917
      3          6           0       -2.044067   -0.190660   -0.514173
      4          6           0       -2.965523    0.747502    0.329172
      5          6           0       -2.487516    2.212924    0.272822
      6          8           0       -1.255726    2.403790    0.955484
      7          7           0       -0.665407   -0.138773    0.014285
      8          6           0        0.345668   -0.547805   -0.965982
      9          6           0        4.307950    0.103572    0.625057
     10          6           0        3.760247    1.007963   -0.283677
     11          6           0        2.482313    0.788963   -0.797531
     12          6           0        1.728208   -0.324446   -0.424929
     13          6           0        2.294100   -1.216322    0.488148
     14          6           0        3.570248   -1.013984    1.011969
     15          1           0        5.302159    0.271071    1.031261
     16          1           0        4.317438    1.886471   -0.595566
     17          1           0        3.977513   -1.728069    1.721443
     18          9           0        1.985494    1.672201   -1.675426
     19          9           0        1.601234   -2.296077    0.879769
     20          1           0       -4.199306   -2.846340   -1.294506
     21          1           0       -4.705379   -1.380377   -0.455612
     22          1           0       -4.053788   -1.278976   -2.106340
     23          1           0       -2.501432   -2.128869    0.398959
     24          1           0       -1.886381   -2.233853   -1.239245
     25          1           0       -3.961054    0.741771   -0.132198
     26          1           0       -3.228560    2.872096    0.737036
     27          1           0       -2.360007    2.539783   -0.764699
     28          1           0       -0.680751    1.660186    0.668975
     29          1           0        0.239910   -1.606046   -1.230892
     30          1           0        0.224133    0.020718   -1.895987
     31          1           0       -2.043919    0.217021   -1.534629
     32          6           0       -3.130773    0.297287    1.786609
     33          1           0       -2.174476    0.251564    2.316821
     34          1           0       -3.778029    0.994586    2.330029
     35          1           0       -3.599667   -0.689229    1.847186
     36          1           0       -0.591817   -0.756146    0.827208
 ---------------------------------------------------------------------
 Rotational constants (GHZ):      0.7078341      0.2649233      0.2324532
 Standard basis: 6-31G(d,p) (6D, 7F)
 There are   350 symmetry adapted cartesian basis functions of A   symmetry.
 There are   350 symmetry adapted basis functions of A   symmetry.
   350 basis functions,   609 primitive gaussians,   350 cartesian basis functions
    65 alpha electrons       65 beta electrons
       nuclear repulsion energy      1278.8377131572 Hartrees.
 NAtoms=   36 NActive=   36 NUniq=   36 SFac= 1.00D+00 NAtFMM=   60 NAOKFM=F Big=F
 Integral buffers will be    131072 words long.
 Raffenetti 2 integral format.
 Two-electron integral symmetry is turned on.
 ------------------------------------------------------------------------------
 Polarizable Continuum Model (PCM)
 =================================
 Model                : PCM (using non-symmetric T matrix).
 Atomic radii         : UFF (Universal Force Field).
 Polarization charges : Total charges.
 Charge compensation  : None.
 Solution method      : On-the-fly selection.
 Cavity type          : Scaled VdW (van der Waals Surface) (Alpha=1.100).
 Cavity algorithm     : GePol (No added spheres)
                        Default sphere list used, NSphG=   36.
                        Lebedev-Laikov grids with approx.  5.0 points / Ang**2.
                        Smoothing algorithm: Karplus/York (Gamma=1.0000).
                        Polarization charges: spherical gaussians, with
                                              point-specific exponents (IZeta= 3).
                        Self-potential: point-specific (ISelfS= 7).
                        Self-field    : sphere-specific E.n sum rule (ISelfD= 2).
 1st derivatives      : Analytical E(r).r(x)/FMM algorithm (CHGder, D1EAlg=3).
                        Cavity 1st derivative terms included.
 Solvent              : Chloroform, Eps=   4.711300 Eps(inf)=   2.090627
 ------------------------------------------------------------------------------
 One-electron integrals computed using PRISM.
 NBasis=   350 RedAO= T EigKep=  4.08D-04  NBF=   350
 NBsUse=   350 1.00D-06 EigRej= -1.00D+00 NBFU=   350
 ExpMin= 1.61D-01 ExpMax= 7.00D+03 ExpMxC= 1.05D+03 IAcc=1 IRadAn=         1 AccDes= 0.00D+00
 Harris functional with IExCor=  402 and IRadAn=       1 diagonalized for initial guess.
 HarFok:  IExCor=  402 AccDes= 0.00D+00 IRadAn=         1 IDoV= 1 UseB2=F ITyADJ=14
 ICtDFT=  3500011 ScaDFX=  1.000000  1.000000  1.000000  1.000000
 FoFCou: FMM=F IPFlag=           0 FMFlag=      100000 FMFlg1=           0
         NFxFlg=           0 DoJE=T BraDBF=F KetDBF=T FulRan=T
         wScrn=  0.000000 ICntrl=     500 IOpCl=  0 I1Cent=   200000004 NGrid=           0
         NMat0=    1 NMatS0=      1 NMatT0=    0 NMatD0=    1 NMtDS0=    0 NMtDT0=    0
 Petite list used in FoFCou.
 Requested convergence on RMS density matrix=1.00D-08 within 128 cycles.
 Requested convergence on MAX density matrix=1.00D-06.
 Requested convergence on             energy=1.00D-06.
 No special actions if energy rises.
 Inv3:  Mode=1 IEnd=    18930432.
 Iteration    1 A*A^-1 deviation from unit magnitude is 9.33D-15 for    442.
 Iteration    1 A*A^-1 deviation from orthogonality  is 9.10D-15 for   2204    882.
 Iteration    1 A^-1*A deviation from unit magnitude is 1.15D-14 for    442.
 Iteration    1 A^-1*A deviation from orthogonality  is 1.46D-12 for   2446   2410.
 Error on total polarization charges =  0.00781
 SCF Done:  E(RB3LYP) =  -836.497028221     A.U. after   12 cycles
            NFock= 12  Conv=0.62D-08     -V/T= 2.0088

 **********************************************************************

            Population analysis using the SCF density.

 **********************************************************************

 Orbital symmetries:
       Occupied  (A) (A) (A) (A) (A) (A) (A) (A) (A) (A) (A) (A)
                 (A) (A) (A) (A) (A) (A) (A) (A) (A) (A) (A) (A)
                 (A) (A) (A) (A) (A) (A) (A) (A) (A) (A) (A) (A)
                 (A) (A) (A) (A) (A) (A) (A) (A) (A) (A) (A) (A)
                 (A) (A) (A) (A) (A) (A) (A) (A) (A) (A) (A) (A)
                 (A) (A) (A) (A) (A)
       Virtual   (A) (A) (A) (A) (A) (A) (A) (A) (A) (A) (A) (A)
                 (A) (A) (A) (A) (A) (A) (A) (A) (A) (A) (A) (A)
                 (A) (A) (A) (A) (A) (A) (A) (A) (A) (A) (A) (A)
                 (A) (A) (A) (A) (A) (A) (A) (A) (A) (A) (A) (A)
                 (A) (A) (A) (A) (A) (A) (A) (A) (A) (A) (A) (A)
                 (A) (A) (A) (A) (A) (A) (A) (A) (A) (A) (A) (A)
                 (A) (A) (A) (A) (A) (A) (A) (A) (A) (A) (A) (A)
                 (A) (A) (A) (A) (A) (A) (A) (A) (A) (A) (A) (A)
                 (A) (A) (A) (A) (A) (A) (A) (A) (A) (A) (A) (A)
                 (A) (A) (A) (A) (A) (A) (A) (A) (A) (A) (A) (A)
                 (A) (A) (A) (A) (A) (A) (A) (A) (A) (A) (A) (A)
                 (A) (A) (A) (A) (A) (A) (A) (A) (A) (A) (A) (A)
                 (A) (A) (A) (A) (A) (A) (A) (A) (A) (A) (A) (A)
                 (A) (A) (A) (A) (A) (A) (A) (A) (A) (A) (A) (A)
                 (A) (A) (A) (A) (A) (A) (A) (A) (A) (A) (A) (A)
                 (A) (A) (A) (A) (A) (A) (A) (A) (A) (A) (A) (A)
                 (A) (A) (A) (A) (A) (A) (A) (A) (A) (A) (A) (A)
                 (A) (A) (A) (A) (A) (A) (A) (A) (A) (A) (A) (A)
                 (A) (A) (A) (A) (A) (A) (A) (A) (A) (A) (A) (A)
                 (A) (A) (A) (A) (A) (A) (A) (A) (A) (A) (A) (A)
                 (A) (A) (A) (A) (A) (A) (A) (A) (A) (A) (A) (A)
                 (A) (A) (A) (A) (A) (A) (A) (A) (A) (A) (A) (A)
                 (A) (A) (A) (A) (A) (A) (A) (A) (A) (A) (A) (A)
                 (A) (A) (A) (A) (A) (A) (A) (A) (A)
 The electronic state is 1-A.
 Alpha  occ. eigenvalues --  -24.72319 -24.71903 -19.10873 -14.33439 -10.28350
 Alpha  occ. eigenvalues --  -10.28296 -10.22259 -10.21653 -10.21314 -10.21001
 Alpha  occ. eigenvalues --  -10.20794 -10.20003 -10.19941 -10.18363 -10.18103
 Alpha  occ. eigenvalues --  -10.17415 -10.16953  -1.23653  -1.23257  -0.98622
 Alpha  occ. eigenvalues --   -0.91991  -0.87095  -0.80281  -0.77094  -0.75472
 Alpha  occ. eigenvalues --   -0.75404  -0.69256  -0.66952  -0.64778  -0.63143
 Alpha  occ. eigenvalues --   -0.61316  -0.60426  -0.56364  -0.55370  -0.53087
 Alpha  occ. eigenvalues --   -0.49949  -0.49428  -0.49039  -0.48270  -0.47215
 Alpha  occ. eigenvalues --   -0.46658  -0.46326  -0.45578  -0.44391  -0.44303
 Alpha  occ. eigenvalues --   -0.42110  -0.41212  -0.40869  -0.39635  -0.39114
 Alpha  occ. eigenvalues --   -0.38849  -0.37650  -0.36469  -0.36205  -0.35984
 Alpha  occ. eigenvalues --   -0.35466  -0.35223  -0.34664  -0.32738  -0.31415
 Alpha  occ. eigenvalues --   -0.30666  -0.25709  -0.24847  -0.24289  -0.22981
 Alpha virt. eigenvalues --   -0.01553  -0.00375   0.07126   0.08361   0.09489
 Alpha virt. eigenvalues --    0.10654   0.11103   0.13590   0.14007   0.14545
 Alpha virt. eigenvalues --    0.15106   0.15352   0.15680   0.16437   0.16546
 Alpha virt. eigenvalues --    0.16789   0.17530   0.17966   0.18540   0.19683
 Alpha virt. eigenvalues --    0.20181   0.20695   0.21638   0.22369   0.22931
 Alpha virt. eigenvalues --    0.24043   0.24670   0.24878   0.26807   0.27060
 Alpha virt. eigenvalues --    0.28124   0.28913   0.29040   0.30604   0.32862
 Alpha virt. eigenvalues --    0.37162   0.38391   0.46328   0.48987   0.49589
 Alpha virt. eigenvalues --    0.49872   0.50721   0.51572   0.52160   0.52762
 Alpha virt. eigenvalues --    0.53405   0.54063   0.54509   0.57265   0.57852
 Alpha virt. eigenvalues --    0.57974   0.58865   0.59343   0.59590   0.61466
 Alpha virt. eigenvalues --    0.61670   0.62349   0.63481   0.64485   0.65192
 Alpha virt. eigenvalues --    0.66535   0.66932   0.68538   0.69351   0.69966
 Alpha virt. eigenvalues --    0.73465   0.74544   0.76757   0.77887   0.79051
 Alpha virt. eigenvalues --    0.79298   0.80671   0.81740   0.82385   0.83870
 Alpha virt. eigenvalues --    0.84245   0.85095   0.85966   0.86834   0.86965
 Alpha virt. eigenvalues --    0.87524   0.88030   0.88917   0.89261   0.90709
 Alpha virt. eigenvalues --    0.91161   0.91487   0.92519   0.94057   0.95305
 Alpha virt. eigenvalues --    0.95761   0.96259   0.97105   0.97575   0.98844
 Alpha virt. eigenvalues --    0.99901   1.02725   1.03912   1.04627   1.05846
 Alpha virt. eigenvalues --    1.08680   1.10199   1.10946   1.12711   1.18146
 Alpha virt. eigenvalues --    1.19012   1.20739   1.20983   1.21725   1.22178
 Alpha virt. eigenvalues --    1.24336   1.26105   1.28582   1.30516   1.32102
 Alpha virt. eigenvalues --    1.34552   1.35742   1.37048   1.38517   1.39284
 Alpha virt. eigenvalues --    1.39496   1.41467   1.42318   1.42806   1.43440
 Alpha virt. eigenvalues --    1.45752   1.48918   1.49572   1.50780   1.54437
 Alpha virt. eigenvalues --    1.56359   1.59825   1.61091   1.61675   1.67610
 Alpha virt. eigenvalues --    1.68063   1.69393   1.71211   1.72885   1.73676
 Alpha virt. eigenvalues --    1.76043   1.76676   1.77159   1.78597   1.80631
 Alpha virt. eigenvalues --    1.81557   1.82142   1.84067   1.84866   1.85865
 Alpha virt. eigenvalues --    1.86711   1.87501   1.88397   1.88745   1.89399
 Alpha virt. eigenvalues --    1.90356   1.90722   1.93370   1.93651   1.94926
 Alpha virt. eigenvalues --    1.95413   1.97923   1.98154   1.98720   2.00769
 Alpha virt. eigenvalues --    2.01906   2.03358   2.04574   2.04940   2.05606
 Alpha virt. eigenvalues --    2.06054   2.06692   2.07503   2.09326   2.11865
 Alpha virt. eigenvalues --    2.12306   2.13462   2.15213   2.16695   2.18711
 Alpha virt. eigenvalues --    2.19468   2.19570   2.21680   2.22590   2.24656
 Alpha virt. eigenvalues --    2.26642   2.27799   2.29192   2.29760   2.30690
 Alpha virt. eigenvalues --    2.30831   2.31463   2.33234   2.34753   2.35970
 Alpha virt. eigenvalues --    2.36958   2.37714   2.37939   2.39605   2.40826
 Alpha virt. eigenvalues --    2.42887   2.43876   2.45072   2.47655   2.48230
 Alpha virt. eigenvalues --    2.49080   2.51748   2.52543   2.53752   2.54495
 Alpha virt. eigenvalues --    2.55397   2.56877   2.57722   2.59443   2.60929
 Alpha virt. eigenvalues --    2.64554   2.65545   2.66059   2.68324   2.68918
 Alpha virt. eigenvalues --    2.70310   2.72407   2.73337   2.73824   2.75413
 Alpha virt. eigenvalues --    2.76405   2.77274   2.78823   2.80686   2.82234
 Alpha virt. eigenvalues --    2.84306   2.85140   2.86268   2.87547   2.89233
 Alpha virt. eigenvalues --    2.91368   2.91821   2.92473   2.93943   2.95357
 Alpha virt. eigenvalues --    2.98760   3.02402   3.04350   3.06262   3.06767
 Alpha virt. eigenvalues --    3.10099   3.14650   3.20041   3.20193   3.22452
 Alpha virt. eigenvalues --    3.25384   3.29139   3.30131   3.31537   3.34440
 Alpha virt. eigenvalues --    3.35535   3.38825   3.39774   3.42969   3.43309
 Alpha virt. eigenvalues --    3.45941   3.47246   3.50878   3.52197   3.53366
 Alpha virt. eigenvalues --    3.56656   3.62112   3.80268   3.94658   4.09211
 Alpha virt. eigenvalues --    4.09532   4.12261   4.17755   4.34467   4.37970
 Alpha virt. eigenvalues --    4.44159   4.44864   4.54499   4.58583   4.60295
 Alpha virt. eigenvalues --    4.67144   4.75427   4.78797   5.51968   5.62851
          Condensed to atoms (all electrons):
               1          2          3          4          5          6
     1  C    4.939870   0.346489  -0.038712  -0.001269   0.000093   0.000003
     2  C    0.346489   4.971316   0.373511  -0.051241   0.004100  -0.000076
     3  C   -0.038712   0.373511   4.857693   0.370098  -0.033317  -0.006559
     4  C   -0.001269  -0.051241   0.370098   5.038531   0.355988  -0.049893
     5  C    0.000093   0.004100  -0.033317   0.355988   4.714485   0.269226
     6  O    0.000003  -0.000076  -0.006559  -0.049893   0.269226   8.206274
     7  N    0.004771  -0.054949   0.262365  -0.052472   0.000099  -0.028939
     8  C    0.000159  -0.004884  -0.040509   0.005463  -0.000015   0.000620
     9  C    0.000000   0.000000   0.000000   0.000000   0.000000   0.000000
    10  C    0.000000   0.000000   0.000004   0.000000   0.000000   0.000002
    11  C    0.000000  -0.000004   0.000015  -0.000017   0.000001  -0.000058
    12  C   -0.000001   0.000138   0.004702  -0.000236  -0.000039   0.000006
    13  C    0.000000  -0.000009   0.000095   0.000010   0.000000   0.000014
    14  C    0.000000   0.000000   0.000004   0.000000   0.000000   0.000000
    15  H    0.000000   0.000000   0.000000   0.000000   0.000000   0.000000
    16  H    0.000000   0.000000   0.000000   0.000000   0.000000   0.000000
    17  H    0.000000   0.000000   0.000000   0.000000   0.000000   0.000000
    18  F    0.000000   0.000000   0.000000   0.000000  -0.000002  -0.000012
    19  F    0.000000  -0.000022   0.000016   0.000000   0.000000   0.000000
    20  H    0.376884  -0.025991   0.004026   0.000123  -0.000002   0.000000
    21  H    0.389038  -0.034322  -0.005801   0.001969  -0.000010   0.000000
    22  H    0.388196  -0.037429  -0.005013  -0.001547  -0.000047   0.000000
    23  H   -0.037304   0.381440  -0.032380  -0.009498   0.000006  -0.000007
    24  H   -0.037657   0.381225  -0.032937   0.005035  -0.000112   0.000000
    25  H    0.002698  -0.006085  -0.039294   0.359004  -0.031894   0.003505
    26  H    0.000009  -0.000185   0.004988  -0.029392   0.377783  -0.040051
    27  H   -0.000020   0.000070  -0.012443  -0.049343   0.369245  -0.043622
    28  H   -0.000029   0.000634  -0.001558  -0.007906  -0.038998   0.277293
    29  H   -0.000493   0.003021  -0.001802  -0.000278  -0.000002  -0.000041
    30  H    0.000022  -0.000965  -0.004459   0.000259  -0.000006   0.000165
    31  H   -0.003414  -0.045897   0.385961  -0.043254  -0.005745  -0.000184
    32  C   -0.002065  -0.004795  -0.047280   0.350622  -0.050287   0.002028
    33  H    0.000056  -0.000298  -0.008415  -0.034639  -0.006494   0.009319
    34  H    0.000022   0.000041   0.004713  -0.028335  -0.004134  -0.000602
    35  H   -0.000082   0.002469  -0.005744  -0.031715   0.004771   0.000244
    36  H    0.000079  -0.007258  -0.033019  -0.002923  -0.000046   0.000623
               7          8          9         10         11         12
     1  C    0.004771   0.000159   0.000000   0.000000   0.000000  -0.000001
     2  C   -0.054949  -0.004884   0.000000   0.000000  -0.000004   0.000138
     3  C    0.262365  -0.040509   0.000000   0.000004   0.000015   0.004702
     4  C   -0.052472   0.005463   0.000000   0.000000  -0.000017  -0.000236
     5  C    0.000099  -0.000015   0.000000   0.000000   0.000001  -0.000039
     6  O   -0.028939   0.000620   0.000000   0.000002  -0.000058   0.000006
     7  N    6.943657   0.271727   0.000028  -0.000101   0.003129  -0.048796
     8  C    0.271727   4.937068  -0.000603   0.008397  -0.047871   0.301129
     9  C    0.000028  -0.000603   4.851509   0.485565  -0.008180  -0.028029
    10  C   -0.000101   0.008397   0.485565   5.052205   0.472381  -0.071261
    11  C    0.003129  -0.047871  -0.008180   0.472381   4.586822   0.416070
    12  C   -0.048796   0.301129  -0.028029  -0.071261   0.416070   5.317893
    13  C   -0.006622  -0.049229  -0.009791  -0.048823   0.016149   0.393002
    14  C   -0.000168   0.008755   0.488356  -0.031228  -0.050187  -0.075370
    15  H    0.000000   0.000004   0.375667  -0.034269   0.003622   0.000211
    16  H    0.000002  -0.000147  -0.037223   0.359405  -0.032332   0.006379
    17  H    0.000001  -0.000157  -0.036971   0.004655   0.000501   0.006455
    18  F   -0.000304  -0.002455   0.003045  -0.046507   0.309493  -0.053143
    19  F   -0.002356   0.003974   0.002943  -0.000068   0.002362  -0.059407
    20  H   -0.000132  -0.000004   0.000000   0.000000   0.000000   0.000000
    21  H   -0.000008   0.000001   0.000000   0.000000   0.000000   0.000000
    22  H    0.000055  -0.000012   0.000000   0.000000   0.000000   0.000000
    23  H   -0.004463  -0.000253   0.000000   0.000000   0.000001  -0.000003
    24  H   -0.003042   0.001571   0.000000   0.000000  -0.000010  -0.000101
    25  H    0.004771  -0.000129   0.000000   0.000000   0.000000   0.000004
    26  H   -0.000217   0.000008   0.000000   0.000000   0.000000   0.000000
    27  H    0.000355   0.000012   0.000000   0.000000  -0.000003  -0.000004
    28  H    0.064529  -0.002963  -0.000007  -0.000008   0.001399   0.000064
    29  H   -0.046696   0.356641  -0.000015  -0.000211   0.005129  -0.033229
    30  H   -0.040633   0.379241  -0.000032   0.000485  -0.007582  -0.030474
    31  H   -0.043245  -0.006586   0.000000   0.000000   0.000025   0.000204
    32  C   -0.007529   0.000101   0.000000   0.000000   0.000000   0.000006
    33  H    0.005103  -0.000131   0.000000   0.000000   0.000001   0.000039
    34  H    0.000008   0.000001   0.000000   0.000000   0.000000   0.000000
    35  H    0.000002  -0.000024   0.000000   0.000000   0.000000   0.000000
    36  H    0.325900  -0.030530  -0.000019   0.000013  -0.000331  -0.008806
              13         14         15         16         17         18
     1  C    0.000000   0.000000   0.000000   0.000000   0.000000   0.000000
     2  C   -0.000009   0.000000   0.000000   0.000000   0.000000   0.000000
     3  C    0.000095   0.000004   0.000000   0.000000   0.000000   0.000000
     4  C    0.000010   0.000000   0.000000   0.000000   0.000000   0.000000
     5  C    0.000000   0.000000   0.000000   0.000000   0.000000  -0.000002
     6  O    0.000014   0.000000   0.000000   0.000000   0.000000  -0.000012
     7  N   -0.006622  -0.000168   0.000000   0.000002   0.000001  -0.000304
     8  C   -0.049229   0.008755   0.000004  -0.000147  -0.000157  -0.002455
     9  C   -0.009791   0.488356   0.375667  -0.037223  -0.036971   0.003045
    10  C   -0.048823  -0.031228  -0.034269   0.359405   0.004655  -0.046507
    11  C    0.016149  -0.050187   0.003622  -0.032332   0.000501   0.309493
    12  C    0.393002  -0.075370   0.000211   0.006379   0.006455  -0.053143
    13  C    4.613825   0.479437   0.003654   0.000483  -0.032618   0.002501
    14  C    0.479437   5.049100  -0.034786   0.004707   0.358891  -0.000051
    15  H    0.003654  -0.034786   0.578772  -0.005890  -0.005928  -0.000022
    16  H    0.000483   0.004707  -0.005890   0.591118  -0.000150  -0.000548
    17  H   -0.032618   0.358891  -0.005928  -0.000150   0.592379   0.000001
    18  F    0.002501  -0.000051  -0.000022  -0.000548   0.000001   9.066190
    19  F    0.308564  -0.047234  -0.000022   0.000001  -0.000389   0.000000
    20  H    0.000000   0.000000   0.000000   0.000000   0.000000   0.000000
    21  H    0.000000   0.000000   0.000000   0.000000   0.000000   0.000000
    22  H    0.000000   0.000000   0.000000   0.000000   0.000000   0.000000
    23  H   -0.000014   0.000000   0.000000   0.000000   0.000000   0.000000
    24  H    0.000038   0.000000   0.000000   0.000000   0.000000   0.000000
    25  H    0.000000   0.000000   0.000000   0.000000   0.000000   0.000000
    26  H    0.000000   0.000000   0.000000   0.000000   0.000000   0.000000
    27  H    0.000000   0.000000   0.000000   0.000000   0.000000   0.000003
    28  H   -0.000179  -0.000009   0.000000   0.000001   0.000000   0.000338
    29  H   -0.011017   0.000013   0.000000   0.000003   0.000000   0.000215
    30  H    0.005127  -0.000162   0.000000  -0.000007   0.000002   0.009471
    31  H   -0.000018   0.000000   0.000000   0.000000   0.000000  -0.000024
    32  C   -0.000004   0.000000   0.000000   0.000000   0.000000   0.000000
    33  H   -0.000010   0.000000   0.000000   0.000000   0.000000   0.000000
    34  H    0.000000   0.000000   0.000000   0.000000   0.000000   0.000000
    35  H    0.000000   0.000000   0.000000   0.000000   0.000000   0.000000
    36  H    0.004528   0.000005   0.000000   0.000000   0.000002  -0.000012
              19         20         21         22         23         24
     1  C    0.000000   0.376884   0.389038   0.388196  -0.037304  -0.037657
     2  C   -0.000022  -0.025991  -0.034322  -0.037429   0.381440   0.381225
     3  C    0.000016   0.004026  -0.005801  -0.005013  -0.032380  -0.032937
     4  C    0.000000   0.000123   0.001969  -0.001547  -0.009498   0.005035
     5  C    0.000000  -0.000002  -0.000010  -0.000047   0.000006  -0.000112
     6  O    0.000000   0.000000   0.000000   0.000000  -0.000007   0.000000
     7  N   -0.002356  -0.000132  -0.000008   0.000055  -0.004463  -0.003042
     8  C    0.003974  -0.000004   0.000001  -0.000012  -0.000253   0.001571
     9  C    0.002943   0.000000   0.000000   0.000000   0.000000   0.000000
    10  C   -0.000068   0.000000   0.000000   0.000000   0.000000   0.000000
    11  C    0.002362   0.000000   0.000000   0.000000   0.000001  -0.000010
    12  C   -0.059407   0.000000   0.000000   0.000000  -0.000003  -0.000101
    13  C    0.308564   0.000000   0.000000   0.000000  -0.000014   0.000038
    14  C   -0.047234   0.000000   0.000000   0.000000   0.000000   0.000000
    15  H   -0.000022   0.000000   0.000000   0.000000   0.000000   0.000000
    16  H    0.000001   0.000000   0.000000   0.000000   0.000000   0.000000
    17  H   -0.000389   0.000000   0.000000   0.000000   0.000000   0.000000
    18  F    0.000000   0.000000   0.000000   0.000000   0.000000   0.000000
    19  F    9.071777   0.000000   0.000000   0.000000  -0.000009  -0.000020
    20  H    0.000000   0.611328  -0.031092  -0.030945  -0.002234  -0.005438
    21  H    0.000000  -0.031092   0.597676  -0.032338  -0.006463   0.005474
    22  H    0.000000  -0.030945  -0.032338   0.604127   0.005536  -0.003958
    23  H   -0.000009  -0.002234  -0.006463   0.005536   0.627712  -0.039261
    24  H   -0.000020  -0.005438   0.005474  -0.003958  -0.039261   0.630549
    25  H    0.000000  -0.000021   0.001227   0.000776   0.000012   0.000041
    26  H    0.000000   0.000000   0.000008   0.000001   0.000001   0.000002
    27  H    0.000000   0.000000   0.000004   0.000005  -0.000002  -0.000001
    28  H   -0.000002   0.000000   0.000000   0.000000   0.000005  -0.000001
    29  H    0.004326   0.000026   0.000001   0.000013   0.000329   0.002034
    30  H    0.000180  -0.000001   0.000001  -0.000004   0.000022   0.000533
    31  H   -0.000001  -0.000090  -0.000280   0.005278   0.005727  -0.005620
    32  C    0.000000  -0.000008   0.000494   0.000151   0.003753   0.000019
    33  H   -0.000004   0.000003  -0.000035  -0.000003   0.000057  -0.000016
    34  H    0.000000   0.000000  -0.000044   0.000000  -0.000105   0.000000
    35  H    0.000000  -0.000044   0.001555  -0.000032   0.001425  -0.000011
    36  H    0.006581  -0.000006   0.000002   0.000023   0.006224  -0.000127
              25         26         27         28         29         30
     1  C    0.002698   0.000009  -0.000020  -0.000029  -0.000493   0.000022
     2  C   -0.006085  -0.000185   0.000070   0.000634   0.003021  -0.000965
     3  C   -0.039294   0.004988  -0.012443  -0.001558  -0.001802  -0.004459
     4  C    0.359004  -0.029392  -0.049343  -0.007906  -0.000278   0.000259
     5  C   -0.031894   0.377783   0.369245  -0.038998  -0.000002  -0.000006
     6  O    0.003505  -0.040051  -0.043622   0.277293  -0.000041   0.000165
     7  N    0.004771  -0.000217   0.000355   0.064529  -0.046696  -0.040633
     8  C   -0.000129   0.000008   0.000012  -0.002963   0.356641   0.379241
     9  C    0.000000   0.000000   0.000000  -0.000007  -0.000015  -0.000032
    10  C    0.000000   0.000000   0.000000  -0.000008  -0.000211   0.000485
    11  C    0.000000   0.000000  -0.000003   0.001399   0.005129  -0.007582
    12  C    0.000004   0.000000  -0.000004   0.000064  -0.033229  -0.030474
    13  C    0.000000   0.000000   0.000000  -0.000179  -0.011017   0.005127
    14  C    0.000000   0.000000   0.000000  -0.000009   0.000013  -0.000162
    15  H    0.000000   0.000000   0.000000   0.000000   0.000000   0.000000
    16  H    0.000000   0.000000   0.000000   0.000001   0.000003  -0.000007
    17  H    0.000000   0.000000   0.000000   0.000000   0.000000   0.000002
    18  F    0.000000   0.000000   0.000003   0.000338   0.000215   0.009471
    19  F    0.000000   0.000000   0.000000  -0.000002   0.004326   0.000180
    20  H   -0.000021   0.000000   0.000000   0.000000   0.000026  -0.000001
    21  H    0.001227   0.000008   0.000004   0.000000   0.000001   0.000001
    22  H    0.000776   0.000001   0.000005   0.000000   0.000013  -0.000004
    23  H    0.000012   0.000001  -0.000002   0.000005   0.000329   0.000022
    24  H    0.000041   0.000002  -0.000001  -0.000001   0.002034   0.000533
    25  H    0.662105  -0.002913   0.001628   0.000095   0.000009  -0.000019
    26  H   -0.002913   0.652312  -0.052025   0.005636   0.000000   0.000002
    27  H    0.001628  -0.052025   0.706699  -0.002328   0.000002  -0.000006
    28  H    0.000095   0.005636  -0.002328   0.385866   0.000575  -0.000682
    29  H    0.000009   0.000000   0.000002   0.000575   0.663435  -0.043495
    30  H   -0.000019   0.000002  -0.000006  -0.000682  -0.043495   0.594216
    31  H   -0.003203  -0.000074   0.005750  -0.000267  -0.000396   0.005939
    32  C   -0.040221  -0.009494   0.007452  -0.001201  -0.000010   0.000000
    33  H    0.006030  -0.000536   0.000315   0.000552   0.000018  -0.000008
    34  H   -0.003650   0.004791  -0.000070   0.000048   0.000000   0.000000
    35  H   -0.004838  -0.000132  -0.000137  -0.000050   0.000002  -0.000001
    36  H   -0.000111   0.000015  -0.000039  -0.002518  -0.007308   0.005952
              31         32         33         34         35         36
     1  C   -0.003414  -0.002065   0.000056   0.000022  -0.000082   0.000079
     2  C   -0.045897  -0.004795  -0.000298   0.000041   0.002469  -0.007258
     3  C    0.385961  -0.047280  -0.008415   0.004713  -0.005744  -0.033019
     4  C   -0.043254   0.350622  -0.034639  -0.028335  -0.031715  -0.002923
     5  C   -0.005745  -0.050287  -0.006494  -0.004134   0.004771  -0.000046
     6  O   -0.000184   0.002028   0.009319  -0.000602   0.000244   0.000623
     7  N   -0.043245  -0.007529   0.005103   0.000008   0.000002   0.325900
     8  C   -0.006586   0.000101  -0.000131   0.000001  -0.000024  -0.030530
     9  C    0.000000   0.000000   0.000000   0.000000   0.000000  -0.000019
    10  C    0.000000   0.000000   0.000000   0.000000   0.000000   0.000013
    11  C    0.000025   0.000000   0.000001   0.000000   0.000000  -0.000331
    12  C    0.000204   0.000006   0.000039   0.000000   0.000000  -0.008806
    13  C   -0.000018  -0.000004  -0.000010   0.000000   0.000000   0.004528
    14  C    0.000000   0.000000   0.000000   0.000000   0.000000   0.000005
    15  H    0.000000   0.000000   0.000000   0.000000   0.000000   0.000000
    16  H    0.000000   0.000000   0.000000   0.000000   0.000000   0.000000
    17  H    0.000000   0.000000   0.000000   0.000000   0.000000   0.000002
    18  F   -0.000024   0.000000   0.000000   0.000000   0.000000  -0.000012
    19  F   -0.000001   0.000000  -0.000004   0.000000   0.000000   0.006581
    20  H   -0.000090  -0.000008   0.000003   0.000000  -0.000044  -0.000006
    21  H   -0.000280   0.000494  -0.000035  -0.000044   0.001555   0.000002
    22  H    0.005278   0.000151  -0.000003   0.000000  -0.000032   0.000023
    23  H    0.005727   0.003753   0.000057  -0.000105   0.001425   0.006224
    24  H   -0.005620   0.000019  -0.000016   0.000000  -0.000011  -0.000127
    25  H   -0.003203  -0.040221   0.006030  -0.003650  -0.004838  -0.000111
    26  H   -0.000074  -0.009494  -0.000536   0.004791  -0.000132   0.000015
    27  H    0.005750   0.007452   0.000315  -0.000070  -0.000137  -0.000039
    28  H   -0.000267  -0.001201   0.000552   0.000048  -0.000050  -0.002518
    29  H   -0.000396  -0.000010   0.000018   0.000000   0.000002  -0.007308
    30  H    0.005939   0.000000  -0.000008   0.000000  -0.000001   0.005952
    31  H    0.639016   0.005444   0.000041  -0.000153  -0.000031   0.006144
    32  C    0.005444   4.971459   0.383314   0.380569   0.377414   0.003166
    33  H    0.000041   0.383314   0.597785  -0.029910  -0.032594   0.000672
    34  H   -0.000153   0.380569  -0.029910   0.603564  -0.031315  -0.000081
    35  H   -0.000031   0.377414  -0.032594  -0.031315   0.617253  -0.000060
    36  H    0.006144   0.003166   0.000672  -0.000081  -0.000060   0.472307
 Mulliken charges:
               1
     1  C   -0.327343
     2  C   -0.190044
     3  C    0.081051
     4  C   -0.093143
     5  C    0.075353
     6  O   -0.599280
     7  N   -0.545830
     8  C   -0.088369
     9  C   -0.086242
    10  C   -0.150634
    11  C    0.329474
    12  C   -0.037401
    13  C    0.330908
    14  C   -0.150072
    15  H    0.118988
    16  H    0.114198
    17  H    0.113326
    18  F   -0.288174
    19  F   -0.291189
    20  H    0.103618
    21  H    0.112944
    22  H    0.107168
    23  H    0.099747
    24  H    0.101790
    25  H    0.090474
    26  H    0.089463
    27  H    0.068506
    28  H    0.321669
    29  H    0.109203
    30  H    0.126920
    31  H    0.098954
    32  C   -0.323098
    33  H    0.109789
    34  H    0.104640
    35  H    0.101673
    36  H    0.260961
 Sum of Mulliken charges =   0.00000
 Mulliken charges with hydrogens summed into heavy atoms:
               1
     1  C   -0.003613
     2  C    0.011494
     3  C    0.180005
     4  C   -0.002669
     5  C    0.233321
     6  O   -0.277611
     7  N   -0.284869
     8  C    0.147754
     9  C    0.032746
    10  C   -0.036436
    11  C    0.329474
    12  C   -0.037401
    13  C    0.330908
    14  C   -0.036745
    18  F   -0.288174
    19  F   -0.291189
    32  C   -0.006995
 Electronic spatial extent (au):  <R**2>=           4979.0839
 Charge=              0.0000 electrons
 Dipole moment (field-independent basis, Debye):
    X=              0.8126    Y=             -3.2895    Z=             -1.1619  Tot=              3.5821
 Quadrupole moment (field-independent basis, Debye-Ang):
   XX=            -84.6992   YY=           -109.7269   ZZ=           -101.6852
   XY=              3.5694   XZ=              5.4398   YZ=             -3.9263
 Traceless Quadrupole moment (field-independent basis, Debye-Ang):
   XX=             14.0046   YY=            -11.0231   ZZ=             -2.9815
   XY=              3.5694   XZ=              5.4398   YZ=             -3.9263
 Octapole moment (field-independent basis, Debye-Ang**2):
  XXX=             64.7344  YYY=            -18.0919  ZZZ=             -5.5049  XYY=              9.4240
  XXY=             13.3453  XXZ=             17.9229  XZZ=              6.2730  YZZ=             -8.7055
  YYZ=            -11.3222  XYZ=              0.3565
 Hexadecapole moment (field-independent basis, Debye-Ang**3):
 XXXX=          -4246.7686 YYYY=          -1303.3004 ZZZZ=           -664.9407 XXXY=              9.7273
 XXXZ=             64.5688 YYYX=             20.0199 YYYZ=            -54.2929 ZZZX=              0.2204
 ZZZY=            -39.1688 XXYY=           -935.9473 XXZZ=           -871.2580 YYZZ=           -330.0427
 XXYZ=            -34.1369 YYXZ=              7.4249 ZZXY=            -13.2369
 N-N= 1.278837713157D+03 E-N=-4.511444456914D+03  KE= 8.291810975991D+02
 D1PCM: PCM CHGder 1st derivatives, ID1Alg=3 FixD1E=F DoIter=F DoCFld=F I1PDM=0.
 Calling FoFJK, ICntrl=      2127 FMM=F ISym2X=0 I1Cent= 0 IOpClX= 0 NMat=1 NMatS=1 NMatT=0.
 ***** Axes restored to original set *****
 -------------------------------------------------------------------
 Center     Atomic                   Forces (Hartrees/Bohr)
 Number     Number              X              Y              Z
 -------------------------------------------------------------------
      1        6           0.004092752    0.000812384   -0.003668191
      2        6           0.003226478   -0.004733997    0.001840873
      3        6           0.008971239    0.012070754   -0.004888502
      4        6           0.000593797   -0.000288119    0.002598292
      5        6          -0.011307786   -0.001234809   -0.005874399
      6        8          -0.003404590    0.006267333    0.003773705
      7        7          -0.001527217   -0.003307583    0.007126919
      8        6          -0.000633800   -0.003772436   -0.005804795
      9        6           0.005775120   -0.001691253    0.000324977
     10        6          -0.002760502   -0.003324269    0.007030490
     11        6          -0.016549803    0.011199852   -0.009857151
     12        6           0.008569871   -0.003688389   -0.001093411
     13        6          -0.020092218   -0.002959640    0.015172442
     14        6          -0.001028324    0.004721288   -0.007241247
     15        1           0.001880740   -0.000519892   -0.000244883
     16        1           0.001397792   -0.000470730   -0.000310350
     17        1           0.001456362   -0.000440305   -0.000258166
     18        9           0.005468973   -0.003059186    0.002824562
     19        9           0.007750001    0.000870283   -0.004882339
     20        1           0.001449647   -0.000743979    0.000536754
     21        1           0.001331068   -0.001073329    0.000804562
     22        1           0.001424466   -0.000346090    0.000406311
     23        1          -0.001891372    0.001250046    0.001683207
     24        1          -0.003192566    0.000884615    0.001449998
     25        1           0.000082729   -0.002058097   -0.001380050
     26        1           0.000679065    0.001087131   -0.000290834
     27        1           0.006017000   -0.006078562    0.000222224
     28        1           0.004014604   -0.000203743   -0.000055157
     29        1          -0.000572659   -0.002466382   -0.002082869
     30        1           0.001343072    0.004994939    0.000943659
     31        1          -0.004151262    0.000268090   -0.000310792
     32        6           0.001425386    0.001194436   -0.002974813
     33        1           0.000543300   -0.000452987    0.001551626
     34        1          -0.000979949   -0.000234633    0.000189441
     35        1          -0.000141011    0.000557368   -0.000649285
     36        1           0.000739598   -0.003030108    0.003387191
 -------------------------------------------------------------------
 Cartesian Forces:  Max     0.020092218 RMS     0.004748204

 GradGradGradGradGradGradGradGradGradGradGradGradGradGradGradGradGradGrad
 Berny optimization.
 FormGI is forming the generalized inverse of G from B-inverse, IUseBI=4.
 Internal  Forces:  Max     0.009088783 RMS     0.002704474
 Search for a local minimum.
 Step number   1 out of a maximum of   50
 All quantities printed in internal units (Hartrees-Bohrs-Radians)
 Mixed Optimization -- RFO/linear search
 Second derivative matrix not updated -- first step.
 ITU=  0
     Eigenvalues ---    0.00230   0.00230   0.00230   0.00312   0.00459
     Eigenvalues ---    0.00668   0.00748   0.00813   0.01412   0.01567
     Eigenvalues ---    0.02146   0.02152   0.02154   0.02159   0.02163
     Eigenvalues ---    0.02167   0.02167   0.02168   0.02743   0.03183
     Eigenvalues ---    0.03382   0.03671   0.04584   0.04664   0.04749
     Eigenvalues ---    0.04777   0.05043   0.05191   0.05314   0.05494
     Eigenvalues ---    0.05545   0.05609   0.05709   0.05934   0.06557
     Eigenvalues ---    0.08547   0.09762   0.11062   0.11734   0.12357
     Eigenvalues ---    0.13133   0.13961   0.16000   0.16000   0.16000
     Eigenvalues ---    0.16000   0.16000   0.16000   0.16000   0.16000
     Eigenvalues ---    0.16000   0.16000   0.16917   0.17244   0.17473
     Eigenvalues ---    0.18037   0.21918   0.21926   0.22024   0.22085
     Eigenvalues ---    0.23450   0.23490   0.24907   0.24995   0.24999
     Eigenvalues ---    0.25000   0.26640   0.27938   0.28304   0.29028
     Eigenvalues ---    0.30061   0.32236   0.33806   0.33987   0.34042
     Eigenvalues ---    0.34081   0.34092   0.34127   0.34167   0.34214
     Eigenvalues ---    0.34235   0.34246   0.34302   0.34309   0.34359
     Eigenvalues ---    0.34399   0.34871   0.35165   0.35273   0.35293
     Eigenvalues ---    0.36167   0.42283   0.42353   0.42491   0.43795
     Eigenvalues ---    0.46350   0.46490   0.46551   0.46620   0.50871
     Eigenvalues ---    0.56897   0.57035
 RFO step:  Lambda=-7.53557524D-03 EMin= 2.30000000D-03
 Linear search not attempted -- first point.
 Iteration  1 RMS(Cart)=  0.04614555 RMS(Int)=  0.00078365
 Iteration  2 RMS(Cart)=  0.00147877 RMS(Int)=  0.00021851
 Iteration  3 RMS(Cart)=  0.00000152 RMS(Int)=  0.00021851
 Iteration  4 RMS(Cart)=  0.00000000 RMS(Int)=  0.00021851
 Variable       Old X    -DE/DX   Delta X   Delta X   Delta X     New X
                                 (Linear)    (Quad)   (Total)
    R1        2.87843   0.00842   0.00000   0.02731   0.02731   2.90574
    R2        2.06917   0.00004   0.00000   0.00012   0.00012   2.06929
    R3        2.06663   0.00026   0.00000   0.00075   0.00075   2.06738
    R4        2.06823   0.00075   0.00000   0.00214   0.00214   2.07036
    R5        2.92275  -0.00010   0.00000  -0.00037  -0.00037   2.92239
    R6        2.07194   0.00048   0.00000   0.00138   0.00138   2.07332
    R7        2.07175   0.00019   0.00000   0.00054   0.00054   2.07229
    R8        2.95213  -0.00383   0.00000  -0.01397  -0.01397   2.93816
    R9        2.79185   0.00675   0.00000   0.01896   0.01896   2.81081
   R10        2.07658  -0.00079   0.00000  -0.00228  -0.00228   2.07430
   R11        2.91479  -0.00063   0.00000  -0.00217  -0.00217   2.91262
   R12        2.07352   0.00059   0.00000   0.00170   0.00170   2.07522
   R13        2.89944   0.00165   0.00000   0.00554   0.00554   2.90498
   R14        2.68565   0.00188   0.00000   0.00436   0.00436   2.69001
   R15        2.06936   0.00081   0.00000   0.00232   0.00232   2.07168
   R16        2.06970   0.00570   0.00000   0.01631   0.01631   2.08601
   R17        1.85697  -0.00187   0.00000  -0.00362  -0.00362   1.85335
   R18        2.77121   0.00655   0.00000   0.01774   0.01774   2.78894
   R19        1.93400  -0.00458   0.00000  -0.01027  -0.01027   1.92373
   R20        2.83714   0.00813   0.00000   0.02464   0.02464   2.86177
   R21        2.07116   0.00257   0.00000   0.00736   0.00736   2.07852
   R22        2.07259  -0.00314   0.00000  -0.00903  -0.00903   2.06356
   R23        2.63459   0.00083   0.00000   0.00194   0.00191   2.63650
   R24        2.63401   0.00147   0.00000   0.00324   0.00322   2.63723
   R25        2.05408  -0.00197   0.00000  -0.00547  -0.00547   2.04861
   R26        2.63556  -0.00309   0.00000  -0.00648  -0.00649   2.62907
   R27        2.05234  -0.00083   0.00000  -0.00232  -0.00232   2.05003
   R28        2.63695   0.00042   0.00000   0.00074   0.00076   2.63772
   R29        2.53367   0.00600   0.00000   0.01038   0.01038   2.54405
   R30        2.63844  -0.00084   0.00000  -0.00198  -0.00195   2.63650
   R31        2.63472  -0.00382   0.00000  -0.00813  -0.00812   2.62660
   R32        2.53484   0.00819   0.00000   0.01421   0.01421   2.54905
   R33        2.05202  -0.00066   0.00000  -0.00184  -0.00184   2.05018
   R34        2.06812  -0.00085   0.00000  -0.00243  -0.00243   2.06570
   R35        2.07050  -0.00049   0.00000  -0.00142  -0.00142   2.06908
   R36        2.06728   0.00053   0.00000   0.00151   0.00151   2.06879
    A1        1.91906   0.00200   0.00000   0.01418   0.01410   1.93316
    A2        1.94931   0.00156   0.00000   0.00937   0.00931   1.95861
    A3        1.93843   0.00085   0.00000   0.00273   0.00273   1.94116
    A4        1.87352  -0.00126   0.00000  -0.00299  -0.00312   1.87040
    A5        1.88472  -0.00151   0.00000  -0.00922  -0.00924   1.87548
    A6        1.89649  -0.00185   0.00000  -0.01515  -0.01513   1.88135
    A7        1.98680   0.00497   0.00000   0.02447   0.02455   2.01134
    A8        1.90453  -0.00001   0.00000   0.00991   0.01015   1.91468
    A9        1.86889   0.00073   0.00000   0.02068   0.02084   1.88973
   A10        1.93414  -0.00341   0.00000  -0.02854  -0.02883   1.90531
   A11        1.91086  -0.00327   0.00000  -0.02356  -0.02407   1.88679
   A12        1.85277   0.00086   0.00000  -0.00322  -0.00392   1.84885
   A13        1.98292  -0.00210   0.00000   0.00716   0.00622   1.98914
   A14        1.93233   0.00519   0.00000   0.04282   0.04248   1.97481
   A15        1.88255  -0.00071   0.00000  -0.01196  -0.01141   1.87114
   A16        1.91371  -0.00058   0.00000   0.01087   0.00986   1.92357
   A17        1.85313   0.00167   0.00000   0.00024   0.00024   1.85337
   A18        1.89549  -0.00382   0.00000  -0.05533  -0.05499   1.84050
   A19        1.94769  -0.00207   0.00000  -0.01301  -0.01307   1.93462
   A20        1.88077  -0.00110   0.00000  -0.02218  -0.02218   1.85859
   A21        1.98243   0.00130   0.00000   0.00736   0.00744   1.98987
   A22        1.84499   0.00092   0.00000   0.00852   0.00824   1.85323
   A23        1.92502   0.00095   0.00000   0.01041   0.01040   1.93541
   A24        1.87565   0.00000   0.00000   0.00897   0.00891   1.88457
   A25        1.95913   0.00391   0.00000   0.02213   0.02199   1.98112
   A26        1.92484  -0.00133   0.00000  -0.02198  -0.02227   1.90257
   A27        1.93288  -0.00529   0.00000  -0.02752  -0.02850   1.90438
   A28        1.87765  -0.00245   0.00000  -0.02040  -0.02013   1.85753
[...]
    29  H   -0.000466   0.002610  -0.001928  -0.000230  -0.000001  -0.000038
    30  H    0.000020  -0.000858  -0.004143   0.000159  -0.000006   0.000222
    31  H   -0.003885  -0.048922   0.385284  -0.043139  -0.006680  -0.000136
    32  C   -0.001078  -0.005506  -0.047275   0.352083  -0.049105   0.000040
    33  H    0.000021  -0.000127  -0.008247  -0.035370  -0.007454   0.010827
    34  H    0.000004   0.000070   0.004725  -0.028250  -0.003472  -0.000456
    35  H    0.000120   0.001803  -0.005542  -0.031082   0.004572   0.000197
    36  H    0.000036  -0.006398  -0.033644  -0.003459  -0.000081   0.000718
               7          8          9         10         11         12
     1  C    0.004259   0.000150   0.000000   0.000000   0.000000   0.000000
     2  C   -0.050912  -0.004895   0.000000   0.000000  -0.000003   0.000078
     3  C    0.260628  -0.037460   0.000000   0.000003   0.000000   0.004301
     4  C   -0.051456   0.005150   0.000000   0.000000  -0.000013  -0.000223
     5  C    0.000041  -0.000016   0.000000   0.000000   0.000000  -0.000036
     6  O   -0.029200   0.000520   0.000000   0.000001  -0.000058   0.000021
     7  N    6.949367   0.274170   0.000025  -0.000060   0.003377  -0.045000
     8  C    0.274170   4.922792  -0.000711   0.007763  -0.048239   0.307518
     9  C    0.000025  -0.000711   4.862452   0.482329  -0.003838  -0.027703
    10  C   -0.000060   0.007763   0.482329   5.045477   0.474865  -0.075925
    11  C    0.003377  -0.048239  -0.003838   0.474865   4.591812   0.415653
    12  C   -0.045000   0.307518  -0.027703  -0.075925   0.415653   5.313718
    13  C   -0.006213  -0.050445  -0.005035  -0.047458   0.020000   0.389528
    14  C   -0.000142   0.008377   0.484121  -0.036028  -0.048813  -0.081328
    15  H    0.000000   0.000005   0.373994  -0.033718   0.003515   0.000446
    16  H    0.000001  -0.000123  -0.036295   0.362196  -0.031996   0.006121
    17  H    0.000001  -0.000135  -0.035968   0.004346   0.000349   0.006187
    18  F   -0.000344  -0.003056   0.002991  -0.044997   0.299258  -0.051897
    19  F   -0.002375   0.004233   0.002853  -0.000015   0.002521  -0.059783
    20  H   -0.000112  -0.000004   0.000000   0.000000   0.000000   0.000000
    21  H   -0.000011   0.000001   0.000000   0.000000   0.000000   0.000000
    22  H    0.000044  -0.000010   0.000000   0.000000   0.000000   0.000000
    23  H   -0.003216  -0.000144   0.000000   0.000000   0.000001  -0.000005
    24  H   -0.003855   0.001826   0.000000   0.000000  -0.000009  -0.000149
    25  H    0.004975  -0.000128   0.000000   0.000000   0.000000   0.000004
    26  H   -0.000219   0.000007   0.000000   0.000000   0.000000   0.000000
    27  H    0.000309  -0.000002   0.000000   0.000000  -0.000002  -0.000001
    28  H    0.065593  -0.002532  -0.000006  -0.000002   0.001285  -0.000161
    29  H   -0.044196   0.355786  -0.000008  -0.000177   0.005107  -0.031478
    30  H   -0.044691   0.376688  -0.000026   0.000383  -0.007795  -0.028556
    31  H   -0.047918  -0.005966   0.000000   0.000000   0.000015   0.000224
    32  C   -0.007491   0.000067   0.000000   0.000000   0.000000   0.000007
    33  H    0.004837  -0.000106   0.000000   0.000000   0.000001   0.000033
    34  H    0.000020   0.000001   0.000000   0.000000   0.000000   0.000000
    35  H   -0.000091  -0.000025   0.000000   0.000000   0.000000   0.000000
    36  H    0.324358  -0.032448  -0.000019   0.000007  -0.000335  -0.008786
              13         14         15         16         17         18
     1  C    0.000000   0.000000   0.000000   0.000000   0.000000   0.000000
     2  C    0.000004   0.000000   0.000000   0.000000   0.000000   0.000000
     3  C    0.000090   0.000004   0.000000   0.000000   0.000000   0.000001
     4  C    0.000007   0.000000   0.000000   0.000000   0.000000   0.000000
     5  C    0.000000   0.000000   0.000000   0.000000   0.000000  -0.000002
     6  O    0.000012   0.000000   0.000000   0.000000   0.000000  -0.000016
     7  N   -0.006213  -0.000142   0.000000   0.000001   0.000001  -0.000344
     8  C   -0.050445   0.008377   0.000005  -0.000123  -0.000135  -0.003056
     9  C   -0.005035   0.484121   0.373994  -0.036295  -0.035968   0.002991
    10  C   -0.047458  -0.036028  -0.033718   0.362196   0.004346  -0.044997
    11  C    0.020000  -0.048813   0.003515  -0.031996   0.000349   0.299258
    12  C    0.389528  -0.081328   0.000446   0.006121   0.006187  -0.051897
    13  C    4.622530   0.480112   0.003516   0.000328  -0.032049   0.002697
    14  C    0.480112   5.046978  -0.034472   0.004430   0.361526   0.000005
    15  H    0.003516  -0.034472   0.578895  -0.005634  -0.005614  -0.000024
    16  H    0.000328   0.004430  -0.005634   0.582706  -0.000130  -0.000598
    17  H   -0.032049   0.361526  -0.005614  -0.000130   0.583561   0.000001
    18  F    0.002697   0.000005  -0.000024  -0.000598   0.000001   9.082747
    19  F    0.299359  -0.046235  -0.000024   0.000001  -0.000442  -0.000001
    20  H    0.000000   0.000000   0.000000   0.000000   0.000000   0.000000
    21  H    0.000000   0.000000   0.000000   0.000000   0.000000   0.000000
    22  H    0.000000   0.000000   0.000000   0.000000   0.000000   0.000000
    23  H   -0.000007   0.000000   0.000000   0.000000   0.000000   0.000000
    24  H    0.000039   0.000000   0.000000   0.000000   0.000000   0.000000
    25  H    0.000000   0.000000   0.000000   0.000000   0.000000   0.000000
    26  H    0.000000   0.000000   0.000000   0.000000   0.000000   0.000000
    27  H    0.000000   0.000000   0.000000   0.000000   0.000000   0.000002
    28  H   -0.000162  -0.000006   0.000000   0.000001   0.000000   0.000446
    29  H   -0.010909  -0.000063   0.000000   0.000002   0.000000   0.000210
    30  H    0.005469  -0.000147   0.000000  -0.000007   0.000001   0.009798
    31  H   -0.000015   0.000000   0.000000   0.000000   0.000000  -0.000020
    32  C   -0.000004   0.000000   0.000000   0.000000   0.000000   0.000000
    33  H   -0.000007   0.000000   0.000000   0.000000   0.000000   0.000000
    34  H    0.000000   0.000000   0.000000   0.000000   0.000000   0.000000
    35  H    0.000000   0.000000   0.000000   0.000000   0.000000   0.000000
    36  H    0.004558  -0.000012   0.000000   0.000000   0.000002  -0.000013
              19         20         21         22         23         24
     1  C    0.000000   0.377821   0.388640   0.387294  -0.036483  -0.035462
     2  C   -0.000011  -0.024810  -0.033501  -0.036696   0.378839   0.379491
     3  C   -0.000004   0.003629  -0.005273  -0.004785  -0.034462  -0.034255
     4  C    0.000001   0.000105   0.001471  -0.001044  -0.010027   0.005124
     5  C    0.000000  -0.000001  -0.000038  -0.000045   0.000015  -0.000132
     6  O    0.000000   0.000000   0.000000   0.000000  -0.000005   0.000001
     7  N   -0.002375  -0.000112  -0.000011   0.000044  -0.003216  -0.003855
     8  C    0.004233  -0.000004   0.000001  -0.000010  -0.000144   0.001826
     9  C    0.002853   0.000000   0.000000   0.000000   0.000000   0.000000
    10  C   -0.000015   0.000000   0.000000   0.000000   0.000000   0.000000
    11  C    0.002521   0.000000   0.000000   0.000000   0.000001  -0.000009
    12  C   -0.059783   0.000000   0.000000   0.000000  -0.000005  -0.000149
    13  C    0.299359   0.000000   0.000000   0.000000  -0.000007   0.000039
    14  C   -0.046235   0.000000   0.000000   0.000000   0.000000   0.000000
    15  H   -0.000024   0.000000   0.000000   0.000000   0.000000   0.000000
    16  H    0.000001   0.000000   0.000000   0.000000   0.000000   0.000000
    17  H   -0.000442   0.000000   0.000000   0.000000   0.000000   0.000000
    18  F   -0.000001   0.000000   0.000000   0.000000   0.000000   0.000000
    19  F    9.091449   0.000000   0.000000   0.000000  -0.000007  -0.000025
    20  H    0.000000   0.606282  -0.030840  -0.031356  -0.002397  -0.004644
    21  H    0.000000  -0.030840   0.597157  -0.033354  -0.005645   0.005098
    22  H    0.000000  -0.031356  -0.033354   0.604686   0.005345  -0.003988
    23  H   -0.000007  -0.002397  -0.005645   0.005345   0.630649  -0.038742
    24  H   -0.000025  -0.004644   0.005098  -0.003988  -0.038742   0.631261
    25  H    0.000000  -0.000051   0.002063   0.000578  -0.000052   0.000054
    26  H    0.000000   0.000000   0.000008   0.000001   0.000002   0.000003
    27  H    0.000000   0.000000   0.000006   0.000006  -0.000002   0.000000
    28  H   -0.000001   0.000000   0.000000   0.000000  -0.000006   0.000002
    29  H    0.004280   0.000025   0.000001   0.000008   0.000124   0.002638
    30  H    0.000204  -0.000001   0.000001  -0.000002   0.000029   0.000378
    31  H   -0.000001  -0.000072  -0.000281   0.005479   0.006191  -0.005090
    32  C    0.000000  -0.000014   0.000533   0.000080   0.003351   0.000049
    33  H   -0.000003   0.000002  -0.000017  -0.000002  -0.000001  -0.000015
    34  H    0.000000   0.000000  -0.000025   0.000001  -0.000134   0.000001
    35  H    0.000000  -0.000022   0.000659  -0.000016   0.002475  -0.000056
    36  H    0.006447  -0.000003   0.000002   0.000018   0.005392  -0.000110
              25         26         27         28         29         30
     1  C    0.002227   0.000007  -0.000025  -0.000026  -0.000466   0.000020
     2  C   -0.005985  -0.000198   0.000071   0.000596   0.002610  -0.000858
     3  C   -0.041729   0.005301  -0.013530  -0.001375  -0.001928  -0.004143
     4  C    0.361158  -0.030929  -0.050971  -0.008358  -0.000230   0.000159
     5  C   -0.031064   0.377453   0.364496  -0.040889  -0.000001  -0.000006
     6  O    0.003301  -0.041229  -0.040582   0.276690  -0.000038   0.000222
     7  N    0.004975  -0.000219   0.000309   0.065593  -0.044196  -0.044691
     8  C   -0.000128   0.000007  -0.000002  -0.002532   0.355786   0.376688
     9  C    0.000000   0.000000   0.000000  -0.000006  -0.000008  -0.000026
    10  C    0.000000   0.000000   0.000000  -0.000002  -0.000177   0.000383
    11  C    0.000000   0.000000  -0.000002   0.001285   0.005107  -0.007795
    12  C    0.000004   0.000000  -0.000001  -0.000161  -0.031478  -0.028556
    13  C    0.000000   0.000000   0.000000  -0.000162  -0.010909   0.005469
    14  C    0.000000   0.000000   0.000000  -0.000006  -0.000063  -0.000147
    15  H    0.000000   0.000000   0.000000   0.000000   0.000000   0.000000
    16  H    0.000000   0.000000   0.000000   0.000001   0.000002  -0.000007
    17  H    0.000000   0.000000   0.000000   0.000000   0.000000   0.000001
    18  F    0.000000   0.000000   0.000002   0.000446   0.000210   0.009798
    19  F    0.000000   0.000000   0.000000  -0.000001   0.004280   0.000204
    20  H   -0.000051   0.000000   0.000000   0.000000   0.000025  -0.000001
    21  H    0.002063   0.000008   0.000006   0.000000   0.000001   0.000001
    22  H    0.000578   0.000001   0.000006   0.000000   0.000008  -0.000002
    23  H   -0.000052   0.000002  -0.000002  -0.000006   0.000124   0.000029
    24  H    0.000054   0.000003   0.000000   0.000002   0.002638   0.000378
    25  H    0.659571  -0.003049   0.001584   0.000100   0.000007  -0.000015
    26  H   -0.003049   0.656904  -0.052237   0.006036   0.000000   0.000002
    27  H    0.001584  -0.052237   0.712879  -0.002317   0.000001  -0.000008
    28  H    0.000100   0.006036  -0.002317   0.386774   0.000550  -0.000886
    29  H    0.000007   0.000000   0.000001   0.000550   0.656815  -0.043384
    30  H   -0.000015   0.000002  -0.000008  -0.000886  -0.043384   0.596763
    31  H   -0.003456  -0.000029   0.006581  -0.000485  -0.000646   0.006627
    32  C   -0.039465  -0.009053   0.007340  -0.001054  -0.000009   0.000002
    33  H    0.006017  -0.000645   0.000416   0.000509   0.000012  -0.000008
    34  H   -0.004561   0.004574  -0.000083   0.000036   0.000000   0.000000
    35  H   -0.003592  -0.000125  -0.000144  -0.000045   0.000002  -0.000001
    36  H   -0.000106   0.000016  -0.000036  -0.002789  -0.005991   0.006316
              31         32         33         34         35         36
     1  C   -0.003885  -0.001078   0.000021   0.000004   0.000120   0.000036
     2  C   -0.048922  -0.005506  -0.000127   0.000070   0.001803  -0.006398
     3  C    0.385284  -0.047275  -0.008247   0.004725  -0.005542  -0.033644
     4  C   -0.043139   0.352083  -0.035370  -0.028250  -0.031082  -0.003459
     5  C   -0.006680  -0.049105  -0.007454  -0.003472   0.004572  -0.000081
     6  O   -0.000136   0.000040   0.010827  -0.000456   0.000197   0.000718
     7  N   -0.047918  -0.007491   0.004837   0.000020  -0.000091   0.324358
     8  C   -0.005966   0.000067  -0.000106   0.000001  -0.000025  -0.032448
     9  C    0.000000   0.000000   0.000000   0.000000   0.000000  -0.000019
    10  C    0.000000   0.000000   0.000000   0.000000   0.000000   0.000007
    11  C    0.000015   0.000000   0.000001   0.000000   0.000000  -0.000335
    12  C    0.000224   0.000007   0.000033   0.000000   0.000000  -0.008786
    13  C   -0.000015  -0.000004  -0.000007   0.000000   0.000000   0.004558
    14  C    0.000000   0.000000   0.000000   0.000000   0.000000  -0.000012
    15  H    0.000000   0.000000   0.000000   0.000000   0.000000   0.000000
    16  H    0.000000   0.000000   0.000000   0.000000   0.000000   0.000000
    17  H    0.000000   0.000000   0.000000   0.000000   0.000000   0.000002
    18  F   -0.000020   0.000000   0.000000   0.000000   0.000000  -0.000013
    19  F   -0.000001   0.000000  -0.000003   0.000000   0.000000   0.006447
    20  H   -0.000072  -0.000014   0.000002   0.000000  -0.000022  -0.000003
    21  H   -0.000281   0.000533  -0.000017  -0.000025   0.000659   0.000002
    22  H    0.005479   0.000080  -0.000002   0.000001  -0.000016   0.000018
    23  H    0.006191   0.003351  -0.000001  -0.000134   0.002475   0.005392
    24  H   -0.005090   0.000049  -0.000015   0.000001  -0.000056  -0.000110
    25  H   -0.003456  -0.039465   0.006017  -0.004561  -0.003592  -0.000106
    26  H   -0.000029  -0.009053  -0.000645   0.004574  -0.000125   0.000016
    27  H    0.006581   0.007340   0.000416  -0.000083  -0.000144  -0.000036
    28  H   -0.000485  -0.001054   0.000509   0.000036  -0.000045  -0.002789
    29  H   -0.000646  -0.000009   0.000012   0.000000   0.000002  -0.005991
    30  H    0.006627   0.000002  -0.000008   0.000000  -0.000001   0.006316
    31  H    0.649227   0.005579   0.000017  -0.000154  -0.000020   0.006717
    32  C    0.005579   4.971038   0.382456   0.380453   0.378571   0.003542
    33  H    0.000017   0.382456   0.597770  -0.030527  -0.032117   0.000681
    34  H   -0.000154   0.380453  -0.030527   0.603055  -0.030697  -0.000092
    35  H   -0.000020   0.378571  -0.032117  -0.030697   0.612524   0.000000
    36  H    0.006717   0.003542   0.000681  -0.000092   0.000000   0.475756
 Mulliken charges:
               1
     1  C   -0.328170
     2  C   -0.187784
     3  C    0.083649
     4  C   -0.093795
     5  C    0.075006
     6  O   -0.593221
     7  N   -0.554502
     8  C   -0.078609
     9  C   -0.099156
    10  C   -0.138992
    11  C    0.323343
    12  C   -0.032803
    13  C    0.324056
    14  C   -0.138306
    15  H    0.119115
    16  H    0.118996
    17  H    0.118363
    18  F   -0.297188
    19  F   -0.302423
    20  H    0.106464
    21  H    0.113345
    22  H    0.107756
    23  H    0.098925
    24  H    0.100569
    25  H    0.091613
    26  H    0.087400
    27  H    0.066249
    28  H    0.322480
    29  H    0.111343
    30  H    0.127471
    31  H    0.094976
    32  C   -0.325134
    33  H    0.111045
    34  H    0.105511
    35  H    0.102653
    36  H    0.259756
 Sum of Mulliken charges =   0.00000
 Mulliken charges with hydrogens summed into heavy atoms:
               1
     1  C   -0.000605
     2  C    0.011710
     3  C    0.178625
     4  C   -0.002182
     5  C    0.228654
     6  O   -0.270741
     7  N   -0.294746
     8  C    0.160206
     9  C    0.019959
    10  C   -0.019996
    11  C    0.323343
    12  C   -0.032803
    13  C    0.324056
    14  C   -0.019943
    18  F   -0.297188
    19  F   -0.302423
    32  C   -0.005925
 Electronic spatial extent (au):  <R**2>=           5026.4519
 Charge=              0.0000 electrons
 Dipole moment (field-independent basis, Debye):
    X=              1.0026    Y=             -3.3827    Z=             -0.8901  Tot=              3.6387
 Quadrupole moment (field-independent basis, Debye-Ang):
   XX=            -83.3868   YY=           -110.7386   ZZ=           -101.3610
   XY=              3.8577   XZ=              5.4164   YZ=             -3.3614
 Traceless Quadrupole moment (field-independent basis, Debye-Ang):
   XX=             15.1086   YY=            -12.2431   ZZ=             -2.8655
   XY=              3.8577   XZ=              5.4164   YZ=             -3.3614
 Octapole moment (field-independent basis, Debye-Ang**2):
  XXX=             66.9776  YYY=            -20.4731  ZZZ=             -4.4734  XYY=             11.4754
  XXY=             11.5251  XXZ=             17.5940  XZZ=              5.8786  YZZ=             -7.8155
  YYZ=            -10.5662  XYZ=             -0.5001
 Hexadecapole moment (field-independent basis, Debye-Ang**3):
 XXXX=          -4260.5774 YYYY=          -1334.6421 ZZZZ=           -662.3724 XXXY=             13.7428
 XXXZ=             68.5158 YYYX=             26.5235 YYYZ=            -52.5609 ZZZX=             -0.5546
 ZZZY=            -37.3522 XXYY=           -945.6031 XXZZ=           -878.5542 YYZZ=           -330.4617
 XXYZ=            -36.0908 YYXZ=              9.1090 ZZXY=            -14.4180
 N-N= 1.274727161450D+03 E-N=-4.503185973486D+03  KE= 8.290930573677D+02
 1\1\GINC-SWANNODE-0-0\FOpt\RB3LYP\6-31G(d,p)\C13H19F2N1O1\ROOT\06-Mar-
 2019\0\\# b3lyp/6-31g(d,p) Opt=(maxcycles=50) scrf=(solvent=chloroform
 )\\AT3_2ginp001\\0,1\C,-0.8063544802,-1.7927844146,0.3433973561\C,-2.2
 699694301,-1.3389879546,0.3961357341\C,-2.8598749581,-1.2194987905,1.8
 176053678\C,-2.1297920268,-0.1994818601,2.7320346034\C,-2.6513614214,-
 0.289441508,4.1806931619\O,-3.9791586633,0.1879160274,4.3360972028\N,-
 4.3188660281,-0.9302271457,1.813442647\C,-5.1755197509,-2.0619195173,1
 .4153256587\C,-9.3625433899,-0.9713788114,1.6848257854\C,-8.7785079258
 ,-1.7149957464,2.7108786252\C,-7.4339656145,-2.0511042182,2.603772287\
 C,-6.6361394637,-1.6930140737,1.5155014542\C,-7.2745635262,-0.94480525
 14,0.525005598\C,-8.6118641821,-0.5757438697,0.576043573\H,-10.4098746
 795,-0.6961286295,1.7501849096\H,-9.3407445946,-2.0310790693,3.5818170
 827\H,-9.040781244,0.0058751065,-0.2315690548\F,-6.8672088814,-2.77078
 76177,3.598537804\F,-6.5295618067,-0.5567488741,-0.5401962004\H,-0.489
 4695501,-1.9551640224,-0.6915943265\H,-0.1294339669,-1.0525647302,0.78
 05054458\H,-0.6641217371,-2.7351670021,0.8846375209\H,-2.3786471783,-0
 .378674204,-0.1242049659\H,-2.876877542,-2.0571523165,-0.1676399797\H,
 -1.077575253,-0.511828216,2.7697966936\H,-2.0120911483,0.3177364605,4.
 8339077206\H,-2.5600902562,-1.3350469041,4.5257960079\H,-4.4592101174,
 -0.2081654404,3.5759843558\H,-4.9711339235,-2.415689759,0.3951254771\H
 ,-4.9707686633,-2.8912220239,2.0963027948\H,-2.7565917494,-2.200664195
 ,2.3033264613\C,-2.181720294,1.2476504065,2.2180468338\H,-3.2063794449
 ,1.6305995732,2.210615606\H,-1.5997703816,1.9015050391,2.8760389599\H,
 -1.7686333582,1.3440600699,1.2095706598\H,-4.5030093684,-0.1516205174,
 1.182347139\\Version=EM64L-G09RevD.01\State=1-A\HF=-836.5009525\RMSD=5
 .768e-09\RMSF=5.442e-06\Dipole=-0.2634727,-0.5006626,-1.3150385\Quadru
 pole=12.2686554,-3.430662,-8.8379934,-2.0984268,-1.0443604,-3.4321835\
 PG=C01 [X(C13H19F2N1O1)]\\@


 THE MOST INCOMPREHENSIBLE THING ABOUT THE WORLD
 IS THAT IT IS COMPREHENSIBLE. -- A. EINSTEIN
 Job cpu time:       0 days  2 hours 12 minutes 43.5 seconds.
 File lengths (MBytes):  RWF=    284 Int=      0 D2E=      0 Chk=     13 Scr=      1
 Normal termination of Gaussian 09 at Wed Mar  6 12:04:49 2019.
