 Entering Gaussian System, Link 0=/usr/local/shared/gaussian/em64t/09-D01/g09/g09
 Initial command:
 /usr/local/shared/gaussian/em64t/09-D01/g09/l1.exe "/scratch/ke291/AT3_1ginp012/Gau-18852.inp" -scrdir="/scratch/ke291/AT3_1ginp012/"
 Entering Link 1 = /usr/local/shared/gaussian/em64t/09-D01/g09/l1.exe PID=     18858.
  
 Copyright (c) 1988,1990,1992,1993,1995,1998,2003,2009,2013,
            Gaussian, Inc.  All Rights Reserved.
  
 This is part of the Gaussian(R) 09 program.  It is based on
 the Gaussian(R) 03 system (copyright 2003, Gaussian, Inc.),
 the Gaussian(R) 98 system (copyright 1998, Gaussian, Inc.),
 the Gaussian(R) 94 system (copyright 1995, Gaussian, Inc.),
 the Gaussian 92(TM) system (copyright 1992, Gaussian, Inc.),
 the Gaussian 90(TM) system (copyright 1990, Gaussian, Inc.),
 the Gaussian 88(TM) system (copyright 1988, Gaussian, Inc.),
 the Gaussian 86(TM) system (copyright 1986, Carnegie Mellon
 University), and the Gaussian 82(TM) system (copyright 1983,
 Carnegie Mellon University). Gaussian is a federally registered
 trademark of Gaussian, Inc.
  
 This software contains proprietary and confidential information,
 including trade secrets, belonging to Gaussian, Inc.
  
 This software is provided under written license and may be
 used, copied, transmitted, or stored only in accord with that
 written license.
  
 The following legend is applicable only to US Government
 contracts under FAR:
  
                    RESTRICTED RIGHTS LEGEND
  
 Use, reproduction and disclosure by the US Government is
 subject to restrictions as set forth in subparagraphs (a)
 and (c) of the Commercial Computer Software - Restricted
 Rights clause in FAR 52.227-19.
  
 Gaussian, Inc.
 340 Quinnipiac St., Bldg. 40, Wallingford CT 06492
  
  
 ---------------------------------------------------------------
 Warning -- This program may not be used in any manner that
 competes with the business of Gaussian, Inc. or will provide
 assistance to any competitor of Gaussian, Inc.  The licensee
 of this program is prohibited from giving any competitor of
 Gaussian, Inc. access to this program.  By using this program,
 the user acknowledges that Gaussian, Inc. is engaged in the
 business of creating and licensing software in the field of
 computational chemistry and represents and warrants to the
 licensee that it is not a competitor of Gaussian, Inc. and that
 it will not use this program in any manner prohibited above.
 ---------------------------------------------------------------
  

 Cite this work as:
 Gaussian 09, Revision D.01,
 M. J. Frisch, G. W. Trucks, H. B. Schlegel, G. E. Scuseria, 
 M. A. Robb, J. R. Cheeseman, G. Scalmani, V. Barone, B. Mennucci, 
 G. A. Petersson, H. Nakatsuji, M. Caricato, X. Li, H. P. Hratchian, 
 A. F. Izmaylov, J. Bloino, G. Zheng, J. L. Sonnenberg, M. Hada, 
 M. Ehara, K. Toyota, R. Fukuda, J. Hasegawa, M. Ishida, T. Nakajima, 
 Y. Honda, O. Kitao, H. Nakai, T. Vreven, J. A. Montgomery, Jr., 
 J. E. Peralta, F. Ogliaro, M. Bearpark, J. J. Heyd, E. Brothers, 
 K. N. Kudin, V. N. Staroverov, T. Keith, R. Kobayashi, J. Normand, 
 K. Raghavachari, A. Rendell, J. C. Burant, S. S. Iyengar, J. Tomasi, 
 M. Cossi, N. Rega, J. M. Millam, M. Klene, J. E. Knox, J. B. Cross, 
 V. Bakken, C. Adamo, J. Jaramillo, R. Gomperts, R. E. Stratmann, 
 O. Yazyev, A. J. Austin, R. Cammi, C. Pomelli, J. W. Ochterski, 
 R. L. Martin, K. Morokuma, V. G. Zakrzewski, G. A. Voth, 
 P. Salvador, J. J. Dannenberg, S. Dapprich, A. D. Daniels, 
 O. Farkas, J. B. Foresman, J. V. Ortiz, J. Cioslowski, 
 and D. J. Fox, Gaussian, Inc., Wallingford CT, 2013.
 
 ******************************************
 Gaussian 09:  EM64L-G09RevD.01 24-Apr-2013
                 6-Mar-2019 
 ******************************************
 %nprocshared=2
 Will use up to    2 processors via shared memory.
 %mem=6000MB
 %chk=AT3_1ginp012.chk
 ---------------------------------------------------------------
 # b3lyp/6-31g(d,p) Opt=(maxcycles=50) scrf=(solvent=chloroform)
 ---------------------------------------------------------------
 1/6=50,14=-1,18=20,19=15,26=3,38=1/1,3;
 2/9=110,12=2,17=6,18=5,40=1/2;
 3/5=1,6=6,7=101,11=2,16=1,25=1,30=1,70=2201,71=1,72=7,74=-5/1,2,3;
 4//1;
 5/5=2,38=5,53=7/2;
 6/7=2,8=2,9=2,10=2,28=1/1;
 7//1,2,3,16;
 1/6=50,14=-1,18=20,19=15,26=3/3(2);
 2/9=110/2;
 99//99;
 2/9=110/2;
 3/5=1,6=6,7=101,11=2,16=1,25=1,30=1,70=2205,71=1,72=7,74=-5/1,2,3;
 4/5=5,16=3,69=1/1;
 5/5=2,38=5,53=7/2;
 7//1,2,3,16;
 1/6=50,14=-1,18=20,19=15,26=3/3(-5);
 2/9=110/2;
 6/7=2,8=2,9=2,10=2,19=2,28=1/1;
 99/9=1/99;
 ------------
 AT3_1ginp012
 ------------
 Symbolic Z-matrix:
 Charge =  0 Multiplicity = 1
 C                    -2.58617   0.14083   1.58996 
 C                    -1.26864   0.74561   1.12118 
 C                    -0.19273   0.86456   2.2293 
 C                    -0.69829   1.63042   3.49195 
 C                    -1.06451   3.09369   3.20456 
 O                    -1.65159   3.67957   4.36436 
 N                     1.02854   1.50087   1.69247 
 C                     1.77039   0.64202   0.76187 
 C                     5.45256   2.54624  -0.46035 
 C                     4.34756   2.54698  -1.31035 
 C                     3.16261   1.92825  -0.91143 
 C                     3.05159   1.29797   0.32875 
 C                     4.16908   1.31154   1.16593 
 C                     5.36144   1.92521   0.78401 
 H                     6.37774   3.02832  -0.76545 
 H                     4.3974    3.02643  -2.28353 
 H                     6.20941   1.91603   1.46229 
 F                     2.12089   1.94006  -1.75559 
 F                     4.10466   0.72642   2.37114 
 H                    -3.23314  -0.05751   0.72902 
 H                    -2.42083  -0.80583   2.11365 
 H                    -3.129     0.81998   2.25346 
 H                    -0.8967    0.10071   0.31685 
 H                    -1.46463   1.72261   0.66373 
 H                    -1.59884   1.1258    3.86446 
 H                    -1.79636   3.17034   2.39601 
 H                    -0.18133   3.68245   2.93612 
 H                    -1.84463   4.60652   4.14192 
 H                     2.00977  -0.32058   1.23153 
 H                     1.17318   0.41696  -0.12747 
 H                     0.05908  -0.15267   2.56033 
 C                     0.30502   1.54582   4.65617 
 H                     1.19276   2.16151   4.4811 
 H                    -0.15417   1.89286   5.58828 
 H                     0.62847   0.51215   4.81756 
 H                     1.65993   1.7095    2.46668 
 

 GradGradGradGradGradGradGradGradGradGradGradGradGradGradGradGradGradGrad
 Berny optimization.
 Initialization pass.
                           ----------------------------
                           !    Initial Parameters    !
                           ! (Angstroms and Degrees)  !
 --------------------------                            --------------------------
 ! Name  Definition              Value          Derivative Info.                !
 --------------------------------------------------------------------------------
 ! R1    R(1,2)                  1.5236         estimate D2E/DX2                !
 ! R2    R(1,20)                 1.095          estimate D2E/DX2                !
 ! R3    R(1,21)                 1.0944         estimate D2E/DX2                !
 ! R4    R(1,22)                 1.0937         estimate D2E/DX2                !
 ! R5    R(2,3)                  1.5491         estimate D2E/DX2                !
 ! R6    R(2,23)                 1.096          estimate D2E/DX2                !
 ! R7    R(2,24)                 1.0964         estimate D2E/DX2                !
 ! R8    R(3,4)                  1.5609         estimate D2E/DX2                !
 ! R9    R(3,7)                  1.478          estimate D2E/DX2                !
 ! R10   R(3,31)                 1.099          estimate D2E/DX2                !
 ! R11   R(4,5)                  1.5355         estimate D2E/DX2                !
 ! R12   R(4,25)                 1.0974         estimate D2E/DX2                !
 ! R13   R(4,32)                 1.5392         estimate D2E/DX2                !
 ! R14   R(5,6)                  1.4259         estimate D2E/DX2                !
 ! R15   R(5,26)                 1.0933         estimate D2E/DX2                !
 ! R16   R(5,27)                 1.0949         estimate D2E/DX2                !
 ! R17   R(6,28)                 0.9726         estimate D2E/DX2                !
 ! R18   R(7,8)                  1.4676         estimate D2E/DX2                !
 ! R19   R(7,36)                 1.0206         estimate D2E/DX2                !
 ! R20   R(8,12)                 1.5031         estimate D2E/DX2                !
 ! R21   R(8,29)                 1.0975         estimate D2E/DX2                !
 ! R22   R(8,30)                 1.0946         estimate D2E/DX2                !
 ! R23   R(9,10)                 1.3941         estimate D2E/DX2                !
 ! R24   R(9,14)                 1.3937         estimate D2E/DX2                !
 ! R25   R(9,15)                 1.0869         estimate D2E/DX2                !
 ! R26   R(10,11)                1.395          estimate D2E/DX2                !
 ! R27   R(10,16)                1.086          estimate D2E/DX2                !
 ! R28   R(11,12)                1.3956         estimate D2E/DX2                !
 ! R29   R(11,18)                1.3409         estimate D2E/DX2                !
 ! R30   R(12,13)                1.3964         estimate D2E/DX2                !
 ! R31   R(13,14)                1.3943         estimate D2E/DX2                !
 ! R32   R(13,19)                1.3413         estimate D2E/DX2                !
 ! R33   R(14,17)                1.0859         estimate D2E/DX2                !
 ! R34   R(32,33)                1.0944         estimate D2E/DX2                !
 ! R35   R(32,34)                1.0955         estimate D2E/DX2                !
 ! R36   R(32,35)                1.0951         estimate D2E/DX2                !
 ! A1    A(2,1,20)             109.9313         estimate D2E/DX2                !
 ! A2    A(2,1,21)             111.0956         estimate D2E/DX2                !
 ! A3    A(2,1,22)             111.6767         estimate D2E/DX2                !
 ! A4    A(20,1,21)            107.9873         estimate D2E/DX2                !
 ! A5    A(20,1,22)            107.2297         estimate D2E/DX2                !
 ! A6    A(21,1,22)            108.7732         estimate D2E/DX2                !
 ! A7    A(1,2,3)              114.2668         estimate D2E/DX2                !
 ! A8    A(1,2,23)             106.6007         estimate D2E/DX2                !
 ! A9    A(1,2,24)             109.1164         estimate D2E/DX2                !
 ! A10   A(3,2,23)             109.5396         estimate D2E/DX2                !
 ! A11   A(3,2,24)             110.7425         estimate D2E/DX2                !
 ! A12   A(23,2,24)            106.1886         estimate D2E/DX2                !
 ! A13   A(2,3,4)              113.0401         estimate D2E/DX2                !
 ! A14   A(2,3,7)              110.3121         estimate D2E/DX2                !
 ! A15   A(2,3,31)             107.6704         estimate D2E/DX2                !
 ! A16   A(4,3,7)              110.4997         estimate D2E/DX2                !
 ! A17   A(4,3,31)             106.5412         estimate D2E/DX2                !
 ! A18   A(7,3,31)             108.5758         estimate D2E/DX2                !
 ! A19   A(3,4,5)              113.1669         estimate D2E/DX2                !
 ! A20   A(3,4,25)             108.3456         estimate D2E/DX2                !
 ! A21   A(3,4,32)             111.9475         estimate D2E/DX2                !
 ! A22   A(5,4,25)             107.8181         estimate D2E/DX2                !
 ! A23   A(5,4,32)             110.4502         estimate D2E/DX2                !
 ! A24   A(25,4,32)            104.6476         estimate D2E/DX2                !
 ! A25   A(4,5,6)              109.7263         estimate D2E/DX2                !
 ! A26   A(4,5,26)             111.4002         estimate D2E/DX2                !
 ! A27   A(4,5,27)             111.4664         estimate D2E/DX2                !
 ! A28   A(6,5,26)             107.2858         estimate D2E/DX2                !
 ! A29   A(6,5,27)             108.0955         estimate D2E/DX2                !
 ! A30   A(26,5,27)            108.7208         estimate D2E/DX2                !
 ! A31   A(5,6,28)             106.6969         estimate D2E/DX2                !
 ! A32   A(3,7,8)              113.3302         estimate D2E/DX2                !
 ! A33   A(3,7,36)             108.885          estimate D2E/DX2                !
 ! A34   A(8,7,36)             106.7339         estimate D2E/DX2                !
 ! A35   A(7,8,12)             110.988          estimate D2E/DX2                !
 ! A36   A(7,8,29)             110.6199         estimate D2E/DX2                !
 ! A37   A(7,8,30)             111.0821         estimate D2E/DX2                !
 ! A38   A(12,8,29)            108.6724         estimate D2E/DX2                !
 ! A39   A(12,8,30)            108.7022         estimate D2E/DX2                !
 ! A40   A(29,8,30)            106.6395         estimate D2E/DX2                !
 ! A41   A(10,9,14)            119.5243         estimate D2E/DX2                !
 ! A42   A(10,9,15)            120.2176         estimate D2E/DX2                !
 ! A43   A(14,9,15)            120.258          estimate D2E/DX2                !
 ! A44   A(9,10,11)            119.9127         estimate D2E/DX2                !
 ! A45   A(9,10,16)            120.6782         estimate D2E/DX2                !
 ! A46   A(11,10,16)           119.4091         estimate D2E/DX2                !
 ! A47   A(10,11,12)           121.4666         estimate D2E/DX2                !
 ! A48   A(10,11,18)           118.4228         estimate D2E/DX2                !
 ! A49   A(12,11,18)           120.1084         estimate D2E/DX2                !
 ! A50   A(8,12,11)            121.3966         estimate D2E/DX2                !
 ! A51   A(8,12,13)            120.9051         estimate D2E/DX2                !
 ! A52   A(11,12,13)           117.693          estimate D2E/DX2                !
 ! A53   A(12,13,14)           121.6287         estimate D2E/DX2                !
 ! A54   A(12,13,19)           119.7383         estimate D2E/DX2                !
 ! A55   A(14,13,19)           118.6327         estimate D2E/DX2                !
 ! A56   A(9,14,13)            119.774          estimate D2E/DX2                !
 ! A57   A(9,14,17)            120.6908         estimate D2E/DX2                !
 ! A58   A(13,14,17)           119.535          estimate D2E/DX2                !
 ! A59   A(4,32,33)            112.1362         estimate D2E/DX2                !
 ! A60   A(4,32,34)            110.6667         estimate D2E/DX2                !
 ! A61   A(4,32,35)            110.8477         estimate D2E/DX2                !
 ! A62   A(33,32,34)           107.3309         estimate D2E/DX2                !
 ! A63   A(33,32,35)           108.3616         estimate D2E/DX2                !
 ! A64   A(34,32,35)           107.304          estimate D2E/DX2                !
 ! D1    D(20,1,2,3)          -171.0337         estimate D2E/DX2                !
 ! D2    D(20,1,2,23)          -49.887          estimate D2E/DX2                !
 ! D3    D(20,1,2,24)           64.3956         estimate D2E/DX2                !
 ! D4    D(21,1,2,3)           -51.5638         estimate D2E/DX2                !
 ! D5    D(21,1,2,23)           69.5829         estimate D2E/DX2                !
 ! D6    D(21,1,2,24)         -176.1345         estimate D2E/DX2                !
 ! D7    D(22,1,2,3)            70.0727         estimate D2E/DX2                !
 ! D8    D(22,1,2,23)         -168.7805         estimate D2E/DX2                !
 ! D9    D(22,1,2,24)          -54.498          estimate D2E/DX2                !
 ! D10   D(1,2,3,4)            -53.8346         estimate D2E/DX2                !
 ! D11   D(1,2,3,7)           -178.1132         estimate D2E/DX2                !
 ! D12   D(1,2,3,31)            63.565          estimate D2E/DX2                !
 ! D13   D(23,2,3,4)          -173.3419         estimate D2E/DX2                !
 ! D14   D(23,2,3,7)            62.3794         estimate D2E/DX2                !
 ! D15   D(23,2,3,31)          -55.9423         estimate D2E/DX2                !
 ! D16   D(24,2,3,4)            69.8665         estimate D2E/DX2                !
 ! D17   D(24,2,3,7)           -54.4122         estimate D2E/DX2                !
 ! D18   D(24,2,3,31)         -172.7339         estimate D2E/DX2                !
 ! D19   D(2,3,4,5)            -63.2859         estimate D2E/DX2                !
 ! D20   D(2,3,4,25)            56.2227         estimate D2E/DX2                !
 ! D21   D(2,3,4,32)           171.111          estimate D2E/DX2                !
 ! D22   D(7,3,4,5)             60.8901         estimate D2E/DX2                !
 ! D23   D(7,3,4,25)          -179.6013         estimate D2E/DX2                !
 ! D24   D(7,3,4,32)           -64.7129         estimate D2E/DX2                !
 ! D25   D(31,3,4,5)           178.6534         estimate D2E/DX2                !
 ! D26   D(31,3,4,25)          -61.838          estimate D2E/DX2                !
 ! D27   D(31,3,4,32)           53.0504         estimate D2E/DX2                !
 ! D28   D(2,3,7,8)            -70.6784         estimate D2E/DX2                !
 ! D29   D(2,3,7,36)           170.7052         estimate D2E/DX2                !
 ! D30   D(4,3,7,8)            163.5941         estimate D2E/DX2                !
 ! D31   D(4,3,7,36)            44.9777         estimate D2E/DX2                !
 ! D32   D(31,3,7,8)            47.0871         estimate D2E/DX2                !
 ! D33   D(31,3,7,36)          -71.5293         estimate D2E/DX2                !
 ! D34   D(3,4,5,6)            173.6878         estimate D2E/DX2                !
 ! D35   D(3,4,5,26)            55.031          estimate D2E/DX2                !
 ! D36   D(3,4,5,27)           -66.6054         estimate D2E/DX2                !
 ! D37   D(25,4,5,6)            53.8768         estimate D2E/DX2                !
 ! D38   D(25,4,5,26)          -64.78           estimate D2E/DX2                !
 ! D39   D(25,4,5,27)          173.5836         estimate D2E/DX2                !
 ! D40   D(32,4,5,6)           -59.9099         estimate D2E/DX2                !
 ! D41   D(32,4,5,26)         -178.5666         estimate D2E/DX2                !
 ! D42   D(32,4,5,27)           59.7969         estimate D2E/DX2                !
 ! D43   D(3,4,32,33)           72.5992         estimate D2E/DX2                !
 ! D44   D(3,4,32,34)         -167.5887         estimate D2E/DX2                !
 ! D45   D(3,4,32,35)          -48.6538         estimate D2E/DX2                !
 ! D46   D(5,4,32,33)          -54.4816         estimate D2E/DX2                !
 ! D47   D(5,4,32,34)           65.3305         estimate D2E/DX2                !
 ! D48   D(5,4,32,35)         -175.7346         estimate D2E/DX2                !
 ! D49   D(25,4,32,33)        -170.2676         estimate D2E/DX2                !
 ! D50   D(25,4,32,34)         -50.4555         estimate D2E/DX2                !
 ! D51   D(25,4,32,35)          68.4794         estimate D2E/DX2                !
 ! D52   D(4,5,6,28)           178.6083         estimate D2E/DX2                !
 ! D53   D(26,5,6,28)          -60.2238         estimate D2E/DX2                !
 ! D54   D(27,5,6,28)           56.8615         estimate D2E/DX2                !
 ! D55   D(3,7,8,12)          -175.7667         estimate D2E/DX2                !
 ! D56   D(3,7,8,29)           -55.0547         estimate D2E/DX2                !
 ! D57   D(3,7,8,30)            63.1715         estimate D2E/DX2                !
 ! D58   D(36,7,8,12)          -55.9155         estimate D2E/DX2                !
 ! D59   D(36,7,8,29)           64.7966         estimate D2E/DX2                !
 ! D60   D(36,7,8,30)         -176.9773         estimate D2E/DX2                !
 ! D61   D(7,8,12,11)         -101.0543         estimate D2E/DX2                !
 ! D62   D(7,8,12,13)           78.0928         estimate D2E/DX2                !
 ! D63   D(29,8,12,11)         137.0893         estimate D2E/DX2                !
 ! D64   D(29,8,12,13)         -43.7636         estimate D2E/DX2                !
 ! D65   D(30,8,12,11)          21.3987         estimate D2E/DX2                !
 ! D66   D(30,8,12,13)        -159.4542         estimate D2E/DX2                !
 ! D67   D(14,9,10,11)          -0.014          estimate D2E/DX2                !
 ! D68   D(14,9,10,16)         179.9192         estimate D2E/DX2                !
 ! D69   D(15,9,10,11)        -179.8947         estimate D2E/DX2                !
 ! D70   D(15,9,10,16)           0.0386         estimate D2E/DX2                !
 ! D71   D(10,9,14,13)           0.0258         estimate D2E/DX2                !
 ! D72   D(10,9,14,17)        -179.8067         estimate D2E/DX2                !
 ! D73   D(15,9,14,13)         179.9064         estimate D2E/DX2                !
 ! D74   D(15,9,14,17)           0.0739         estimate D2E/DX2                !
 ! D75   D(9,10,11,12)          -0.1513         estimate D2E/DX2                !
 ! D76   D(9,10,11,18)        -179.6182         estimate D2E/DX2                !
 ! D77   D(16,10,11,12)        179.9146         estimate D2E/DX2                !
 ! D78   D(16,10,11,18)          0.4476         estimate D2E/DX2                !
 ! D79   D(10,11,12,8)         179.468          estimate D2E/DX2                !
 ! D80   D(10,11,12,13)          0.2944         estimate D2E/DX2                !
 ! D81   D(18,11,12,8)          -1.0739         estimate D2E/DX2                !
 ! D82   D(18,11,12,13)        179.7525         estimate D2E/DX2                !
 ! D83   D(8,12,13,14)        -179.4606         estimate D2E/DX2                !
 ! D84   D(8,12,13,19)           0.3424         estimate D2E/DX2                !
 ! D85   D(11,12,13,14)         -0.2828         estimate D2E/DX2                !
 ! D86   D(11,12,13,19)        179.5202         estimate D2E/DX2                !
 ! D87   D(12,13,14,9)           0.1273         estimate D2E/DX2                !
 ! D88   D(12,13,14,17)        179.9618         estimate D2E/DX2                !
 ! D89   D(19,13,14,9)        -179.6778         estimate D2E/DX2                !
 ! D90   D(19,13,14,17)          0.1567         estimate D2E/DX2                !
 --------------------------------------------------------------------------------
 Trust Radius=3.00D-01 FncErr=1.00D-07 GrdErr=1.00D-06
 Number of steps in this run=     50 maximum allowed number of steps=    216.
 GradGradGradGradGradGradGradGradGradGradGradGradGradGradGradGradGradGrad

                          Input orientation:                          
 ---------------------------------------------------------------------
 Center     Atomic      Atomic             Coordinates (Angstroms)
 Number     Number       Type             X           Y           Z
 ---------------------------------------------------------------------
      1          6           0       -2.586173    0.140832    1.589959
      2          6           0       -1.268642    0.745610    1.121175
      3          6           0       -0.192732    0.864564    2.229300
      4          6           0       -0.698294    1.630420    3.491947
      5          6           0       -1.064509    3.093685    3.204561
      6          8           0       -1.651592    3.679569    4.364356
      7          7           0        1.028539    1.500869    1.692472
      8          6           0        1.770386    0.642015    0.761867
      9          6           0        5.452562    2.546238   -0.460351
     10          6           0        4.347556    2.546979   -1.310352
     11          6           0        3.162606    1.928250   -0.911430
     12          6           0        3.051587    1.297974    0.328750
     13          6           0        4.169084    1.311538    1.165934
     14          6           0        5.361445    1.925214    0.784011
     15          1           0        6.377735    3.028321   -0.765447
     16          1           0        4.397401    3.026425   -2.283527
     17          1           0        6.209408    1.916028    1.462285
     18          9           0        2.120888    1.940056   -1.755590
     19          9           0        4.104658    0.726419    2.371139
     20          1           0       -3.233138   -0.057505    0.729022
     21          1           0       -2.420825   -0.805826    2.113653
     22          1           0       -3.129002    0.819980    2.253460
     23          1           0       -0.896700    0.100708    0.316846
     24          1           0       -1.464630    1.722606    0.663734
     25          1           0       -1.598839    1.125801    3.864455
     26          1           0       -1.796359    3.170336    2.396007
     27          1           0       -0.181333    3.682454    2.936124
     28          1           0       -1.844634    4.606521    4.141922
     29          1           0        2.009769   -0.320582    1.231530
     30          1           0        1.173183    0.416955   -0.127465
     31          1           0        0.059083   -0.152668    2.560334
     32          6           0        0.305018    1.545823    4.656171
     33          1           0        1.192755    2.161510    4.481098
     34          1           0       -0.154170    1.892863    5.588283
     35          1           0        0.628471    0.512145    4.817558
     36          1           0        1.659932    1.709504    2.466683
 ---------------------------------------------------------------------
                    Distance matrix (angstroms):
                    1          2          3          4          5
     1  C    0.000000
     2  C    1.523615   0.000000
     3  C    2.580912   1.549088   0.000000
     4  C    3.066026   2.593983   1.560899   0.000000
     5  C    3.693473   3.145731   2.584591   1.535529   0.000000
     6  O    4.592753   4.390101   3.822432   2.422578   1.425851
     7  N    3.863464   2.484721   1.478030   2.497368   3.033863
     8  C    4.462794   3.061948   2.461040   3.811123   4.473709
     9  C    8.637766   7.135690   6.475461   7.368338   7.496899
    10  C    7.891638   6.379572   5.997822   7.025864   7.069213
    11  C    6.519223   5.016580   4.717405   5.863871   6.013994
    12  C    5.891856   4.426898   3.784910   4.917107   5.332646
    13  C    6.869050   5.467279   4.511759   5.404016   5.892584
    14  C    8.185243   6.742640   5.836328   6.643813   6.965434
    15  H    9.707583   8.199829   7.537996   8.375543   8.435178
    16  H    8.491222   6.992722   6.790329   7.827582   7.743132
    17  H    8.973843   7.576771   6.533092   7.205376   7.571808
    18  F    6.048663   4.603411   4.731688   5.964923   6.006722
    19  F    6.761684   5.516804   4.301949   5.014158   5.746201
    20  H    1.095041   2.158245   3.513561   4.111968   4.556451
    21  H    1.094421   2.172439   2.787109   3.286655   4.270347
    22  H    1.093681   2.179114   2.936708   2.845875   3.215036
    23  H    2.115832   1.095986   2.176356   3.529965   4.162327
    24  H    2.148897   1.096442   2.192021   2.931648   2.914748
    25  H    2.668019   2.789115   2.172352   1.097444   2.143254
    26  H    3.232865   2.789799   2.813538   2.185903   1.093270
    27  H    4.487594   3.619576   2.905208   2.187929   1.094855
    28  H    5.196612   4.935921   4.515434   3.254803   1.943171
    29  H    4.632932   3.449192   2.692792   4.031067   5.000126
    30  H    4.142288   2.762178   2.760511   4.251478   4.824370
    31  H    2.832869   2.154283   1.098979   2.149634   3.495182
    32  C    4.442369   3.951322   2.569352   1.539224   2.525599
    33  H    5.169344   4.399128   2.944866   2.199214   2.755674
    34  H    4.997084   4.744817   3.513069   2.181644   2.820075
    35  H    4.570471   4.161345   2.738184   2.183595   3.483144
    36  H    4.610725   3.363931   2.050034   2.572674   3.143724
                    6          7          8          9         10
     6  O    0.000000
     7  N    4.366784   0.000000
     8  C    5.823624   1.467649   0.000000
     9  C    8.662058   5.029853   4.321840   0.000000
    10  C    8.335157   4.596430   3.816384   1.394109   0.000000
    11  C    7.353743   3.393700   2.528359   2.414390   1.395016
    12  C    6.639127   2.448189   1.503113   2.818781   2.434380
    13  C    7.051081   3.190002   2.522951   2.411763   2.773114
    14  C    8.067175   4.447409   3.813502   1.393704   2.408510
    15  H    9.550345   6.081807   5.408772   1.086937   2.156441
    16  H    9.011729   5.430020   4.675579   2.160536   1.086012
    17  H    8.563143   5.202571   4.671040   2.160211   3.398839
    18  F    7.396705   3.643521   2.854006   3.625624   2.350456
    19  F    6.769669   3.243897   2.836495   3.625731   4.114221
    20  H    5.448180   4.638821   5.052292   9.145243   8.270992
    21  H    5.077022   4.170893   4.635711   8.935998   8.293135
    22  H    3.849139   4.250113   5.124502   9.164495   8.460627
    23  H    5.455313   2.749426   2.757609   6.848195   6.011176
    24  H    4.190377   2.706171   3.412131   7.056166   6.193393
    25  H    2.602771   3.429475   4.605625   8.393083   8.009868
    26  H    2.038302   3.355910   4.667386   7.816338   7.202316
    27  H    2.049760   2.787431   4.216737   6.675912   6.311315
    28  H    0.972616   4.888763   6.341171   8.869879   8.503659
    29  H    6.262697   2.119661   1.097488   4.788940   4.488799
    30  H    6.229002   2.123196   1.094630   4.791424   4.001608
    31  H    4.568035   2.104095   2.606638   6.745239   6.376622
    32  C    2.909699   3.051068   4.257907   7.326448   7.276251
    33  H    3.226212   2.870514   4.058966   6.535433   6.606228
    34  H    2.632981   4.090208   5.344420   8.273350   8.263448
    35  H    3.928951   3.302089   4.215384   7.434091   7.451404
    36  H    4.295173   1.020582   2.014480   4.863301   4.710699
                   11         12         13         14         15
    11  C    0.000000
    12  C    1.395571   0.000000
    13  C    2.389304   1.396374   0.000000
    14  C    2.776585   2.436419   1.394341   0.000000
    15  H    3.401253   3.905717   3.399370   2.156504   0.000000
    16  H    2.147873   3.409215   3.858983   3.398799   2.495254
    17  H    3.862341   3.411558   2.148524   1.085901   2.495660
    18  F    1.340866   2.371275   3.622905   4.117160   4.503937
    19  F    3.620376   2.367908   1.341281   2.352785   4.505974
    20  H    6.894915   6.441685   7.540428   8.820491  10.204148
    21  H    6.913827   6.128552   6.986294   8.354056  10.020207
    22  H    7.129455   6.490968   7.395025   8.687262  10.216096
    23  H    4.618066   4.125840   5.277237   6.535399   7.915787
    24  H    4.892315   4.548488   5.670971   6.830140   8.077756
    25  H    6.791492   5.844426   6.370671   7.653349   9.417075
    26  H    6.088781   5.593020   6.368259   7.441977   8.765316
    27  H    5.390995   4.789146   5.261268   6.200151   7.559821
    28  H    7.601444   7.032762   7.475174   8.390027   9.704655
    29  H    3.313390   2.126057   2.707538   4.059262   5.855100
    30  H    2.618476   2.124318   3.383575   4.543916   5.857782
    31  H    5.100512   4.004923   4.580432   5.965564   7.816961
    32  C    6.269788   5.131437   5.212260   6.380048   8.274638
    33  H    5.745788   4.630653   4.535559   5.576940   7.427086
    34  H    7.297159   6.188171   6.211734   7.314649   9.182861
    35  H    6.422499   5.161242   5.148721   6.377092   8.399710
    36  H    3.703718   2.583954   2.854149   4.071746   5.868868
                   16         17         18         19         20
    16  H    0.000000
    17  H    4.306676   0.000000
    18  F    2.577097   5.203008   0.000000
    19  F    5.200158   2.582858   4.736892   0.000000
    20  H    8.764200   9.674409   6.231303   7.560049   0.000000
    21  H    8.972711   9.072689   6.567958   6.707906   1.771169
    22  H    9.060872   9.435740   6.699880   7.235222   1.762026
    23  H    6.584016   7.423220   4.096832   5.442905   2.377785
    24  H    6.689522   7.717898   4.330860   5.909703   2.510115
    25  H    8.795735   8.207533   6.788541   5.909262   3.728550
    26  H    7.764110   8.157048   5.839021   6.387124   3.906678
    27  H    6.974234   6.792204   5.508934   5.237086   5.307740
    28  H    9.096488   8.904314   7.590524   7.320173   5.943818
    29  H    5.409147   4.763679   3.747762   2.604511   5.273500
    30  H    4.674775   5.489817   2.422555   3.864238   4.513795
    31  H    7.238137   6.581163   5.220894   4.144305   3.768485
    32  C    8.191409   6.723078   6.675589   4.508887   5.523740
    33  H    7.535117   5.860060   6.309259   3.871769   6.212136
    34  H    9.163359   7.584163   7.688341   5.463353   6.074240
    35  H    8.423292   6.661501   6.890030   4.256143   5.652668
    36  H    5.638485   4.663604   4.253613   2.636716   5.484881
                   21         22         23         24         25
    21  H    0.000000
    22  H    1.778850   0.000000
    23  H    2.524535   3.041545   0.000000
    24  H    3.067498   2.472265   1.753120   0.000000
    25  H    2.733524   2.242817   3.758902   3.258651   0.000000
    26  H    4.034792   2.705629   3.815090   2.281827   2.524971
    27  H    5.082956   4.165158   4.494582   3.263681   3.067181
    28  H    5.808560   4.421966   5.985995   4.534221   3.500402
    29  H    4.543541   5.362107   3.075987   4.070437   4.695356
    30  H    4.408480   4.933561   2.140523   3.047750   4.911415
    31  H    2.603091   3.347253   2.451726   3.071717   2.466560
    32  C    4.407366   4.253512   4.728871   4.370636   2.104259
    33  H    5.240977   5.043774   5.094480   4.671895   3.040714
    34  H    4.949111   4.595840   5.617047   5.098772   2.376349
    35  H    4.283265   4.559382   4.769888   4.806302   2.499178
    36  H    4.806672   4.875511   3.707613   3.607448   3.593614
                   26         27         28         29         30
    26  H    0.000000
    27  H    1.778286   0.000000
    28  H    2.261234   2.252647   0.000000
    29  H    5.294254   4.871434   6.899503   0.000000
    30  H    4.771498   4.678010   6.699802   1.758040   0.000000
    31  H    3.809465   3.860982   5.364274   2.366240   2.964785
    32  C    3.487574   2.785730   3.775358   4.256502   4.991115
    33  H    3.781552   2.566775   3.913930   4.169890   4.927749
    34  H    3.810426   3.199581   3.509069   5.344461   6.050615
    35  H    4.337014   3.774445   4.830802   3.932050   4.975844
    36  H    3.752995   2.739190   4.845732   2.401924   2.938913
                   31         32         33         34         35
    31  H    0.000000
    32  C    2.708854   0.000000
    33  H    3.214027   1.094440   0.000000
    34  H    3.660348   1.095501   1.764153   0.000000
    35  H    2.421000   1.095061   1.775395   1.764349   0.000000
    36  H    2.457473   2.580008   2.116703   3.615103   2.832701
                   36
    36  H    0.000000
 Stoichiometry    C13H19F2NO
 Framework group  C1[X(C13H19F2NO)]
 Deg. of freedom   102
 Full point group                 C1      NOp   1
 Largest Abelian subgroup         C1      NOp   1
 Largest concise Abelian subgroup C1      NOp   1
                         Standard orientation:                         
 ---------------------------------------------------------------------
 Center     Atomic      Atomic             Coordinates (Angstroms)
 Number     Number       Type             X           Y           Z
 ---------------------------------------------------------------------
      1          6           0       -3.548389    2.229518   -0.982616
      2          6           0       -2.168263    1.836074   -0.470894
      3          6           0       -1.806193    0.346927   -0.696765
      4          6           0       -2.874903   -0.635436   -0.122979
      5          6           0       -3.024501   -0.541612    1.402362
      6          8           0       -4.113221   -1.356894    1.830211
      7          7           0       -0.473772    0.051131   -0.129553
      8          6           0        0.627702    0.658730   -0.885576
      9          6           0        4.442755   -0.562733    0.736677
     10          6           0        3.925606    0.697159    1.034617
     11          6           0        2.694962    1.086862    0.505734
     12          6           0        1.959054    0.241802   -0.326092
     13          6           0        2.493667   -1.016713   -0.609266
     14          6           0        3.721955   -1.423220   -0.089409
     15          1           0        5.400344   -0.872125    1.147447
     16          1           0        4.470820    1.382105    1.677279
     17          1           0        4.105441   -2.409937   -0.331295
     18          9           0        2.229417    2.308079    0.805434
     19          9           0        1.816253   -1.865575   -1.396398
     20          1           0       -3.668534    3.316862   -0.934011
     21          1           0       -3.685376    1.920555   -2.023544
     22          1           0       -4.344817    1.788189   -0.376753
     23          1           0       -1.446590    2.472454   -0.995672
     24          1           0       -2.091017    2.097736    0.591063
     25          1           0       -3.845966   -0.389768   -0.571384
     26          1           0       -3.240817    0.481961    1.719764
     27          1           0       -2.120348   -0.884983    1.915502
     28          1           0       -4.153899   -1.282803    2.799148
     29          1           0        0.581739    0.362120   -1.941222
     30          1           0        0.564492    1.751319   -0.863943
     31          1           0       -1.771492    0.172854   -1.781316
     32          6           0       -2.606510   -2.090101   -0.548566
     33          1           0       -1.745685   -2.520174   -0.027205
     34          1           0       -3.472224   -2.723778   -0.326949
     35          1           0       -2.423910   -2.153432   -1.626436
     36          1           0       -0.322673   -0.957998   -0.149975
 ---------------------------------------------------------------------
 Rotational constants (GHZ):      0.7092871      0.2316766      0.2065769
 Standard basis: 6-31G(d,p) (6D, 7F)
 There are   350 symmetry adapted cartesian basis functions of A   symmetry.
 There are   350 symmetry adapted basis functions of A   symmetry.
   350 basis functions,   609 primitive gaussians,   350 cartesian basis functions
    65 alpha electrons       65 beta electrons
       nuclear repulsion energy      1251.7902262634 Hartrees.
 NAtoms=   36 NActive=   36 NUniq=   36 SFac= 1.00D+00 NAtFMM=   60 NAOKFM=F Big=F
 Integral buffers will be    131072 words long.
 Raffenetti 2 integral format.
 Two-electron integral symmetry is turned on.
 ------------------------------------------------------------------------------
 Polarizable Continuum Model (PCM)
 =================================
 Model                : PCM (using non-symmetric T matrix).
 Atomic radii         : UFF (Universal Force Field).
 Polarization charges : Total charges.
 Charge compensation  : None.
 Solution method      : On-the-fly selection.
 Cavity type          : Scaled VdW (van der Waals Surface) (Alpha=1.100).
 Cavity algorithm     : GePol (No added spheres)
                        Default sphere list used, NSphG=   36.
                        Lebedev-Laikov grids with approx.  5.0 points / Ang**2.
                        Smoothing algorithm: Karplus/York (Gamma=1.0000).
                        Polarization charges: spherical gaussians, with
                                              point-specific exponents (IZeta= 3).
                        Self-potential: point-specific (ISelfS= 7).
                        Self-field    : sphere-specific E.n sum rule (ISelfD= 2).
 1st derivatives      : Analytical E(r).r(x)/FMM algorithm (CHGder, D1EAlg=3).
                        Cavity 1st derivative terms included.
 Solvent              : Chloroform, Eps=   4.711300 Eps(inf)=   2.090627
 ------------------------------------------------------------------------------
 One-electron integrals computed using PRISM.
 NBasis=   350 RedAO= T EigKep=  4.08D-04  NBF=   350
 NBsUse=   350 1.00D-06 EigRej= -1.00D+00 NBFU=   350
 ExpMin= 1.61D-01 ExpMax= 7.00D+03 ExpMxC= 1.05D+03 IAcc=1 IRadAn=         1 AccDes= 0.00D+00
 Harris functional with IExCor=  402 and IRadAn=       1 diagonalized for initial guess.
 HarFok:  IExCor=  402 AccDes= 0.00D+00 IRadAn=         1 IDoV= 1 UseB2=F ITyADJ=14
 ICtDFT=  3500011 ScaDFX=  1.000000  1.000000  1.000000  1.000000
 FoFCou: FMM=F IPFlag=           0 FMFlag=      100000 FMFlg1=           0
         NFxFlg=           0 DoJE=T BraDBF=F KetDBF=T FulRan=T
         wScrn=  0.000000 ICntrl=     500 IOpCl=  0 I1Cent=   200000004 NGrid=           0
         NMat0=    1 NMatS0=      1 NMatT0=    0 NMatD0=    1 NMtDS0=    0 NMtDT0=    0
 Petite list used in FoFCou.
 Requested convergence on RMS density matrix=1.00D-08 within 128 cycles.
 Requested convergence on MAX density matrix=1.00D-06.
 Requested convergence on             energy=1.00D-06.
 No special actions if energy rises.
 Inv3:  Mode=1 IEnd=    19111728.
 Iteration    1 A*A^-1 deviation from unit magnitude is 1.07D-14 for   2199.
 Iteration    1 A*A^-1 deviation from orthogonality  is 7.77D-15 for   2424    122.
 Iteration    1 A^-1*A deviation from unit magnitude is 7.77D-15 for   1212.
 Iteration    1 A^-1*A deviation from orthogonality  is 5.81D-13 for   1877   1852.
 Error on total polarization charges =  0.00757
 SCF Done:  E(RB3LYP) =  -836.486817368     A.U. after   12 cycles
            NFock= 12  Conv=0.57D-08     -V/T= 2.0089

 **********************************************************************

            Population analysis using the SCF density.

 **********************************************************************

 Orbital symmetries:
       Occupied  (A) (A) (A) (A) (A) (A) (A) (A) (A) (A) (A) (A)
                 (A) (A) (A) (A) (A) (A) (A) (A) (A) (A) (A) (A)
                 (A) (A) (A) (A) (A) (A) (A) (A) (A) (A) (A) (A)
                 (A) (A) (A) (A) (A) (A) (A) (A) (A) (A) (A) (A)
                 (A) (A) (A) (A) (A) (A) (A) (A) (A) (A) (A) (A)
                 (A) (A) (A) (A) (A)
       Virtual   (A) (A) (A) (A) (A) (A) (A) (A) (A) (A) (A) (A)
                 (A) (A) (A) (A) (A) (A) (A) (A) (A) (A) (A) (A)
                 (A) (A) (A) (A) (A) (A) (A) (A) (A) (A) (A) (A)
                 (A) (A) (A) (A) (A) (A) (A) (A) (A) (A) (A) (A)
                 (A) (A) (A) (A) (A) (A) (A) (A) (A) (A) (A) (A)
                 (A) (A) (A) (A) (A) (A) (A) (A) (A) (A) (A) (A)
                 (A) (A) (A) (A) (A) (A) (A) (A) (A) (A) (A) (A)
                 (A) (A) (A) (A) (A) (A) (A) (A) (A) (A) (A) (A)
                 (A) (A) (A) (A) (A) (A) (A) (A) (A) (A) (A) (A)
                 (A) (A) (A) (A) (A) (A) (A) (A) (A) (A) (A) (A)
                 (A) (A) (A) (A) (A) (A) (A) (A) (A) (A) (A) (A)
                 (A) (A) (A) (A) (A) (A) (A) (A) (A) (A) (A) (A)
                 (A) (A) (A) (A) (A) (A) (A) (A) (A) (A) (A) (A)
                 (A) (A) (A) (A) (A) (A) (A) (A) (A) (A) (A) (A)
                 (A) (A) (A) (A) (A) (A) (A) (A) (A) (A) (A) (A)
                 (A) (A) (A) (A) (A) (A) (A) (A) (A) (A) (A) (A)
                 (A) (A) (A) (A) (A) (A) (A) (A) (A) (A) (A) (A)
                 (A) (A) (A) (A) (A) (A) (A) (A) (A) (A) (A) (A)
                 (A) (A) (A) (A) (A) (A) (A) (A) (A) (A) (A) (A)
                 (A) (A) (A) (A) (A) (A) (A) (A) (A) (A) (A) (A)
                 (A) (A) (A) (A) (A) (A) (A) (A) (A) (A) (A) (A)
                 (A) (A) (A) (A) (A) (A) (A) (A) (A) (A) (A) (A)
                 (A) (A) (A) (A) (A) (A) (A) (A) (A) (A) (A) (A)
                 (A) (A) (A) (A) (A) (A) (A) (A) (A)
 The electronic state is 1-A.
 Alpha  occ. eigenvalues --  -24.72131 -24.71749 -19.13591 -14.31681 -10.28178
 Alpha  occ. eigenvalues --  -10.28132 -10.22026 -10.21474 -10.21103 -10.20804
 Alpha  occ. eigenvalues --  -10.20684 -10.19883 -10.19836 -10.18662 -10.17612
 Alpha  occ. eigenvalues --  -10.17103 -10.17010  -1.23472  -1.23100  -1.00731
 Alpha  occ. eigenvalues --   -0.90812  -0.86865  -0.80064  -0.76772  -0.75537
 Alpha  occ. eigenvalues --   -0.75334  -0.68645  -0.66990  -0.64800  -0.62959
 Alpha  occ. eigenvalues --   -0.61149  -0.59460  -0.56078  -0.54170  -0.53022
 Alpha  occ. eigenvalues --   -0.50911  -0.49291  -0.49207  -0.48300  -0.47056
 Alpha  occ. eigenvalues --   -0.46888  -0.46440  -0.45216  -0.44146  -0.44031
 Alpha  occ. eigenvalues --   -0.42144  -0.41922  -0.40429  -0.39988  -0.39063
 Alpha  occ. eigenvalues --   -0.38207  -0.37200  -0.36855  -0.35886  -0.35566
 Alpha  occ. eigenvalues --   -0.35361  -0.34807  -0.33795  -0.32009  -0.31012
 Alpha  occ. eigenvalues --   -0.30788  -0.25937  -0.25531  -0.24724  -0.22320
 Alpha virt. eigenvalues --   -0.01380  -0.00238   0.07473   0.08086   0.09185
 Alpha virt. eigenvalues --    0.09679   0.11550   0.12533   0.13988   0.14444
 Alpha virt. eigenvalues --    0.14757   0.15263   0.15664   0.16513   0.16914
 Alpha virt. eigenvalues --    0.16947   0.17663   0.18101   0.18954   0.19482
 Alpha virt. eigenvalues --    0.20799   0.21132   0.21586   0.22595   0.22905
 Alpha virt. eigenvalues --    0.23440   0.24383   0.25686   0.26511   0.28084
 Alpha virt. eigenvalues --    0.28189   0.28956   0.29115   0.30960   0.33494
 Alpha virt. eigenvalues --    0.37418   0.38524   0.46374   0.49404   0.49870
 Alpha virt. eigenvalues --    0.50167   0.50973   0.51653   0.52286   0.52858
 Alpha virt. eigenvalues --    0.53887   0.55038   0.55537   0.56787   0.57926
 Alpha virt. eigenvalues --    0.58412   0.58986   0.59470   0.59749   0.61084
 Alpha virt. eigenvalues --    0.62129   0.63170   0.64695   0.65238   0.65993
 Alpha virt. eigenvalues --    0.66347   0.66707   0.67966   0.69793   0.71393
 Alpha virt. eigenvalues --    0.72298   0.75603   0.76547   0.77564   0.79252
 Alpha virt. eigenvalues --    0.80487   0.81111   0.82020   0.83158   0.83796
 Alpha virt. eigenvalues --    0.84732   0.85113   0.85597   0.86177   0.87269
 Alpha virt. eigenvalues --    0.87613   0.88219   0.88927   0.89364   0.90684
 Alpha virt. eigenvalues --    0.90989   0.91865   0.92567   0.93616   0.94608
 Alpha virt. eigenvalues --    0.94903   0.95192   0.96449   0.97554   0.99407
 Alpha virt. eigenvalues --    1.00766   1.01385   1.03362   1.03939   1.04067
 Alpha virt. eigenvalues --    1.06602   1.09000   1.11099   1.12096   1.14731
 Alpha virt. eigenvalues --    1.20537   1.21122   1.21670   1.22166   1.22878
 Alpha virt. eigenvalues --    1.24515   1.26352   1.27260   1.31522   1.31565
 Alpha virt. eigenvalues --    1.35564   1.35871   1.37022   1.38379   1.39094
 Alpha virt. eigenvalues --    1.39295   1.41047   1.42393   1.42637   1.43698
 Alpha virt. eigenvalues --    1.45226   1.46360   1.50947   1.51916   1.53785
 Alpha virt. eigenvalues --    1.57244   1.57879   1.60465   1.64508   1.66318
 Alpha virt. eigenvalues --    1.68690   1.69015   1.71950   1.72836   1.74125
 Alpha virt. eigenvalues --    1.75654   1.76959   1.77857   1.79222   1.80693
 Alpha virt. eigenvalues --    1.81659   1.82392   1.83352   1.84641   1.85270
 Alpha virt. eigenvalues --    1.86722   1.87516   1.88723   1.89239   1.90088
 Alpha virt. eigenvalues --    1.90336   1.91846   1.93038   1.93904   1.95133
 Alpha virt. eigenvalues --    1.96254   1.97874   1.98048   1.98804   2.00462
 Alpha virt. eigenvalues --    2.01311   2.01776   2.02863   2.04965   2.05477
 Alpha virt. eigenvalues --    2.06061   2.06780   2.07508   2.09621   2.11203
 Alpha virt. eigenvalues --    2.12582   2.13402   2.14664   2.15496   2.18263
 Alpha virt. eigenvalues --    2.19098   2.19536   2.21894   2.22014   2.25242
 Alpha virt. eigenvalues --    2.27176   2.28320   2.29783   2.29908   2.30425
 Alpha virt. eigenvalues --    2.30883   2.31337   2.32206   2.34116   2.34951
 Alpha virt. eigenvalues --    2.35717   2.37371   2.37792   2.38083   2.38727
 Alpha virt. eigenvalues --    2.40949   2.44391   2.46934   2.48126   2.48547
 Alpha virt. eigenvalues --    2.48938   2.52506   2.53209   2.54066   2.55638
 Alpha virt. eigenvalues --    2.56245   2.57852   2.59839   2.61408   2.62964
 Alpha virt. eigenvalues --    2.64668   2.65762   2.66632   2.67725   2.69039
 Alpha virt. eigenvalues --    2.70480   2.72634   2.72988   2.74077   2.75209
 Alpha virt. eigenvalues --    2.75501   2.76690   2.77757   2.78381   2.82351
 Alpha virt. eigenvalues --    2.83785   2.84355   2.86126   2.87100   2.89719
 Alpha virt. eigenvalues --    2.90586   2.92267   2.93626   2.93987   2.96316
 Alpha virt. eigenvalues --    2.98654   3.00898   3.04423   3.05600   3.07093
 Alpha virt. eigenvalues --    3.10178   3.14817   3.20108   3.20354   3.21507
 Alpha virt. eigenvalues --    3.25692   3.29555   3.30987   3.32167   3.35378
 Alpha virt. eigenvalues --    3.35843   3.39234   3.39922   3.42437   3.44858
 Alpha virt. eigenvalues --    3.45626   3.46382   3.49282   3.51349   3.55106
 Alpha virt. eigenvalues --    3.55422   3.57357   3.80394   3.96383   4.07436
 Alpha virt. eigenvalues --    4.09455   4.11864   4.17306   4.32847   4.37724
 Alpha virt. eigenvalues --    4.40649   4.42622   4.52966   4.55281   4.59111
 Alpha virt. eigenvalues --    4.67378   4.74975   4.78648   5.49816   5.61451
          Condensed to atoms (all electrons):
               1          2          3          4          5          6
     1  C    4.937365   0.352467  -0.037593  -0.005291  -0.001104   0.000012
     2  C    0.352467   4.961636   0.366071  -0.033049  -0.008350  -0.000018
     3  C   -0.037593   0.366071   4.829398   0.356951  -0.035395   0.002001
     4  C   -0.005291  -0.033049   0.356951   4.999883   0.362747  -0.049474
     5  C   -0.001104  -0.008350  -0.035395   0.362747   4.748719   0.223102
     6  O    0.000012  -0.000018   0.002001  -0.049474   0.223102   8.186744
     7  N    0.003668  -0.059417   0.271023  -0.041284  -0.004626   0.000052
     8  C    0.000029  -0.004765  -0.031601   0.004434   0.000140  -0.000001
     9  C    0.000000   0.000000   0.000000   0.000000   0.000000   0.000000
    10  C    0.000000   0.000000   0.000003   0.000000   0.000000   0.000000
    11  C    0.000000   0.000014  -0.000106   0.000000   0.000000   0.000000
    12  C   -0.000002   0.000201   0.004181  -0.000151  -0.000012   0.000000
    13  C    0.000000  -0.000008   0.000480  -0.000027  -0.000001   0.000000
    14  C    0.000000   0.000000   0.000009   0.000000   0.000000   0.000000
    15  H    0.000000   0.000000   0.000000   0.000000   0.000000   0.000000
    16  H    0.000000   0.000000   0.000000   0.000000   0.000000   0.000000
    17  H    0.000000   0.000000   0.000000   0.000000   0.000000   0.000000
    18  F    0.000000  -0.000014   0.000014   0.000000   0.000000   0.000000
    19  F    0.000000   0.000000  -0.000027   0.000001   0.000000   0.000000
    20  H    0.379995  -0.027611   0.004093   0.000282  -0.000022   0.000000
    21  H    0.385909  -0.036892  -0.004854  -0.001740   0.000172   0.000000
    22  H    0.388261  -0.034105  -0.005392   0.001214   0.000817  -0.000027
    23  H   -0.039409   0.379674  -0.031512   0.004681   0.000096   0.000000
    24  H   -0.037642   0.374707  -0.031959  -0.009475   0.002830  -0.000049
    25  H    0.004270  -0.008783  -0.029450   0.375166  -0.041402   0.003270
    26  H    0.000022   0.002191  -0.002438  -0.042435   0.380095  -0.040427
    27  H    0.000107  -0.000879  -0.003108  -0.035055   0.370441  -0.040717
    28  H   -0.000001   0.000005  -0.000249   0.006129  -0.024461   0.284802
    29  H    0.000054  -0.001421  -0.008573   0.000104   0.000035   0.000000
    30  H   -0.000318   0.002766  -0.002678   0.000082  -0.000036   0.000000
    31  H   -0.000869  -0.059163   0.370578  -0.044465   0.006284  -0.000036
    32  C   -0.000009   0.005479  -0.035580   0.352283  -0.050193   0.001528
    33  H    0.000003  -0.000115  -0.005265  -0.033367  -0.006316  -0.000340
    34  H   -0.000001  -0.000115   0.004100  -0.027470  -0.004621   0.007527
    35  H   -0.000006   0.000065  -0.005174  -0.032472   0.005118   0.000129
    36  H   -0.000185   0.005974  -0.036436  -0.008439  -0.000673  -0.000042
               7          8          9         10         11         12
     1  C    0.003668   0.000029   0.000000   0.000000   0.000000  -0.000002
     2  C   -0.059417  -0.004765   0.000000   0.000000   0.000014   0.000201
     3  C    0.271023  -0.031601   0.000000   0.000003  -0.000106   0.004181
     4  C   -0.041284   0.004434   0.000000   0.000000   0.000000  -0.000151
     5  C   -0.004626   0.000140   0.000000   0.000000   0.000000  -0.000012
     6  O    0.000052  -0.000001   0.000000   0.000000   0.000000   0.000000
     7  N    6.952910   0.281890   0.000028  -0.000057   0.004624  -0.041665
     8  C    0.281890   4.931376  -0.000568   0.008134  -0.047750   0.304475
     9  C    0.000028  -0.000568   4.852321   0.486249  -0.008555  -0.028188
    10  C   -0.000057   0.008134   0.486249   5.053793   0.472600  -0.070787
    11  C    0.004624  -0.047750  -0.008555   0.472600   4.592561   0.413092
    12  C   -0.041665   0.304475  -0.028188  -0.070787   0.413092   5.317361
    13  C   -0.007164  -0.049877  -0.010358  -0.048806   0.014937   0.388178
    14  C   -0.000155   0.008746   0.489253  -0.031905  -0.050295  -0.075284
    15  H    0.000000   0.000004   0.375429  -0.034413   0.003634   0.000204
    16  H    0.000001  -0.000145  -0.037361   0.358988  -0.032513   0.006387
    17  H    0.000001  -0.000155  -0.037110   0.004678   0.000489   0.006461
    18  F   -0.000242  -0.003785   0.003043  -0.046487   0.308944  -0.051834
    19  F   -0.002732   0.003761   0.002945  -0.000069   0.002402  -0.058581
    20  H   -0.000091   0.000001   0.000000   0.000000   0.000000   0.000000
    21  H    0.000032  -0.000017   0.000000   0.000000   0.000000   0.000000
    22  H   -0.000014   0.000001   0.000000   0.000000   0.000000   0.000000
    23  H   -0.003235   0.001046   0.000000  -0.000001   0.000006   0.000037
    24  H    0.003115  -0.000379   0.000000   0.000000   0.000014  -0.000078
    25  H    0.003802  -0.000138   0.000000   0.000000   0.000000   0.000003
    26  H   -0.000403  -0.000028   0.000000   0.000000   0.000000   0.000000
    27  H    0.009126  -0.000125   0.000000   0.000000   0.000003   0.000030
    28  H    0.000006   0.000000   0.000000   0.000000   0.000000   0.000000
    29  H   -0.051581   0.351584  -0.000016  -0.000176   0.005668  -0.031766
    30  H   -0.043518   0.373752  -0.000033   0.000426  -0.009471  -0.027513
    31  H   -0.057254  -0.010844   0.000000   0.000000   0.000017   0.000234
    32  C   -0.004800   0.000272   0.000000   0.000000   0.000000  -0.000005
    33  H    0.000227  -0.000168   0.000000   0.000000   0.000000   0.000033
    34  H    0.000173   0.000004   0.000000   0.000000   0.000000   0.000000
    35  H   -0.000843  -0.000083   0.000000   0.000000   0.000000  -0.000003
    36  H    0.325436  -0.038158  -0.000024  -0.000002  -0.000272  -0.010370
              13         14         15         16         17         18
     1  C    0.000000   0.000000   0.000000   0.000000   0.000000   0.000000
     2  C   -0.000008   0.000000   0.000000   0.000000   0.000000  -0.000014
     3  C    0.000480   0.000009   0.000000   0.000000   0.000000   0.000014
     4  C   -0.000027   0.000000   0.000000   0.000000   0.000000   0.000000
     5  C   -0.000001   0.000000   0.000000   0.000000   0.000000   0.000000
     6  O    0.000000   0.000000   0.000000   0.000000   0.000000   0.000000
     7  N   -0.007164  -0.000155   0.000000   0.000001   0.000001  -0.000242
     8  C   -0.049877   0.008746   0.000004  -0.000145  -0.000155  -0.003785
     9  C   -0.010358   0.489253   0.375429  -0.037361  -0.037110   0.003043
    10  C   -0.048806  -0.031905  -0.034413   0.358988   0.004678  -0.046487
    11  C    0.014937  -0.050295   0.003634  -0.032513   0.000489   0.308944
    12  C    0.388178  -0.075284   0.000204   0.006387   0.006461  -0.051834
    13  C    4.624960   0.478495   0.003673   0.000483  -0.032533   0.002538
    14  C    0.478495   5.052249  -0.034884   0.004722   0.358549  -0.000050
    15  H    0.003673  -0.034884   0.580848  -0.005919  -0.005953  -0.000023
    16  H    0.000483   0.004722  -0.005919   0.594070  -0.000151  -0.000503
    17  H   -0.032533   0.358549  -0.005953  -0.000151   0.593890   0.000001
    18  F    0.002538  -0.000050  -0.000023  -0.000503   0.000001   9.065929
    19  F    0.306000  -0.047380  -0.000023   0.000001  -0.000338   0.000000
    20  H    0.000000   0.000000   0.000000   0.000000   0.000000   0.000000
    21  H    0.000000   0.000000   0.000000   0.000000   0.000000   0.000000
    22  H    0.000000   0.000000   0.000000   0.000000   0.000000   0.000000
    23  H   -0.000012   0.000000   0.000000   0.000000   0.000000  -0.000041
    24  H   -0.000001   0.000000   0.000000   0.000000   0.000000   0.000004
    25  H    0.000000   0.000000   0.000000   0.000000   0.000000   0.000000
    26  H    0.000000   0.000000   0.000000   0.000000   0.000000   0.000000
    27  H   -0.000005   0.000000   0.000000   0.000000   0.000000   0.000000
    28  H    0.000000   0.000000   0.000000   0.000000   0.000000   0.000000
    29  H   -0.013499  -0.000053   0.000000   0.000003   0.000000   0.000199
    30  H    0.006000  -0.000166   0.000000  -0.000007   0.000002   0.010699
    31  H   -0.000129  -0.000001   0.000000   0.000000   0.000000   0.000000
    32  C   -0.000004   0.000000   0.000000   0.000000   0.000000   0.000000
    33  H   -0.000011   0.000000   0.000000   0.000000   0.000000   0.000000
    34  H    0.000000   0.000000   0.000000   0.000000   0.000000   0.000000
    35  H    0.000001   0.000000   0.000000   0.000000   0.000000   0.000000
    36  H    0.005632  -0.000088   0.000000   0.000000   0.000004  -0.000011
              19         20         21         22         23         24
     1  C    0.000000   0.379995   0.385909   0.388261  -0.039409  -0.037642
     2  C    0.000000  -0.027611  -0.036892  -0.034105   0.379674   0.374707
     3  C   -0.000027   0.004093  -0.004854  -0.005392  -0.031512  -0.031959
     4  C    0.000001   0.000282  -0.001740   0.001214   0.004681  -0.009475
     5  C    0.000000  -0.000022   0.000172   0.000817   0.000096   0.002830
     6  O    0.000000   0.000000   0.000000  -0.000027   0.000000  -0.000049
     7  N   -0.002732  -0.000091   0.000032  -0.000014  -0.003235   0.003115
     8  C    0.003761   0.000001  -0.000017   0.000001   0.001046  -0.000379
     9  C    0.002945   0.000000   0.000000   0.000000   0.000000   0.000000
    10  C   -0.000069   0.000000   0.000000   0.000000  -0.000001   0.000000
    11  C    0.002402   0.000000   0.000000   0.000000   0.000006   0.000014
    12  C   -0.058581   0.000000   0.000000   0.000000   0.000037  -0.000078
    13  C    0.306000   0.000000   0.000000   0.000000  -0.000012  -0.000001
    14  C   -0.047380   0.000000   0.000000   0.000000   0.000000   0.000000
    15  H   -0.000023   0.000000   0.000000   0.000000   0.000000   0.000000
    16  H    0.000001   0.000000   0.000000   0.000000   0.000000   0.000000
    17  H   -0.000338   0.000000   0.000000   0.000000   0.000000   0.000000
    18  F    0.000000   0.000000   0.000000   0.000000  -0.000041   0.000004
    19  F    9.073434   0.000000   0.000000   0.000000   0.000000   0.000000
    20  H    0.000000   0.611954  -0.031184  -0.031541  -0.005819  -0.002017
    21  H    0.000000  -0.031184   0.607418  -0.032666  -0.003816   0.005696
    22  H    0.000000  -0.031541  -0.032666   0.599972   0.005569  -0.006496
    23  H    0.000000  -0.005819  -0.003816   0.005569   0.637512  -0.037701
    24  H    0.000000  -0.002017   0.005696  -0.006496  -0.037701   0.626505
    25  H    0.000000  -0.000060   0.000888   0.001457   0.000032   0.000079
    26  H    0.000000  -0.000044  -0.000006   0.001094  -0.000031   0.003141
    27  H    0.000000   0.000001  -0.000002  -0.000028  -0.000026   0.000217
    28  H    0.000000   0.000000   0.000000  -0.000003   0.000000   0.000010
    29  H    0.004181  -0.000001   0.000010   0.000001   0.000471   0.000203
    30  H    0.000179   0.000011   0.000010   0.000000   0.001858   0.000039
    31  H   -0.000006  -0.000117   0.005533  -0.000136  -0.006268   0.006777
    32  C   -0.000024  -0.000003  -0.000070  -0.000043  -0.000129  -0.000037
    33  H   -0.000043   0.000000   0.000000  -0.000001   0.000000   0.000001
    34  H    0.000000   0.000000   0.000000   0.000007   0.000003   0.000000
    35  H    0.000010   0.000000   0.000013   0.000003  -0.000005   0.000007
    36  H    0.007769   0.000003   0.000000  -0.000003  -0.000171   0.000000
              25         26         27         28         29         30
     1  C    0.004270   0.000022   0.000107  -0.000001   0.000054  -0.000318
     2  C   -0.008783   0.002191  -0.000879   0.000005  -0.001421   0.002766
     3  C   -0.029450  -0.002438  -0.003108  -0.000249  -0.008573  -0.002678
     4  C    0.375166  -0.042435  -0.035055   0.006129   0.000104   0.000082
     5  C   -0.041402   0.380095   0.370441  -0.024461   0.000035  -0.000036
     6  O    0.003270  -0.040427  -0.040717   0.284802   0.000000   0.000000
     7  N    0.003802  -0.000403   0.009126   0.000006  -0.051581  -0.043518
     8  C   -0.000138  -0.000028  -0.000125   0.000000   0.351584   0.373752
     9  C    0.000000   0.000000   0.000000   0.000000  -0.000016  -0.000033
    10  C    0.000000   0.000000   0.000000   0.000000  -0.000176   0.000426
    11  C    0.000000   0.000000   0.000003   0.000000   0.005668  -0.009471
    12  C    0.000003   0.000000   0.000030   0.000000  -0.031766  -0.027513
    13  C    0.000000   0.000000  -0.000005   0.000000  -0.013499   0.006000
    14  C    0.000000   0.000000   0.000000   0.000000  -0.000053  -0.000166
    15  H    0.000000   0.000000   0.000000   0.000000   0.000000   0.000000
    16  H    0.000000   0.000000   0.000000   0.000000   0.000003  -0.000007
    17  H    0.000000   0.000000   0.000000   0.000000   0.000000   0.000002
    18  F    0.000000   0.000000   0.000000   0.000000   0.000199   0.010699
    19  F    0.000000   0.000000   0.000000   0.000000   0.004181   0.000179
    20  H   -0.000060  -0.000044   0.000001   0.000000  -0.000001   0.000011
    21  H    0.000888  -0.000006  -0.000002   0.000000   0.000010   0.000010
    22  H    0.001457   0.001094  -0.000028  -0.000003   0.000001   0.000000
    23  H    0.000032  -0.000031  -0.000026   0.000000   0.000471   0.001858
    24  H    0.000079   0.003141   0.000217   0.000010   0.000203   0.000039
    25  H    0.639737  -0.007012   0.006928  -0.000100   0.000006  -0.000001
    26  H   -0.007012   0.669517  -0.051790  -0.004099   0.000000  -0.000001
    27  H    0.006928  -0.051790   0.665492  -0.004844   0.000018  -0.000012
    28  H   -0.000100  -0.004099  -0.004844   0.422809   0.000000   0.000000
    29  H    0.000006   0.000000   0.000018   0.000000   0.690319  -0.050072
    30  H   -0.000001  -0.000001  -0.000012   0.000000  -0.050072   0.613211
    31  H   -0.002465  -0.000048   0.000152   0.000005   0.016461  -0.001989
    32  C   -0.048589   0.006636  -0.012112   0.000094  -0.000238   0.000005
    33  H    0.005854  -0.000050   0.005695  -0.000039   0.000029  -0.000004
    34  H   -0.005298   0.000135   0.000087  -0.000317  -0.000003   0.000000
    35  H   -0.002702  -0.000148  -0.000012   0.000003   0.000093  -0.000001
    36  H    0.000129   0.000012   0.000007   0.000001  -0.005816   0.006372
              31         32         33         34         35         36
     1  C   -0.000869  -0.000009   0.000003  -0.000001  -0.000006  -0.000185
     2  C   -0.059163   0.005479  -0.000115  -0.000115   0.000065   0.005974
     3  C    0.370578  -0.035580  -0.005265   0.004100  -0.005174  -0.036436
     4  C   -0.044465   0.352283  -0.033367  -0.027470  -0.032472  -0.008439
     5  C    0.006284  -0.050193  -0.006316  -0.004621   0.005118  -0.000673
     6  O   -0.000036   0.001528  -0.000340   0.007527   0.000129  -0.000042
     7  N   -0.057254  -0.004800   0.000227   0.000173  -0.000843   0.325436
     8  C   -0.010844   0.000272  -0.000168   0.000004  -0.000083  -0.038158
     9  C    0.000000   0.000000   0.000000   0.000000   0.000000  -0.000024
    10  C    0.000000   0.000000   0.000000   0.000000   0.000000  -0.000002
    11  C    0.000017   0.000000   0.000000   0.000000   0.000000  -0.000272
    12  C    0.000234  -0.000005   0.000033   0.000000  -0.000003  -0.010370
    13  C   -0.000129  -0.000004  -0.000011   0.000000   0.000001   0.005632
    14  C   -0.000001   0.000000   0.000000   0.000000   0.000000  -0.000088
    15  H    0.000000   0.000000   0.000000   0.000000   0.000000   0.000000
    16  H    0.000000   0.000000   0.000000   0.000000   0.000000   0.000000
    17  H    0.000000   0.000000   0.000000   0.000000   0.000000   0.000004
    18  F    0.000000   0.000000   0.000000   0.000000   0.000000  -0.000011
    19  F   -0.000006  -0.000024  -0.000043   0.000000   0.000010   0.007769
    20  H   -0.000117  -0.000003   0.000000   0.000000   0.000000   0.000003
    21  H    0.005533  -0.000070   0.000000   0.000000   0.000013   0.000000
    22  H   -0.000136  -0.000043  -0.000001   0.000007   0.000003  -0.000003
    23  H   -0.006268  -0.000129   0.000000   0.000003  -0.000005  -0.000171
    24  H    0.006777  -0.000037   0.000001   0.000000   0.000007   0.000000
    25  H   -0.002465  -0.048589   0.005854  -0.005298  -0.002702   0.000129
    26  H   -0.000048   0.006636  -0.000050   0.000135  -0.000148   0.000012
    27  H    0.000152  -0.012112   0.005695   0.000087  -0.000012   0.000007
    28  H    0.000005   0.000094  -0.000039  -0.000317   0.000003   0.000001
    29  H    0.016461  -0.000238   0.000029  -0.000003   0.000093  -0.005816
    30  H   -0.001989   0.000005  -0.000004   0.000000  -0.000001   0.006372
    31  H    0.716760  -0.011403  -0.000091  -0.000136   0.006734  -0.001839
    32  C   -0.011403   4.985219   0.378131   0.380182   0.377314   0.006189
    33  H   -0.000091   0.378131   0.612356  -0.028809  -0.033001   0.004976
    34  H   -0.000136   0.380182  -0.028809   0.587757  -0.031173  -0.000352
    35  H    0.006734   0.377314  -0.033001  -0.031173   0.614447   0.000265
    36  H   -0.001839   0.006189   0.004976  -0.000352   0.000265   0.492644
 Mulliken charges:
               1
     1  C   -0.329732
     2  C   -0.176544
     3  C    0.098487
     4  C   -0.099762
     5  C    0.076616
     6  O   -0.578033
     7  N   -0.537036
     8  C   -0.081061
     9  C   -0.087054
    10  C   -0.152169
    11  C    0.329955
    12  C   -0.044634
    13  C    0.331058
    14  C   -0.151762
    15  H    0.117421
    16  H    0.111945
    17  H    0.112166
    18  F   -0.288380
    19  F   -0.291457
    20  H    0.102170
    21  H    0.105566
    22  H    0.112059
    23  H    0.097194
    24  H    0.102487
    25  H    0.104378
    26  H    0.086119
    27  H    0.090413
    28  H    0.320249
    29  H    0.093776
    30  H    0.120409
    31  H    0.067728
    32  C   -0.330094
    33  H    0.100316
    34  H    0.118320
    35  H    0.101420
    36  H    0.247466
 Sum of Mulliken charges =   0.00000
 Mulliken charges with hydrogens summed into heavy atoms:
               1
     1  C   -0.009937
     2  C    0.023137
     3  C    0.166215
     4  C    0.004616
     5  C    0.253147
     6  O   -0.257784
     7  N   -0.289570
     8  C    0.133124
     9  C    0.030367
    10  C   -0.040224
    11  C    0.329955
    12  C   -0.044634
    13  C    0.331058
    14  C   -0.039596
    18  F   -0.288380
    19  F   -0.291457
    32  C   -0.010038
 Electronic spatial extent (au):  <R**2>=           5467.2124
 Charge=              0.0000 electrons
 Dipole moment (field-independent basis, Debye):
    X=              1.8933    Y=              0.1232    Z=              0.6218  Tot=              1.9966
 Quadrupole moment (field-independent basis, Debye-Ang):
   XX=            -95.5305   YY=           -102.5349   ZZ=            -94.9983
   XY=             -7.1209   XZ=              0.6922   YZ=             -1.7476
 Traceless Quadrupole moment (field-independent basis, Debye-Ang):
   XX=              2.1574   YY=             -4.8470   ZZ=              2.6896
   XY=             -7.1209   XZ=              0.6922   YZ=             -1.7476
 Octapole moment (field-independent basis, Debye-Ang**2):
  XXX=            105.3793  YYY=             -2.5820  ZZZ=             30.6053  XYY=             12.2897
  XXY=              3.8947  XXZ=             33.9156  XZZ=            -23.9629  YZZ=             -3.4947
  YYZ=             -0.0625  XYZ=             -0.3405
 Hexadecapole moment (field-independent basis, Debye-Ang**3):
 XXXX=          -4997.2647 YYYY=          -1275.2776 ZZZZ=           -559.1864 XXXY=           -114.0203
 XXXZ=             48.5704 YYYX=            -11.2205 YYYZ=             19.2904 ZZZX=           -141.3493
 ZZZY=             -4.2534 XXYY=          -1065.6192 XXZZ=           -845.2146 YYZZ=           -318.7683
 XXYZ=             25.7373 YYXZ=             -7.9930 ZZXY=             49.5910
 N-N= 1.251790226263D+03 E-N=-4.457750087395D+03  KE= 8.291468971317D+02
 D1PCM: PCM CHGder 1st derivatives, ID1Alg=3 FixD1E=F DoIter=F DoCFld=F I1PDM=0.
 Calling FoFJK, ICntrl=      2127 FMM=F ISym2X=0 I1Cent= 0 IOpClX= 0 NMat=1 NMatS=1 NMatT=0.
 ***** Axes restored to original set *****
 -------------------------------------------------------------------
 Center     Atomic                   Forces (Hartrees/Bohr)
 Number     Number              X              Y              Z
 -------------------------------------------------------------------
      1        6          -0.003816118    0.000348564   -0.000061152
      2        6           0.002063982   -0.001495204   -0.000628769
      3        6          -0.002640173    0.008591472   -0.000900680
      4        6           0.005361386    0.002247486    0.003048409
      5        6          -0.004005024    0.003462059    0.000977421
      6        8          -0.003543354    0.004160499    0.008052018
      7        7          -0.004670875    0.005411471   -0.001207165
      8        6          -0.000989539   -0.003162867    0.001964497
      9        6          -0.005369365   -0.002249930    0.001082329
     10        6          -0.001426492    0.002937044   -0.007579592
     11        6           0.020936368    0.004877746    0.006801293
     12        6          -0.009489138   -0.005186210    0.002404407
     13        6           0.010041832    0.012718138   -0.019519841
     14        6           0.004979314   -0.001474976    0.007114961
     15        1          -0.001601988   -0.000852829    0.000559285
     16        1          -0.001165868   -0.000741078    0.000407465
     17        1          -0.001198419   -0.000780197    0.000445682
     18        9          -0.006375653   -0.001583210   -0.001508666
     19        9          -0.004116577   -0.004376830    0.006687101
     20        1          -0.000434161   -0.000807769    0.000741956
     21        1          -0.001466339   -0.000726444    0.001071400
     22        1          -0.000926034   -0.001596063    0.001352746
     23        1           0.003298694    0.001605898    0.000207728
     24        1           0.003339985    0.000581239    0.001069338
     25        1          -0.001380270    0.000536696   -0.005486916
     26        1           0.001883042   -0.003195477   -0.007396009
     27        1           0.004068306   -0.003910169   -0.005716082
     28        1           0.001237337   -0.006570494    0.002425334
     29        1           0.001271905   -0.005180839   -0.000016821
     30        1          -0.000672795    0.003025349    0.002817579
     31        1          -0.003170551   -0.005877727    0.002577455
     32        6          -0.000166432   -0.000728236    0.002030191
     33        1           0.001485621    0.000401070    0.000665423
     34        1           0.000758096    0.001057719   -0.002403410
     35        1           0.000764878   -0.000302612   -0.000456429
     36        1          -0.002865579   -0.001163288   -0.001622485
 -------------------------------------------------------------------
 Cartesian Forces:  Max     0.020936368 RMS     0.004619546

 GradGradGradGradGradGradGradGradGradGradGradGradGradGradGradGradGradGrad
 Berny optimization.
 FormGI is forming the generalized inverse of G from B-inverse, IUseBI=4.
 GSVD:  received Info=                   1 from GESDD.
 Internal  Forces:  Max     0.009964869 RMS     0.002816684
 Search for a local minimum.
 Step number   1 out of a maximum of   50
 All quantities printed in internal units (Hartrees-Bohrs-Radians)
 Mixed Optimization -- RFO/linear search
 Second derivative matrix not updated -- first step.
 ITU=  0
     Eigenvalues ---    0.00230   0.00230   0.00247   0.00296   0.00454
     Eigenvalues ---    0.00660   0.00725   0.00797   0.01350   0.01556
     Eigenvalues ---    0.02144   0.02150   0.02151   0.02157   0.02161
     Eigenvalues ---    0.02167   0.02167   0.02170   0.02847   0.03173
     Eigenvalues ---    0.03342   0.03698   0.04547   0.04699   0.04768
     Eigenvalues ---    0.05073   0.05086   0.05146   0.05303   0.05484
     Eigenvalues ---    0.05501   0.05522   0.05711   0.05867   0.06536
     Eigenvalues ---    0.08615   0.09805   0.10946   0.11546   0.12406
     Eigenvalues ---    0.13159   0.13764   0.16000   0.16000   0.16000
     Eigenvalues ---    0.16000   0.16000   0.16000   0.16000   0.16000
     Eigenvalues ---    0.16000   0.16000   0.16980   0.17161   0.17439
     Eigenvalues ---    0.18067   0.21929   0.21938   0.22014   0.22085
     Eigenvalues ---    0.23490   0.23561   0.24907   0.24997   0.24999
     Eigenvalues ---    0.25000   0.26745   0.27729   0.28588   0.28919
     Eigenvalues ---    0.30021   0.32053   0.33795   0.33961   0.33966
     Eigenvalues ---    0.34079   0.34130   0.34185   0.34234   0.34237
     Eigenvalues ---    0.34258   0.34283   0.34305   0.34307   0.34391
     Eigenvalues ---    0.34437   0.34796   0.35169   0.35278   0.35291
     Eigenvalues ---    0.36023   0.41591   0.42329   0.42489   0.44245
     Eigenvalues ---    0.46322   0.46479   0.46517   0.46630   0.52846
     Eigenvalues ---    0.56919   0.57011
 RFO step:  Lambda=-7.61022599D-03 EMin= 2.30000000D-03
 Linear search not attempted -- first point.
 Iteration  1 RMS(Cart)=  0.03921640 RMS(Int)=  0.00066956
 Iteration  2 RMS(Cart)=  0.00089928 RMS(Int)=  0.00031172
 Iteration  3 RMS(Cart)=  0.00000065 RMS(Int)=  0.00031172
 Variable       Old X    -DE/DX   Delta X   Delta X   Delta X     New X
                                 (Linear)    (Quad)   (Total)
    R1        2.87922   0.00781   0.00000   0.02537   0.02537   2.90458
    R2        2.06933  -0.00018   0.00000  -0.00052  -0.00052   2.06880
    R3        2.06816   0.00092   0.00000   0.00264   0.00264   2.07079
    R4        2.06676   0.00029   0.00000   0.00082   0.00082   2.06758
    R5        2.92735  -0.00397   0.00000  -0.01394  -0.01394   2.91341
    R6        2.07111   0.00002   0.00000   0.00007   0.00007   2.07118
    R7        2.07197  -0.00053   0.00000  -0.00152  -0.00152   2.07045
    R8        2.94967  -0.00693   0.00000  -0.02519  -0.02519   2.92448
    R9        2.79307  -0.00087   0.00000  -0.00244  -0.00244   2.79063
   R10        2.07677   0.00549   0.00000   0.01589   0.01589   2.09266
   R11        2.90173  -0.00535   0.00000  -0.01804  -0.01804   2.88369
   R12        2.07387  -0.00098   0.00000  -0.00282  -0.00282   2.07105
   R13        2.90871   0.00170   0.00000   0.00580   0.00580   2.91451
   R14        2.69447   0.00848   0.00000   0.02001   0.02001   2.71448
   R15        2.06598   0.00399   0.00000   0.01134   0.01134   2.07732
   R16        2.06898   0.00258   0.00000   0.00737   0.00737   2.07635
   R17        1.83798  -0.00706   0.00000  -0.01316  -0.01316   1.82482
   R18        2.77345   0.00259   0.00000   0.00703   0.00703   2.78048
   R19        1.92862  -0.00324   0.00000  -0.00720  -0.00720   1.92142
   R20        2.84047   0.00677   0.00000   0.02063   0.02063   2.86110
   R21        2.07395   0.00482   0.00000   0.01387   0.01387   2.08783
   R22        2.06855  -0.00255   0.00000  -0.00727  -0.00727   2.06128
   R23        2.63448   0.00077   0.00000   0.00180   0.00176   2.63625
   R24        2.63372   0.00146   0.00000   0.00323   0.00320   2.63692
   R25        2.05401  -0.00190   0.00000  -0.00529  -0.00529   2.04873
   R26        2.63620  -0.00317   0.00000  -0.00668  -0.00668   2.62951
   R27        2.05227  -0.00075   0.00000  -0.00207  -0.00207   2.05020
   R28        2.63725   0.00031   0.00000   0.00050   0.00053   2.63778
   R29        2.53387   0.00589   0.00000   0.01019   0.01019   2.54406
   R30        2.63876  -0.00064   0.00000  -0.00155  -0.00152   2.63725
   R31        2.63492  -0.00367   0.00000  -0.00777  -0.00777   2.62716
   R32        2.53465   0.00812   0.00000   0.01407   0.01407   2.54872
   R33        2.05206  -0.00065   0.00000  -0.00181  -0.00181   2.05025
   R34        2.06819   0.00133   0.00000   0.00379   0.00379   2.07198
   R35        2.07020  -0.00203   0.00000  -0.00580  -0.00580   2.06440
   R36        2.06936   0.00044   0.00000   0.00125   0.00125   2.07061
    A1        1.91866   0.00094   0.00000   0.00735   0.00729   1.92595
    A2        1.93898   0.00145   0.00000   0.00642   0.00641   1.94539
    A3        1.94913   0.00210   0.00000   0.01301   0.01296   1.96208
    A4        1.88473  -0.00138   0.00000  -0.00924  -0.00925   1.87548
    A5        1.87151  -0.00099   0.00000  -0.00159  -0.00170   1.86982
    A6        1.89845  -0.00235   0.00000  -0.01715  -0.01716   1.88129
    A7        1.99433   0.00157   0.00000   0.00917   0.00929   2.00362
    A8        1.86053   0.00169   0.00000   0.02402   0.02405   1.88458
    A9        1.90444   0.00180   0.00000   0.02096   0.02101   1.92545
   A10        1.91183  -0.00225   0.00000  -0.02050  -0.02078   1.89105
   A11        1.93282  -0.00288   0.00000  -0.02788  -0.02808   1.90475
   A12        1.85334   0.00014   0.00000  -0.00496  -0.00579   1.84755
   A13        1.97292   0.00363   0.00000   0.01135   0.01128   1.98420
   A14        1.92531  -0.00033   0.00000  -0.00285  -0.00286   1.92245
   A15        1.87920  -0.00206   0.00000  -0.01471  -0.01475   1.86446
   A16        1.92858  -0.00362   0.00000  -0.02167  -0.02160   1.90698
   A17        1.85950  -0.00073   0.00000  -0.00835  -0.00819   1.85131
   A18        1.89501   0.00320   0.00000   0.03799   0.03802   1.93302
   A19        1.97513  -0.00073   0.00000  -0.01117  -0.01136   1.96378
   A20        1.89099  -0.00130   0.00000  -0.02415  -0.02457   1.86641
   A21        1.95385   0.00037   0.00000   0.00618   0.00628   1.96013
   A22        1.88178  -0.00065   0.00000  -0.01460  -0.01519   1.86659
   A23        1.92772   0.00043   0.00000   0.00791   0.00795   1.93567
   A24        1.82644   0.00201   0.00000   0.03792   0.03808   1.86452
   A25        1.91508  -0.00996   0.00000  -0.03615  -0.03574   1.87935
   A26        1.94430  -0.00136   0.00000  -0.02274  -0.02277   1.92153
   A27        1.94546  -0.00298   0.00000  -0.03858  -0.03870   1.90676
   A28        1.87249   0.00786   0.00000   0.06419   0.06361   1.93610
[...]
    29  H    0.000099  -0.000994  -0.008729  -0.000096   0.000064   0.000000
    30  H   -0.000419   0.001425  -0.001194   0.000133  -0.000052   0.000000
    31  H   -0.000778  -0.067453   0.378158  -0.048353   0.006424  -0.000038
    32  C    0.000000   0.005158  -0.036597   0.358380  -0.049530  -0.003072
    33  H   -0.000006   0.000045  -0.005357  -0.036823  -0.004876  -0.000125
    34  H   -0.000001  -0.000142   0.004331  -0.030350  -0.006306   0.011453
    35  H    0.000005   0.000004  -0.004748  -0.029452   0.004977   0.000081
    36  H   -0.000201   0.005919  -0.040174  -0.004997  -0.002365  -0.000096
               7          8          9         10         11         12
     1  C    0.003685  -0.000038   0.000000   0.000000   0.000000   0.000000
     2  C   -0.056913  -0.004895   0.000000   0.000000   0.000032   0.000060
     3  C    0.267010  -0.029983   0.000000   0.000002  -0.000125   0.003973
     4  C   -0.040757   0.004309   0.000000   0.000000   0.000000  -0.000169
     5  C   -0.003495   0.000208   0.000000   0.000000   0.000001  -0.000010
     6  O    0.000091  -0.000001   0.000000   0.000000   0.000000   0.000000
     7  N    6.958424   0.278823   0.000021  -0.000073   0.003356  -0.034470
     8  C    0.278823   4.936147  -0.000638   0.007481  -0.047193   0.307428
     9  C    0.000021  -0.000638   4.862270   0.483754  -0.004546  -0.027415
    10  C   -0.000073   0.007481   0.483754   5.041736   0.474683  -0.072904
    11  C    0.003356  -0.047193  -0.004546   0.474683   4.598864   0.420109
    12  C   -0.034470   0.307428  -0.027415  -0.072904   0.420109   5.288347
    13  C   -0.007393  -0.052682  -0.006607  -0.046760   0.021713   0.384816
    14  C   -0.000161   0.008288   0.486450  -0.036979  -0.049113  -0.080507
    15  H    0.000000   0.000005   0.373662  -0.033761   0.003560   0.000439
    16  H    0.000001  -0.000119  -0.036455   0.361951  -0.032121   0.006108
    17  H    0.000001  -0.000134  -0.035939   0.004348   0.000348   0.006154
    18  F   -0.000072  -0.007045   0.003024  -0.044050   0.293896  -0.047718
    19  F   -0.004814   0.004843   0.002817  -0.000015   0.002590  -0.057663
    20  H   -0.000095  -0.000001   0.000000   0.000000   0.000000   0.000000
    21  H    0.000029  -0.000002   0.000000   0.000000   0.000000   0.000000
    22  H   -0.000004  -0.000001   0.000000   0.000000   0.000000   0.000000
    23  H   -0.005068   0.001261   0.000000  -0.000001   0.000015  -0.000100
    24  H    0.001820  -0.000082   0.000000   0.000000  -0.000003  -0.000012
    25  H    0.004266  -0.000138   0.000000   0.000000   0.000000   0.000003
    26  H   -0.000807  -0.000071   0.000000   0.000000   0.000000  -0.000001
    27  H    0.007294  -0.000107   0.000000   0.000000   0.000001   0.000064
    28  H    0.000007   0.000000   0.000000   0.000000   0.000000   0.000000
    29  H   -0.047724   0.350654   0.000009  -0.000210   0.004009  -0.029457
    30  H   -0.045641   0.373231  -0.000036   0.000499  -0.007309  -0.030167
    31  H   -0.053485  -0.010623   0.000000   0.000000   0.000003   0.000337
    32  C   -0.004982   0.000188   0.000000   0.000000   0.000000   0.000014
    33  H    0.000458  -0.000058   0.000000   0.000000  -0.000002  -0.000044
    34  H    0.000099   0.000007   0.000000   0.000000   0.000000   0.000000
    35  H   -0.000204  -0.000040   0.000000   0.000000   0.000000  -0.000001
    36  H    0.325771  -0.039388  -0.000020   0.000004  -0.000050  -0.011242
              13         14         15         16         17         18
     1  C    0.000000   0.000000   0.000000   0.000000   0.000000   0.000000
     2  C   -0.000011   0.000000   0.000000   0.000000   0.000000   0.000000
     3  C    0.000491   0.000008   0.000000   0.000000   0.000000   0.000006
     4  C   -0.000038   0.000000   0.000000   0.000000   0.000000   0.000000
     5  C   -0.000006   0.000000   0.000000   0.000000   0.000000   0.000000
     6  O    0.000000   0.000000   0.000000   0.000000   0.000000   0.000000
     7  N   -0.007393  -0.000161   0.000000   0.000001   0.000001  -0.000072
     8  C   -0.052682   0.008288   0.000005  -0.000119  -0.000134  -0.007045
     9  C   -0.006607   0.486450   0.373662  -0.036455  -0.035939   0.003024
    10  C   -0.046760  -0.036979  -0.033761   0.361951   0.004348  -0.044050
    11  C    0.021713  -0.049113   0.003560  -0.032121   0.000348   0.293896
    12  C    0.384816  -0.080507   0.000439   0.006108   0.006154  -0.047718
    13  C    4.635745   0.484264   0.003574   0.000326  -0.032107   0.002795
    14  C    0.484264   5.040823  -0.034680   0.004457   0.361181   0.000018
    15  H    0.003574  -0.034680   0.580857  -0.005654  -0.005626  -0.000025
    16  H    0.000326   0.004457  -0.005654   0.585231  -0.000131  -0.000605
    17  H   -0.032107   0.361181  -0.005626  -0.000131   0.584638   0.000001
    18  F    0.002795   0.000018  -0.000025  -0.000605   0.000001   9.085765
    19  F    0.291504  -0.045744  -0.000024   0.000001  -0.000351  -0.000001
    20  H    0.000000   0.000000   0.000000   0.000000   0.000000   0.000000
    21  H    0.000000   0.000000   0.000000   0.000000   0.000000   0.000000
    22  H    0.000000   0.000000   0.000000   0.000000   0.000000   0.000000
    23  H   -0.000015   0.000000   0.000000   0.000000   0.000000  -0.000065
    24  H    0.000001   0.000000   0.000000   0.000000   0.000000  -0.000001
    25  H    0.000000   0.000000   0.000000   0.000000   0.000000   0.000000
    26  H    0.000000   0.000000   0.000000   0.000000   0.000000   0.000000
    27  H   -0.000005  -0.000001   0.000000   0.000000   0.000000   0.000000
    28  H    0.000000   0.000000   0.000000   0.000000   0.000000   0.000000
    29  H   -0.010592  -0.000159   0.000000   0.000002   0.000001   0.000217
    30  H    0.005870  -0.000145   0.000000  -0.000008   0.000002   0.012701
    31  H   -0.000064  -0.000001   0.000000   0.000000   0.000000   0.000000
    32  C   -0.000014   0.000000   0.000000   0.000000   0.000000   0.000000
    33  H    0.000036   0.000003   0.000000   0.000000   0.000000   0.000000
    34  H    0.000000   0.000000   0.000000   0.000000   0.000000   0.000000
    35  H    0.000001   0.000000   0.000000   0.000000   0.000000   0.000000
    36  H    0.004290  -0.000082   0.000000   0.000000   0.000004  -0.000011
              19         20         21         22         23         24
     1  C    0.000000   0.380037   0.385195   0.387206  -0.037110  -0.036223
     2  C   -0.000001  -0.026784  -0.035679  -0.034284   0.378930   0.375661
     3  C   -0.000007   0.003762  -0.005424  -0.004633  -0.034207  -0.034183
     4  C   -0.000017   0.000176  -0.000486   0.000861   0.004596  -0.010378
     5  C    0.000003  -0.000016   0.000026   0.000303   0.000152   0.001632
     6  O    0.000000   0.000000   0.000000  -0.000032   0.000000  -0.000137
     7  N   -0.004814  -0.000095   0.000029  -0.000004  -0.005068   0.001820
     8  C    0.004843  -0.000001  -0.000002  -0.000001   0.001261  -0.000082
     9  C    0.002817   0.000000   0.000000   0.000000   0.000000   0.000000
    10  C   -0.000015   0.000000   0.000000   0.000000  -0.000001   0.000000
    11  C    0.002590   0.000000   0.000000   0.000000   0.000015  -0.000003
    12  C   -0.057663   0.000000   0.000000   0.000000  -0.000100  -0.000012
    13  C    0.291504   0.000000   0.000000   0.000000  -0.000015   0.000001
    14  C   -0.045744   0.000000   0.000000   0.000000   0.000000   0.000000
    15  H   -0.000024   0.000000   0.000000   0.000000   0.000000   0.000000
    16  H    0.000001   0.000000   0.000000   0.000000   0.000000   0.000000
    17  H   -0.000351   0.000000   0.000000   0.000000   0.000000   0.000000
    18  F   -0.000001   0.000000   0.000000   0.000000  -0.000065  -0.000001
    19  F    9.093385   0.000000   0.000000   0.000000   0.000000   0.000000
    20  H    0.000000   0.607555  -0.031269  -0.030836  -0.004393  -0.002344
    21  H    0.000000  -0.031269   0.608352  -0.033525  -0.004336   0.005307
    22  H    0.000000  -0.030836  -0.033525   0.600491   0.005185  -0.004843
    23  H    0.000000  -0.004393  -0.004336   0.005185   0.636430  -0.036608
    24  H    0.000000  -0.002344   0.005307  -0.004843  -0.036608   0.628577
    25  H    0.000000  -0.000166   0.000324   0.004014   0.000116  -0.000231
    26  H    0.000000  -0.000002  -0.000001   0.000083  -0.000164   0.006152
    27  H   -0.000018   0.000001   0.000001  -0.000011  -0.000021  -0.000046
    28  H    0.000000   0.000000   0.000000   0.000000   0.000000   0.000019
    29  H    0.002465  -0.000001   0.000007   0.000002   0.000199   0.000063
    30  H    0.000171   0.000010   0.000013   0.000002   0.003320   0.000016
    31  H   -0.000001  -0.000017   0.006608  -0.000166  -0.003715   0.006848
    32  C   -0.000149   0.000001  -0.000056  -0.000162  -0.000163   0.000059
    33  H    0.000709   0.000000   0.000001   0.000000   0.000000  -0.000003
    34  H    0.000000   0.000000   0.000000   0.000012   0.000003   0.000001
    35  H   -0.000001   0.000000   0.000010   0.000010  -0.000002   0.000008
    36  H    0.013235   0.000003  -0.000002  -0.000001  -0.000079  -0.000048
              25         26         27         28         29         30
     1  C    0.001458   0.000130   0.000004   0.000000   0.000099  -0.000419
     2  C   -0.006145  -0.000235  -0.000041   0.000000  -0.000994   0.001425
     3  C   -0.036923   0.000885  -0.004985  -0.000263  -0.008729  -0.001194
     4  C    0.375369  -0.044151  -0.034666   0.005930  -0.000096   0.000133
     5  C   -0.043814   0.377418   0.366603  -0.023733   0.000064  -0.000052
     6  O    0.003940  -0.036893  -0.036892   0.285168   0.000000   0.000000
     7  N    0.004266  -0.000807   0.007294   0.000007  -0.047724  -0.045641
     8  C   -0.000138  -0.000071  -0.000107   0.000000   0.350654   0.373231
     9  C    0.000000   0.000000   0.000000   0.000000   0.000009  -0.000036
    10  C    0.000000   0.000000   0.000000   0.000000  -0.000210   0.000499
    11  C    0.000000   0.000000   0.000001   0.000000   0.004009  -0.007309
    12  C    0.000003  -0.000001   0.000064   0.000000  -0.029457  -0.030167
    13  C    0.000000   0.000000  -0.000005   0.000000  -0.010592   0.005870
    14  C    0.000000   0.000000  -0.000001   0.000000  -0.000159  -0.000145
    15  H    0.000000   0.000000   0.000000   0.000000   0.000000   0.000000
    16  H    0.000000   0.000000   0.000000   0.000000   0.000002  -0.000008
    17  H    0.000000   0.000000   0.000000   0.000000   0.000001   0.000002
    18  F    0.000000   0.000000   0.000000   0.000000   0.000217   0.012701
    19  F    0.000000   0.000000  -0.000018   0.000000   0.002465   0.000171
    20  H   -0.000166  -0.000002   0.000001   0.000000  -0.000001   0.000010
    21  H    0.000324  -0.000001   0.000001   0.000000   0.000007   0.000013
    22  H    0.004014   0.000083  -0.000011   0.000000   0.000002   0.000002
    23  H    0.000116  -0.000164  -0.000021   0.000000   0.000199   0.003320
    24  H   -0.000231   0.006152  -0.000046   0.000019   0.000063   0.000016
    25  H    0.642571  -0.006428   0.007438  -0.000100  -0.000006   0.000004
    26  H   -0.006428   0.666710  -0.054061  -0.002983  -0.000001   0.000005
    27  H    0.007438  -0.054061   0.674599  -0.004894   0.000019  -0.000009
    28  H   -0.000100  -0.002983  -0.004894   0.420998   0.000000   0.000000
    29  H   -0.000006  -0.000001   0.000019   0.000000   0.678045  -0.047775
    30  H    0.000004   0.000005  -0.000009   0.000000  -0.047775   0.608834
    31  H   -0.002164  -0.000048   0.000059   0.000005   0.015456  -0.001876
    32  C   -0.044131   0.006256  -0.011517   0.000265  -0.000082  -0.000002
    33  H    0.005603  -0.000030   0.004452  -0.000026  -0.000084   0.000004
    34  H   -0.003222   0.000319   0.000036  -0.000515  -0.000002   0.000000
    35  H   -0.004492  -0.000167  -0.000015   0.000006   0.000044   0.000001
    36  H    0.000170   0.000071   0.000940   0.000002  -0.005374   0.006432
              31         32         33         34         35         36
     1  C   -0.000778   0.000000  -0.000006  -0.000001   0.000005  -0.000201
     2  C   -0.067453   0.005158   0.000045  -0.000142   0.000004   0.005919
     3  C    0.378158  -0.036597  -0.005357   0.004331  -0.004748  -0.040174
     4  C   -0.048353   0.358380  -0.036823  -0.030350  -0.029452  -0.004997
     5  C    0.006424  -0.049530  -0.004876  -0.006306   0.004977  -0.002365
     6  O   -0.000038  -0.003072  -0.000125   0.011453   0.000081  -0.000096
     7  N   -0.053485  -0.004982   0.000458   0.000099  -0.000204   0.325771
     8  C   -0.010623   0.000188  -0.000058   0.000007  -0.000040  -0.039388
     9  C    0.000000   0.000000   0.000000   0.000000   0.000000  -0.000020
    10  C    0.000000   0.000000   0.000000   0.000000   0.000000   0.000004
    11  C    0.000003   0.000000  -0.000002   0.000000   0.000000  -0.000050
    12  C    0.000337   0.000014  -0.000044   0.000000  -0.000001  -0.011242
    13  C   -0.000064  -0.000014   0.000036   0.000000   0.000001   0.004290
    14  C   -0.000001   0.000000   0.000003   0.000000   0.000000  -0.000082
    15  H    0.000000   0.000000   0.000000   0.000000   0.000000   0.000000
    16  H    0.000000   0.000000   0.000000   0.000000   0.000000   0.000000
    17  H    0.000000   0.000000   0.000000   0.000000   0.000000   0.000004
    18  F    0.000000   0.000000   0.000000   0.000000   0.000000  -0.000011
    19  F   -0.000001  -0.000149   0.000709   0.000000  -0.000001   0.013235
    20  H   -0.000017   0.000001   0.000000   0.000000   0.000000   0.000003
    21  H    0.006608  -0.000056   0.000001   0.000000   0.000010  -0.000002
    22  H   -0.000166  -0.000162   0.000000   0.000012   0.000010  -0.000001
    23  H   -0.003715  -0.000163   0.000000   0.000003  -0.000002  -0.000079
    24  H    0.006848   0.000059  -0.000003   0.000001   0.000008  -0.000048
    25  H   -0.002164  -0.044131   0.005603  -0.003222  -0.004492   0.000170
    26  H   -0.000048   0.006256  -0.000030   0.000319  -0.000167   0.000071
    27  H    0.000059  -0.011517   0.004452   0.000036  -0.000015   0.000940
    28  H    0.000005   0.000265  -0.000026  -0.000515   0.000006   0.000002
    29  H    0.015456  -0.000082  -0.000084  -0.000002   0.000044  -0.005374
    30  H   -0.001876  -0.000002   0.000004   0.000000   0.000001   0.006432
    31  H    0.715806  -0.010963  -0.000704  -0.000020   0.006170  -0.000602
    32  C   -0.010963   4.979593   0.377478   0.378046   0.378597   0.002948
    33  H   -0.000704   0.377478   0.617890  -0.029283  -0.032619   0.007584
    34  H   -0.000020   0.378046  -0.029283   0.586254  -0.029603  -0.000418
    35  H    0.006170   0.378597  -0.032619  -0.029603   0.608584  -0.000184
    36  H   -0.000602   0.002948   0.007584  -0.000418  -0.000184   0.488819
 Mulliken charges:
               1
     1  C   -0.329683
     2  C   -0.170382
     3  C    0.099929
     4  C   -0.100881
     5  C    0.071469
     6  O   -0.570374
     7  N   -0.544996
     8  C   -0.079635
     9  C   -0.100351
    10  C   -0.139705
    11  C    0.317282
    12  C   -0.025973
    13  C    0.320867
    14  C   -0.137920
    15  H    0.117673
    16  H    0.117016
    17  H    0.117609
    18  F   -0.298831
    19  F   -0.302916
    20  H    0.104379
    21  H    0.104909
    22  H    0.110329
    23  H    0.095839
    24  H    0.098977
    25  H    0.102686
    26  H    0.088015
    27  H    0.085779
    28  H    0.320115
    29  H    0.099931
    30  H    0.121960
    31  H    0.065197
    32  C   -0.325562
    33  H    0.095776
    34  H    0.119302
    35  H    0.103029
    36  H    0.249140
 Sum of Mulliken charges =   0.00000
 Mulliken charges with hydrogens summed into heavy atoms:
               1
     1  C   -0.010066
     2  C    0.024434
     3  C    0.165126
     4  C    0.001806
     5  C    0.245263
     6  O   -0.250259
     7  N   -0.295855
     8  C    0.142256
     9  C    0.017321
    10  C   -0.022690
    11  C    0.317282
    12  C   -0.025973
    13  C    0.320867
    14  C   -0.020311
    18  F   -0.298831
    19  F   -0.302916
    32  C   -0.007455
 Electronic spatial extent (au):  <R**2>=           5450.1242
 Charge=              0.0000 electrons
 Dipole moment (field-independent basis, Debye):
    X=              2.2438    Y=             -0.5442    Z=              0.6631  Tot=              2.4022
 Quadrupole moment (field-independent basis, Debye-Ang):
   XX=            -95.7585   YY=           -100.7616   ZZ=            -96.2841
   XY=             -6.4134   XZ=              0.0785   YZ=             -4.1504
 Traceless Quadrupole moment (field-independent basis, Debye-Ang):
   XX=              1.8429   YY=             -3.1602   ZZ=              1.3173
   XY=             -6.4134   XZ=              0.0785   YZ=             -4.1504
 Octapole moment (field-independent basis, Debye-Ang**2):
  XXX=            116.2613  YYY=            -11.7655  ZZZ=             24.3455  XYY=              8.3843
  XXY=             -4.6556  XXZ=             28.2193  XZZ=            -21.2460  YZZ=            -10.7805
  YYZ=              7.6924  XYZ=              8.1072
 Hexadecapole moment (field-independent basis, Debye-Ang**3):
 XXXX=          -4930.1364 YYYY=          -1392.9761 ZZZZ=           -491.4337 XXXY=            -82.4745
 XXXZ=             70.5469 YYYX=              9.7431 YYYZ=             -2.4124 ZZZX=           -110.8969
 ZZZY=            -28.4949 XXYY=          -1054.4035 XXZZ=           -857.9340 YYZZ=           -305.5685
 XXYZ=             -9.5418 YYXZ=            -37.2203 ZZXY=             74.4884
 N-N= 1.252340881053D+03 E-N=-4.458830165361D+03  KE= 8.290995515142D+02
 1\1\GINC-SWANNODE-0-15\FOpt\RB3LYP\6-31G(d,p)\C13H19F2N1O1\KE291\06-Ma
 r-2019\0\\# b3lyp/6-31g(d,p) Opt=(maxcycles=50) scrf=(solvent=chlorofo
 rm)\\AT3_1ginp012\\0,1\C,-2.5724361354,-0.0314028347,1.5164962594\C,-1
 .3826083119,0.8533208755,1.1284966556\C,-0.268884053,0.9253113315,2.19
 48951398\C,-0.6943404391,1.6697943974,3.4870561324\C,-0.8336079316,3.1
 833514729,3.2849553619\O,-1.4672244578,3.7220374786,4.4479519746\N,0.9
 369856496,1.5596245852,1.6267458267\C,1.7365589196,0.6614654018,0.7804
 848977\C,5.4244326752,2.5696150684,-0.4836031734\C,4.4241438766,2.3182
 558807,-1.4225700303\C,3.2489199995,1.7093851837,-0.9955976452\C,3.014
 8236683,1.32740379,0.3265032963\C,4.052427289,1.6077967759,1.217917903
 8\C,5.246149072,2.2154110031,0.8552810834\H,6.3481423488,3.0454394724,
 -0.7955785273\H,4.5384214634,2.5839219101,-2.4670955412\H,6.0050993956
 ,2.4010768277,1.6063407522\F,2.2846676037,1.4649881241,-1.9130157984\F
 ,3.8649044389,1.2669957268,2.519782871\H,-3.287090883,-0.1019306813,0.
 6904291073\H,-2.2464343986,-1.0492110304,1.7600774169\H,-3.1153116794,
 0.358454566,2.3832747234\H,-0.9484328915,0.4595658839,0.2024548914\H,-
 1.7258769641,1.8658316481,0.8878106348\H,-1.6937874822,1.3041855769,3.
 7524616675\H,-1.4309453558,3.3960819519,2.3875171588\H,0.1548934476,3.
 6394231525,3.1316386131\H,-1.4822617342,4.6830831538,4.352874355\H,1.9
 910739666,-0.2798324713,1.2998637563\H,1.1576325747,0.3888391402,-0.10
 34408218\H,-0.0481516731,-0.1181150625,2.4969307554\C,0.2316117748,1.3
 538033159,4.6737373364\H,1.26685102,1.6664101117,4.4881899959\H,-0.110
 4390061,1.8781685464,5.5688976769\H,0.2432800572,0.2796967468,4.885671
 2961\H,1.537308156,1.8433839805,2.3966379978\\Version=EM64L-G09RevD.01
 \State=1-A\HF=-836.4910707\RMSD=6.638e-09\RMSF=4.375e-06\Dipole=0.7924
 679,0.3425053,-0.3845633\Quadrupole=3.7141237,2.7435395,-6.4576632,2.1
 51214,-0.5474109,0.0003955\PG=C01 [X(C13H19F2N1O1)]\\@


 MODELS ARE TO BE USED, NOT BELIEVED.

    -- PARAPHRASED BY H. THIEL IN "PRINCIPLES OF ECONOMETRICS"
 Job cpu time:       0 days  2 hours 39 minutes 30.0 seconds.
 File lengths (MBytes):  RWF=    286 Int=      0 D2E=      0 Chk=     13 Scr=      1
 Normal termination of Gaussian 09 at Wed Mar  6 12:16:51 2019.
