 Entering Gaussian System, Link 0=/usr/local/shared/gaussian/em64t/09-D01/g09/g09
 Initial command:
 /usr/local/shared/gaussian/em64t/09-D01/g09/l1.exe "/scratch/ke291/AT3_1ginp014/Gau-5497.inp" -scrdir="/scratch/ke291/AT3_1ginp014/"
 Entering Link 1 = /usr/local/shared/gaussian/em64t/09-D01/g09/l1.exe PID=      5502.
  
 Copyright (c) 1988,1990,1992,1993,1995,1998,2003,2009,2013,
            Gaussian, Inc.  All Rights Reserved.
  
 This is part of the Gaussian(R) 09 program.  It is based on
 the Gaussian(R) 03 system (copyright 2003, Gaussian, Inc.),
 the Gaussian(R) 98 system (copyright 1998, Gaussian, Inc.),
 the Gaussian(R) 94 system (copyright 1995, Gaussian, Inc.),
 the Gaussian 92(TM) system (copyright 1992, Gaussian, Inc.),
 the Gaussian 90(TM) system (copyright 1990, Gaussian, Inc.),
 the Gaussian 88(TM) system (copyright 1988, Gaussian, Inc.),
 the Gaussian 86(TM) system (copyright 1986, Carnegie Mellon
 University), and the Gaussian 82(TM) system (copyright 1983,
 Carnegie Mellon University). Gaussian is a federally registered
 trademark of Gaussian, Inc.
  
 This software contains proprietary and confidential information,
 including trade secrets, belonging to Gaussian, Inc.
  
 This software is provided under written license and may be
 used, copied, transmitted, or stored only in accord with that
 written license.
  
 The following legend is applicable only to US Government
 contracts under FAR:
  
                    RESTRICTED RIGHTS LEGEND
  
 Use, reproduction and disclosure by the US Government is
 subject to restrictions as set forth in subparagraphs (a)
 and (c) of the Commercial Computer Software - Restricted
 Rights clause in FAR 52.227-19.
  
 Gaussian, Inc.
 340 Quinnipiac St., Bldg. 40, Wallingford CT 06492
  
  
 ---------------------------------------------------------------
 Warning -- This program may not be used in any manner that
 competes with the business of Gaussian, Inc. or will provide
 assistance to any competitor of Gaussian, Inc.  The licensee
 of this program is prohibited from giving any competitor of
 Gaussian, Inc. access to this program.  By using this program,
 the user acknowledges that Gaussian, Inc. is engaged in the
 business of creating and licensing software in the field of
 computational chemistry and represents and warrants to the
 licensee that it is not a competitor of Gaussian, Inc. and that
 it will not use this program in any manner prohibited above.
 ---------------------------------------------------------------
  

 Cite this work as:
 Gaussian 09, Revision D.01,
 M. J. Frisch, G. W. Trucks, H. B. Schlegel, G. E. Scuseria, 
 M. A. Robb, J. R. Cheeseman, G. Scalmani, V. Barone, B. Mennucci, 
 G. A. Petersson, H. Nakatsuji, M. Caricato, X. Li, H. P. Hratchian, 
 A. F. Izmaylov, J. Bloino, G. Zheng, J. L. Sonnenberg, M. Hada, 
 M. Ehara, K. Toyota, R. Fukuda, J. Hasegawa, M. Ishida, T. Nakajima, 
 Y. Honda, O. Kitao, H. Nakai, T. Vreven, J. A. Montgomery, Jr., 
 J. E. Peralta, F. Ogliaro, M. Bearpark, J. J. Heyd, E. Brothers, 
 K. N. Kudin, V. N. Staroverov, T. Keith, R. Kobayashi, J. Normand, 
 K. Raghavachari, A. Rendell, J. C. Burant, S. S. Iyengar, J. Tomasi, 
 M. Cossi, N. Rega, J. M. Millam, M. Klene, J. E. Knox, J. B. Cross, 
 V. Bakken, C. Adamo, J. Jaramillo, R. Gomperts, R. E. Stratmann, 
 O. Yazyev, A. J. Austin, R. Cammi, C. Pomelli, J. W. Ochterski, 
 R. L. Martin, K. Morokuma, V. G. Zakrzewski, G. A. Voth, 
 P. Salvador, J. J. Dannenberg, S. Dapprich, A. D. Daniels, 
 O. Farkas, J. B. Foresman, J. V. Ortiz, J. Cioslowski, 
 and D. J. Fox, Gaussian, Inc., Wallingford CT, 2013.
 
 ******************************************
 Gaussian 09:  EM64L-G09RevD.01 24-Apr-2013
                 6-Mar-2019 
 ******************************************
 %nprocshared=2
 Will use up to    2 processors via shared memory.
 %mem=6000MB
 %chk=AT3_1ginp014.chk
 ---------------------------------------------------------------
 # b3lyp/6-31g(d,p) Opt=(maxcycles=50) scrf=(solvent=chloroform)
 ---------------------------------------------------------------
 1/6=50,14=-1,18=20,19=15,26=3,38=1/1,3;
 2/9=110,12=2,17=6,18=5,40=1/2;
 3/5=1,6=6,7=101,11=2,16=1,25=1,30=1,70=2201,71=1,72=7,74=-5/1,2,3;
 4//1;
 5/5=2,38=5,53=7/2;
 6/7=2,8=2,9=2,10=2,28=1/1;
 7//1,2,3,16;
 1/6=50,14=-1,18=20,19=15,26=3/3(2);
 2/9=110/2;
 99//99;
 2/9=110/2;
 3/5=1,6=6,7=101,11=2,16=1,25=1,30=1,70=2205,71=1,72=7,74=-5/1,2,3;
 4/5=5,16=3,69=1/1;
 5/5=2,38=5,53=7/2;
 7//1,2,3,16;
 1/6=50,14=-1,18=20,19=15,26=3/3(-5);
 2/9=110/2;
 6/7=2,8=2,9=2,10=2,19=2,28=1/1;
 99/9=1/99;
 ------------
 AT3_1ginp014
 ------------
 Symbolic Z-matrix:
 Charge =  0 Multiplicity = 1
 C                    -1.88692   0.50127   0.42945 
 C                    -1.10141  -0.11616   1.57957 
 C                    -0.21923   0.86888   2.38571 
 C                    -1.0251    2.00451   3.0905 
 C                    -0.09798   2.88422   3.95282 
 O                    -0.83769   3.94897   4.5464 
 N                     0.83146   1.48713   1.55965 
 C                     1.85636   0.55119   1.10092 
 C                     5.10446   2.68989  -0.77963 
 C                     3.9366    2.4184   -1.49032 
 C                     2.89636   1.72387  -0.87403 
 C                     2.9925    1.28423   0.4477 
 C                     4.16805   1.56998   1.14321 
 C                     5.219     2.26339   0.54272 
 H                     5.9193    3.23235  -1.25206 
 H                     3.82586   2.74476  -2.52007 
 H                     6.11971   2.46661   1.11433 
 F                     1.78129   1.47884  -1.57818 
 F                     4.31141   1.16834   2.41459 
 H                    -1.22453   0.93507  -0.32515 
 H                    -2.48684  -0.27001  -0.065 
 H                    -2.57283   1.27773   0.77904 
 H                    -1.80314  -0.61772   2.25583 
 H                    -0.48045  -0.92594   1.17822 
 H                    -1.4878    2.65464   2.33583 
 H                     0.69612   3.338     3.35225 
 H                     0.36241   2.29741   4.75505 
 H                    -0.19665   4.49442   5.0335 
 H                     2.24176  -0.03703   1.94268 
 H                     1.44612  -0.1665    0.38109 
 H                     0.26926   0.2884    3.18085 
 C                    -2.16474   1.45124   3.96128 
 H                    -1.78433   0.7384    4.70055 
 H                    -2.68255   2.25142   4.50019 
 H                    -2.92333   0.94692   3.35569 
 H                     0.41693   1.95407   0.75285 
 

 GradGradGradGradGradGradGradGradGradGradGradGradGradGradGradGradGradGrad
 Berny optimization.
 Initialization pass.
                           ----------------------------
                           !    Initial Parameters    !
                           ! (Angstroms and Degrees)  !
 --------------------------                            --------------------------
 ! Name  Definition              Value          Derivative Info.                !
 --------------------------------------------------------------------------------
 ! R1    R(1,2)                  1.5235         estimate D2E/DX2                !
 ! R2    R(1,20)                 1.0938         estimate D2E/DX2                !
 ! R3    R(1,21)                 1.0951         estimate D2E/DX2                !
 ! R4    R(1,22)                 1.0934         estimate D2E/DX2                !
 ! R5    R(2,3)                  1.5487         estimate D2E/DX2                !
 ! R6    R(2,23)                 1.096          estimate D2E/DX2                !
 ! R7    R(2,24)                 1.0965         estimate D2E/DX2                !
 ! R8    R(3,4)                  1.5607         estimate D2E/DX2                !
 ! R9    R(3,7)                  1.4726         estimate D2E/DX2                !
 ! R10   R(3,31)                 1.099          estimate D2E/DX2                !
 ! R11   R(4,5)                  1.5418         estimate D2E/DX2                !
 ! R12   R(4,25)                 1.0983         estimate D2E/DX2                !
 ! R13   R(4,32)                 1.5372         estimate D2E/DX2                !
 ! R14   R(5,6)                  1.4259         estimate D2E/DX2                !
 ! R15   R(5,26)                 1.0942         estimate D2E/DX2                !
 ! R16   R(5,27)                 1.0954         estimate D2E/DX2                !
 ! R17   R(6,28)                 0.9725         estimate D2E/DX2                !
 ! R18   R(7,8)                  1.4618         estimate D2E/DX2                !
 ! R19   R(7,36)                 1.0202         estimate D2E/DX2                !
 ! R20   R(8,12)                 1.5016         estimate D2E/DX2                !
 ! R21   R(8,29)                 1.0969         estimate D2E/DX2                !
 ! R22   R(8,30)                 1.0961         estimate D2E/DX2                !
 ! R23   R(9,10)                 1.3938         estimate D2E/DX2                !
 ! R24   R(9,14)                 1.3941         estimate D2E/DX2                !
 ! R25   R(9,15)                 1.0869         estimate D2E/DX2                !
 ! R26   R(10,11)                1.3944         estimate D2E/DX2                !
 ! R27   R(10,16)                1.0859         estimate D2E/DX2                !
 ! R28   R(11,12)                1.3962         estimate D2E/DX2                !
 ! R29   R(11,18)                1.3414         estimate D2E/DX2                !
 ! R30   R(12,13)                1.3955         estimate D2E/DX2                !
 ! R31   R(13,14)                1.395          estimate D2E/DX2                !
 ! R32   R(13,19)                1.341          estimate D2E/DX2                !
 ! R33   R(14,17)                1.086          estimate D2E/DX2                !
 ! R34   R(32,33)                1.0952         estimate D2E/DX2                !
 ! R35   R(32,34)                1.0949         estimate D2E/DX2                !
 ! R36   R(32,35)                1.0939         estimate D2E/DX2                !
 ! A1    A(2,1,20)             111.6736         estimate D2E/DX2                !
 ! A2    A(2,1,21)             109.7476         estimate D2E/DX2                !
 ! A3    A(2,1,22)             111.7078         estimate D2E/DX2                !
 ! A4    A(20,1,21)            107.4323         estimate D2E/DX2                !
 ! A5    A(20,1,22)            108.592          estimate D2E/DX2                !
 ! A6    A(21,1,22)            107.5079         estimate D2E/DX2                !
 ! A7    A(1,2,3)              115.3968         estimate D2E/DX2                !
 ! A8    A(1,2,23)             108.7321         estimate D2E/DX2                !
 ! A9    A(1,2,24)             108.3582         estimate D2E/DX2                !
 ! A10   A(3,2,23)             109.548          estimate D2E/DX2                !
 ! A11   A(3,2,24)             109.734          estimate D2E/DX2                !
 ! A12   A(23,2,24)            104.5043         estimate D2E/DX2                !
 ! A13   A(2,3,4)              113.8123         estimate D2E/DX2                !
 ! A14   A(2,3,7)              112.4249         estimate D2E/DX2                !
 ! A15   A(2,3,31)             107.0879         estimate D2E/DX2                !
 ! A16   A(4,3,7)              108.4362         estimate D2E/DX2                !
 ! A17   A(4,3,31)             106.6854         estimate D2E/DX2                !
 ! A18   A(7,3,31)             108.0876         estimate D2E/DX2                !
 ! A19   A(3,4,5)              110.9312         estimate D2E/DX2                !
 ! A20   A(3,4,25)             109.7527         estimate D2E/DX2                !
 ! A21   A(3,4,32)             112.1306         estimate D2E/DX2                !
 ! A22   A(5,4,25)             107.4508         estimate D2E/DX2                !
 ! A23   A(5,4,32)             109.5322         estimate D2E/DX2                !
 ! A24   A(25,4,32)            106.8547         estimate D2E/DX2                !
 ! A25   A(4,5,6)              110.3006         estimate D2E/DX2                !
 ! A26   A(4,5,26)             111.4734         estimate D2E/DX2                !
 ! A27   A(4,5,27)             110.897          estimate D2E/DX2                !
 ! A28   A(6,5,26)             107.176          estimate D2E/DX2                !
 ! A29   A(6,5,27)             108.2513         estimate D2E/DX2                !
 ! A30   A(26,5,27)            108.6102         estimate D2E/DX2                !
 ! A31   A(5,6,28)             106.5815         estimate D2E/DX2                !
 ! A32   A(3,7,8)              114.0464         estimate D2E/DX2                !
 ! A33   A(3,7,36)             110.2346         estimate D2E/DX2                !
 ! A34   A(8,7,36)             109.2541         estimate D2E/DX2                !
 ! A35   A(7,8,12)             110.7585         estimate D2E/DX2                !
 ! A36   A(7,8,29)             110.4193         estimate D2E/DX2                !
 ! A37   A(7,8,30)             111.2774         estimate D2E/DX2                !
 ! A38   A(12,8,29)            109.2557         estimate D2E/DX2                !
 ! A39   A(12,8,30)            108.4886         estimate D2E/DX2                !
 ! A40   A(29,8,30)            106.5203         estimate D2E/DX2                !
 ! A41   A(10,9,14)            119.5303         estimate D2E/DX2                !
 ! A42   A(10,9,15)            120.2476         estimate D2E/DX2                !
 ! A43   A(14,9,15)            120.2219         estimate D2E/DX2                !
 ! A44   A(9,10,11)            119.7851         estimate D2E/DX2                !
 ! A45   A(9,10,16)            120.6928         estimate D2E/DX2                !
 ! A46   A(11,10,16)           119.5218         estimate D2E/DX2                !
 ! A47   A(10,11,12)           121.5918         estimate D2E/DX2                !
 ! A48   A(10,11,18)           118.6295         estimate D2E/DX2                !
 ! A49   A(12,11,18)           119.7787         estimate D2E/DX2                !
 ! A50   A(8,12,11)            120.8914         estimate D2E/DX2                !
 ! A51   A(8,12,13)            121.3675         estimate D2E/DX2                !
 ! A52   A(11,12,13)           117.732          estimate D2E/DX2                !
 ! A53   A(12,13,14)           121.4601         estimate D2E/DX2                !
 ! A54   A(12,13,19)           120.0833         estimate D2E/DX2                !
 ! A55   A(14,13,19)           118.4549         estimate D2E/DX2                !
 ! A56   A(9,14,13)            119.8995         estimate D2E/DX2                !
 ! A57   A(9,14,17)            120.6735         estimate D2E/DX2                !
 ! A58   A(13,14,17)           119.4269         estimate D2E/DX2                !
 ! A59   A(4,32,33)            111.047          estimate D2E/DX2                !
 ! A60   A(4,32,34)            111.493          estimate D2E/DX2                !
 ! A61   A(4,32,35)            111.497          estimate D2E/DX2                !
 ! A62   A(33,32,34)           107.9211         estimate D2E/DX2                !
 ! A63   A(33,32,35)           108.3311         estimate D2E/DX2                !
 ! A64   A(34,32,35)           106.347          estimate D2E/DX2                !
 ! D1    D(20,1,2,3)            61.8155         estimate D2E/DX2                !
 ! D2    D(20,1,2,23)         -174.673          estimate D2E/DX2                !
 ! D3    D(20,1,2,24)          -61.6455         estimate D2E/DX2                !
 ! D4    D(21,1,2,3)          -179.1602         estimate D2E/DX2                !
 ! D5    D(21,1,2,23)          -55.6487         estimate D2E/DX2                !
 ! D6    D(21,1,2,24)           57.3788         estimate D2E/DX2                !
 ! D7    D(22,1,2,3)           -60.0201         estimate D2E/DX2                !
 ! D8    D(22,1,2,23)           63.4915         estimate D2E/DX2                !
 ! D9    D(22,1,2,24)          176.519          estimate D2E/DX2                !
 ! D10   D(1,2,3,4)             61.577          estimate D2E/DX2                !
 ! D11   D(1,2,3,7)            -62.2076         estimate D2E/DX2                !
 ! D12   D(1,2,3,31)           179.2218         estimate D2E/DX2                !
 ! D13   D(23,2,3,4)           -61.5033         estimate D2E/DX2                !
 ! D14   D(23,2,3,7)           174.712          estimate D2E/DX2                !
 ! D15   D(23,2,3,31)           56.1414         estimate D2E/DX2                !
 ! D16   D(24,2,3,4)          -175.6907         estimate D2E/DX2                !
 ! D17   D(24,2,3,7)            60.5247         estimate D2E/DX2                !
 ! D18   D(24,2,3,31)          -58.0459         estimate D2E/DX2                !
 ! D19   D(2,3,4,5)            175.9507         estimate D2E/DX2                !
 ! D20   D(2,3,4,25)           -65.4622         estimate D2E/DX2                !
 ! D21   D(2,3,4,32)            53.1324         estimate D2E/DX2                !
 ! D22   D(7,3,4,5)            -58.1304         estimate D2E/DX2                !
 ! D23   D(7,3,4,25)            60.4567         estimate D2E/DX2                !
 ! D24   D(7,3,4,32)           179.0513         estimate D2E/DX2                !
 ! D25   D(31,3,4,5)            58.0738         estimate D2E/DX2                !
 ! D26   D(31,3,4,25)          176.6609         estimate D2E/DX2                !
 ! D27   D(31,3,4,32)          -64.7445         estimate D2E/DX2                !
 ! D28   D(2,3,7,8)            -67.2349         estimate D2E/DX2                !
 ! D29   D(2,3,7,36)            56.0857         estimate D2E/DX2                !
 ! D30   D(4,3,7,8)            166.0405         estimate D2E/DX2                !
 ! D31   D(4,3,7,36)           -70.6389         estimate D2E/DX2                !
 ! D32   D(31,3,7,8)            50.7466         estimate D2E/DX2                !
 ! D33   D(31,3,7,36)          174.0672         estimate D2E/DX2                !
 ! D34   D(3,4,5,6)            177.6332         estimate D2E/DX2                !
 ! D35   D(3,4,5,26)            58.6948         estimate D2E/DX2                !
 ! D36   D(3,4,5,27)           -62.4544         estimate D2E/DX2                !
 ! D37   D(25,4,5,6)            57.6641         estimate D2E/DX2                !
 ! D38   D(25,4,5,26)          -61.2743         estimate D2E/DX2                !
 ! D39   D(25,4,5,27)          177.5765         estimate D2E/DX2                !
 ! D40   D(32,4,5,6)           -58.0582         estimate D2E/DX2                !
 ! D41   D(32,4,5,26)         -176.9966         estimate D2E/DX2                !
 ! D42   D(32,4,5,27)           61.8542         estimate D2E/DX2                !
 ! D43   D(3,4,32,33)           56.0004         estimate D2E/DX2                !
 ! D44   D(3,4,32,34)          176.3893         estimate D2E/DX2                !
 ! D45   D(3,4,32,35)          -64.9128         estimate D2E/DX2                !
 ! D46   D(5,4,32,33)          -67.6055         estimate D2E/DX2                !
 ! D47   D(5,4,32,34)           52.7834         estimate D2E/DX2                !
 ! D48   D(5,4,32,35)          171.4812         estimate D2E/DX2                !
 ! D49   D(25,4,32,33)         176.2935         estimate D2E/DX2                !
 ! D50   D(25,4,32,34)         -63.3176         estimate D2E/DX2                !
 ! D51   D(25,4,32,35)          55.3802         estimate D2E/DX2                !
 ! D52   D(4,5,6,28)          -176.8939         estimate D2E/DX2                !
 ! D53   D(26,5,6,28)          -55.3687         estimate D2E/DX2                !
 ! D54   D(27,5,6,28)           61.6094         estimate D2E/DX2                !
 ! D55   D(3,7,8,12)          -171.4236         estimate D2E/DX2                !
 ! D56   D(3,7,8,29)           -50.2634         estimate D2E/DX2                !
 ! D57   D(3,7,8,30)            67.8094         estimate D2E/DX2                !
 ! D58   D(36,7,8,12)           64.7258         estimate D2E/DX2                !
 ! D59   D(36,7,8,29)         -174.114          estimate D2E/DX2                !
 ! D60   D(36,7,8,30)          -56.0412         estimate D2E/DX2                !
 ! D61   D(7,8,12,11)          -80.3301         estimate D2E/DX2                !
 ! D62   D(7,8,12,13)           98.5448         estimate D2E/DX2                !
 ! D63   D(29,8,12,11)         157.8246         estimate D2E/DX2                !
 ! D64   D(29,8,12,13)         -23.3004         estimate D2E/DX2                !
 ! D65   D(30,8,12,11)          42.0774         estimate D2E/DX2                !
 ! D66   D(30,8,12,13)        -139.0477         estimate D2E/DX2                !
 ! D67   D(14,9,10,11)          -0.0329         estimate D2E/DX2                !
 ! D68   D(14,9,10,16)         179.7889         estimate D2E/DX2                !
 ! D69   D(15,9,10,11)        -179.8861         estimate D2E/DX2                !
 ! D70   D(15,9,10,16)          -0.0644         estimate D2E/DX2                !
 ! D71   D(10,9,14,13)           0.0224         estimate D2E/DX2                !
 ! D72   D(10,9,14,17)        -179.8761         estimate D2E/DX2                !
 ! D73   D(15,9,14,13)         179.8757         estimate D2E/DX2                !
 ! D74   D(15,9,14,17)          -0.0228         estimate D2E/DX2                !
 ! D75   D(9,10,11,12)          -0.1762         estimate D2E/DX2                !
 ! D76   D(9,10,11,18)         179.7934         estimate D2E/DX2                !
 ! D77   D(16,10,11,12)        179.9999         estimate D2E/DX2                !
 ! D78   D(16,10,11,18)         -0.0305         estimate D2E/DX2                !
 ! D79   D(10,11,12,8)         179.298          estimate D2E/DX2                !
 ! D80   D(10,11,12,13)          0.3833         estimate D2E/DX2                !
 ! D81   D(18,11,12,8)          -0.6713         estimate D2E/DX2                !
 ! D82   D(18,11,12,13)       -179.586          estimate D2E/DX2                !
 ! D83   D(8,12,13,14)        -179.3027         estimate D2E/DX2                !
 ! D84   D(8,12,13,19)           1.1816         estimate D2E/DX2                !
 ! D85   D(11,12,13,14)         -0.3935         estimate D2E/DX2                !
 ! D86   D(11,12,13,19)       -179.9092         estimate D2E/DX2                !
 ! D87   D(12,13,14,9)           0.1975         estimate D2E/DX2                !
 ! D88   D(12,13,14,17)       -179.9027         estimate D2E/DX2                !
 ! D89   D(19,13,14,9)         179.7209         estimate D2E/DX2                !
 ! D90   D(19,13,14,17)         -0.3794         estimate D2E/DX2                !
 --------------------------------------------------------------------------------
 Trust Radius=3.00D-01 FncErr=1.00D-07 GrdErr=1.00D-06
 Number of steps in this run=     50 maximum allowed number of steps=    216.
 GradGradGradGradGradGradGradGradGradGradGradGradGradGradGradGradGradGrad

                          Input orientation:                          
 ---------------------------------------------------------------------
 Center     Atomic      Atomic             Coordinates (Angstroms)
 Number     Number       Type             X           Y           Z
 ---------------------------------------------------------------------
      1          6           0       -1.886916    0.501271    0.429454
      2          6           0       -1.101412   -0.116164    1.579568
      3          6           0       -0.219225    0.868884    2.385709
      4          6           0       -1.025104    2.004507    3.090495
      5          6           0       -0.097981    2.884220    3.952815
      6          8           0       -0.837692    3.948966    4.546400
      7          7           0        0.831463    1.487126    1.559652
      8          6           0        1.856361    0.551185    1.100924
      9          6           0        5.104460    2.689887   -0.779633
     10          6           0        3.936595    2.418403   -1.490321
     11          6           0        2.896357    1.723869   -0.874034
     12          6           0        2.992496    1.284225    0.447701
     13          6           0        4.168050    1.569976    1.143210
     14          6           0        5.218996    2.263386    0.542721
     15          1           0        5.919300    3.232346   -1.252059
     16          1           0        3.825863    2.744756   -2.520066
     17          1           0        6.119712    2.466607    1.114327
     18          9           0        1.781285    1.478836   -1.578177
     19          9           0        4.311406    1.168336    2.414586
     20          1           0       -1.224530    0.935070   -0.325154
     21          1           0       -2.486841   -0.270009   -0.065002
     22          1           0       -2.572826    1.277732    0.779037
     23          1           0       -1.803137   -0.617723    2.255827
     24          1           0       -0.480451   -0.925939    1.178222
     25          1           0       -1.487804    2.654641    2.335833
     26          1           0        0.696115    3.338001    3.352246
     27          1           0        0.362409    2.297406    4.755046
     28          1           0       -0.196653    4.494423    5.033498
     29          1           0        2.241764   -0.037033    1.942684
     30          1           0        1.446118   -0.166500    0.381087
     31          1           0        0.269260    0.288397    3.180847
     32          6           0       -2.164735    1.451242    3.961275
     33          1           0       -1.784326    0.738396    4.700554
     34          1           0       -2.682551    2.251417    4.500188
     35          1           0       -2.923327    0.946919    3.355685
     36          1           0        0.416933    1.954065    0.752846
 ---------------------------------------------------------------------
                    Distance matrix (angstroms):
                    1          2          3          4          5
     1  C    0.000000
     2  C    1.523484   0.000000
     3  C    2.596780   1.548689   0.000000
     4  C    3.175465   2.604989   1.560706   0.000000
     5  C    4.614413   3.954931   2.555797   1.541768   0.000000
     6  O    5.471446   5.039536   3.812872   2.436330   1.425903
     7  N    3.104648   2.511362   1.472596   2.461301   2.922835
     8  C    3.803352   3.069670   2.461638   3.791224   4.170826
     9  C    7.425043   7.207815   6.455778   7.281428   7.035568
    10  C    6.424501   6.421041   5.890285   6.765622   6.791356
    11  C    5.106224   5.038655   4.589529   5.583377   5.797495
    12  C    4.941863   4.472393   3.774061   4.862538   4.939317
    13  C    6.189846   5.549838   4.613406   5.563235   5.274480
    14  C    7.322012   6.832633   5.908933   6.748848   6.347001
    15  H    8.439388   8.277743   7.516701   8.281915   7.963641
    16  H    6.809459   7.019252   6.629348   7.453740   7.570614
    17  H    8.272707   7.683215   6.659674   7.427461   6.847709
    18  F    4.294405   4.563477   4.481794   5.472536   6.008212
    19  F    6.542547   5.625459   4.540608   5.443746   4.975249
    20  H    1.093787   2.179040   2.892023   3.584707   4.834182
    21  H    1.095112   2.155851   3.527768   4.155389   5.639031
    22  H    1.093422   2.179187   2.878887   2.875149   4.333420
    23  H    2.143550   1.096041   2.176154   2.859737   4.248639
    24  H    2.139095   1.096543   2.178911   3.541320   4.728844
    25  H    2.903545   2.898033   2.191052   1.098308   2.144515
    26  H    4.823049   4.278405   2.805099   2.193015   1.094161
    27  H    5.195797   4.248735   2.827142   2.186713   1.095392
    28  H    6.324514   5.831444   4.489524   3.265161   1.941743
    29  H    4.430083   3.363769   2.659591   4.019674   4.248382
    30  H    3.399614   2.815812   2.804264   4.261584   4.944530
    31  H    3.502081   2.146277   1.099012   2.151412   2.732965
    32  C    3.667886   3.043016   2.570323   1.537244   2.514949
    33  H    4.278907   3.307143   2.797334   2.184432   2.829741
    34  H    4.501880   4.078659   3.528512   2.189824   2.716626
    35  H    3.136172   2.757555   2.873867   2.189079   3.477395
    36  H    2.742793   2.697163   2.061203   2.747111   3.371962
                    6          7          8          9         10
     6  O    0.000000
     7  N    4.215139   0.000000
     8  C    5.538424   1.461791   0.000000
     9  C    8.078433   5.017708   4.319802   0.000000
    10  C    7.847193   4.451006   3.811617   1.393804   0.000000
    11  C    6.948042   3.200416   2.521356   2.412016   1.394375
    12  C    6.210517   2.438784   1.501616   2.818267   2.435901
    13  C    6.503749   3.363495   2.526585   2.414206   2.776488
    14  C    7.453462   4.570249   3.814517   1.394146   2.408701
    15  H    8.932671   6.069398   5.406721   1.086928   2.156477
    16  H    8.551831   5.214611   4.669289   2.160307   1.085883
    17  H    7.898227   5.396598   4.673883   2.160480   3.398899
    18  F    7.104296   3.278445   2.836151   3.625991   2.352842
    19  F    6.228141   3.597575   2.851987   3.625891   4.117214
    20  H    5.741537   2.843302   3.416571   6.583468   5.495007
    21  H    6.464091   4.091230   4.571340   8.179213   7.107716
    22  H    4.933478   3.498913   4.499909   7.960173   6.987394
    23  H    5.199371   3.443278   4.011493   8.238276   7.496413
    24  H    5.936071   2.772993   2.765603   6.935317   6.149475
    25  H    2.642826   2.710083   4.139199   7.291455   6.642241
    26  H    2.037608   2.580204   3.765762   6.076675   5.898883
    27  H    2.052176   3.329731   4.316687   7.298888   7.196809
    28  H    0.972481   4.708340   5.935413   8.071595   7.997113
    29  H    5.670148   2.111569   1.096857   4.800222   4.548312
    30  H    6.285116   2.121626   1.096146   4.784316   4.048008
    31  H    4.060769   2.093155   2.629454   6.695649   6.309206
    32  C    2.888259   3.840089   5.016067   8.766507   8.239025
    33  H    3.350767   4.155504   5.123181   9.016437   8.595248
    34  H    2.507451   4.645340   5.920093   9.418403   8.929008
    35  H    3.844472   4.197143   5.299620   9.196965   8.526873
    36  H    4.465956   1.020198   2.039898   4.986265   4.199456
                   11         12         13         14         15
    11  C    0.000000
    12  C    1.396250   0.000000
    13  C    2.389594   1.395462   0.000000
    14  C    2.773612   2.434150   1.394952   0.000000
    15  H    3.399499   3.905194   3.401127   2.156512   0.000000
    16  H    2.148398   3.411054   3.862226   3.399000   2.495609
    17  H    3.859437   3.409090   2.147968   1.085966   2.495256
    18  F    1.341359   2.368351   3.620898   4.114801   4.506031
    19  F    3.622982   2.370989   1.340993   2.350900   4.504414
    20  H    4.231452   4.301456   5.624866   6.636012   7.561147
    21  H    5.797319   5.718535   7.009486   8.134331   9.183616
    22  H    5.730938   5.575180   6.757029   7.857471   8.947741
    23  H    6.112637   5.466701   6.455929   7.781123   9.314737
    24  H    4.757738   4.180891   5.276304   6.561962   8.009645
    25  H    5.512753   5.051353   5.881117   6.953380   8.250570
    26  H    5.030699   4.234117   4.478849   5.431821   6.963652
    27  H    6.199708   5.147535   5.296925   6.428941   8.236411
    28  H    7.220915   6.442482   6.537382   7.380641   8.860358
    29  H    3.385730   2.131735   2.632910   4.014441   5.866813
    30  H    2.692957   2.121397   3.317393   4.490555   5.850528
    31  H    5.040266   3.984693   4.582027   5.946442   7.761472
    32  C    7.004940   6.242606   6.932514   8.177137   9.782781
    33  H    7.345474   6.418934   6.984053   8.286114  10.049838
    34  H    7.764328   7.040190   7.659269   8.837202  10.394345
    35  H    7.236221   6.600538   7.454587   8.714544  10.229689
    36  H    2.974436   2.678679   3.790882   4.816601   5.994138
                   16         17         18         19         20
    16  H    0.000000
    17  H    4.306730   0.000000
    18  F    2.582636   5.200694   0.000000
    19  F    5.203042   2.578013   4.737096   0.000000
    20  H    5.796471   7.639084   3.301617   6.181195   0.000000
    21  H    7.413931   9.107834   4.854385   7.377896   1.764461
    22  H    7.347072   8.779867   4.955319   7.076697   1.776107
    23  H    8.111785   8.578324   5.651834   6.372036   3.067151
    24  H    6.759858   7.421294   4.300712   5.373684   2.505424
    25  H    7.198815   7.707252   5.233444   5.987165   3.179165
    26  H    6.680667   5.931527   5.379885   4.319373   4.794395
    27  H    8.069875   6.813956   6.541634   4.727275   5.493884
    28  H    8.734890   7.705090   7.531285   6.184186   6.514651
    29  H    5.492163   4.689656   3.860876   2.441111   4.254793
    30  H    4.749241   5.414183   2.580345   3.758561   2.973986
    31  H    7.154267   6.575933   5.133388   4.207183   3.865441
    32  C    8.920102   8.818625   6.801277   6.664284   4.418585
    33  H    9.361466   8.849947   7.258395   6.524450   5.060612
    34  H    9.585760   9.433461   7.580847   7.378227   5.209848
    35  H    9.127334   9.439793   6.838078   7.299045   4.053964
    36  H    4.791445   5.737164   2.742438   4.306468   2.212428
                   21         22         23         24         25
    21  H    0.000000
    22  H    1.765021   0.000000
    23  H    2.444300   2.523109   0.000000
    24  H    2.449786   3.064890   1.733704   0.000000
    25  H    3.913523   2.344518   3.288495   3.895559   0.000000
    26  H    5.901401   4.642423   4.805845   4.928679   2.503913
    27  H    6.159765   5.046185   4.408363   4.888153   3.066512
    28  H    7.344350   5.838984   6.035750   6.657629   3.511305
    29  H    5.142449   5.124740   4.098351   2.963952   4.616205
    30  H    3.959530   4.289065   3.778348   2.218973   4.515281
    31  H    4.294583   3.850315   2.443674   2.459103   3.066013
    32  C    4.390599   3.212987   2.705535   4.029043   2.132713
    33  H    4.921477   4.036200   2.795729   4.108153   3.058075
    34  H    5.218894   3.847995   3.747331   5.097087   2.504884
    35  H    3.656847   2.621336   2.216443   3.770489   2.452986
    36  H    3.747971   3.065415   3.715071   3.046419   2.573845
                   26         27         28         29         30
    26  H    0.000000
    27  H    1.778214   0.000000
    28  H    2.227320   2.284069   0.000000
    29  H    3.970737   4.109861   6.002758   0.000000
    30  H    4.655300   5.135832   6.787328   1.757384   0.000000
    31  H    3.084099   2.553996   4.619529   2.351537   3.070925
    32  C    3.480695   2.780741   3.779413   5.070198   5.336019
    33  H    3.837769   2.653668   4.091368   4.941309   5.469223
    34  H    3.730123   3.055953   3.390455   6.002225   6.313416
    35  H    4.337931   3.818126   4.778555   5.444529   5.401850
    36  H    2.958057   4.017270   5.015365   2.951304   2.386257
                   31         32         33         34         35
    31  H    0.000000
    32  C    2.808132   0.000000
    33  H    2.594075   1.095168   0.000000
    34  H    3.782499   1.094916   1.770928   0.000000
    35  H    3.264480   1.093866   1.774677   1.752020   0.000000
    36  H    2.948126   4.148718   4.680576   4.872144   4.352752
                   36
    36  H    0.000000
 Stoichiometry    C13H19F2NO
 Framework group  C1[X(C13H19F2NO)]
 Deg. of freedom   102
 Full point group                 C1      NOp   1
 Largest Abelian subgroup         C1      NOp   1
 Largest concise Abelian subgroup C1      NOp   1
                         Standard orientation:                         
 ---------------------------------------------------------------------
 Center     Atomic      Atomic             Coordinates (Angstroms)
 Number     Number       Type             X           Y           Z
 ---------------------------------------------------------------------
      1          6           0        2.251555    2.766443   -0.185818
      2          6           0        2.213779    1.805220    0.995549
      3          6           0        1.869156    0.336388    0.645969
      4          6           0        2.896093   -0.340239   -0.314957
      5          6           0        2.546045   -1.825068   -0.538103
      6          8           0        3.459737   -2.415629   -1.459843
      7          7           0        0.524284    0.198584    0.062130
      8          6           0       -0.562632    0.495865    0.993296
      9          6           0       -4.368518   -0.545756   -0.764812
     10          6           0       -3.750078    0.660162   -1.090361
     11          6           0       -2.523501    0.987412   -0.513559
     12          6           0       -1.891050    0.134848    0.393442
     13          6           0       -2.524442   -1.069528    0.702646
     14          6           0       -3.751662   -1.413271    0.135492
     15          1           0       -5.323794   -0.809246   -1.211393
     16          1           0       -4.212045    1.348318   -1.791910
     17          1           0       -4.215992   -2.358440    0.400772
     18          9           0       -1.946983    2.151891   -0.846516
     19          9           0       -1.959730   -1.922825    1.569391
     20          1           0        1.278302    2.837769   -0.679844
     21          1           0        2.517146    3.770229    0.162242
     22          1           0        2.997641    2.467174   -0.927010
     23          1           0        3.180499    1.842470    1.510691
     24          1           0        1.496064    2.189116    1.730338
     25          1           0        2.869786    0.155217   -1.294810
     26          1           0        1.542585   -1.941217   -0.958539
     27          1           0        2.597915   -2.384326    0.402335
     28          1           0        3.161372   -3.330747   -1.598607
     29          1           0       -0.426227   -0.058081    1.930117
     30          1           0       -0.578818    1.559096    1.259405
     31          1           0        1.893301   -0.233361    1.585453
     32          6           0        4.338329   -0.224628    0.204378
     33          1           0        4.427795   -0.641828    1.213008
     34          1           0        5.042052   -0.756822   -0.443993
     35          1           0        4.672191    0.816678    0.231933
     36          1           0        0.434309    0.794269   -0.761197
 ---------------------------------------------------------------------
 Rotational constants (GHZ):      0.6772430      0.2464307      0.2087322
 Standard basis: 6-31G(d,p) (6D, 7F)
 There are   350 symmetry adapted cartesian basis functions of A   symmetry.
 There are   350 symmetry adapted basis functions of A   symmetry.
   350 basis functions,   609 primitive gaussians,   350 cartesian basis functions
    65 alpha electrons       65 beta electrons
       nuclear repulsion energy      1255.7848782853 Hartrees.
 NAtoms=   36 NActive=   36 NUniq=   36 SFac= 1.00D+00 NAtFMM=   60 NAOKFM=F Big=F
 Integral buffers will be    131072 words long.
 Raffenetti 2 integral format.
 Two-electron integral symmetry is turned on.
 ------------------------------------------------------------------------------
 Polarizable Continuum Model (PCM)
 =================================
 Model                : PCM (using non-symmetric T matrix).
 Atomic radii         : UFF (Universal Force Field).
 Polarization charges : Total charges.
 Charge compensation  : None.
 Solution method      : On-the-fly selection.
 Cavity type          : Scaled VdW (van der Waals Surface) (Alpha=1.100).
 Cavity algorithm     : GePol (No added spheres)
                        Default sphere list used, NSphG=   36.
                        Lebedev-Laikov grids with approx.  5.0 points / Ang**2.
                        Smoothing algorithm: Karplus/York (Gamma=1.0000).
                        Polarization charges: spherical gaussians, with
                                              point-specific exponents (IZeta= 3).
                        Self-potential: point-specific (ISelfS= 7).
                        Self-field    : sphere-specific E.n sum rule (ISelfD= 2).
 1st derivatives      : Analytical E(r).r(x)/FMM algorithm (CHGder, D1EAlg=3).
                        Cavity 1st derivative terms included.
 Solvent              : Chloroform, Eps=   4.711300 Eps(inf)=   2.090627
 ------------------------------------------------------------------------------
 One-electron integrals computed using PRISM.
 NBasis=   350 RedAO= T EigKep=  4.10D-04  NBF=   350
 NBsUse=   350 1.00D-06 EigRej= -1.00D+00 NBFU=   350
 ExpMin= 1.61D-01 ExpMax= 7.00D+03 ExpMxC= 1.05D+03 IAcc=1 IRadAn=         1 AccDes= 0.00D+00
 Harris functional with IExCor=  402 and IRadAn=       1 diagonalized for initial guess.
 HarFok:  IExCor=  402 AccDes= 0.00D+00 IRadAn=         1 IDoV= 1 UseB2=F ITyADJ=14
 ICtDFT=  3500011 ScaDFX=  1.000000  1.000000  1.000000  1.000000
 FoFCou: FMM=F IPFlag=           0 FMFlag=      100000 FMFlg1=           0
         NFxFlg=           0 DoJE=T BraDBF=F KetDBF=T FulRan=T
         wScrn=  0.000000 ICntrl=     500 IOpCl=  0 I1Cent=   200000004 NGrid=           0
         NMat0=    1 NMatS0=      1 NMatT0=    0 NMatD0=    1 NMtDS0=    0 NMtDT0=    0
 Petite list used in FoFCou.
 Requested convergence on RMS density matrix=1.00D-08 within 128 cycles.
 Requested convergence on MAX density matrix=1.00D-06.
 Requested convergence on             energy=1.00D-06.
 No special actions if energy rises.
 Inv3:  Mode=1 IEnd=    19492203.
 Iteration    1 A*A^-1 deviation from unit magnitude is 7.55D-15 for   1526.
 Iteration    1 A*A^-1 deviation from orthogonality  is 1.03D-14 for   1866   1396.
 Iteration    1 A^-1*A deviation from unit magnitude is 7.11D-15 for    398.
 Iteration    1 A^-1*A deviation from orthogonality  is 1.07D-07 for   2379   1953.
 Iteration    2 A*A^-1 deviation from unit magnitude is 8.88D-15 for     98.
 Iteration    2 A*A^-1 deviation from orthogonality  is 8.22D-15 for   2429    308.
 Iteration    2 A^-1*A deviation from unit magnitude is 1.55D-15 for    524.
 Iteration    2 A^-1*A deviation from orthogonality  is 6.66D-16 for   2412     53.
 Error on total polarization charges =  0.00763
 SCF Done:  E(RB3LYP) =  -836.487590140     A.U. after   12 cycles
            NFock= 12  Conv=0.64D-08     -V/T= 2.0088

 **********************************************************************

            Population analysis using the SCF density.

 **********************************************************************

 Orbital symmetries:
       Occupied  (A) (A) (A) (A) (A) (A) (A) (A) (A) (A) (A) (A)
                 (A) (A) (A) (A) (A) (A) (A) (A) (A) (A) (A) (A)
                 (A) (A) (A) (A) (A) (A) (A) (A) (A) (A) (A) (A)
                 (A) (A) (A) (A) (A) (A) (A) (A) (A) (A) (A) (A)
                 (A) (A) (A) (A) (A) (A) (A) (A) (A) (A) (A) (A)
                 (A) (A) (A) (A) (A)
       Virtual   (A) (A) (A) (A) (A) (A) (A) (A) (A) (A) (A) (A)
                 (A) (A) (A) (A) (A) (A) (A) (A) (A) (A) (A) (A)
                 (A) (A) (A) (A) (A) (A) (A) (A) (A) (A) (A) (A)
                 (A) (A) (A) (A) (A) (A) (A) (A) (A) (A) (A) (A)
                 (A) (A) (A) (A) (A) (A) (A) (A) (A) (A) (A) (A)
                 (A) (A) (A) (A) (A) (A) (A) (A) (A) (A) (A) (A)
                 (A) (A) (A) (A) (A) (A) (A) (A) (A) (A) (A) (A)
                 (A) (A) (A) (A) (A) (A) (A) (A) (A) (A) (A) (A)
                 (A) (A) (A) (A) (A) (A) (A) (A) (A) (A) (A) (A)
                 (A) (A) (A) (A) (A) (A) (A) (A) (A) (A) (A) (A)
                 (A) (A) (A) (A) (A) (A) (A) (A) (A) (A) (A) (A)
                 (A) (A) (A) (A) (A) (A) (A) (A) (A) (A) (A) (A)
                 (A) (A) (A) (A) (A) (A) (A) (A) (A) (A) (A) (A)
                 (A) (A) (A) (A) (A) (A) (A) (A) (A) (A) (A) (A)
                 (A) (A) (A) (A) (A) (A) (A) (A) (A) (A) (A) (A)
                 (A) (A) (A) (A) (A) (A) (A) (A) (A) (A) (A) (A)
                 (A) (A) (A) (A) (A) (A) (A) (A) (A) (A) (A) (A)
                 (A) (A) (A) (A) (A) (A) (A) (A) (A) (A) (A) (A)
                 (A) (A) (A) (A) (A) (A) (A) (A) (A) (A) (A) (A)
                 (A) (A) (A) (A) (A) (A) (A) (A) (A) (A) (A) (A)
                 (A) (A) (A) (A) (A) (A) (A) (A) (A) (A) (A) (A)
                 (A) (A) (A) (A) (A) (A) (A) (A) (A) (A) (A) (A)
                 (A) (A) (A) (A) (A) (A) (A) (A) (A) (A) (A) (A)
                 (A) (A) (A) (A) (A) (A) (A) (A) (A)
 The electronic state is 1-A.
 Alpha  occ. eigenvalues --  -24.72055 -24.71704 -19.13314 -14.31588 -10.28085
 Alpha  occ. eigenvalues --  -10.28045 -10.21552 -10.21499 -10.21101 -10.20664
 Alpha  occ. eigenvalues --  -10.20612 -10.19819 -10.19781 -10.18382 -10.17541
 Alpha  occ. eigenvalues --  -10.17225 -10.16606  -1.23383  -1.23055  -1.00440
 Alpha  occ. eigenvalues --   -0.90892  -0.86808  -0.79934  -0.76730  -0.75270
 Alpha  occ. eigenvalues --   -0.75147  -0.68839  -0.66319  -0.65233  -0.62912
 Alpha  occ. eigenvalues --   -0.61160  -0.58788  -0.56087  -0.55280  -0.52814
 Alpha  occ. eigenvalues --   -0.50345  -0.49230  -0.48913  -0.48518  -0.46810
 Alpha  occ. eigenvalues --   -0.46480  -0.46198  -0.45647  -0.44193  -0.43186
 Alpha  occ. eigenvalues --   -0.42517  -0.41806  -0.40081  -0.39713  -0.39150
 Alpha  occ. eigenvalues --   -0.38619  -0.37106  -0.36543  -0.36256  -0.35413
 Alpha  occ. eigenvalues --   -0.34860  -0.34035  -0.33637  -0.32828  -0.31328
 Alpha  occ. eigenvalues --   -0.30707  -0.25706  -0.25402  -0.24662  -0.21661
 Alpha virt. eigenvalues --   -0.01266  -0.00173   0.07140   0.08216   0.08972
 Alpha virt. eigenvalues --    0.10319   0.11415   0.12834   0.14319   0.14713
 Alpha virt. eigenvalues --    0.14912   0.15387   0.15671   0.15986   0.16942
 Alpha virt. eigenvalues --    0.17510   0.18066   0.18485   0.19213   0.19488
 Alpha virt. eigenvalues --    0.20210   0.21150   0.21277   0.22157   0.23084
 Alpha virt. eigenvalues --    0.23794   0.25114   0.25391   0.25703   0.27507
 Alpha virt. eigenvalues --    0.28330   0.28830   0.29125   0.31657   0.34186
 Alpha virt. eigenvalues --    0.37415   0.38647   0.46461   0.49182   0.49704
 Alpha virt. eigenvalues --    0.49837   0.51052   0.51564   0.52678   0.53203
 Alpha virt. eigenvalues --    0.54122   0.54636   0.55444   0.57403   0.57880
 Alpha virt. eigenvalues --    0.58425   0.59362   0.59572   0.59710   0.60795
 Alpha virt. eigenvalues --    0.61514   0.63228   0.63649   0.65117   0.65802
 Alpha virt. eigenvalues --    0.66859   0.67179   0.68160   0.69540   0.71128
 Alpha virt. eigenvalues --    0.73686   0.74848   0.76592   0.78197   0.79380
 Alpha virt. eigenvalues --    0.79936   0.81676   0.82488   0.83268   0.84192
 Alpha virt. eigenvalues --    0.84361   0.84866   0.85247   0.86033   0.86639
 Alpha virt. eigenvalues --    0.87827   0.88297   0.88673   0.89654   0.89805
 Alpha virt. eigenvalues --    0.91055   0.91997   0.92569   0.93170   0.94063
 Alpha virt. eigenvalues --    0.95730   0.96698   0.97285   0.97639   0.98937
 Alpha virt. eigenvalues --    1.00461   1.00985   1.03343   1.04562   1.05437
 Alpha virt. eigenvalues --    1.07833   1.09015   1.09943   1.11406   1.17005
 Alpha virt. eigenvalues --    1.20709   1.21134   1.21926   1.22854   1.23944
 Alpha virt. eigenvalues --    1.24518   1.25429   1.28176   1.28936   1.32300
 Alpha virt. eigenvalues --    1.34133   1.35535   1.36338   1.37863   1.39337
 Alpha virt. eigenvalues --    1.39863   1.41822   1.42612   1.43394   1.44112
 Alpha virt. eigenvalues --    1.45141   1.48489   1.50612   1.51183   1.53316
 Alpha virt. eigenvalues --    1.55404   1.57784   1.60610   1.62172   1.63321
 Alpha virt. eigenvalues --    1.66692   1.69615   1.71734   1.72860   1.73932
 Alpha virt. eigenvalues --    1.75797   1.77429   1.78118   1.79514   1.81688
 Alpha virt. eigenvalues --    1.82005   1.83261   1.84308   1.84897   1.85004
 Alpha virt. eigenvalues --    1.86823   1.88423   1.88988   1.89804   1.89861
 Alpha virt. eigenvalues --    1.90344   1.90801   1.91628   1.93776   1.95386
 Alpha virt. eigenvalues --    1.95864   1.98056   1.98150   1.99900   2.00127
 Alpha virt. eigenvalues --    2.00428   2.01889   2.03993   2.05111   2.05871
 Alpha virt. eigenvalues --    2.06633   2.08030   2.09277   2.09606   2.10390
 Alpha virt. eigenvalues --    2.12264   2.14006   2.15699   2.16488   2.18022
 Alpha virt. eigenvalues --    2.18491   2.19674   2.20944   2.23086   2.25367
 Alpha virt. eigenvalues --    2.27283   2.28093   2.28877   2.30072   2.30328
 Alpha virt. eigenvalues --    2.30965   2.31926   2.33292   2.34060   2.35314
 Alpha virt. eigenvalues --    2.36776   2.37447   2.38171   2.39128   2.40779
 Alpha virt. eigenvalues --    2.41097   2.41442   2.45091   2.47648   2.49146
 Alpha virt. eigenvalues --    2.51077   2.52376   2.52640   2.53921   2.55361
 Alpha virt. eigenvalues --    2.56277   2.57911   2.61035   2.62970   2.63533
 Alpha virt. eigenvalues --    2.64117   2.65505   2.66370   2.67273   2.68084
 Alpha virt. eigenvalues --    2.69519   2.71370   2.71840   2.74670   2.74833
 Alpha virt. eigenvalues --    2.76040   2.76974   2.77563   2.78837   2.81478
 Alpha virt. eigenvalues --    2.85207   2.86138   2.87240   2.88854   2.89477
 Alpha virt. eigenvalues --    2.91102   2.91954   2.92703   2.95502   2.96184
 Alpha virt. eigenvalues --    2.96779   3.00586   3.04228   3.06037   3.06587
 Alpha virt. eigenvalues --    3.10574   3.14747   3.19826   3.20381   3.22304
 Alpha virt. eigenvalues --    3.25490   3.29130   3.30283   3.32315   3.35528
 Alpha virt. eigenvalues --    3.35877   3.38822   3.39958   3.42154   3.45341
 Alpha virt. eigenvalues --    3.46238   3.47398   3.48548   3.51749   3.54001
 Alpha virt. eigenvalues --    3.55903   3.57036   3.80424   3.97823   4.05069
 Alpha virt. eigenvalues --    4.09638   4.11457   4.16774   4.33612   4.38035
 Alpha virt. eigenvalues --    4.40341   4.43806   4.53283   4.56202   4.60600
 Alpha virt. eigenvalues --    4.65842   4.75642   4.79293   5.50023   5.62942
          Condensed to atoms (all electrons):
               1          2          3          4          5          6
     1  C    4.940256   0.365435  -0.041856  -0.005607   0.000065   0.000000
     2  C    0.365435   4.996455   0.364909  -0.054166   0.004432  -0.000024
     3  C   -0.041856   0.364909   4.818711   0.354534  -0.032867   0.001734
     4  C   -0.005607  -0.054166   0.354534   4.986808   0.370514  -0.046193
     5  C    0.000065   0.004432  -0.032867   0.370514   4.758101   0.221667
     6  O    0.000000  -0.000024   0.001734  -0.046193   0.221667   8.186760
     7  N   -0.006581  -0.062476   0.299062  -0.050390  -0.011612   0.000124
     8  C   -0.001025  -0.005182  -0.039885   0.005307   0.000362  -0.000001
     9  C    0.000000   0.000000   0.000000   0.000000   0.000000   0.000000
    10  C   -0.000001   0.000000   0.000005   0.000000   0.000000   0.000000
    11  C   -0.000036  -0.000032   0.000184   0.000001   0.000003   0.000000
    12  C    0.000017   0.000216   0.004393  -0.000183  -0.000027   0.000000
    13  C    0.000000   0.000007   0.000003  -0.000018  -0.000017   0.000000
    14  C    0.000000   0.000000   0.000004   0.000000   0.000000   0.000000
    15  H    0.000000   0.000000   0.000000   0.000000   0.000000   0.000000
    16  H    0.000000   0.000000   0.000000   0.000000   0.000000   0.000000
    17  H    0.000000   0.000000   0.000000   0.000000   0.000000   0.000000
    18  F   -0.000172  -0.000003   0.000018   0.000000   0.000000   0.000000
    19  F    0.000000   0.000000  -0.000007   0.000000   0.000001   0.000000
    20  H    0.379525  -0.037972  -0.004388  -0.000457  -0.000015   0.000000
    21  H    0.382110  -0.028333   0.004279   0.000127  -0.000002   0.000000
    22  H    0.388406  -0.036856  -0.005530   0.002981  -0.000077   0.000001
    23  H   -0.039279   0.366388  -0.027216  -0.004875  -0.000054  -0.000001
    24  H   -0.042822   0.381259  -0.031397   0.004657  -0.000101   0.000000
    25  H    0.003256  -0.008117  -0.031551   0.370223  -0.041155   0.003658
    26  H   -0.000009   0.000291  -0.004148  -0.036482   0.375891  -0.039166
    27  H    0.000002  -0.000021  -0.001326  -0.042033   0.364321  -0.042578
    28  H    0.000000   0.000003  -0.000231   0.005977  -0.024083   0.284322
    29  H    0.000062  -0.001905  -0.003625   0.000382  -0.000026   0.000000
    30  H    0.001178   0.004231  -0.004471  -0.000306  -0.000005   0.000000
    31  H    0.005292  -0.051139   0.381633  -0.037839  -0.008224  -0.000034
    32  C   -0.002286   0.000553  -0.038928   0.351999  -0.045301  -0.003408
    33  H    0.000154  -0.001515  -0.005853  -0.035721  -0.004535  -0.000260
    34  H   -0.000005   0.000106   0.004174  -0.026902  -0.008552   0.011541
    35  H    0.000601   0.000392  -0.005838  -0.028356   0.004882   0.000122
    36  H    0.004374  -0.008118  -0.035212  -0.003524  -0.000101  -0.000017
               7          8          9         10         11         12
     1  C   -0.006581  -0.001025   0.000000  -0.000001  -0.000036   0.000017
     2  C   -0.062476  -0.005182   0.000000   0.000000  -0.000032   0.000216
     3  C    0.299062  -0.039885   0.000000   0.000005   0.000184   0.004393
     4  C   -0.050390   0.005307   0.000000   0.000000   0.000001  -0.000183
     5  C   -0.011612   0.000362   0.000000   0.000000   0.000003  -0.000027
     6  O    0.000124  -0.000001   0.000000   0.000000   0.000000   0.000000
     7  N    6.906017   0.284102   0.000023  -0.000172  -0.007805  -0.049628
     8  C    0.284102   4.928751  -0.000593   0.008758  -0.047766   0.303829
     9  C    0.000023  -0.000593   4.855382   0.487152  -0.009139  -0.028467
    10  C   -0.000172   0.008758   0.487152   5.057870   0.474904  -0.075479
    11  C   -0.007805  -0.047766  -0.009139   0.474904   4.623623   0.391473
    12  C   -0.049628   0.303829  -0.028467  -0.075479   0.391473   5.313363
    13  C    0.005399  -0.047887  -0.008257  -0.050170   0.014551   0.412583
    14  C   -0.000057   0.008329   0.485070  -0.031223  -0.049283  -0.071462
    15  H    0.000000   0.000004   0.375424  -0.034833   0.003639   0.000215
    16  H    0.000001  -0.000156  -0.037378   0.358448  -0.032552   0.006509
    17  H    0.000002  -0.000146  -0.037496   0.004744   0.000479   0.006390
    18  F   -0.001764   0.003259   0.002985  -0.047942   0.309832  -0.058621
    19  F   -0.000274  -0.002262   0.003057  -0.000055   0.002512  -0.052826
    20  H    0.004104   0.001231   0.000000   0.000006   0.000140  -0.000235
    21  H    0.000195   0.000001   0.000000   0.000000   0.000000   0.000000
    22  H   -0.000184   0.000032   0.000000   0.000000   0.000000   0.000002
    23  H    0.005073   0.000152   0.000000   0.000000   0.000001  -0.000001
    24  H   -0.005541   0.002039   0.000000   0.000000   0.000004   0.000020
    25  H   -0.005294  -0.000001   0.000000   0.000000  -0.000003   0.000004
    26  H    0.017376  -0.000481   0.000000   0.000000  -0.000017   0.000065
    27  H    0.000228  -0.000030   0.000000   0.000000   0.000000  -0.000010
    28  H    0.000012   0.000000   0.000000   0.000000   0.000000   0.000000
    29  H   -0.042482   0.376120  -0.000026  -0.000173   0.005602  -0.028326
    30  H   -0.049161   0.351507  -0.000025  -0.000031  -0.013634  -0.033690
    31  H   -0.046122  -0.006513   0.000000   0.000000  -0.000004   0.000094
    32  C    0.003751  -0.000149   0.000000   0.000000   0.000000   0.000002
    33  H    0.000029   0.000000   0.000000   0.000000   0.000000   0.000000
    34  H   -0.000088   0.000002   0.000000   0.000000   0.000000   0.000000
    35  H    0.000008   0.000000   0.000000   0.000000   0.000000   0.000000
    36  H    0.333500  -0.035522  -0.000013  -0.000055   0.004620  -0.007807
              13         14         15         16         17         18
     1  C    0.000000   0.000000   0.000000   0.000000   0.000000  -0.000172
     2  C    0.000007   0.000000   0.000000   0.000000   0.000000  -0.000003
     3  C    0.000003   0.000004   0.000000   0.000000   0.000000   0.000018
     4  C   -0.000018   0.000000   0.000000   0.000000   0.000000   0.000000
     5  C   -0.000017   0.000000   0.000000   0.000000   0.000000   0.000000
     6  O    0.000000   0.000000   0.000000   0.000000   0.000000   0.000000
     7  N    0.005399  -0.000057   0.000000   0.000001   0.000002  -0.001764
     8  C   -0.047887   0.008329   0.000004  -0.000156  -0.000146   0.003259
     9  C   -0.008257   0.485070   0.375424  -0.037378  -0.037496   0.002985
    10  C   -0.050170  -0.031223  -0.034833   0.358448   0.004744  -0.047942
    11  C    0.014551  -0.049283   0.003639  -0.032552   0.000479   0.309832
    12  C    0.412583  -0.071462   0.000215   0.006509   0.006390  -0.058621
    13  C    4.594680   0.471496   0.003611   0.000499  -0.032687   0.002377
    14  C    0.471496   5.057734  -0.034509   0.004688   0.358870  -0.000070
    15  H    0.003611  -0.034509   0.581594  -0.005949  -0.005931  -0.000022
    16  H    0.000499   0.004688  -0.005949   0.595042  -0.000151  -0.000403
    17  H   -0.032687   0.358870  -0.005931  -0.000151   0.595364   0.000001
    18  F    0.002377  -0.000070  -0.000022  -0.000403   0.000001   9.071448
    19  F    0.310784  -0.047055  -0.000023   0.000001  -0.000528   0.000000
    20  H   -0.000003   0.000000   0.000000   0.000000   0.000000   0.001057
    21  H    0.000000   0.000000   0.000000   0.000000   0.000000   0.000000
    22  H    0.000000   0.000000   0.000000   0.000000   0.000000   0.000001
    23  H    0.000000   0.000000   0.000000   0.000000   0.000000   0.000000
    24  H   -0.000006   0.000000   0.000000   0.000000   0.000000  -0.000012
    25  H    0.000001   0.000000   0.000000   0.000000   0.000000   0.000000
    26  H    0.000119   0.000001   0.000000   0.000000   0.000000   0.000000
    27  H    0.000004   0.000000   0.000000   0.000000   0.000000   0.000000
    28  H    0.000000   0.000000   0.000000   0.000000   0.000000   0.000000
    29  H   -0.009284   0.000399   0.000000   0.000002  -0.000008   0.000181
    30  H    0.006232  -0.000177   0.000000   0.000002   0.000003   0.004634
    31  H    0.000004   0.000000   0.000000   0.000000   0.000000  -0.000001
    32  C    0.000000   0.000000   0.000000   0.000000   0.000000   0.000000
    33  H    0.000000   0.000000   0.000000   0.000000   0.000000   0.000000
    34  H    0.000000   0.000000   0.000000   0.000000   0.000000   0.000000
    35  H    0.000000   0.000000   0.000000   0.000000   0.000000   0.000000
    36  H   -0.000339   0.000006   0.000000   0.000002   0.000000   0.004333
              19         20         21         22         23         24
     1  C    0.000000   0.379525   0.382110   0.388406  -0.039279  -0.042822
     2  C    0.000000  -0.037972  -0.028333  -0.036856   0.366388   0.381259
     3  C   -0.000007  -0.004388   0.004279  -0.005530  -0.027216  -0.031397
     4  C    0.000000  -0.000457   0.000127   0.002981  -0.004875   0.004657
     5  C    0.000001  -0.000015  -0.000002  -0.000077  -0.000054  -0.000101
     6  O    0.000000   0.000000   0.000000   0.000001  -0.000001   0.000000
     7  N   -0.000274   0.004104   0.000195  -0.000184   0.005073  -0.005541
     8  C   -0.002262   0.001231   0.000001   0.000032   0.000152   0.002039
     9  C    0.003057   0.000000   0.000000   0.000000   0.000000   0.000000
    10  C   -0.000055   0.000006   0.000000   0.000000   0.000000   0.000000
    11  C    0.002512   0.000140   0.000000   0.000000   0.000001   0.000004
    12  C   -0.052826  -0.000235   0.000000   0.000002  -0.000001   0.000020
    13  C    0.310784  -0.000003   0.000000   0.000000   0.000000  -0.000006
    14  C   -0.047055   0.000000   0.000000   0.000000   0.000000   0.000000
    15  H   -0.000023   0.000000   0.000000   0.000000   0.000000   0.000000
    16  H    0.000001   0.000000   0.000000   0.000000   0.000000   0.000000
    17  H   -0.000528   0.000000   0.000000   0.000000   0.000000   0.000000
    18  F    0.000000   0.001057   0.000000   0.000001   0.000000  -0.000012
    19  F    9.066638   0.000000   0.000000   0.000000   0.000000   0.000000
    20  H    0.000000   0.612803  -0.030284  -0.032775   0.006101  -0.005430
    21  H    0.000000  -0.030284   0.603264  -0.030412  -0.003777  -0.003391
    22  H    0.000000  -0.032775  -0.030412   0.597757  -0.005109   0.005681
    23  H    0.000000   0.006101  -0.003777  -0.005109   0.640677  -0.037291
    24  H    0.000000  -0.005430  -0.003391   0.005681  -0.037291   0.638761
    25  H    0.000000   0.000044  -0.000080   0.001930   0.000152  -0.000037
    26  H    0.000000  -0.000008   0.000000   0.000000  -0.000017   0.000000
    27  H    0.000001   0.000000   0.000000  -0.000001  -0.000018   0.000000
    28  H    0.000000   0.000000   0.000000   0.000000   0.000000   0.000000
    29  H    0.008965   0.000019   0.000001  -0.000001   0.000017   0.000560
    30  H    0.000195  -0.000820  -0.000083  -0.000021  -0.000421   0.001879
    31  H   -0.000021   0.000048  -0.000152   0.000024  -0.001453  -0.004286
    32  C    0.000000   0.000066   0.000000   0.000243   0.001484   0.000096
    33  H    0.000000  -0.000004   0.000001  -0.000026   0.000981  -0.000044
    34  H    0.000000   0.000002   0.000001  -0.000050  -0.000029  -0.000002
    35  H    0.000000  -0.000034  -0.000041   0.001516   0.001180   0.000004
    36  H   -0.000011   0.005057  -0.000195   0.000080   0.000052  -0.000035
              25         26         27         28         29         30
     1  C    0.003256  -0.000009   0.000002   0.000000   0.000062   0.001178
     2  C   -0.008117   0.000291  -0.000021   0.000003  -0.001905   0.004231
     3  C   -0.031551  -0.004148  -0.001326  -0.000231  -0.003625  -0.004471
     4  C    0.370223  -0.036482  -0.042033   0.005977   0.000382  -0.000306
     5  C   -0.041155   0.375891   0.364321  -0.024083  -0.000026  -0.000005
     6  O    0.003658  -0.039166  -0.042578   0.284322   0.000000   0.000000
     7  N   -0.005294   0.017376   0.000228   0.000012  -0.042482  -0.049161
     8  C   -0.000001  -0.000481  -0.000030   0.000000   0.376120   0.351507
     9  C    0.000000   0.000000   0.000000   0.000000  -0.000026  -0.000025
    10  C    0.000000   0.000000   0.000000   0.000000  -0.000173  -0.000031
    11  C   -0.000003  -0.000017   0.000000   0.000000   0.005602  -0.013634
    12  C    0.000004   0.000065  -0.000010   0.000000  -0.028326  -0.033690
    13  C    0.000001   0.000119   0.000004   0.000000  -0.009284   0.006232
    14  C    0.000000   0.000001   0.000000   0.000000   0.000399  -0.000177
    15  H    0.000000   0.000000   0.000000   0.000000   0.000000   0.000000
    16  H    0.000000   0.000000   0.000000   0.000000   0.000002   0.000002
    17  H    0.000000   0.000000   0.000000   0.000000  -0.000008   0.000003
    18  F    0.000000   0.000000   0.000000   0.000000   0.000181   0.004634
    19  F    0.000000   0.000000   0.000001   0.000000   0.008965   0.000195
    20  H    0.000044  -0.000008   0.000000   0.000000   0.000019  -0.000820
    21  H   -0.000080   0.000000   0.000000   0.000000   0.000001  -0.000083
    22  H    0.001930   0.000000  -0.000001   0.000000  -0.000001  -0.000021
    23  H    0.000152  -0.000017  -0.000018   0.000000   0.000017  -0.000421
    24  H   -0.000037   0.000000   0.000000   0.000000   0.000560   0.001879
    25  H    0.656710  -0.006904   0.007224  -0.000131   0.000006  -0.000004
    26  H   -0.006904   0.648749  -0.051126  -0.004881  -0.000069   0.000051
    27  H    0.007224  -0.051126   0.694986  -0.003966  -0.000022   0.000005
    28  H   -0.000131  -0.004881  -0.003966   0.424121   0.000000   0.000000
    29  H    0.000006  -0.000069  -0.000022   0.000000   0.610268  -0.047734
    30  H   -0.000004   0.000051   0.000005   0.000000  -0.047734   0.688954
    31  H    0.006351  -0.000743   0.006083  -0.000002   0.007086  -0.001029
    32  C   -0.049235   0.006388  -0.011257   0.000311  -0.000013   0.000015
    33  H    0.006140  -0.000083   0.005192  -0.000036  -0.000002   0.000000
    34  H   -0.002362   0.000326   0.000193  -0.000480   0.000000   0.000000
    35  H   -0.005361  -0.000157  -0.000082   0.000002   0.000000  -0.000001
    36  H    0.003893  -0.000173   0.000017   0.000000   0.006252  -0.006787
              31         32         33         34         35         36
     1  C    0.005292  -0.002286   0.000154  -0.000005   0.000601   0.004374
     2  C   -0.051139   0.000553  -0.001515   0.000106   0.000392  -0.008118
     3  C    0.381633  -0.038928  -0.005853   0.004174  -0.005838  -0.035212
     4  C   -0.037839   0.351999  -0.035721  -0.026902  -0.028356  -0.003524
     5  C   -0.008224  -0.045301  -0.004535  -0.008552   0.004882  -0.000101
     6  O   -0.000034  -0.003408  -0.000260   0.011541   0.000122  -0.000017
     7  N   -0.046122   0.003751   0.000029  -0.000088   0.000008   0.333500
     8  C   -0.006513  -0.000149   0.000000   0.000002   0.000000  -0.035522
     9  C    0.000000   0.000000   0.000000   0.000000   0.000000  -0.000013
    10  C    0.000000   0.000000   0.000000   0.000000   0.000000  -0.000055
    11  C   -0.000004   0.000000   0.000000   0.000000   0.000000   0.004620
    12  C    0.000094   0.000002   0.000000   0.000000   0.000000  -0.007807
    13  C    0.000004   0.000000   0.000000   0.000000   0.000000  -0.000339
    14  C    0.000000   0.000000   0.000000   0.000000   0.000000   0.000006
    15  H    0.000000   0.000000   0.000000   0.000000   0.000000   0.000000
    16  H    0.000000   0.000000   0.000000   0.000000   0.000000   0.000002
    17  H    0.000000   0.000000   0.000000   0.000000   0.000000   0.000000
    18  F   -0.000001   0.000000   0.000000   0.000000   0.000000   0.004333
    19  F   -0.000021   0.000000   0.000000   0.000000   0.000000  -0.000011
    20  H    0.000048   0.000066  -0.000004   0.000002  -0.000034   0.005057
    21  H   -0.000152   0.000000   0.000001   0.000001  -0.000041  -0.000195
    22  H    0.000024   0.000243  -0.000026  -0.000050   0.001516   0.000080
    23  H   -0.001453   0.001484   0.000981  -0.000029   0.001180   0.000052
    24  H   -0.004286   0.000096  -0.000044  -0.000002   0.000004  -0.000035
    25  H    0.006351  -0.049235   0.006140  -0.002362  -0.005361   0.003893
    26  H   -0.000743   0.006388  -0.000083   0.000326  -0.000157  -0.000173
    27  H    0.006083  -0.011257   0.005192   0.000193  -0.000082   0.000017
    28  H   -0.000002   0.000311  -0.000036  -0.000480   0.000002   0.000000
    29  H    0.007086  -0.000013  -0.000002   0.000000   0.000000   0.006252
    30  H   -0.001029   0.000015   0.000000   0.000000  -0.000001  -0.006787
    31  H    0.654469  -0.006037   0.005347  -0.000081  -0.000135   0.006572
    32  C   -0.006037   4.981999   0.379343   0.377769   0.379284  -0.000107
    33  H    0.005347   0.379343   0.616630  -0.030406  -0.032796   0.000011
    34  H   -0.000081   0.377769  -0.030406   0.590401  -0.031822   0.000002
    35  H   -0.000135   0.379284  -0.032796  -0.031822   0.613954   0.000001
    36  H    0.006572  -0.000107   0.000011   0.000002   0.000001   0.482894
 Mulliken charges:
               1
     1  C   -0.331058
     2  C   -0.188816
     3  C    0.080684
     4  C   -0.080458
     5  C    0.076518
     6  O   -0.578246
     7  N   -0.519373
     8  C   -0.086188
     9  C   -0.087699
    10  C   -0.151754
    11  C    0.328705
    12  C   -0.032412
    13  C    0.326316
    14  C   -0.152761
    15  H    0.116779
    16  H    0.111395
    17  H    0.111093
    18  F   -0.291113
    19  F   -0.289092
    20  H    0.102223
    21  H    0.106772
    22  H    0.112389
    23  H    0.097283
    24  H    0.095435
    25  H    0.090643
    26  H    0.095208
    27  H    0.074216
    28  H    0.319063
    29  H    0.117773
    30  H    0.099513
    31  H    0.090810
    32  C   -0.326584
    33  H    0.097453
    34  H    0.116260
    35  H    0.102676
    36  H    0.246349
 Sum of Mulliken charges =   0.00000
 Mulliken charges with hydrogens summed into heavy atoms:
               1
     1  C   -0.009675
     2  C    0.003902
     3  C    0.171494
     4  C    0.010185
     5  C    0.245941
     6  O   -0.259183
     7  N   -0.273024
     8  C    0.131098
     9  C    0.029079
    10  C   -0.040359
    11  C    0.328705
    12  C   -0.032412
    13  C    0.326316
    14  C   -0.041668
    18  F   -0.291113
    19  F   -0.289092
    32  C   -0.010195
 Electronic spatial extent (au):  <R**2>=           5360.8511
 Charge=              0.0000 electrons
 Dipole moment (field-independent basis, Debye):
    X=             -2.2861    Y=              0.0661    Z=              0.3458  Tot=              2.3131
 Quadrupole moment (field-independent basis, Debye-Ang):
   XX=            -98.4812   YY=            -95.5436   ZZ=           -101.1969
   XY=              3.8649   XZ=              7.8541   YZ=              1.1603
 Traceless Quadrupole moment (field-independent basis, Debye-Ang):
   XX=             -0.0740   YY=              2.8636   ZZ=             -2.7897
   XY=              3.8649   XZ=              7.8541   YZ=              1.1603
 Octapole moment (field-independent basis, Debye-Ang**2):
  XXX=           -108.7992  YYY=            -45.2446  ZZZ=              1.0414  XYY=              9.0963
  XXY=             -2.4730  XXZ=             -4.9958  XZZ=             -9.5611  YZZ=              0.5827
  YYZ=             -9.9739  XYZ=             -1.5923
 Hexadecapole moment (field-independent basis, Debye-Ang**3):
 XXXX=          -4851.9959 YYYY=          -1284.3777 ZZZZ=           -547.4194 XXXY=            114.9551
 XXXZ=            152.7905 YYYX=           -101.5535 YYYZ=             43.5742 ZZZX=             -9.6100
 ZZZY=            -23.3694 XXYY=          -1010.1122 XXZZ=           -927.0263 YYZZ=           -316.5070
 XXYZ=            -38.3256 YYXZ=            -26.1969 ZZXY=            -25.1047
 N-N= 1.255784878285D+03 E-N=-4.465793663596D+03  KE= 8.291519508665D+02
 D1PCM: PCM CHGder 1st derivatives, ID1Alg=3 FixD1E=F DoIter=F DoCFld=F I1PDM=0.
 Calling FoFJK, ICntrl=      2127 FMM=F ISym2X=0 I1Cent= 0 IOpClX= 0 NMat=1 NMatS=1 NMatT=0.
 ***** Axes restored to original set *****
 -------------------------------------------------------------------
 Center     Atomic                   Forces (Hartrees/Bohr)
 Number     Number              X              Y              Z
 -------------------------------------------------------------------
      1        6          -0.002610587   -0.000687862   -0.001908580
      2        6          -0.003221143   -0.004878439    0.005192812
      3        6          -0.006989615    0.008044154   -0.004138074
      4        6          -0.000588977   -0.000250157    0.007811383
      5        6           0.002914225    0.007215475   -0.003355664
      6        8          -0.005877310    0.006767958    0.004967305
      7        7           0.004081828    0.000587771    0.010453640
      8        6          -0.004058410   -0.004115740   -0.004710267
      9        6          -0.004175477   -0.002732984    0.003091342
     10        6          -0.003371456    0.001489163   -0.007913572
     11        6           0.023413794    0.008417237    0.005292991
     12        6          -0.006281987   -0.005887483    0.004183490
     13        6           0.006072963    0.010482570   -0.019519396
     14        6           0.005937502    0.000459389    0.005820125
     15        1          -0.001421998   -0.000957185    0.000783612
     16        1          -0.001091948   -0.000782657    0.000519314
     17        1          -0.000995014   -0.000822351    0.000558362
     18        9          -0.008747878   -0.003188096   -0.001177555
     19        9          -0.002359313   -0.003212393    0.005700484
     20        1          -0.000397171    0.001290576   -0.001368978
     21        1           0.000090214    0.001057326   -0.001038989
     22        1          -0.000427344    0.001211812   -0.001068574
     23        1           0.000530197    0.000420058    0.001242016
     24        1           0.002579003    0.001082683    0.001357052
     25        1           0.003183678    0.000669717   -0.001800713
     26        1           0.002779676   -0.007848465   -0.003942454
     27        1           0.003055374   -0.007480118   -0.000856531
     28        1          -0.005238726   -0.003552427   -0.003360949
     29        1          -0.002814010    0.004106844    0.000769250
     30        1           0.002078653   -0.004489062   -0.002394587
     31        1           0.003100034    0.001051323   -0.001267145
     32        6          -0.004096560    0.000128776   -0.001141286
     33        1          -0.000068861   -0.001150338    0.000706912
     34        1           0.003659199    0.000561420   -0.000395847
     35        1           0.000665590   -0.001556416    0.000441859
     36        1           0.000691854   -0.001452080    0.002467214
 -------------------------------------------------------------------
 Cartesian Forces:  Max     0.023413794 RMS     0.004871795

 GradGradGradGradGradGradGradGradGradGradGradGradGradGradGradGradGradGrad
 Berny optimization.
 FormGI is forming the generalized inverse of G from B-inverse, IUseBI=4.
 Internal  Forces:  Max     0.010273020 RMS     0.002935542
 Search for a local minimum.
 Step number   1 out of a maximum of   50
 All quantities printed in internal units (Hartrees-Bohrs-Radians)
 Mixed Optimization -- RFO/linear search
 Second derivative matrix not updated -- first step.
 ITU=  0
     Eigenvalues ---    0.00230   0.00230   0.00230   0.00273   0.00455
     Eigenvalues ---    0.00731   0.00745   0.00874   0.01349   0.01566
     Eigenvalues ---    0.02145   0.02151   0.02152   0.02158   0.02161
     Eigenvalues ---    0.02166   0.02167   0.02169   0.02592   0.03199
     Eigenvalues ---    0.03471   0.03603   0.04493   0.04644   0.04706
     Eigenvalues ---    0.04961   0.04978   0.05199   0.05374   0.05420
     Eigenvalues ---    0.05432   0.05512   0.05712   0.06024   0.06572
     Eigenvalues ---    0.08859   0.09792   0.11369   0.11578   0.12576
     Eigenvalues ---    0.13150   0.13803   0.16000   0.16000   0.16000
     Eigenvalues ---    0.16000   0.16000   0.16000   0.16000   0.16000
     Eigenvalues ---    0.16000   0.16000   0.16476   0.16932   0.17243
     Eigenvalues ---    0.18263   0.21889   0.21928   0.22022   0.22085
     Eigenvalues ---    0.23311   0.23490   0.24906   0.24995   0.24999
     Eigenvalues ---    0.25000   0.26761   0.27763   0.28363   0.28764
     Eigenvalues ---    0.30033   0.32208   0.33792   0.33870   0.34032
     Eigenvalues ---    0.34067   0.34112   0.34124   0.34197   0.34222
     Eigenvalues ---    0.34229   0.34251   0.34336   0.34370   0.34379
     Eigenvalues ---    0.34420   0.35170   0.35283   0.35293   0.35431
     Eigenvalues ---    0.36741   0.41584   0.42334   0.42491   0.44307
     Eigenvalues ---    0.46338   0.46485   0.46519   0.46620   0.52873
     Eigenvalues ---    0.56901   0.56983
 RFO step:  Lambda=-8.39727379D-03 EMin= 2.30000000D-03
 Linear search not attempted -- first point.
 Iteration  1 RMS(Cart)=  0.03729823 RMS(Int)=  0.00077503
 Iteration  2 RMS(Cart)=  0.00133219 RMS(Int)=  0.00036299
 Iteration  3 RMS(Cart)=  0.00000124 RMS(Int)=  0.00036299
 Iteration  4 RMS(Cart)=  0.00000000 RMS(Int)=  0.00036299
 Variable       Old X    -DE/DX   Delta X   Delta X   Delta X     New X
                                 (Linear)    (Quad)   (Total)
    R1        2.87897   0.00693   0.00000   0.02246   0.02246   2.90143
    R2        2.06696   0.00121   0.00000   0.00345   0.00345   2.07040
    R3        2.06946  -0.00032   0.00000  -0.00092  -0.00092   2.06854
    R4        2.06627   0.00078   0.00000   0.00221   0.00221   2.06848
    R5        2.92660   0.00104   0.00000   0.00365   0.00365   2.93024
    R6        2.07122   0.00024   0.00000   0.00068   0.00068   2.07189
    R7        2.07217   0.00017   0.00000   0.00048   0.00048   2.07264
    R8        2.94931  -0.00531   0.00000  -0.01923  -0.01923   2.93007
    R9        2.78280   0.00187   0.00000   0.00516   0.00516   2.78796
   R10        2.07683  -0.00009   0.00000  -0.00027  -0.00027   2.07656
   R11        2.91352  -0.00789   0.00000  -0.02702  -0.02702   2.88650
   R12        2.07550   0.00030   0.00000   0.00085   0.00085   2.07636
   R13        2.90497   0.00038   0.00000   0.00129   0.00129   2.90626
   R14        2.69457   0.00885   0.00000   0.02085   0.02085   2.71542
   R15        2.06767   0.00093   0.00000   0.00264   0.00264   2.07031
   R16        2.06999   0.00466   0.00000   0.01329   0.01329   2.08328
   R17        1.83772  -0.00713   0.00000  -0.01328  -0.01328   1.82444
   R18        2.76238   0.00516   0.00000   0.01373   0.01373   2.77611
   R19        1.92789  -0.00290   0.00000  -0.00642  -0.00642   1.92148
   R20        2.83764   0.00803   0.00000   0.02428   0.02428   2.86193
   R21        2.07276  -0.00260   0.00000  -0.00745  -0.00745   2.06531
   R22        2.07142   0.00373   0.00000   0.01067   0.01067   2.08209
   R23        2.63391   0.00141   0.00000   0.00315   0.00312   2.63703
   R24        2.63455   0.00091   0.00000   0.00214   0.00211   2.63666
   R25        2.05400  -0.00188   0.00000  -0.00523  -0.00523   2.04876
   R26        2.63499  -0.00357   0.00000  -0.00756  -0.00756   2.62743
   R27        2.05202  -0.00062   0.00000  -0.00171  -0.00171   2.05031
   R28        2.63853  -0.00102   0.00000  -0.00238  -0.00235   2.63618
   R29        2.53480   0.00847   0.00000   0.01467   0.01467   2.54947
   R30        2.63704   0.00014   0.00000   0.00011   0.00014   2.63718
   R31        2.63608  -0.00312   0.00000  -0.00656  -0.00657   2.62951
   R32        2.53411   0.00612   0.00000   0.01058   0.01058   2.54469
   R33        2.05218  -0.00068   0.00000  -0.00189  -0.00189   2.05028
   R34        2.06957   0.00120   0.00000   0.00342   0.00342   2.07298
   R35        2.06909  -0.00151   0.00000  -0.00431  -0.00431   2.06478
   R36        2.06711   0.00001   0.00000   0.00003   0.00003   2.06714
    A1        1.94907   0.00123   0.00000   0.00580   0.00578   1.95486
    A2        1.91546   0.00150   0.00000   0.01047   0.01042   1.92587
    A3        1.94967   0.00124   0.00000   0.00732   0.00728   1.95695
    A4        1.87505  -0.00141   0.00000  -0.00835  -0.00837   1.86667
    A5        1.89529  -0.00174   0.00000  -0.01311  -0.01311   1.88218
    A6        1.87637  -0.00104   0.00000  -0.00323  -0.00331   1.87306
    A7        2.01405   0.00124   0.00000   0.00459   0.00459   2.01865
    A8        1.89773   0.00040   0.00000   0.01205   0.01202   1.90975
    A9        1.89121   0.00126   0.00000   0.00964   0.00959   1.90080
   A10        1.91197  -0.00084   0.00000  -0.00473  -0.00482   1.90716
   A11        1.91522  -0.00273   0.00000  -0.02759  -0.02760   1.88762
   A12        1.82394   0.00067   0.00000   0.00668   0.00646   1.83040
   A13        1.98640  -0.00265   0.00000  -0.00208  -0.00255   1.98385
   A14        1.96218   0.00420   0.00000   0.03263   0.03256   1.99475
   A15        1.86904  -0.00002   0.00000  -0.00412  -0.00383   1.86520
   A16        1.89257   0.00001   0.00000   0.00868   0.00830   1.90087
   A17        1.86201   0.00129   0.00000  -0.00001  -0.00003   1.86198
   A18        1.88648  -0.00307   0.00000  -0.03968  -0.03952   1.84696
   A19        1.93612  -0.00199   0.00000  -0.01610  -0.01630   1.91981
   A20        1.91555  -0.00077   0.00000  -0.01697  -0.01740   1.89815
   A21        1.95705   0.00131   0.00000   0.01225   0.01234   1.96939
   A22        1.87537  -0.00028   0.00000  -0.01287  -0.01331   1.86206
   A23        1.91170   0.00094   0.00000   0.00996   0.01006   1.92176
   A24        1.86497   0.00083   0.00000   0.02405   0.02417   1.88914
[...]
    28  H    0.000000   0.000003  -0.000256   0.005940  -0.023498   0.284597
    29  H    0.000094  -0.001900  -0.002521   0.000189   0.000036   0.000000
    30  H    0.001139   0.005236  -0.005883  -0.000153  -0.000026   0.000000
    31  H    0.005425  -0.053721   0.379611  -0.037692  -0.008904  -0.000013
    32  C   -0.002245  -0.000374  -0.038638   0.358400  -0.043970  -0.005901
    33  H    0.000177  -0.001924  -0.005825  -0.036236  -0.004419  -0.000107
    34  H   -0.000006   0.000162   0.004448  -0.030459  -0.009365   0.013923
    35  H    0.000624   0.000231  -0.005035  -0.026345   0.004753   0.000078
    36  H    0.004146  -0.007287  -0.036266  -0.004828  -0.000036  -0.000027
               7          8          9         10         11         12
     1  C   -0.005278  -0.001220   0.000000  -0.000003  -0.000050   0.000045
     2  C   -0.061114  -0.005975   0.000000   0.000000  -0.000037   0.000208
     3  C    0.295628  -0.037799   0.000000   0.000006   0.000268   0.004145
     4  C   -0.045059   0.004912   0.000000   0.000000  -0.000009  -0.000186
     5  C   -0.017078   0.000451   0.000000   0.000000   0.000005  -0.000027
     6  O    0.000111  -0.000001   0.000000   0.000000   0.000000   0.000000
     7  N    6.906769   0.285457   0.000021  -0.000159  -0.007467  -0.039727
     8  C    0.285457   4.920008  -0.000662   0.008262  -0.050654   0.309716
     9  C    0.000021  -0.000662   4.864301   0.484865  -0.005832  -0.027216
    10  C   -0.000159   0.008262   0.484865   5.046496   0.480888  -0.081890
    11  C   -0.007467  -0.050654  -0.005832   0.480888   4.634927   0.386066
    12  C   -0.039727   0.309716  -0.027216  -0.081890   0.386066   5.290565
    13  C    0.003991  -0.046473  -0.004188  -0.048314   0.020886   0.421190
    14  C   -0.000072   0.007632   0.482512  -0.036544  -0.047003  -0.074130
    15  H    0.000000   0.000005   0.373754  -0.034602   0.003538   0.000444
    16  H    0.000001  -0.000135  -0.036083   0.361216  -0.032004   0.006159
    17  H    0.000001  -0.000119  -0.036558   0.004462   0.000326   0.006132
    18  F   -0.002999   0.003988   0.002846  -0.046084   0.293764  -0.057646
    19  F   -0.000135  -0.004774   0.003037   0.000011   0.002760  -0.049678
    20  H    0.003884   0.001757   0.000000   0.000026   0.000325  -0.000530
    21  H    0.000210  -0.000003   0.000000   0.000000   0.000001   0.000000
    22  H   -0.000257   0.000038   0.000000   0.000000  -0.000002   0.000004
    23  H    0.004744   0.000188   0.000000   0.000000   0.000001  -0.000002
    24  H   -0.004578   0.001786   0.000000   0.000000   0.000003   0.000005
    25  H   -0.006338  -0.000005   0.000000   0.000000  -0.000006   0.000010
    26  H    0.021798  -0.000573   0.000000  -0.000001  -0.000015   0.000103
    27  H    0.000494  -0.000041   0.000000   0.000000   0.000000  -0.000003
    28  H    0.000013   0.000000   0.000000   0.000000   0.000000   0.000000
    29  H   -0.046657   0.375643  -0.000028  -0.000147   0.005819  -0.028589
    30  H   -0.045386   0.347418   0.000004  -0.000223  -0.012218  -0.030496
    31  H   -0.051147  -0.005141   0.000000   0.000000   0.000000   0.000069
    32  C    0.003586  -0.000140   0.000000   0.000000   0.000000   0.000002
    33  H    0.000027   0.000001   0.000000   0.000000   0.000000   0.000000
    34  H   -0.000090   0.000002   0.000000   0.000000   0.000000   0.000000
    35  H   -0.000011   0.000000   0.000000   0.000000   0.000000   0.000000
    36  H    0.332535  -0.038766  -0.000013  -0.000109   0.004276  -0.009492
              13         14         15         16         17         18
     1  C    0.000000   0.000000   0.000000   0.000000   0.000000  -0.000980
     2  C    0.000003   0.000000   0.000000   0.000000   0.000000   0.000009
     3  C   -0.000057   0.000003   0.000000   0.000000   0.000000   0.000008
     4  C   -0.000004   0.000000   0.000000   0.000000   0.000000  -0.000001
     5  C   -0.000011   0.000000   0.000000   0.000000   0.000000   0.000000
     6  O    0.000000   0.000000   0.000000   0.000000   0.000000   0.000000
     7  N    0.003991  -0.000072   0.000000   0.000001   0.000001  -0.002999
     8  C   -0.046473   0.007632   0.000005  -0.000135  -0.000119   0.003988
     9  C   -0.004188   0.482512   0.373754  -0.036083  -0.036558   0.002846
    10  C   -0.048314  -0.036544  -0.034602   0.361216   0.004462  -0.046084
    11  C    0.020886  -0.047003   0.003538  -0.032004   0.000326   0.293764
    12  C    0.421190  -0.074130   0.000444   0.006159   0.006132  -0.057646
    13  C    4.596484   0.472573   0.003521   0.000360  -0.032264   0.002513
    14  C    0.472573   5.047301  -0.033868   0.004344   0.361862  -0.000013
    15  H    0.003521  -0.033868   0.581238  -0.005621  -0.005666  -0.000024
    16  H    0.000360   0.004344  -0.005621   0.584988  -0.000131  -0.000425
    17  H   -0.032264   0.361862  -0.005666  -0.000131   0.586227   0.000001
    18  F    0.002513  -0.000013  -0.000024  -0.000425   0.000001   9.090862
    19  F    0.297327  -0.044830  -0.000025   0.000001  -0.000627  -0.000001
    20  H   -0.000006   0.000000   0.000000   0.000000   0.000000   0.004996
    21  H    0.000000   0.000000   0.000000   0.000000   0.000000   0.000001
    22  H    0.000000   0.000000   0.000000   0.000000   0.000000   0.000005
    23  H    0.000000   0.000000   0.000000   0.000000   0.000000   0.000000
    24  H   -0.000004   0.000000   0.000000   0.000000   0.000000  -0.000010
    25  H    0.000000   0.000000   0.000000   0.000000   0.000000  -0.000003
    26  H    0.000058   0.000000   0.000000   0.000000   0.000000   0.000000
    27  H    0.000001   0.000000   0.000000   0.000000   0.000000   0.000000
    28  H    0.000000   0.000000   0.000000   0.000000   0.000000   0.000000
    29  H   -0.008122   0.000425   0.000000   0.000001  -0.000007   0.000173
    30  H    0.005125  -0.000201   0.000000   0.000001   0.000003   0.002983
    31  H   -0.000003   0.000000   0.000000   0.000000   0.000000  -0.000001
    32  C    0.000000   0.000000   0.000000   0.000000   0.000000   0.000000
    33  H    0.000000   0.000000   0.000000   0.000000   0.000000   0.000000
    34  H    0.000000   0.000000   0.000000   0.000000   0.000000   0.000000
    35  H    0.000000   0.000000   0.000000   0.000000   0.000000   0.000000
    36  H   -0.000173   0.000008   0.000000   0.000004   0.000000   0.007770
              19         20         21         22         23         24
     1  C    0.000000   0.376369   0.381505   0.387104  -0.037103  -0.041792
     2  C    0.000000  -0.036708  -0.027371  -0.035651   0.367251   0.380068
     3  C    0.000000  -0.004336   0.004115  -0.005051  -0.026913  -0.032489
     4  C    0.000000  -0.000535   0.000081   0.003152  -0.006604   0.004969
     5  C    0.000000  -0.000009  -0.000001  -0.000071  -0.000006  -0.000115
     6  O    0.000000   0.000000   0.000000   0.000001  -0.000001   0.000000
     7  N   -0.000135   0.003884   0.000210  -0.000257   0.004744  -0.004578
     8  C   -0.004774   0.001757  -0.000003   0.000038   0.000188   0.001786
     9  C    0.003037   0.000000   0.000000   0.000000   0.000000   0.000000
    10  C    0.000011   0.000026   0.000000   0.000000   0.000000   0.000000
    11  C    0.002760   0.000325   0.000001  -0.000002   0.000001   0.000003
    12  C   -0.049678  -0.000530   0.000000   0.000004  -0.000002   0.000005
    13  C    0.297327  -0.000006   0.000000   0.000000   0.000000  -0.000004
    14  C   -0.044830   0.000000   0.000000   0.000000   0.000000   0.000000
    15  H   -0.000025   0.000000   0.000000   0.000000   0.000000   0.000000
    16  H    0.000001   0.000000   0.000000   0.000000   0.000000   0.000000
    17  H   -0.000627   0.000000   0.000000   0.000000   0.000000   0.000000
    18  F   -0.000001   0.004996   0.000001   0.000005   0.000000  -0.000010
    19  F    9.085399   0.000000   0.000000   0.000000   0.000000   0.000000
    20  H    0.000000   0.610435  -0.030195  -0.032989   0.005603  -0.005144
    21  H    0.000000  -0.030195   0.603428  -0.030936  -0.003125  -0.003336
    22  H    0.000000  -0.032989  -0.030936   0.599736  -0.004805   0.005452
    23  H    0.000000   0.005603  -0.003125  -0.004805   0.635096  -0.036456
    24  H    0.000000  -0.005144  -0.003336   0.005452  -0.036456   0.640834
    25  H    0.000000   0.000001  -0.000072   0.001502   0.000143  -0.000055
    26  H    0.000000  -0.000008   0.000000   0.000000  -0.000026  -0.000002
    27  H    0.000000   0.000000   0.000000  -0.000001  -0.000026   0.000001
    28  H    0.000000   0.000000   0.000000   0.000000   0.000000   0.000000
    29  H    0.010365   0.000041   0.000001  -0.000002   0.000019   0.000415
    30  H    0.000201  -0.001016  -0.000099  -0.000023  -0.000412   0.001735
    31  H   -0.000012   0.000072  -0.000147   0.000007  -0.000704  -0.005194
    32  C    0.000000   0.000073   0.000010   0.000075   0.002598   0.000075
    33  H    0.000000  -0.000004   0.000000  -0.000021   0.001316  -0.000055
    34  H    0.000000   0.000002   0.000000  -0.000046  -0.000020  -0.000003
    35  H    0.000000  -0.000041  -0.000028   0.001568   0.000606   0.000030
    36  H   -0.000011   0.003864  -0.000155   0.000122   0.000005  -0.000048
              25         26         27         28         29         30
     1  C    0.003101  -0.000014   0.000001   0.000000   0.000094   0.001139
     2  C   -0.007455   0.000489  -0.000041   0.000003  -0.001900   0.005236
     3  C   -0.034578  -0.004743  -0.002020  -0.000256  -0.002521  -0.005883
     4  C    0.370388  -0.040282  -0.042327   0.005940   0.000189  -0.000153
     5  C   -0.044710   0.371800   0.360030  -0.023498   0.000036  -0.000026
     6  O    0.004044  -0.034672  -0.039100   0.284597   0.000000   0.000000
     7  N   -0.006338   0.021798   0.000494   0.000013  -0.046657  -0.045386
     8  C   -0.000005  -0.000573  -0.000041   0.000000   0.375643   0.347418
     9  C    0.000000   0.000000   0.000000   0.000000  -0.000028   0.000004
    10  C    0.000000  -0.000001   0.000000   0.000000  -0.000147  -0.000223
    11  C   -0.000006  -0.000015   0.000000   0.000000   0.005819  -0.012218
    12  C    0.000010   0.000103  -0.000003   0.000000  -0.028589  -0.030496
    13  C    0.000000   0.000058   0.000001   0.000000  -0.008122   0.005125
    14  C    0.000000   0.000000   0.000000   0.000000   0.000425  -0.000201
    15  H    0.000000   0.000000   0.000000   0.000000   0.000000   0.000000
    16  H    0.000000   0.000000   0.000000   0.000000   0.000001   0.000001
    17  H    0.000000   0.000000   0.000000   0.000000  -0.000007   0.000003
    18  F   -0.000003   0.000000   0.000000   0.000000   0.000173   0.002983
    19  F    0.000000   0.000000   0.000000   0.000000   0.010365   0.000201
    20  H    0.000001  -0.000008   0.000000   0.000000   0.000041  -0.001016
    21  H   -0.000072   0.000000   0.000000   0.000000   0.000001  -0.000099
    22  H    0.001502   0.000000  -0.000001   0.000000  -0.000002  -0.000023
    23  H    0.000143  -0.000026  -0.000026   0.000000   0.000019  -0.000412
    24  H   -0.000055  -0.000002   0.000001   0.000000   0.000415   0.001735
    25  H    0.658616  -0.006546   0.007750  -0.000108   0.000008  -0.000004
    26  H   -0.006546   0.643744  -0.052311  -0.003646  -0.000118   0.000071
    27  H    0.007750  -0.052311   0.699095  -0.003925  -0.000025   0.000005
    28  H   -0.000108  -0.003646  -0.003925   0.422411   0.000000   0.000000
    29  H    0.000008  -0.000118  -0.000025   0.000000   0.612023  -0.048709
    30  H   -0.000004   0.000071   0.000005   0.000000  -0.048709   0.685093
    31  H    0.006735  -0.001232   0.006223  -0.000003   0.007094  -0.001423
    32  C   -0.046307   0.006348  -0.011693   0.000386  -0.000005   0.000012
    33  H    0.005943  -0.000068   0.005236  -0.000028  -0.000001   0.000000
    34  H   -0.002011   0.000439  -0.000032  -0.000628   0.000000   0.000000
    35  H   -0.005503  -0.000176  -0.000057   0.000005   0.000000  -0.000001
    36  H    0.005249  -0.000335   0.000018   0.000000   0.006443  -0.005400
              31         32         33         34         35         36
     1  C    0.005425  -0.002245   0.000177  -0.000006   0.000624   0.004146
     2  C   -0.053721  -0.000374  -0.001924   0.000162   0.000231  -0.007287
     3  C    0.379611  -0.038638  -0.005825   0.004448  -0.005035  -0.036266
     4  C   -0.037692   0.358400  -0.036236  -0.030459  -0.026345  -0.004828
     5  C   -0.008904  -0.043970  -0.004419  -0.009365   0.004753  -0.000036
     6  O   -0.000013  -0.005901  -0.000107   0.013923   0.000078  -0.000027
     7  N   -0.051147   0.003586   0.000027  -0.000090  -0.000011   0.332535
     8  C   -0.005141  -0.000140   0.000001   0.000002   0.000000  -0.038766
     9  C    0.000000   0.000000   0.000000   0.000000   0.000000  -0.000013
    10  C    0.000000   0.000000   0.000000   0.000000   0.000000  -0.000109
    11  C    0.000000   0.000000   0.000000   0.000000   0.000000   0.004276
    12  C    0.000069   0.000002   0.000000   0.000000   0.000000  -0.009492
    13  C   -0.000003   0.000000   0.000000   0.000000   0.000000  -0.000173
    14  C    0.000000   0.000000   0.000000   0.000000   0.000000   0.000008
    15  H    0.000000   0.000000   0.000000   0.000000   0.000000   0.000000
    16  H    0.000000   0.000000   0.000000   0.000000   0.000000   0.000004
    17  H    0.000000   0.000000   0.000000   0.000000   0.000000   0.000000
    18  F   -0.000001   0.000000   0.000000   0.000000   0.000000   0.007770
    19  F   -0.000012   0.000000   0.000000   0.000000   0.000000  -0.000011
    20  H    0.000072   0.000073  -0.000004   0.000002  -0.000041   0.003864
    21  H   -0.000147   0.000010   0.000000   0.000000  -0.000028  -0.000155
    22  H    0.000007   0.000075  -0.000021  -0.000046   0.001568   0.000122
    23  H   -0.000704   0.002598   0.001316  -0.000020   0.000606   0.000005
    24  H   -0.005194   0.000075  -0.000055  -0.000003   0.000030  -0.000048
    25  H    0.006735  -0.046307   0.005943  -0.002011  -0.005503   0.005249
    26  H   -0.001232   0.006348  -0.000068   0.000439  -0.000176  -0.000335
    27  H    0.006223  -0.011693   0.005236  -0.000032  -0.000057   0.000018
    28  H   -0.000003   0.000386  -0.000028  -0.000628   0.000005   0.000000
    29  H    0.007094  -0.000005  -0.000001   0.000000   0.000000   0.006443
    30  H   -0.001423   0.000012   0.000000   0.000000  -0.000001  -0.005400
    31  H    0.666977  -0.005298   0.004883  -0.000084  -0.000141   0.007151
    32  C   -0.005298   4.976293   0.379146   0.377264   0.379683  -0.000088
    33  H    0.004883   0.379146   0.618154  -0.030080  -0.033696   0.000016
    34  H   -0.000084   0.377264  -0.030080   0.589802  -0.030074   0.000001
    35  H   -0.000141   0.379683  -0.033696  -0.030074   0.609161  -0.000001
    36  H    0.007151  -0.000088   0.000016   0.000001  -0.000001   0.485009
 Mulliken charges:
               1
     1  C   -0.335728
     2  C   -0.187083
     3  C    0.079637
     4  C   -0.072788
     5  C    0.066975
     6  O   -0.572272
     7  N   -0.525720
     8  C   -0.074783
     9  C   -0.100759
    10  C   -0.138157
    11  C    0.321445
    12  C   -0.025252
    13  C    0.315585
    14  C   -0.139999
    15  H    0.117306
    16  H    0.117322
    17  H    0.116358
    18  F   -0.301731
    19  F   -0.299007
    20  H    0.104075
    21  H    0.106116
    22  H    0.111088
    23  H    0.098633
    24  H    0.093907
    25  H    0.090210
    26  H    0.099920
    27  H    0.072748
    28  H    0.318736
    29  H    0.118044
    30  H    0.102649
    31  H    0.086614
    32  C   -0.329292
    33  H    0.097564
    34  H    0.116855
    35  H    0.104368
    36  H    0.246417
 Sum of Mulliken charges =   0.00000
 Mulliken charges with hydrogens summed into heavy atoms:
               1
     1  C   -0.014449
     2  C    0.005457
     3  C    0.166251
     4  C    0.017422
     5  C    0.239643
     6  O   -0.253536
     7  N   -0.279303
     8  C    0.145909
     9  C    0.016546
    10  C   -0.020834
    11  C    0.321445
    12  C   -0.025252
    13  C    0.315585
    14  C   -0.023640
    18  F   -0.301731
    19  F   -0.299007
    32  C   -0.010506
 Electronic spatial extent (au):  <R**2>=           5376.0235
 Charge=              0.0000 electrons
 Dipole moment (field-independent basis, Debye):
    X=             -2.3007    Y=             -0.0924    Z=              0.2873  Tot=              2.3204
 Quadrupole moment (field-independent basis, Debye-Ang):
   XX=            -95.8884   YY=            -95.7743   ZZ=           -101.4248
   XY=              1.3088   XZ=              8.6691   YZ=              1.2924
 Traceless Quadrupole moment (field-independent basis, Debye-Ang):
   XX=              1.8074   YY=              1.9216   ZZ=             -3.7290
   XY=              1.3088   XZ=              8.6691   YZ=              1.2924
 Octapole moment (field-independent basis, Debye-Ang**2):
  XXX=           -107.7326  YYY=            -44.9535  ZZZ=             -0.4134  XYY=             15.2001
  XXY=            -10.0101  XXZ=             -7.1528  XZZ=            -11.6000  YZZ=              1.4006
  YYZ=            -11.3800  XYZ=              0.7910
 Hexadecapole moment (field-independent basis, Debye-Ang**3):
 XXXX=          -4860.5332 YYYY=          -1194.1671 ZZZZ=           -612.2162 XXXY=             89.2350
 XXXZ=            144.9941 YYYX=           -115.0309 YYYZ=             43.6843 ZZZX=             -8.2102
 ZZZY=            -25.5554 XXYY=           -978.5541 XXZZ=           -940.9635 YYZZ=           -308.7334
 XXYZ=            -33.6030 YYXZ=            -36.2064 ZZXY=            -28.0485
 N-N= 1.256179918146D+03 E-N=-4.466575307067D+03  KE= 8.290884801905D+02
 1\1\GINC-SWANNODE-0-2\FOpt\RB3LYP\6-31G(d,p)\C13H19F2N1O1\KE291\06-Mar
 -2019\0\\# b3lyp/6-31g(d,p) Opt=(maxcycles=50) scrf=(solvent=chlorofor
 m)\\AT3_1ginp014\\0,1\C,-1.7097956315,0.4594847089,0.374875108\C,-1.05
 52308896,-0.1223996513,1.6337881477\C,-0.2129303388,0.8819616496,2.461
 7020683\C,-1.0488452266,2.0175786645,3.1083684666\C,-0.1754492702,2.85
 12388942,4.0527572024\O,-0.9279854395,3.9905671509,4.4789199887\N,0.90
 16194715,1.4920853468,1.7122023501\C,1.9060367806,0.5505805831,1.20546
 07277\C,5.0431059273,2.6764381023,-0.9078701443\C,3.7855898905,2.52300
 73357,-1.4952605646\C,2.8115452438,1.8350623546,-0.7851136294\C,3.0115
 715956,1.2842112409,0.4819058506\C,4.284807918,1.4753879425,1.02013358
 34\C,5.3037422531,2.1516694092,0.3580555895\H,5.8237775361,3.209313532
 3,-1.4404226381\H,3.5553490097,2.9229466472,-2.4758608221\H,6.27138673
 02,2.2581556785,0.8345678349\F,1.5810877644,1.6879416433,-1.3432872689
 \F,4.5442305079,0.9654479486,2.2463992417\H,-0.9625500872,0.8524148568
 ,-0.3233419549\H,-2.2747827019,-0.3124967259,-0.1569407667\H,-2.405615
 925,1.2718317931,0.6104382687\H,-1.8211594728,-0.5632452285,2.28053932
 88\H,-0.407726687,-0.9580960304,1.3426430001\H,-1.3793546153,2.6977022
 632,2.3092884293\H,0.739535415,3.1524438211,3.531561613\H,0.117756543,
 2.2312525658,4.9171548312\H,-0.3640762474,4.5054029491,5.0701841647\H,
 2.3322529989,0.0144911465,2.0577942362\H,1.495540525,-0.2085579512,0.5
 20613284\H,0.2478175751,0.3089025642,3.2813041009\C,-2.2928644495,1.50
 76590518,3.8507704482\H,-2.0241590924,0.7314253697,4.5783212079\H,-2.7
 578938748,2.3318660051,4.3965977062\H,-3.040574114,1.0885852832,3.1723
 32891\H,0.5236723781,2.0188660851,0.9274091192\\Version=EM64L-G09RevD.
 01\State=1-A\HF=-836.4922865\RMSD=4.961e-09\RMSF=7.719e-06\Dipole=0.81
 40783,-0.0717086,-0.4068845\Quadrupole=-0.9164687,-1.0506964,1.9671651
 ,6.5008543,-1.4093197,-1.4225148\PG=C01 [X(C13H19F2N1O1)]\\@


 ASKING DUMB QUESTIONS IS EASIER THAN CORECTING DUMB MISTAKES.
 Job cpu time:       0 days  2 hours 25 minutes 23.8 seconds.
 File lengths (MBytes):  RWF=    185 Int=      0 D2E=      0 Chk=     12 Scr=      1
 Normal termination of Gaussian 09 at Wed Mar  6 12:06:35 2019.
