 Entering Gaussian System, Link 0=/usr/local/shared/gaussian/em64t/09-D01/g09/g09
 Initial command:
 /usr/local/shared/gaussian/em64t/09-D01/g09/l1.exe "/scratch/ke291/AT3_1ginp009/Gau-11826.inp" -scrdir="/scratch/ke291/AT3_1ginp009/"
 Entering Link 1 = /usr/local/shared/gaussian/em64t/09-D01/g09/l1.exe PID=     11837.
  
 Copyright (c) 1988,1990,1992,1993,1995,1998,2003,2009,2013,
            Gaussian, Inc.  All Rights Reserved.
  
 This is part of the Gaussian(R) 09 program.  It is based on
 the Gaussian(R) 03 system (copyright 2003, Gaussian, Inc.),
 the Gaussian(R) 98 system (copyright 1998, Gaussian, Inc.),
 the Gaussian(R) 94 system (copyright 1995, Gaussian, Inc.),
 the Gaussian 92(TM) system (copyright 1992, Gaussian, Inc.),
 the Gaussian 90(TM) system (copyright 1990, Gaussian, Inc.),
 the Gaussian 88(TM) system (copyright 1988, Gaussian, Inc.),
 the Gaussian 86(TM) system (copyright 1986, Carnegie Mellon
 University), and the Gaussian 82(TM) system (copyright 1983,
 Carnegie Mellon University). Gaussian is a federally registered
 trademark of Gaussian, Inc.
  
 This software contains proprietary and confidential information,
 including trade secrets, belonging to Gaussian, Inc.
  
 This software is provided under written license and may be
 used, copied, transmitted, or stored only in accord with that
 written license.
  
 The following legend is applicable only to US Government
 contracts under FAR:
  
                    RESTRICTED RIGHTS LEGEND
  
 Use, reproduction and disclosure by the US Government is
 subject to restrictions as set forth in subparagraphs (a)
 and (c) of the Commercial Computer Software - Restricted
 Rights clause in FAR 52.227-19.
  
 Gaussian, Inc.
 340 Quinnipiac St., Bldg. 40, Wallingford CT 06492
  
  
 ---------------------------------------------------------------
 Warning -- This program may not be used in any manner that
 competes with the business of Gaussian, Inc. or will provide
 assistance to any competitor of Gaussian, Inc.  The licensee
 of this program is prohibited from giving any competitor of
 Gaussian, Inc. access to this program.  By using this program,
 the user acknowledges that Gaussian, Inc. is engaged in the
 business of creating and licensing software in the field of
 computational chemistry and represents and warrants to the
 licensee that it is not a competitor of Gaussian, Inc. and that
 it will not use this program in any manner prohibited above.
 ---------------------------------------------------------------
  

 Cite this work as:
 Gaussian 09, Revision D.01,
 M. J. Frisch, G. W. Trucks, H. B. Schlegel, G. E. Scuseria, 
 M. A. Robb, J. R. Cheeseman, G. Scalmani, V. Barone, B. Mennucci, 
 G. A. Petersson, H. Nakatsuji, M. Caricato, X. Li, H. P. Hratchian, 
 A. F. Izmaylov, J. Bloino, G. Zheng, J. L. Sonnenberg, M. Hada, 
 M. Ehara, K. Toyota, R. Fukuda, J. Hasegawa, M. Ishida, T. Nakajima, 
 Y. Honda, O. Kitao, H. Nakai, T. Vreven, J. A. Montgomery, Jr., 
 J. E. Peralta, F. Ogliaro, M. Bearpark, J. J. Heyd, E. Brothers, 
 K. N. Kudin, V. N. Staroverov, T. Keith, R. Kobayashi, J. Normand, 
 K. Raghavachari, A. Rendell, J. C. Burant, S. S. Iyengar, J. Tomasi, 
 M. Cossi, N. Rega, J. M. Millam, M. Klene, J. E. Knox, J. B. Cross, 
 V. Bakken, C. Adamo, J. Jaramillo, R. Gomperts, R. E. Stratmann, 
 O. Yazyev, A. J. Austin, R. Cammi, C. Pomelli, J. W. Ochterski, 
 R. L. Martin, K. Morokuma, V. G. Zakrzewski, G. A. Voth, 
 P. Salvador, J. J. Dannenberg, S. Dapprich, A. D. Daniels, 
 O. Farkas, J. B. Foresman, J. V. Ortiz, J. Cioslowski, 
 and D. J. Fox, Gaussian, Inc., Wallingford CT, 2013.
 
 ******************************************
 Gaussian 09:  EM64L-G09RevD.01 24-Apr-2013
                 6-Mar-2019 
 ******************************************
 %nprocshared=2
 Will use up to    2 processors via shared memory.
 %mem=6000MB
 %chk=AT3_1ginp009.chk
 ---------------------------------------------------------------
 # b3lyp/6-31g(d,p) Opt=(maxcycles=50) scrf=(solvent=chloroform)
 ---------------------------------------------------------------
 1/6=50,14=-1,18=20,19=15,26=3,38=1/1,3;
 2/9=110,12=2,17=6,18=5,40=1/2;
 3/5=1,6=6,7=101,11=2,16=1,25=1,30=1,70=2201,71=1,72=7,74=-5/1,2,3;
 4//1;
 5/5=2,38=5,53=7/2;
 6/7=2,8=2,9=2,10=2,28=1/1;
 7//1,2,3,16;
 1/6=50,14=-1,18=20,19=15,26=3/3(2);
 2/9=110/2;
 99//99;
 2/9=110/2;
 3/5=1,6=6,7=101,11=2,16=1,25=1,30=1,70=2205,71=1,72=7,74=-5/1,2,3;
 4/5=5,16=3,69=1/1;
 5/5=2,38=5,53=7/2;
 7//1,2,3,16;
 1/6=50,14=-1,18=20,19=15,26=3/3(-5);
 2/9=110/2;
 6/7=2,8=2,9=2,10=2,19=2,28=1/1;
 99/9=1/99;
 ------------
 AT3_1ginp009
 ------------
 Symbolic Z-matrix:
 Charge =  0 Multiplicity = 1
 C                     0.06734  -1.14055   3.25198 
 C                    -0.76584   0.053     2.79181 
 C                     0.03933   1.37211   2.66588 
 C                    -0.88421   2.61222   2.43741 
 C                    -1.88273   2.84808   3.58147 
 O                    -1.20525   2.8903    4.83007 
 N                     1.03194   1.22943   1.5768 
 C                     2.10571   2.22602   1.6548 
 C                     4.97374   1.61304  -1.51935 
 C                     4.00834   2.61261  -1.63006 
 C                     3.0874    2.80754  -0.60044 
 C                     3.10766   2.02253   0.55332 
 C                     4.08014   1.02461   0.64247 
 C                     5.00848   0.81556  -0.37688 
 H                     5.69241   1.45558  -2.31932 
 H                     3.96268   3.24384  -2.51251 
 H                     5.74998   0.02929  -0.27204 
 F                     2.17692   3.78277  -0.73524 
 F                     4.13138   0.23901   1.72845 
 H                    -0.58689  -1.99634   3.44907 
 H                     0.79078  -1.45338   2.49408 
 H                     0.60718  -0.90972   4.17569 
 H                    -1.24512  -0.19912   1.83829 
 H                    -1.56929   0.17697   3.52486 
 H                    -0.23975   3.50033   2.42296 
 H                    -2.65112   2.07021   3.62324 
 H                    -2.39051   3.80913   3.44176 
 H                    -1.87237   3.09124   5.50913 
 H                     1.70823   3.2435    1.58406 
 H                     2.62368   2.15979   2.62015 
 H                     0.57981   1.50836   3.6121 
 C                    -1.64024   2.57307   1.10422 
 H                    -0.95516   2.48237   0.25567 
 H                    -2.34775   1.73891   1.06521 
 H                    -2.21178   3.49696   0.96155 
 H                     1.47233   0.31276   1.64169 
 

 GradGradGradGradGradGradGradGradGradGradGradGradGradGradGradGradGradGrad
 Berny optimization.
 Initialization pass.
                           ----------------------------
                           !    Initial Parameters    !
                           ! (Angstroms and Degrees)  !
 --------------------------                            --------------------------
 ! Name  Definition              Value          Derivative Info.                !
 --------------------------------------------------------------------------------
 ! R1    R(1,2)                  1.5266         estimate D2E/DX2                !
 ! R2    R(1,20)                 1.0951         estimate D2E/DX2                !
 ! R3    R(1,21)                 1.0935         estimate D2E/DX2                !
 ! R4    R(1,22)                 1.0945         estimate D2E/DX2                !
 ! R5    R(2,3)                  1.5506         estimate D2E/DX2                !
 ! R6    R(2,23)                 1.0966         estimate D2E/DX2                !
 ! R7    R(2,24)                 1.0947         estimate D2E/DX2                !
 ! R8    R(3,4)                  1.563          estimate D2E/DX2                !
 ! R9    R(3,7)                  1.4805         estimate D2E/DX2                !
 ! R10   R(3,31)                 1.0982         estimate D2E/DX2                !
 ! R11   R(4,5)                  1.5367         estimate D2E/DX2                !
 ! R12   R(4,25)                 1.0974         estimate D2E/DX2                !
 ! R13   R(4,32)                 1.5331         estimate D2E/DX2                !
 ! R14   R(5,6)                  1.4212         estimate D2E/DX2                !
 ! R15   R(5,26)                 1.0942         estimate D2E/DX2                !
 ! R16   R(5,27)                 1.0959         estimate D2E/DX2                !
 ! R17   R(6,28)                 0.9729         estimate D2E/DX2                !
 ! R18   R(7,8)                  1.4671         estimate D2E/DX2                !
 ! R19   R(7,36)                 1.019          estimate D2E/DX2                !
 ! R20   R(8,12)                 1.5029         estimate D2E/DX2                !
 ! R21   R(8,29)                 1.0946         estimate D2E/DX2                !
 ! R22   R(8,30)                 1.0975         estimate D2E/DX2                !
 ! R23   R(9,10)                 1.3941         estimate D2E/DX2                !
 ! R24   R(9,14)                 1.3937         estimate D2E/DX2                !
 ! R25   R(9,15)                 1.0868         estimate D2E/DX2                !
 ! R26   R(10,11)                1.3951         estimate D2E/DX2                !
 ! R27   R(10,16)                1.0859         estimate D2E/DX2                !
 ! R28   R(11,12)                1.3956         estimate D2E/DX2                !
 ! R29   R(11,18)                1.341          estimate D2E/DX2                !
 ! R30   R(12,13)                1.3962         estimate D2E/DX2                !
 ! R31   R(13,14)                1.3945         estimate D2E/DX2                !
 ! R32   R(13,19)                1.3413         estimate D2E/DX2                !
 ! R33   R(14,17)                1.0858         estimate D2E/DX2                !
 ! R34   R(32,33)                1.0943         estimate D2E/DX2                !
 ! R35   R(32,34)                1.0945         estimate D2E/DX2                !
 ! R36   R(32,35)                1.0957         estimate D2E/DX2                !
 ! A1    A(2,1,20)             109.8267         estimate D2E/DX2                !
 ! A2    A(2,1,21)             112.0757         estimate D2E/DX2                !
 ! A3    A(2,1,22)             111.0202         estimate D2E/DX2                !
 ! A4    A(20,1,21)            107.2433         estimate D2E/DX2                !
 ! A5    A(20,1,22)            107.9137         estimate D2E/DX2                !
 ! A6    A(21,1,22)            108.6015         estimate D2E/DX2                !
 ! A7    A(1,2,3)              113.9665         estimate D2E/DX2                !
 ! A8    A(1,2,23)             108.7174         estimate D2E/DX2                !
 ! A9    A(1,2,24)             106.6942         estimate D2E/DX2                !
 ! A10   A(3,2,23)             110.6062         estimate D2E/DX2                !
 ! A11   A(3,2,24)             109.8269         estimate D2E/DX2                !
 ! A12   A(23,2,24)            106.711          estimate D2E/DX2                !
 ! A13   A(2,3,4)              112.3353         estimate D2E/DX2                !
 ! A14   A(2,3,7)              109.0212         estimate D2E/DX2                !
 ! A15   A(2,3,31)             106.9263         estimate D2E/DX2                !
 ! A16   A(4,3,7)              111.4137         estimate D2E/DX2                !
 ! A17   A(4,3,31)             108.5615         estimate D2E/DX2                !
 ! A18   A(7,3,31)             108.41           estimate D2E/DX2                !
 ! A19   A(3,4,5)              113.3831         estimate D2E/DX2                !
 ! A20   A(3,4,25)             107.2792         estimate D2E/DX2                !
 ! A21   A(3,4,32)             113.4676         estimate D2E/DX2                !
 ! A22   A(5,4,25)             105.496          estimate D2E/DX2                !
 ! A23   A(5,4,32)             109.3225         estimate D2E/DX2                !
 ! A24   A(25,4,32)            107.3862         estimate D2E/DX2                !
 ! A25   A(4,5,6)              110.419          estimate D2E/DX2                !
 ! A26   A(4,5,26)             112.0612         estimate D2E/DX2                !
 ! A27   A(4,5,27)             109.9231         estimate D2E/DX2                !
 ! A28   A(6,5,26)             108.8052         estimate D2E/DX2                !
 ! A29   A(6,5,27)             107.8685         estimate D2E/DX2                !
 ! A30   A(26,5,27)            107.6329         estimate D2E/DX2                !
 ! A31   A(5,6,28)             107.0057         estimate D2E/DX2                !
 ! A32   A(3,7,8)              112.7155         estimate D2E/DX2                !
 ! A33   A(3,7,36)             109.2452         estimate D2E/DX2                !
 ! A34   A(8,7,36)             106.9405         estimate D2E/DX2                !
 ! A35   A(7,8,12)             110.9174         estimate D2E/DX2                !
 ! A36   A(7,8,29)             111.2365         estimate D2E/DX2                !
 ! A37   A(7,8,30)             110.5607         estimate D2E/DX2                !
 ! A38   A(12,8,29)            108.6978         estimate D2E/DX2                !
 ! A39   A(12,8,30)            108.7741         estimate D2E/DX2                !
 ! A40   A(29,8,30)            106.5168         estimate D2E/DX2                !
 ! A41   A(10,9,14)            119.5143         estimate D2E/DX2                !
 ! A42   A(10,9,15)            120.2214         estimate D2E/DX2                !
 ! A43   A(14,9,15)            120.2642         estimate D2E/DX2                !
 ! A44   A(9,10,11)            119.9159         estimate D2E/DX2                !
 ! A45   A(9,10,16)            120.6931         estimate D2E/DX2                !
 ! A46   A(11,10,16)           119.3909         estimate D2E/DX2                !
 ! A47   A(10,11,12)           121.4633         estimate D2E/DX2                !
 ! A48   A(10,11,18)           118.4012         estimate D2E/DX2                !
 ! A49   A(12,11,18)           120.1332         estimate D2E/DX2                !
 ! A50   A(8,12,11)            121.3368         estimate D2E/DX2                !
 ! A51   A(8,12,13)            120.9523         estimate D2E/DX2                !
 ! A52   A(11,12,13)           117.7039         estimate D2E/DX2                !
 ! A53   A(12,13,14)           121.6104         estimate D2E/DX2                !
 ! A54   A(12,13,19)           119.7958         estimate D2E/DX2                !
 ! A55   A(14,13,19)           118.5936         estimate D2E/DX2                !
 ! A56   A(9,14,13)            119.7913         estimate D2E/DX2                !
 ! A57   A(9,14,17)            120.6975         estimate D2E/DX2                !
 ! A58   A(13,14,17)           119.511          estimate D2E/DX2                !
 ! A59   A(4,32,33)            111.5724         estimate D2E/DX2                !
 ! A60   A(4,32,34)            111.6679         estimate D2E/DX2                !
 ! A61   A(4,32,35)            110.4214         estimate D2E/DX2                !
 ! A62   A(33,32,34)           108.2929         estimate D2E/DX2                !
 ! A63   A(33,32,35)           107.1853         estimate D2E/DX2                !
 ! A64   A(34,32,35)           107.5053         estimate D2E/DX2                !
 ! D1    D(20,1,2,3)           172.3155         estimate D2E/DX2                !
 ! D2    D(20,1,2,23)          -63.8172         estimate D2E/DX2                !
 ! D3    D(20,1,2,24)           50.9275         estimate D2E/DX2                !
 ! D4    D(21,1,2,3)           -68.5893         estimate D2E/DX2                !
 ! D5    D(21,1,2,23)           55.278          estimate D2E/DX2                !
 ! D6    D(21,1,2,24)          170.0227         estimate D2E/DX2                !
 ! D7    D(22,1,2,3)            53.0523         estimate D2E/DX2                !
 ! D8    D(22,1,2,23)          176.9196         estimate D2E/DX2                !
 ! D9    D(22,1,2,24)          -68.3357         estimate D2E/DX2                !
 ! D10   D(1,2,3,4)           -170.043          estimate D2E/DX2                !
 ! D11   D(1,2,3,7)             65.9602         estimate D2E/DX2                !
 ! D12   D(1,2,3,31)           -51.0465         estimate D2E/DX2                !
 ! D13   D(23,2,3,4)            67.115          estimate D2E/DX2                !
 ! D14   D(23,2,3,7)           -56.8818         estimate D2E/DX2                !
 ! D15   D(23,2,3,31)         -173.8885         estimate D2E/DX2                !
 ! D16   D(24,2,3,4)           -50.4093         estimate D2E/DX2                !
 ! D17   D(24,2,3,7)          -174.4061         estimate D2E/DX2                !
 ! D18   D(24,2,3,31)           68.5872         estimate D2E/DX2                !
 ! D19   D(2,3,4,5)             60.4962         estimate D2E/DX2                !
 ! D20   D(2,3,4,25)           176.5577         estimate D2E/DX2                !
 ! D21   D(2,3,4,32)           -65.0048         estimate D2E/DX2                !
 ! D22   D(7,3,4,5)           -176.8472         estimate D2E/DX2                !
 ! D23   D(7,3,4,25)           -60.7856         estimate D2E/DX2                !
 ! D24   D(7,3,4,32)            57.6519         estimate D2E/DX2                !
 ! D25   D(31,3,4,5)           -57.5372         estimate D2E/DX2                !
 ! D26   D(31,3,4,25)           58.5243         estimate D2E/DX2                !
 ! D27   D(31,3,4,32)          176.9618         estimate D2E/DX2                !
 ! D28   D(2,3,7,8)           -161.6692         estimate D2E/DX2                !
 ! D29   D(2,3,7,36)           -42.9361         estimate D2E/DX2                !
 ! D30   D(4,3,7,8)             73.791          estimate D2E/DX2                !
 ! D31   D(4,3,7,36)          -167.476          estimate D2E/DX2                !
 ! D32   D(31,3,7,8)           -45.609          estimate D2E/DX2                !
 ! D33   D(31,3,7,36)           73.124          estimate D2E/DX2                !
 ! D34   D(3,4,5,6)             52.3878         estimate D2E/DX2                !
 ! D35   D(3,4,5,26)           -69.0792         estimate D2E/DX2                !
 ! D36   D(3,4,5,27)           171.2809         estimate D2E/DX2                !
 ! D37   D(25,4,5,6)           -64.7217         estimate D2E/DX2                !
 ! D38   D(25,4,5,26)          173.8112         estimate D2E/DX2                !
 ! D39   D(25,4,5,27)           54.1714         estimate D2E/DX2                !
 ! D40   D(32,4,5,6)          -179.9234         estimate D2E/DX2                !
 ! D41   D(32,4,5,26)           58.6096         estimate D2E/DX2                !
 ! D42   D(32,4,5,27)          -61.0303         estimate D2E/DX2                !
 ! D43   D(3,4,32,33)          -56.6683         estimate D2E/DX2                !
 ! D44   D(3,4,32,34)           64.6814         estimate D2E/DX2                !
 ! D45   D(3,4,32,35)         -175.7613         estimate D2E/DX2                !
 ! D46   D(5,4,32,33)          175.6903         estimate D2E/DX2                !
 ! D47   D(5,4,32,34)          -62.96           estimate D2E/DX2                !
 ! D48   D(5,4,32,35)           56.5973         estimate D2E/DX2                !
 ! D49   D(25,4,32,33)          61.7075         estimate D2E/DX2                !
 ! D50   D(25,4,32,34)        -176.9428         estimate D2E/DX2                !
 ! D51   D(25,4,32,35)         -57.3856         estimate D2E/DX2                !
 ! D52   D(4,5,6,28)           176.8424         estimate D2E/DX2                !
 ! D53   D(26,5,6,28)          -59.7804         estimate D2E/DX2                !
 ! D54   D(27,5,6,28)           56.7069         estimate D2E/DX2                !
 ! D55   D(3,7,8,12)           178.5396         estimate D2E/DX2                !
 ! D56   D(3,7,8,29)           -60.3473         estimate D2E/DX2                !
 ! D57   D(3,7,8,30)            57.7858         estimate D2E/DX2                !
 ! D58   D(36,7,8,12)           58.4702         estimate D2E/DX2                !
 ! D59   D(36,7,8,29)          179.5833         estimate D2E/DX2                !
 ! D60   D(36,7,8,30)          -62.2836         estimate D2E/DX2                !
 ! D61   D(7,8,12,11)          100.2408         estimate D2E/DX2                !
 ! D62   D(7,8,12,13)          -78.7727         estimate D2E/DX2                !
 ! D63   D(29,8,12,11)         -22.3568         estimate D2E/DX2                !
 ! D64   D(29,8,12,13)         158.6297         estimate D2E/DX2                !
 ! D65   D(30,8,12,11)        -137.9543         estimate D2E/DX2                !
 ! D66   D(30,8,12,13)          43.0322         estimate D2E/DX2                !
 ! D67   D(14,9,10,11)           0.0226         estimate D2E/DX2                !
 ! D68   D(14,9,10,16)        -179.8884         estimate D2E/DX2                !
 ! D69   D(15,9,10,11)         179.8811         estimate D2E/DX2                !
 ! D70   D(15,9,10,16)          -0.0299         estimate D2E/DX2                !
 ! D71   D(10,9,14,13)          -0.0269         estimate D2E/DX2                !
 ! D72   D(10,9,14,17)         179.7891         estimate D2E/DX2                !
 ! D73   D(15,9,14,13)        -179.8854         estimate D2E/DX2                !
 ! D74   D(15,9,14,17)          -0.0694         estimate D2E/DX2                !
 ! D75   D(9,10,11,12)           0.1687         estimate D2E/DX2                !
 ! D76   D(9,10,11,18)         179.6141         estimate D2E/DX2                !
 ! D77   D(16,10,11,12)       -179.9191         estimate D2E/DX2                !
 ! D78   D(16,10,11,18)         -0.4737         estimate D2E/DX2                !
 ! D79   D(10,11,12,8)        -179.3882         estimate D2E/DX2                !
 ! D80   D(10,11,12,13)         -0.3438         estimate D2E/DX2                !
 ! D81   D(18,11,12,8)           1.1758         estimate D2E/DX2                !
 ! D82   D(18,11,12,13)       -179.7798         estimate D2E/DX2                !
 ! D83   D(8,12,13,14)         179.3882         estimate D2E/DX2                !
 ! D84   D(8,12,13,19)          -0.4516         estimate D2E/DX2                !
 ! D85   D(11,12,13,14)          0.3399         estimate D2E/DX2                !
 ! D86   D(11,12,13,19)       -179.4999         estimate D2E/DX2                !
 ! D87   D(12,13,14,9)          -0.16           estimate D2E/DX2                !
 ! D88   D(12,13,14,17)       -179.9782         estimate D2E/DX2                !
 ! D89   D(19,13,14,9)         179.6817         estimate D2E/DX2                !
 ! D90   D(19,13,14,17)         -0.1365         estimate D2E/DX2                !
 --------------------------------------------------------------------------------
 Trust Radius=3.00D-01 FncErr=1.00D-07 GrdErr=1.00D-06
 Number of steps in this run=     50 maximum allowed number of steps=    216.
 GradGradGradGradGradGradGradGradGradGradGradGradGradGradGradGradGradGrad

                          Input orientation:                          
 ---------------------------------------------------------------------
 Center     Atomic      Atomic             Coordinates (Angstroms)
 Number     Number       Type             X           Y           Z
 ---------------------------------------------------------------------
      1          6           0        0.067343   -1.140550    3.251980
      2          6           0       -0.765844    0.053001    2.791806
      3          6           0        0.039328    1.372114    2.665884
      4          6           0       -0.884207    2.612215    2.437406
      5          6           0       -1.882730    2.848078    3.581473
      6          8           0       -1.205246    2.890300    4.830071
      7          7           0        1.031941    1.229432    1.576803
      8          6           0        2.105710    2.226021    1.654802
      9          6           0        4.973742    1.613037   -1.519346
     10          6           0        4.008337    2.612608   -1.630057
     11          6           0        3.087405    2.807541   -0.600444
     12          6           0        3.107660    2.022532    0.553319
     13          6           0        4.080136    1.024607    0.642471
     14          6           0        5.008481    0.815561   -0.376877
     15          1           0        5.692410    1.455579   -2.319322
     16          1           0        3.962677    3.243836   -2.512509
     17          1           0        5.749975    0.029293   -0.272043
     18          9           0        2.176922    3.782768   -0.735240
     19          9           0        4.131381    0.239006    1.728449
     20          1           0       -0.586889   -1.996341    3.449074
     21          1           0        0.790775   -1.453378    2.494076
     22          1           0        0.607181   -0.909715    4.175687
     23          1           0       -1.245124   -0.199117    1.838288
     24          1           0       -1.569290    0.176966    3.524860
     25          1           0       -0.239749    3.500330    2.422959
     26          1           0       -2.651116    2.070208    3.623235
     27          1           0       -2.390514    3.809127    3.441762
     28          1           0       -1.872368    3.091240    5.509127
     29          1           0        1.708232    3.243498    1.584063
     30          1           0        2.623683    2.159794    2.620145
     31          1           0        0.579814    1.508359    3.612104
     32          6           0       -1.640238    2.573066    1.104218
     33          1           0       -0.955157    2.482367    0.255671
     34          1           0       -2.347751    1.738909    1.065209
     35          1           0       -2.211785    3.496957    0.961545
     36          1           0        1.472333    0.312756    1.641689
 ---------------------------------------------------------------------
                    Distance matrix (angstroms):
                    1          2          3          4          5
     1  C    0.000000
     2  C    1.526606   0.000000
     3  C    2.580266   1.550554   0.000000
     4  C    3.956289   2.586346   1.563000   0.000000
     5  C    4.452022   3.111826   2.590575   1.536740   0.000000
     6  O    4.511940   3.521060   2.921910   2.430071   1.421184
     7  N    3.058346   2.468249   1.480451   2.514826   3.890247
     8  C    4.247319   3.776323   2.453850   3.114678   4.472882
     9  C    7.377028   7.345923   6.474769   7.139314   8.634517
    10  C    7.311082   6.992658   5.978877   6.362487   7.868936
    11  C    6.288829   5.826009   4.692560   5.004037   6.495561
    12  C    5.150863   4.888140   3.781618   4.453371   5.895357
    13  C    5.253565   5.389544   4.532449   5.512440   6.893370
    14  C    6.435046   6.630602   5.853258   6.772882   8.202954
    15  H    8.331907   8.354633   7.537677   8.198546   9.702638
    16  H    8.223491   7.789486   6.761048   6.956500   8.453521
    17  H    6.788194   7.200252   6.560951   7.617412   9.002962
    18  F    6.677373   5.917017   4.684891   4.561402   5.999036
    19  F    4.554199   5.014792   4.348289   5.593824   6.812524
    20  H    1.095100   2.159590   3.514545   4.727648   5.016486
    21  H    1.093450   2.186523   2.928753   4.397479   5.180018
    22  H    1.094507   2.174200   2.794406   4.201172   4.546840
    23  H    2.146483   1.096572   2.191689   2.897031   3.568001
    24  H    2.118698   1.094651   2.180337   2.753604   2.690035
    25  H    4.724336   3.506694   2.160139   1.097398   2.113522
    26  H    4.223366   2.883513   2.939787   2.195889   1.094186
    27  H    5.529591   4.143728   3.527769   2.170320   1.095892
    28  H    5.173513   4.223639   3.833276   3.262115   1.942958
    29  H    4.969340   4.214139   2.730871   2.801330   4.128076
    30  H    4.222127   3.994614   2.702114   3.541662   4.658932
    31  H    2.721954   2.145169   1.098189   2.177561   2.803553
    32  C    4.617322   3.156461   2.588828   1.533136   2.504242
    33  H    4.811331   3.517050   2.833865   2.186747   3.472045
    34  H    4.348095   2.885455   2.897386   2.188047   2.788922
    35  H    5.652167   4.159499   3.533729   2.173338   2.719070
    36  H    2.584402   2.529758   2.055412   3.387323   4.631098
                    6          7          8          9         10
     6  O    0.000000
     7  N    4.283368   0.000000
     8  C    4.635303   1.467056   0.000000
     9  C    8.951335   5.027036   4.321640   0.000000
    10  C    8.306131   4.588688   3.815722   1.394061   0.000000
    11  C    6.922730   3.384637   2.527454   2.414433   1.395069
    12  C    6.135535   2.446454   1.502856   2.818845   2.434449
    13  C    6.996575   3.194749   2.523206   2.412102   2.773317
    14  C    8.368229   4.449834   3.813554   1.393704   2.408345
    15  H   10.037425   6.078726   5.408480   1.086848   2.156364
    16  H    8.985872   5.419364   4.674479   2.160586   1.085935
    17  H    9.088016   5.207534   4.671083   2.160219   3.398679
    18  F    6.573298   3.629883   2.853215   3.625570   2.350330
    19  F    6.717813   3.257371   2.838485   3.625701   4.114449
    20  H    5.115543   4.065910   5.319572   8.284529   8.255670
    21  H    5.320574   2.845526   3.996425   6.558023   6.625211
    22  H    4.260660   3.392723   4.293401   7.606874   7.594820
    23  H    4.300797   2.700769   4.140417   7.296020   6.894495
    24  H    3.032867   3.415994   4.604494   8.385558   7.975929
    25  H    2.664303   2.736814   2.777608   6.803244   5.938116
    26  H    2.054153   4.296475   5.150379   9.208344   8.499388
    27  H    2.043650   4.673981   5.090725   9.147003   8.252291
    28  H    0.972906   5.231110   5.606205   9.922386   9.261735
    29  H    4.376034   2.124590   1.094647   4.790940   4.002383
    30  H    4.480860   2.118438   1.097529   4.791357   4.492942
    31  H    2.565082   2.103490   2.583492   6.756430   6.360376
    32  C    3.764550   3.028074   3.802066   7.179796   6.275685
    33  H    4.599357   2.695143   3.375231   6.249661   5.311234
    34  H    4.099415   3.455953   4.518652   7.765309   6.958999
    35  H    4.043099   4.005243   4.553751   7.831716   6.796204
    36  H    4.896830   1.019044   2.015421   4.893132   4.735500
                   11         12         13         14         15
    11  C    0.000000
    12  C    1.395643   0.000000
    13  C    2.389395   1.396249   0.000000
    14  C    2.776418   2.436219   1.394487   0.000000
    15  H    3.401234   3.905693   3.399615   2.156496   0.000000
    16  H    2.147661   3.409096   3.859103   3.398698   2.495428
    17  H    3.862096   3.411166   2.148336   1.085827   2.495788
    18  F    1.340976   2.371727   3.623226   4.117095   4.503752
    19  F    3.620912   2.368523   1.341321   2.352471   4.505698
    20  H    7.278483   6.179517   6.227702   7.338451   9.198899
    21  H    5.745084   4.606131   4.515390   5.583861   7.460352
    22  H    6.540713   5.288858   5.318518   6.563068   8.581335
    23  H    5.810182   5.053078   5.593378   6.711490   8.255490
    24  H    6.754470   5.840379   6.398646   7.674531   9.408592
    25  H    4.548722   4.109086   5.287792   6.526177   7.865160
    26  H    7.163361   6.526114   7.435589   8.731807  10.261880
    27  H    6.881148   6.462580   7.580164   8.848083  10.201124
    28  H    7.874433   7.106536   7.961634   9.336479  11.008445
    29  H    2.619971   2.124050   3.381716   4.542225   5.857196
    30  H    3.317651   2.127168   2.705753   4.059109   5.857588
    31  H    5.071632   4.001318   4.615733   6.000419   7.830916
    32  C    5.031050   4.811352   5.944208   7.034766   8.169280
    33  H    4.144994   4.099576   5.256316   6.224415   7.202432
    34  H    5.784228   5.486710   6.481255   7.552902   8.728088
    35  H    5.567452   5.535077   6.767761   7.817512   8.798160
    36  H    3.722844   2.604261   2.881979   4.102653   5.899551
                   16         17         18         19         20
    16  H    0.000000
    17  H    4.306670   0.000000
    18  F    2.576442   5.202868   0.000000
    19  F    5.200307   2.581820   4.737924   0.000000
    20  H    9.148687   7.622713   7.651486   5.497217   0.000000
    21  H    7.562452   5.868849   6.306117   3.822303   1.762041
    22  H    8.558230   6.863845   6.971419   4.441680   1.770459
    23  H    7.609504   7.310067   5.847124   5.395445   2.501583
    24  H    8.744037   8.246813   6.721932   5.977340   2.386235
    25  H    6.487297   7.428858   3.986764   5.497759   5.602393
    26  H    9.097638   9.482450   6.726003   7.276385   4.563791
    27  H    8.725591   9.713241   6.189468   7.629962   6.079192
    28  H    9.920569  10.044778   7.474428   7.646814   5.637354
    29  H    4.675941   5.487434   2.426860   3.862573   6.016790
    30  H    5.414073   4.762089   3.753964   2.599558   5.316799
    31  H    7.208781   6.633611   5.159757   4.215809   3.697391
    32  C    6.702485   7.936002   4.406551   6.256923   5.242840
    33  H    5.694537   7.159249   3.533110   5.751053   5.512918
    34  H    7.408534   8.383567   5.281254   6.683468   4.768180
    35  H    7.089224   8.771320   4.713970   7.172039   6.245351
    36  H    5.661308   4.694778   4.264648   2.661485   3.583150
                   21         22         23         24         25
    21  H    0.000000
    22  H    1.776821   0.000000
    23  H    2.479539   3.065847   0.000000
    24  H    3.048023   2.518229   1.758137   0.000000
    25  H    5.060263   4.820565   3.877954   3.745212   0.000000
    26  H    5.053442   4.449904   3.211337   2.182748   3.049689
    27  H    6.221950   5.638465   4.466438   3.724769   2.399814
    28  H    6.069301   4.892225   4.969401   3.538667   3.515286
    29  H    4.871396   5.017769   4.542966   4.890037   2.136431
    30  H    4.053450   3.988468   4.598198   4.725583   3.167832
    31  H    3.172755   2.483034   3.064685   2.529598   2.460426
    32  C    4.904465   5.158932   2.894818   3.406734   2.135478
    33  H    4.852713   5.414208   3.127157   4.047176   2.499039
    34  H    4.699224   5.042014   2.359954   3.015883   3.064272
    35  H    5.989143   6.139710   3.919703   4.243315   2.454520
    36  H    2.076130   2.943479   2.772226   3.579978   3.701653
                   26         27         28         29         30
    26  H    0.000000
    27  H    1.767678   0.000000
    28  H    2.281566   2.248963   0.000000
    29  H    4.953660   4.535493   5.315073   0.000000
    30  H    5.370076   5.342053   5.424784   1.756682   0.000000
    31  H    3.279437   3.761037   3.481006   2.897755   2.363419
    32  C    2.760469   2.748613   4.441352   3.448475   4.544211
    33  H    3.792972   3.737876   5.367569   3.072066   4.301498
    34  H    2.597169   3.152084   4.669389   4.357063   5.225909
    35  H    3.051757   2.506167   4.578243   3.977223   5.284005
    36  H    4.900816   5.512391   5.819285   2.940785   2.386322
                   31         32         33         34         35
    31  H    0.000000
    32  C    3.514502   0.000000
    33  H    3.817129   1.094347   0.000000
    34  H    3.887218   1.094493   1.774091   0.000000
    35  H    4.332783   1.095717   1.762602   1.766342   0.000000
    36  H    2.471557   3.884067   3.538498   4.118165   4.916753
                   36
    36  H    0.000000
 Stoichiometry    C13H19F2NO
 Framework group  C1[X(C13H19F2NO)]
 Deg. of freedom   102
 Full point group                 C1      NOp   1
 Largest Abelian subgroup         C1      NOp   1
 Largest concise Abelian subgroup C1      NOp   1
                         Standard orientation:                         
 ---------------------------------------------------------------------
 Center     Atomic      Atomic             Coordinates (Angstroms)
 Number     Number       Type             X           Y           Z
 ---------------------------------------------------------------------
      1          6           0        2.184128    2.816342   -0.916883
      2          6           0        2.600440    1.351898   -1.029185
      3          6           0        1.882017    0.414077   -0.024906
      4          6           0        2.507195   -1.018195    0.001907
      5          6           0        3.987206   -1.030003    0.415423
      6          8           0        4.165716   -0.329711    1.639142
      7          7           0        0.439517    0.368106   -0.354782
      8          6           0       -0.380270   -0.126982    0.756564
      9          6           0       -4.565532   -0.100268   -0.320208
     10          6           0       -3.839277   -1.289593   -0.358489
     11          6           0       -2.489332   -1.292116   -0.006550
     12          6           0       -1.838001   -0.123577    0.391071
     13          6           0       -2.582565    1.057255    0.418857
     14          6           0       -3.932637    1.078423    0.070357
     15          1           0       -5.616981   -0.092249   -0.595216
     16          1           0       -4.312736   -2.218677   -0.661632
     17          1           0       -4.479022    2.016169    0.103768
     18          9           0       -1.821899   -2.454502   -0.046674
     19          9           0       -1.995952    2.206634    0.784855
     20          1           0        2.824635    3.434536   -1.554715
     21          1           0        1.152299    2.976303   -1.241500
     22          1           0        2.286164    3.175717    0.111894
     23          1           0        2.431685    1.016095   -2.059344
     24          1           0        3.681471    1.318463   -0.860321
     25          1           0        1.981402   -1.588884    0.777884
     26          1           0        4.630331   -0.578836   -0.346208
     27          1           0        4.324624   -2.061713    0.566099
     28          1           0        5.105052   -0.411023    1.879106
     29          1           0       -0.091815   -1.144316    1.039545
     30          1           0       -0.238203    0.497046    1.648178
     31          1           0        1.996018    0.863956    0.970400
     32          6           0        2.343147   -1.780777   -1.317966
     33          1           0        1.291093   -1.860520   -1.608511
     34          1           0        2.889329   -1.297847   -2.134285
     35          1           0        2.730369   -2.801161   -1.220641
     36          1           0        0.113480    1.309808   -0.567735
 ---------------------------------------------------------------------
 Rotational constants (GHZ):      0.7520008      0.2430126      0.2050987
 Standard basis: 6-31G(d,p) (6D, 7F)
 There are   350 symmetry adapted cartesian basis functions of A   symmetry.
 There are   350 symmetry adapted basis functions of A   symmetry.
   350 basis functions,   609 primitive gaussians,   350 cartesian basis functions
    65 alpha electrons       65 beta electrons
       nuclear repulsion energy      1258.5613415783 Hartrees.
 NAtoms=   36 NActive=   36 NUniq=   36 SFac= 1.00D+00 NAtFMM=   60 NAOKFM=F Big=F
 Integral buffers will be    131072 words long.
 Raffenetti 2 integral format.
 Two-electron integral symmetry is turned on.
 ------------------------------------------------------------------------------
 Polarizable Continuum Model (PCM)
 =================================
 Model                : PCM (using non-symmetric T matrix).
 Atomic radii         : UFF (Universal Force Field).
 Polarization charges : Total charges.
 Charge compensation  : None.
 Solution method      : On-the-fly selection.
 Cavity type          : Scaled VdW (van der Waals Surface) (Alpha=1.100).
 Cavity algorithm     : GePol (No added spheres)
                        Default sphere list used, NSphG=   36.
                        Lebedev-Laikov grids with approx.  5.0 points / Ang**2.
                        Smoothing algorithm: Karplus/York (Gamma=1.0000).
                        Polarization charges: spherical gaussians, with
                                              point-specific exponents (IZeta= 3).
                        Self-potential: point-specific (ISelfS= 7).
                        Self-field    : sphere-specific E.n sum rule (ISelfD= 2).
 1st derivatives      : Analytical E(r).r(x)/FMM algorithm (CHGder, D1EAlg=3).
                        Cavity 1st derivative terms included.
 Solvent              : Chloroform, Eps=   4.711300 Eps(inf)=   2.090627
 ------------------------------------------------------------------------------
 One-electron integrals computed using PRISM.
 NBasis=   350 RedAO= T EigKep=  4.07D-04  NBF=   350
 NBsUse=   350 1.00D-06 EigRej= -1.00D+00 NBFU=   350
 ExpMin= 1.61D-01 ExpMax= 7.00D+03 ExpMxC= 1.05D+03 IAcc=1 IRadAn=         1 AccDes= 0.00D+00
 Harris functional with IExCor=  402 and IRadAn=       1 diagonalized for initial guess.
 HarFok:  IExCor=  402 AccDes= 0.00D+00 IRadAn=         1 IDoV= 1 UseB2=F ITyADJ=14
 ICtDFT=  3500011 ScaDFX=  1.000000  1.000000  1.000000  1.000000
 FoFCou: FMM=F IPFlag=           0 FMFlag=      100000 FMFlg1=           0
         NFxFlg=           0 DoJE=T BraDBF=F KetDBF=T FulRan=T
         wScrn=  0.000000 ICntrl=     500 IOpCl=  0 I1Cent=   200000004 NGrid=           0
         NMat0=    1 NMatS0=      1 NMatT0=    0 NMatD0=    1 NMtDS0=    0 NMtDT0=    0
 Petite list used in FoFCou.
 Requested convergence on RMS density matrix=1.00D-08 within 128 cycles.
 Requested convergence on MAX density matrix=1.00D-06.
 Requested convergence on             energy=1.00D-06.
 No special actions if energy rises.
 Inv3:  Mode=1 IEnd=    19614747.
 Iteration    1 A*A^-1 deviation from unit magnitude is 7.99D-15 for   1355.
 Iteration    1 A*A^-1 deviation from orthogonality  is 7.77D-15 for   2511   1167.
 Iteration    1 A^-1*A deviation from unit magnitude is 8.88D-15 for   1355.
 Iteration    1 A^-1*A deviation from orthogonality  is 3.48D-11 for   2229   2107.
 Error on total polarization charges =  0.00774
 SCF Done:  E(RB3LYP) =  -836.487535748     A.U. after   12 cycles
            NFock= 12  Conv=0.60D-08     -V/T= 2.0089

 **********************************************************************

            Population analysis using the SCF density.

 **********************************************************************

 Orbital symmetries:
       Occupied  (A) (A) (A) (A) (A) (A) (A) (A) (A) (A) (A) (A)
                 (A) (A) (A) (A) (A) (A) (A) (A) (A) (A) (A) (A)
                 (A) (A) (A) (A) (A) (A) (A) (A) (A) (A) (A) (A)
                 (A) (A) (A) (A) (A) (A) (A) (A) (A) (A) (A) (A)
                 (A) (A) (A) (A) (A) (A) (A) (A) (A) (A) (A) (A)
                 (A) (A) (A) (A) (A)
       Virtual   (A) (A) (A) (A) (A) (A) (A) (A) (A) (A) (A) (A)
                 (A) (A) (A) (A) (A) (A) (A) (A) (A) (A) (A) (A)
                 (A) (A) (A) (A) (A) (A) (A) (A) (A) (A) (A) (A)
                 (A) (A) (A) (A) (A) (A) (A) (A) (A) (A) (A) (A)
                 (A) (A) (A) (A) (A) (A) (A) (A) (A) (A) (A) (A)
                 (A) (A) (A) (A) (A) (A) (A) (A) (A) (A) (A) (A)
                 (A) (A) (A) (A) (A) (A) (A) (A) (A) (A) (A) (A)
                 (A) (A) (A) (A) (A) (A) (A) (A) (A) (A) (A) (A)
                 (A) (A) (A) (A) (A) (A) (A) (A) (A) (A) (A) (A)
                 (A) (A) (A) (A) (A) (A) (A) (A) (A) (A) (A) (A)
                 (A) (A) (A) (A) (A) (A) (A) (A) (A) (A) (A) (A)
                 (A) (A) (A) (A) (A) (A) (A) (A) (A) (A) (A) (A)
                 (A) (A) (A) (A) (A) (A) (A) (A) (A) (A) (A) (A)
                 (A) (A) (A) (A) (A) (A) (A) (A) (A) (A) (A) (A)
                 (A) (A) (A) (A) (A) (A) (A) (A) (A) (A) (A) (A)
                 (A) (A) (A) (A) (A) (A) (A) (A) (A) (A) (A) (A)
                 (A) (A) (A) (A) (A) (A) (A) (A) (A) (A) (A) (A)
                 (A) (A) (A) (A) (A) (A) (A) (A) (A) (A) (A) (A)
                 (A) (A) (A) (A) (A) (A) (A) (A) (A) (A) (A) (A)
                 (A) (A) (A) (A) (A) (A) (A) (A) (A) (A) (A) (A)
                 (A) (A) (A) (A) (A) (A) (A) (A) (A) (A) (A) (A)
                 (A) (A) (A) (A) (A) (A) (A) (A) (A) (A) (A) (A)
                 (A) (A) (A) (A) (A) (A) (A) (A) (A) (A) (A) (A)
                 (A) (A) (A) (A) (A) (A) (A) (A) (A)
 The electronic state is 1-A.
 Alpha  occ. eigenvalues --  -24.71981 -24.71644 -19.13870 -14.31352 -10.28025
 Alpha  occ. eigenvalues --  -10.27982 -10.22320 -10.21186 -10.20620 -10.20553
 Alpha  occ. eigenvalues --  -10.20487 -10.19756 -10.19711 -10.18386 -10.17550
 Alpha  occ. eigenvalues --  -10.17201 -10.16679  -1.23320  -1.22983  -1.01081
 Alpha  occ. eigenvalues --   -0.90466  -0.86696  -0.79728  -0.76911  -0.75381
 Alpha  occ. eigenvalues --   -0.75200  -0.68424  -0.66571  -0.64756  -0.62834
 Alpha  occ. eigenvalues --   -0.60849  -0.59793  -0.55929  -0.53674  -0.52907
 Alpha  occ. eigenvalues --   -0.50316  -0.49571  -0.49159  -0.48154  -0.47380
 Alpha  occ. eigenvalues --   -0.47017  -0.46382  -0.45872  -0.44055  -0.43002
 Alpha  occ. eigenvalues --   -0.41546  -0.41183  -0.40555  -0.39754  -0.39065
 Alpha  occ. eigenvalues --   -0.38420  -0.37025  -0.36581  -0.35867  -0.35661
 Alpha  occ. eigenvalues --   -0.35221  -0.34525  -0.33101  -0.32787  -0.30923
 Alpha  occ. eigenvalues --   -0.30239  -0.26262  -0.25344  -0.24594  -0.21918
 Alpha virt. eigenvalues --   -0.01214  -0.00109   0.07478   0.07658   0.09354
 Alpha virt. eigenvalues --    0.10111   0.11444   0.13181   0.13851   0.14502
 Alpha virt. eigenvalues --    0.15067   0.15438   0.16001   0.16362   0.16517
 Alpha virt. eigenvalues --    0.17197   0.17993   0.18190   0.19460   0.19596
 Alpha virt. eigenvalues --    0.20502   0.21092   0.21910   0.23213   0.23473
 Alpha virt. eigenvalues --    0.24031   0.25293   0.25801   0.27490   0.27561
 Alpha virt. eigenvalues --    0.28384   0.28611   0.29574   0.29838   0.33078
 Alpha virt. eigenvalues --    0.37555   0.38658   0.46334   0.49659   0.49717
 Alpha virt. eigenvalues --    0.50258   0.50577   0.52154   0.52531   0.53726
 Alpha virt. eigenvalues --    0.54082   0.55439   0.56060   0.56504   0.57995
 Alpha virt. eigenvalues --    0.58490   0.59194   0.59608   0.60071   0.61549
 Alpha virt. eigenvalues --    0.62089   0.62674   0.63901   0.65578   0.65995
 Alpha virt. eigenvalues --    0.66735   0.67456   0.69099   0.70105   0.71391
 Alpha virt. eigenvalues --    0.72078   0.74033   0.76485   0.77876   0.79283
 Alpha virt. eigenvalues --    0.79569   0.80833   0.82244   0.82824   0.84040
 Alpha virt. eigenvalues --    0.84455   0.85215   0.85736   0.86468   0.86710
 Alpha virt. eigenvalues --    0.88106   0.88319   0.89426   0.90081   0.90408
 Alpha virt. eigenvalues --    0.91303   0.91687   0.92816   0.93334   0.94177
 Alpha virt. eigenvalues --    0.95120   0.96217   0.98298   0.99033   0.99978
 Alpha virt. eigenvalues --    1.00645   1.01094   1.02914   1.03900   1.05209
 Alpha virt. eigenvalues --    1.06158   1.08917   1.10259   1.12091   1.15005
 Alpha virt. eigenvalues --    1.20093   1.21007   1.21955   1.22289   1.24010
 Alpha virt. eigenvalues --    1.24959   1.25470   1.26114   1.31448   1.32216
 Alpha virt. eigenvalues --    1.35393   1.35952   1.37659   1.38764   1.39360
 Alpha virt. eigenvalues --    1.39712   1.41980   1.42127   1.43213   1.43587
 Alpha virt. eigenvalues --    1.46070   1.47429   1.51412   1.52130   1.53167
 Alpha virt. eigenvalues --    1.54603   1.58077   1.61013   1.64561   1.67538
 Alpha virt. eigenvalues --    1.69263   1.70050   1.71651   1.73442   1.75319
 Alpha virt. eigenvalues --    1.75833   1.76350   1.78250   1.79064   1.81400
 Alpha virt. eigenvalues --    1.82428   1.82742   1.82942   1.84456   1.86113
 Alpha virt. eigenvalues --    1.86743   1.88682   1.89073   1.89308   1.89799
 Alpha virt. eigenvalues --    1.90419   1.90913   1.92264   1.93905   1.96299
 Alpha virt. eigenvalues --    1.97221   1.97559   1.98299   1.99518   2.00374
 Alpha virt. eigenvalues --    2.01471   2.03123   2.04106   2.04931   2.05169
 Alpha virt. eigenvalues --    2.06281   2.06729   2.07419   2.08379   2.09907
 Alpha virt. eigenvalues --    2.11983   2.12621   2.15110   2.18029   2.18249
 Alpha virt. eigenvalues --    2.19174   2.19694   2.21105   2.22612   2.25483
 Alpha virt. eigenvalues --    2.27079   2.28544   2.29037   2.29976   2.30642
 Alpha virt. eigenvalues --    2.31161   2.31551   2.32866   2.33325   2.35698
 Alpha virt. eigenvalues --    2.35898   2.37626   2.38122   2.38653   2.40699
 Alpha virt. eigenvalues --    2.41271   2.41593   2.46107   2.49138   2.49345
 Alpha virt. eigenvalues --    2.51033   2.52628   2.53167   2.54385   2.56104
 Alpha virt. eigenvalues --    2.57926   2.58198   2.60102   2.60703   2.62757
 Alpha virt. eigenvalues --    2.65074   2.66159   2.66509   2.67544   2.67953
 Alpha virt. eigenvalues --    2.69609   2.72833   2.73870   2.74571   2.74977
 Alpha virt. eigenvalues --    2.76225   2.76391   2.77456   2.77956   2.80552
 Alpha virt. eigenvalues --    2.83364   2.85003   2.86591   2.88971   2.90224
 Alpha virt. eigenvalues --    2.90592   2.91545   2.92077   2.94582   2.95588
 Alpha virt. eigenvalues --    2.99317   3.02485   3.04494   3.06319   3.06848
 Alpha virt. eigenvalues --    3.10348   3.14921   3.20085   3.20639   3.22940
 Alpha virt. eigenvalues --    3.25855   3.29269   3.31628   3.31969   3.35562
 Alpha virt. eigenvalues --    3.35749   3.37157   3.40037   3.43678   3.45327
 Alpha virt. eigenvalues --    3.46130   3.47997   3.49592   3.51027   3.54630
 Alpha virt. eigenvalues --    3.55166   3.58299   3.80528   3.98505   4.07910
 Alpha virt. eigenvalues --    4.09686   4.12134   4.17528   4.32816   4.37924
 Alpha virt. eigenvalues --    4.40889   4.44028   4.52304   4.55717   4.60229
 Alpha virt. eigenvalues --    4.67213   4.75026   4.79180   5.50249   5.61830
          Condensed to atoms (all electrons):
               1          2          3          4          5          6
     1  C    4.942308   0.362499  -0.035861   0.004881   0.000054  -0.000048
     2  C    0.362499   4.948965   0.366897  -0.034119  -0.004670  -0.001372
     3  C   -0.035861   0.366897   4.832390   0.348585  -0.034166   0.000250
     4  C    0.004881  -0.034119   0.348585   5.010933   0.365522  -0.049774
     5  C    0.000054  -0.004670  -0.034166   0.365522   4.749853   0.226527
     6  O   -0.000048  -0.001372   0.000250  -0.049774   0.226527   8.177189
     7  N   -0.003685  -0.044003   0.278577  -0.055700   0.002892   0.000094
     8  C    0.000320   0.004496  -0.034287  -0.004070   0.000050  -0.000022
     9  C    0.000000   0.000000   0.000000   0.000000   0.000000   0.000000
    10  C    0.000000   0.000000   0.000003   0.000000   0.000000   0.000000
    11  C    0.000000   0.000002  -0.000081   0.000005   0.000000   0.000000
    12  C    0.000001  -0.000219   0.004533   0.000157  -0.000002   0.000000
    13  C   -0.000003  -0.000035   0.000417   0.000000   0.000000   0.000000
    14  C    0.000000   0.000000   0.000008   0.000000   0.000000   0.000000
    15  H    0.000000   0.000000   0.000000   0.000000   0.000000   0.000000
    16  H    0.000000   0.000000   0.000000   0.000000   0.000000   0.000000
    17  H    0.000000   0.000000   0.000000   0.000000   0.000000   0.000000
    18  F    0.000000   0.000000   0.000014  -0.000012   0.000000   0.000000
    19  F   -0.000017   0.000000  -0.000017   0.000000   0.000000   0.000000
    20  H    0.380050  -0.028442   0.003987  -0.000116  -0.000003   0.000000
    21  H    0.384173  -0.035029  -0.004875  -0.000058   0.000002   0.000000
    22  H    0.384968  -0.036604  -0.005136   0.000013  -0.000009   0.000006
    23  H   -0.041555   0.375027  -0.032119  -0.007237  -0.000077   0.000043
    24  H   -0.039264   0.380177  -0.030463  -0.008325   0.001244   0.002265
    25  H   -0.000144   0.005294  -0.043342   0.370895  -0.039074   0.003672
    26  H   -0.000141   0.003586  -0.012079  -0.040940   0.369996  -0.043785
    27  H   -0.000002  -0.000050   0.005997  -0.034121   0.376087  -0.039199
    28  H    0.000002  -0.000025   0.000198   0.006310  -0.022665   0.283035
    29  H    0.000004  -0.000006  -0.003745   0.002437  -0.000235  -0.000013
    30  H   -0.000247   0.000431  -0.006451  -0.001785   0.000031  -0.000014
    31  H   -0.009828  -0.045590   0.378046  -0.055863  -0.004918   0.010070
    32  C    0.000101  -0.009558  -0.039330   0.347978  -0.044852   0.002445
    33  H   -0.000022  -0.000439  -0.005813  -0.026532   0.004277  -0.000054
    34  H   -0.000109   0.002839  -0.006484  -0.034136  -0.006598  -0.000008
    35  H   -0.000002   0.000029   0.005108  -0.031325  -0.004200   0.000006
    36  H    0.005833  -0.010136  -0.035974   0.005674  -0.000149   0.000002
               7          8          9         10         11         12
     1  C   -0.003685   0.000320   0.000000   0.000000   0.000000   0.000001
     2  C   -0.044003   0.004496   0.000000   0.000000   0.000002  -0.000219
     3  C    0.278577  -0.034287   0.000000   0.000003  -0.000081   0.004533
     4  C   -0.055700  -0.004070   0.000000   0.000000   0.000005   0.000157
     5  C    0.002892   0.000050   0.000000   0.000000   0.000000  -0.000002
     6  O    0.000094  -0.000022   0.000000   0.000000   0.000000   0.000000
     7  N    6.943894   0.282481   0.000028  -0.000066   0.004594  -0.042874
     8  C    0.282481   4.936480  -0.000571   0.008149  -0.047483   0.300431
     9  C    0.000028  -0.000571   4.852942   0.486361  -0.008716  -0.028318
    10  C   -0.000066   0.008149   0.486361   5.053904   0.472745  -0.070549
    11  C    0.004594  -0.047483  -0.008716   0.472745   4.593299   0.412534
    12  C   -0.042874   0.300431  -0.028318  -0.070549   0.412534   5.317279
    13  C   -0.007371  -0.050216  -0.010194  -0.048901   0.015197   0.390002
    14  C   -0.000164   0.008736   0.489154  -0.031806  -0.050316  -0.074984
    15  H    0.000000   0.000004   0.375340  -0.034516   0.003643   0.000204
    16  H    0.000001  -0.000145  -0.037439   0.358718  -0.032540   0.006404
    17  H    0.000001  -0.000155  -0.037239   0.004690   0.000491   0.006495
    18  F   -0.000270  -0.003478   0.003047  -0.046496   0.308009  -0.051742
    19  F   -0.002545   0.003552   0.002956  -0.000070   0.002406  -0.058292
    20  H    0.000183   0.000005   0.000000   0.000000   0.000000   0.000000
    21  H    0.000140  -0.000265   0.000000   0.000000   0.000000   0.000040
    22  H   -0.000743  -0.000057   0.000000   0.000000   0.000000  -0.000002
    23  H   -0.000742  -0.000006   0.000000   0.000000   0.000000   0.000005
    24  H    0.003937  -0.000188   0.000000   0.000000   0.000000   0.000003
    25  H   -0.004074   0.001302   0.000000  -0.000001   0.000009  -0.000114
    26  H   -0.000019  -0.000003   0.000000   0.000000   0.000000   0.000000
    27  H   -0.000051  -0.000001   0.000000   0.000000   0.000000   0.000000
    28  H   -0.000002   0.000001   0.000000   0.000000   0.000000   0.000000
    29  H   -0.042152   0.373343  -0.000030   0.000407  -0.009447  -0.027504
    30  H   -0.052183   0.354008  -0.000017  -0.000182   0.005670  -0.032546
    31  H   -0.059761  -0.009139   0.000000   0.000000   0.000017   0.000334
    32  C   -0.006819  -0.000267   0.000000   0.000000  -0.000027  -0.000005
    33  H    0.012306   0.000341   0.000000   0.000004   0.000252  -0.000323
    34  H    0.000019   0.000012   0.000000   0.000000   0.000000   0.000002
    35  H    0.000220  -0.000018   0.000000   0.000000   0.000000  -0.000001
    36  H    0.328441  -0.038778  -0.000021  -0.000001  -0.000298  -0.009709
              13         14         15         16         17         18
     1  C   -0.000003   0.000000   0.000000   0.000000   0.000000   0.000000
     2  C   -0.000035   0.000000   0.000000   0.000000   0.000000   0.000000
     3  C    0.000417   0.000008   0.000000   0.000000   0.000000   0.000014
     4  C    0.000000   0.000000   0.000000   0.000000   0.000000  -0.000012
     5  C    0.000000   0.000000   0.000000   0.000000   0.000000   0.000000
     6  O    0.000000   0.000000   0.000000   0.000000   0.000000   0.000000
     7  N   -0.007371  -0.000164   0.000000   0.000001   0.000001  -0.000270
     8  C   -0.050216   0.008736   0.000004  -0.000145  -0.000155  -0.003478
     9  C   -0.010194   0.489154   0.375340  -0.037439  -0.037239   0.003047
    10  C   -0.048901  -0.031806  -0.034516   0.358718   0.004690  -0.046496
    11  C    0.015197  -0.050316   0.003643  -0.032540   0.000491   0.308009
    12  C    0.390002  -0.074984   0.000204   0.006404   0.006495  -0.051742
    13  C    4.624677   0.477676   0.003675   0.000483  -0.032572   0.002534
    14  C    0.477676   5.053447  -0.034943   0.004732   0.358306  -0.000052
    15  H    0.003675  -0.034943   0.582012  -0.005936  -0.005969  -0.000023
    16  H    0.000483   0.004732  -0.005936   0.595313  -0.000151  -0.000486
    17  H   -0.032572   0.358306  -0.005969  -0.000151   0.595266   0.000001
    18  F    0.002534  -0.000052  -0.000023  -0.000486   0.000001   9.067212
    19  F    0.306301  -0.047436  -0.000023   0.000001  -0.000335   0.000000
    20  H    0.000000   0.000000   0.000000   0.000000   0.000000   0.000000
    21  H   -0.000017   0.000000   0.000000   0.000000   0.000000   0.000000
    22  H    0.000001   0.000000   0.000000   0.000000   0.000000   0.000000
    23  H   -0.000002   0.000000   0.000000   0.000000   0.000000   0.000000
    24  H    0.000000   0.000000   0.000000   0.000000   0.000000   0.000000
    25  H   -0.000010   0.000000   0.000000   0.000000   0.000000  -0.000050
    26  H    0.000000   0.000000   0.000000   0.000000   0.000000   0.000000
    27  H    0.000000   0.000000   0.000000   0.000000   0.000000   0.000000
    28  H    0.000000   0.000000   0.000000   0.000000   0.000000   0.000000
    29  H    0.005956  -0.000169   0.000000  -0.000008   0.000002   0.010286
    30  H   -0.013241  -0.000039   0.000000   0.000003   0.000000   0.000199
    31  H   -0.000107  -0.000001   0.000000   0.000000   0.000000   0.000000
    32  C    0.000001   0.000000   0.000000   0.000000   0.000000  -0.000073
    33  H   -0.000009   0.000000   0.000000   0.000000   0.000000   0.000490
    34  H    0.000000   0.000000   0.000000   0.000000   0.000000   0.000000
    35  H    0.000000   0.000000   0.000000   0.000000   0.000000   0.000000
    36  H    0.005574  -0.000073   0.000000   0.000000   0.000003  -0.000013
              19         20         21         22         23         24
     1  C   -0.000017   0.380050   0.384173   0.384968  -0.041555  -0.039264
     2  C    0.000000  -0.028442  -0.035029  -0.036604   0.375027   0.380177
     3  C   -0.000017   0.003987  -0.004875  -0.005136  -0.032119  -0.030463
     4  C    0.000000  -0.000116  -0.000058   0.000013  -0.007237  -0.008325
     5  C    0.000000  -0.000003   0.000002  -0.000009  -0.000077   0.001244
     6  O    0.000000   0.000000   0.000000   0.000006   0.000043   0.002265
     7  N   -0.002545   0.000183   0.000140  -0.000743  -0.000742   0.003937
     8  C    0.003552   0.000005  -0.000265  -0.000057  -0.000006  -0.000188
     9  C    0.002956   0.000000   0.000000   0.000000   0.000000   0.000000
    10  C   -0.000070   0.000000   0.000000   0.000000   0.000000   0.000000
    11  C    0.002406   0.000000   0.000000   0.000000   0.000000   0.000000
    12  C   -0.058292   0.000000   0.000040  -0.000002   0.000005   0.000003
    13  C    0.306301   0.000000  -0.000017   0.000001  -0.000002   0.000000
    14  C   -0.047436   0.000000   0.000000   0.000000   0.000000   0.000000
    15  H   -0.000023   0.000000   0.000000   0.000000   0.000000   0.000000
    16  H    0.000001   0.000000   0.000000   0.000000   0.000000   0.000000
    17  H   -0.000335   0.000000   0.000000   0.000000   0.000000   0.000000
    18  F    0.000000   0.000000   0.000000   0.000000   0.000000   0.000000
    19  F    9.073652   0.000000  -0.000042   0.000003   0.000000   0.000000
    20  H    0.000000   0.609152  -0.030385  -0.030872  -0.002246  -0.005643
    21  H   -0.000042  -0.030385   0.609208  -0.033089  -0.005799   0.005586
    22  H    0.000003  -0.030872  -0.033089   0.602858   0.005647  -0.003834
    23  H    0.000000  -0.002246  -0.005799   0.005647   0.631333  -0.035643
    24  H    0.000000  -0.005643   0.005586  -0.003834  -0.035643   0.625794
    25  H    0.000000   0.000003   0.000001  -0.000009  -0.000091   0.000026
    26  H    0.000000   0.000012   0.000001  -0.000003  -0.000088   0.000601
    27  H    0.000000   0.000000   0.000000   0.000000  -0.000019   0.000173
    28  H    0.000000   0.000000   0.000000   0.000002   0.000002   0.000000
    29  H    0.000182   0.000000  -0.000006   0.000001  -0.000018  -0.000003
    30  H    0.004231  -0.000003   0.000068   0.000066   0.000044   0.000015
    31  H   -0.000007  -0.000080  -0.000021   0.006924   0.006737  -0.001134
    32  C    0.000000  -0.000001  -0.000004   0.000005   0.002540  -0.000086
    33  H    0.000000   0.000000   0.000002   0.000001   0.000779   0.000048
    34  H    0.000000   0.000007   0.000004   0.000000   0.001894   0.000381
    35  H    0.000000   0.000000   0.000000   0.000000  -0.000050  -0.000025
    36  H    0.007267  -0.000382   0.005462   0.000159  -0.000354   0.000096
              25         26         27         28         29         30
     1  C   -0.000144  -0.000141  -0.000002   0.000002   0.000004  -0.000247
     2  C    0.005294   0.003586  -0.000050  -0.000025  -0.000006   0.000431
     3  C   -0.043342  -0.012079   0.005997   0.000198  -0.003745  -0.006451
     4  C    0.370895  -0.040940  -0.034121   0.006310   0.002437  -0.001785
     5  C   -0.039074   0.369996   0.376087  -0.022665  -0.000235   0.000031
     6  O    0.003672  -0.043785  -0.039199   0.283035  -0.000013  -0.000014
     7  N   -0.004074  -0.000019  -0.000051  -0.000002  -0.042152  -0.052183
     8  C    0.001302  -0.000003  -0.000001   0.000001   0.373343   0.354008
     9  C    0.000000   0.000000   0.000000   0.000000  -0.000030  -0.000017
    10  C   -0.000001   0.000000   0.000000   0.000000   0.000407  -0.000182
    11  C    0.000009   0.000000   0.000000   0.000000  -0.009447   0.005670
    12  C   -0.000114   0.000000   0.000000   0.000000  -0.027504  -0.032546
    13  C   -0.000010   0.000000   0.000000   0.000000   0.005956  -0.013241
    14  C    0.000000   0.000000   0.000000   0.000000  -0.000169  -0.000039
    15  H    0.000000   0.000000   0.000000   0.000000   0.000000   0.000000
    16  H    0.000000   0.000000   0.000000   0.000000  -0.000008   0.000003
    17  H    0.000000   0.000000   0.000000   0.000000   0.000002   0.000000
    18  F   -0.000050   0.000000   0.000000   0.000000   0.010286   0.000199
    19  F    0.000000   0.000000   0.000000   0.000000   0.000182   0.004231
    20  H    0.000003   0.000012   0.000000   0.000000   0.000000  -0.000003
    21  H    0.000001   0.000001   0.000000   0.000000  -0.000006   0.000068
    22  H   -0.000009  -0.000003   0.000000   0.000002   0.000001   0.000066
    23  H   -0.000091  -0.000088  -0.000019   0.000002  -0.000018   0.000044
    24  H    0.000026   0.000601   0.000173   0.000000  -0.000003   0.000015
    25  H    0.662223   0.007431  -0.010041  -0.000190   0.002459   0.000198
    26  H    0.007431   0.688759  -0.056806  -0.004340  -0.000004   0.000001
    27  H   -0.010041  -0.056806   0.676896  -0.005290   0.000020  -0.000002
    28  H   -0.000190  -0.004340  -0.005290   0.423184   0.000000   0.000001
    29  H    0.002459  -0.000004   0.000020   0.000000   0.613512  -0.049609
    30  H    0.000198   0.000001  -0.000002   0.000001  -0.049609   0.687703
    31  H   -0.004801   0.000250   0.000166  -0.000299  -0.002077   0.014876
    32  C   -0.041937  -0.000770  -0.002358  -0.000267   0.000541   0.000051
    33  H   -0.003671  -0.000089  -0.000162   0.000004  -0.000457   0.000111
    34  H    0.005872   0.005199  -0.000506  -0.000001  -0.000005  -0.000001
    35  H   -0.004939  -0.000677   0.004678  -0.000002  -0.000054   0.000003
    36  H   -0.000191  -0.000005   0.000003   0.000000   0.006380  -0.006197
              31         32         33         34         35         36
     1  C   -0.009828   0.000101  -0.000022  -0.000109  -0.000002   0.005833
     2  C   -0.045590  -0.009558  -0.000439   0.002839   0.000029  -0.010136
     3  C    0.378046  -0.039330  -0.005813  -0.006484   0.005108  -0.035974
     4  C   -0.055863   0.347978  -0.026532  -0.034136  -0.031325   0.005674
     5  C   -0.004918  -0.044852   0.004277  -0.006598  -0.004200  -0.000149
     6  O    0.010070   0.002445  -0.000054  -0.000008   0.000006   0.000002
     7  N   -0.059761  -0.006819   0.012306   0.000019   0.000220   0.328441
     8  C   -0.009139  -0.000267   0.000341   0.000012  -0.000018  -0.038778
     9  C    0.000000   0.000000   0.000000   0.000000   0.000000  -0.000021
    10  C    0.000000   0.000000   0.000004   0.000000   0.000000  -0.000001
    11  C    0.000017  -0.000027   0.000252   0.000000   0.000000  -0.000298
    12  C    0.000334  -0.000005  -0.000323   0.000002  -0.000001  -0.009709
    13  C   -0.000107   0.000001  -0.000009   0.000000   0.000000   0.005574
    14  C   -0.000001   0.000000   0.000000   0.000000   0.000000  -0.000073
    15  H    0.000000   0.000000   0.000000   0.000000   0.000000   0.000000
    16  H    0.000000   0.000000   0.000000   0.000000   0.000000   0.000000
    17  H    0.000000   0.000000   0.000000   0.000000   0.000000   0.000003
    18  F    0.000000  -0.000073   0.000490   0.000000   0.000000  -0.000013
    19  F   -0.000007   0.000000   0.000000   0.000000   0.000000   0.007267
    20  H   -0.000080  -0.000001   0.000000   0.000007   0.000000  -0.000382
    21  H   -0.000021  -0.000004   0.000002   0.000004   0.000000   0.005462
    22  H    0.006924   0.000005   0.000001   0.000000   0.000000   0.000159
    23  H    0.006737   0.002540   0.000779   0.001894  -0.000050  -0.000354
    24  H   -0.001134  -0.000086   0.000048   0.000381  -0.000025   0.000096
    25  H   -0.004801  -0.041937  -0.003671   0.005872  -0.004939  -0.000191
    26  H    0.000250  -0.000770  -0.000089   0.005199  -0.000677  -0.000005
    27  H    0.000166  -0.002358  -0.000162  -0.000506   0.004678   0.000003
    28  H   -0.000299  -0.000267   0.000004  -0.000001  -0.000002   0.000000
    29  H   -0.002077   0.000541  -0.000457  -0.000005  -0.000054   0.006380
    30  H    0.014876   0.000051   0.000111  -0.000001   0.000003  -0.006197
    31  H    0.689937   0.005910   0.000322  -0.000010  -0.000112  -0.000784
    32  C    0.005910   4.968229   0.378720   0.383647   0.375989   0.000176
    33  H    0.000322   0.378720   0.580867  -0.029541  -0.030941  -0.000265
    34  H   -0.000010   0.383647  -0.029541   0.608591  -0.033347  -0.000050
    35  H   -0.000112   0.375989  -0.030941  -0.033347   0.623649   0.000004
    36  H   -0.000784   0.000176  -0.000265  -0.000050   0.000004   0.491479
 Mulliken charges:
               1
     1  C   -0.334265
     2  C   -0.199943
     3  C    0.105212
     4  C   -0.079276
     5  C    0.065084
     6  O   -0.571314
     7  N   -0.534583
     8  C   -0.084558
     9  C   -0.087282
    10  C   -0.152393
    11  C    0.330036
    12  C   -0.041238
    13  C    0.330184
    14  C   -0.152073
    15  H    0.116533
    16  H    0.111051
    17  H    0.111167
    18  F   -0.289098
    19  F   -0.291766
    20  H    0.104775
    21  H    0.104904
    22  H    0.109704
    23  H    0.101994
    24  H    0.104260
    25  H    0.093294
    26  H    0.083914
    27  H    0.084588
    28  H    0.320341
    29  H    0.120011
    30  H    0.094807
    31  H    0.080945
    32  C   -0.319977
    33  H    0.119798
    34  H    0.102330
    35  H    0.096007
    36  H    0.246827
 Sum of Mulliken charges =   0.00000
 Mulliken charges with hydrogens summed into heavy atoms:
               1
     1  C   -0.014882
     2  C    0.006310
     3  C    0.186157
     4  C    0.014017
     5  C    0.233586
     6  O   -0.250973
     7  N   -0.287756
     8  C    0.130260
     9  C    0.029251
    10  C   -0.041342
    11  C    0.330036
    12  C   -0.041238
    13  C    0.330184
    14  C   -0.040906
    18  F   -0.289098
    19  F   -0.291766
    32  C   -0.001842
 Electronic spatial extent (au):  <R**2>=           5350.4706
 Charge=              0.0000 electrons
 Dipole moment (field-independent basis, Debye):
    X=              0.4076    Y=              0.0544    Z=             -0.3191  Tot=              0.5205
 Quadrupole moment (field-independent basis, Debye-Ang):
   XX=            -73.6250   YY=           -100.6247   ZZ=           -104.0779
   XY=             -2.8428   XZ=              2.4267   YZ=             -1.9588
 Traceless Quadrupole moment (field-independent basis, Debye-Ang):
   XX=             19.1509   YY=             -7.8488   ZZ=            -11.3021
   XY=             -2.8428   XZ=              2.4267   YZ=             -1.9588
 Octapole moment (field-independent basis, Debye-Ang**2):
  XXX=             26.0863  YYY=             -2.2666  ZZZ=             12.1171  XYY=              0.5314
  XXY=            -16.1081  XXZ=              6.2123  XZZ=              5.6633  YZZ=             -0.5689
  YYZ=              1.1765  XYZ=             -7.3095
 Hexadecapole moment (field-independent basis, Debye-Ang**3):
 XXXX=          -4003.8776 YYYY=          -1371.9979 ZZZZ=           -487.6092 XXXY=            -91.6733
 XXXZ=            248.4713 YYYX=            -12.5616 YYYZ=              5.3354 ZZZX=             23.2170
 ZZZY=              8.6381 XXYY=          -1008.3974 XXZZ=           -912.9688 YYZZ=           -305.9724
 XXYZ=             -9.3901 YYXZ=             19.8273 ZZXY=              1.7901
 N-N= 1.258561341578D+03 E-N=-4.471642838027D+03  KE= 8.291423094617D+02
 D1PCM: PCM CHGder 1st derivatives, ID1Alg=3 FixD1E=F DoIter=F DoCFld=F I1PDM=0.
 Calling FoFJK, ICntrl=      2127 FMM=F ISym2X=0 I1Cent= 0 IOpClX= 0 NMat=1 NMatS=1 NMatT=0.
 ***** Axes restored to original set *****
 -------------------------------------------------------------------
 Center     Atomic                   Forces (Hartrees/Bohr)
 Number     Number              X              Y              Z
 -------------------------------------------------------------------
      1        6           0.000064125   -0.002285787    0.000039951
      2        6           0.000937489    0.002186233    0.000633691
      3        6          -0.006040001   -0.009327108   -0.003002183
      4        6           0.002181241   -0.000502614    0.001160972
      5        6           0.002316982    0.001637276    0.004633746
      6        8           0.003007463    0.000334549    0.010476082
      7        7          -0.007753966    0.006475678   -0.003739933
      8        6           0.001344889   -0.001245832    0.004103736
      9        6          -0.004318032    0.001212095    0.003917327
     10        6          -0.001932376    0.005750978   -0.005629585
     11        6           0.017703206   -0.013293908   -0.006535436
     12        6          -0.007086218    0.002692102    0.008023054
     13        6           0.006479530    0.009328224   -0.022900398
     14        6           0.004597045   -0.006693983    0.003292202
     15        1          -0.001179274    0.000247605    0.001374022
     16        1          -0.000807068    0.000270358    0.001057594
     17        1          -0.000820453    0.000179599    0.001165732
     18        9          -0.005619819    0.003556210    0.002360627
     19        9          -0.002916461   -0.002978173    0.008058672
     20        1           0.001477364   -0.000863740   -0.000054744
     21        1           0.001811213   -0.001702289    0.000537683
     22        1           0.001085639   -0.000672272    0.000387488
     23        1           0.000232192    0.002463956   -0.000499281
     24        1          -0.000170203    0.003773938   -0.000707188
     25        1           0.000860316   -0.000138181    0.000712841
     26        1          -0.003206243   -0.003037719   -0.005703388
     27        1          -0.002710251    0.001067353   -0.007471457
     28        1           0.005537809   -0.001692646   -0.004188103
     29        1          -0.002511727   -0.003630472   -0.001095687
     30        1           0.003108730    0.002145898    0.003646640
     31        1          -0.002693445    0.003253270    0.005205171
     32        6          -0.000295344    0.001750620   -0.003014283
     33        1           0.000404621   -0.001760587    0.002441564
     34        1          -0.000127509   -0.000390414   -0.000597392
     35        1          -0.000709714   -0.000101445    0.000615763
     36        1          -0.002251751    0.001991228    0.001294502
 -------------------------------------------------------------------
 Cartesian Forces:  Max     0.022900398 RMS     0.004705013

 GradGradGradGradGradGradGradGradGradGradGradGradGradGradGradGradGradGrad
 Berny optimization.
 FormGI is forming the generalized inverse of G from B-inverse, IUseBI=4.
 Internal  Forces:  Max     0.009566945 RMS     0.002800367
 Search for a local minimum.
 Step number   1 out of a maximum of   50
 All quantities printed in internal units (Hartrees-Bohrs-Radians)
 Mixed Optimization -- RFO/linear search
 Second derivative matrix not updated -- first step.
 ITU=  0
     Eigenvalues ---    0.00230   0.00230   0.00280   0.00328   0.00414
     Eigenvalues ---    0.00628   0.00728   0.00805   0.01412   0.01558
     Eigenvalues ---    0.02144   0.02150   0.02151   0.02157   0.02161
     Eigenvalues ---    0.02166   0.02167   0.02170   0.02857   0.03126
     Eigenvalues ---    0.03379   0.03812   0.04564   0.04638   0.04764
     Eigenvalues ---    0.04939   0.05136   0.05151   0.05361   0.05427
     Eigenvalues ---    0.05550   0.05627   0.05688   0.05861   0.06537
     Eigenvalues ---    0.08538   0.09801   0.10874   0.11571   0.12346
     Eigenvalues ---    0.13157   0.13837   0.16000   0.16000   0.16000
     Eigenvalues ---    0.16000   0.16000   0.16000   0.16000   0.16000
     Eigenvalues ---    0.16000   0.16000   0.16894   0.16940   0.17706
     Eigenvalues ---    0.17972   0.21931   0.21942   0.21992   0.22085
     Eigenvalues ---    0.23490   0.23539   0.24907   0.24996   0.24999
     Eigenvalues ---    0.25000   0.26575   0.27604   0.28810   0.29136
     Eigenvalues ---    0.29739   0.32080   0.33883   0.33957   0.33971
     Eigenvalues ---    0.34064   0.34141   0.34160   0.34230   0.34281
     Eigenvalues ---    0.34281   0.34297   0.34299   0.34315   0.34333
     Eigenvalues ---    0.34417   0.34518   0.35179   0.35287   0.35299
     Eigenvalues ---    0.36095   0.42283   0.42323   0.42490   0.44491
     Eigenvalues ---    0.46328   0.46479   0.46501   0.46628   0.52788
     Eigenvalues ---    0.56910   0.56987
 RFO step:  Lambda=-7.29772269D-03 EMin= 2.30000000D-03
 Linear search not attempted -- first point.
 Iteration  1 RMS(Cart)=  0.03973944 RMS(Int)=  0.00063505
 Iteration  2 RMS(Cart)=  0.00089907 RMS(Int)=  0.00027125
 Iteration  3 RMS(Cart)=  0.00000067 RMS(Int)=  0.00027125
 Variable       Old X    -DE/DX   Delta X   Delta X   Delta X     New X
                                 (Linear)    (Quad)   (Total)
    R1        2.88487   0.00702   0.00000   0.02302   0.02302   2.90789
    R2        2.06944  -0.00022   0.00000  -0.00062  -0.00062   2.06882
    R3        2.06632   0.00132   0.00000   0.00375   0.00375   2.07007
    R4        2.06832   0.00071   0.00000   0.00204   0.00204   2.07036
    R5        2.93012  -0.00525   0.00000  -0.01853  -0.01853   2.91160
    R6        2.07222  -0.00023   0.00000  -0.00066  -0.00066   2.07156
    R7        2.06859   0.00008   0.00000   0.00022   0.00022   2.06881
    R8        2.95364  -0.00642   0.00000  -0.02351  -0.02351   2.93013
    R9        2.79765  -0.00206   0.00000  -0.00583  -0.00583   2.79182
   R10        2.07528   0.00356   0.00000   0.01029   0.01029   2.08557
   R11        2.90402  -0.00514   0.00000  -0.01741  -0.01741   2.88660
   R12        2.07378   0.00038   0.00000   0.00111   0.00111   2.07489
   R13        2.89721   0.00084   0.00000   0.00282   0.00282   2.90002
   R14        2.68565   0.00957   0.00000   0.02224   0.02224   2.70789
   R15        2.06771   0.00419   0.00000   0.01196   0.01196   2.07967
   R16        2.07094   0.00314   0.00000   0.00901   0.00901   2.07994
   R17        1.83853  -0.00707   0.00000  -0.01321  -0.01321   1.82531
   R18        2.77233   0.00281   0.00000   0.00763   0.00763   2.77996
   R19        1.92571  -0.00268   0.00000  -0.00593  -0.00593   1.91978
   R20        2.83999   0.00696   0.00000   0.02120   0.02120   2.86119
   R21        2.06858  -0.00239   0.00000  -0.00683  -0.00683   2.06175
   R22        2.07403   0.00455   0.00000   0.01311   0.01311   2.08714
   R23        2.63439   0.00084   0.00000   0.00197   0.00194   2.63633
   R24        2.63372   0.00145   0.00000   0.00322   0.00319   2.63691
   R25        2.05384  -0.00183   0.00000  -0.00509  -0.00509   2.04876
   R26        2.63630  -0.00323   0.00000  -0.00683  -0.00683   2.62947
   R27        2.05212  -0.00067   0.00000  -0.00185  -0.00185   2.05027
   R28        2.63738   0.00018   0.00000   0.00021   0.00024   2.63762
   R29        2.53408   0.00617   0.00000   0.01068   0.01068   2.54476
   R30        2.63853  -0.00074   0.00000  -0.00177  -0.00174   2.63679
   R31        2.63520  -0.00360   0.00000  -0.00765  -0.00764   2.62756
   R32        2.53473   0.00816   0.00000   0.01415   0.01415   2.54888
   R33        2.05192  -0.00058   0.00000  -0.00161  -0.00161   2.05031
   R34        2.06802  -0.00150   0.00000  -0.00427  -0.00427   2.06375
   R35        2.06829   0.00040   0.00000   0.00114   0.00114   2.06943
   R36        2.07061   0.00021   0.00000   0.00059   0.00059   2.07120
    A1        1.91684   0.00176   0.00000   0.01170   0.01164   1.92847
    A2        1.95609   0.00239   0.00000   0.01381   0.01376   1.96985
    A3        1.93767   0.00057   0.00000   0.00272   0.00270   1.94037
    A4        1.87175  -0.00198   0.00000  -0.01053  -0.01063   1.86112
    A5        1.88345  -0.00109   0.00000  -0.00566  -0.00568   1.87777
    A6        1.89545  -0.00189   0.00000  -0.01337  -0.01337   1.88208
    A7        1.98909   0.00119   0.00000   0.00628   0.00639   1.99548
    A8        1.89748   0.00091   0.00000   0.01288   0.01288   1.91035
    A9        1.86217   0.00218   0.00000   0.02634   0.02637   1.88854
   A10        1.93044  -0.00186   0.00000  -0.02051  -0.02064   1.90980
   A11        1.91684  -0.00270   0.00000  -0.02406  -0.02425   1.89259
   A12        1.86246   0.00038   0.00000   0.00049  -0.00017   1.86229
   A13        1.96062   0.00482   0.00000   0.01817   0.01822   1.97884
   A14        1.90278   0.00003   0.00000   0.00321   0.00320   1.90598
   A15        1.86622  -0.00136   0.00000   0.00134   0.00116   1.86738
   A16        1.94454  -0.00508   0.00000  -0.03352  -0.03345   1.91108
   A17        1.89476  -0.00211   0.00000  -0.02876  -0.02848   1.86628
   A18        1.89211   0.00389   0.00000   0.04216   0.04174   1.93386
   A19        1.97891  -0.00181   0.00000  -0.01230  -0.01230   1.96661
   A20        1.87238   0.00027   0.00000  -0.00482  -0.00483   1.86755
   A21        1.98038  -0.00041   0.00000  -0.00260  -0.00255   1.97783
   A22        1.84125  -0.00002   0.00000   0.00082   0.00070   1.84195
   A23        1.90804   0.00206   0.00000   0.01246   0.01243   1.92047
   A24        1.87424  -0.00004   0.00000   0.00727   0.00723   1.88148
   A25        1.92717  -0.00589   0.00000  -0.02026  -0.01995   1.90723
   A26        1.95584  -0.00302   0.00000  -0.03578  -0.03609   1.91975
   A27        1.91852  -0.00342   0.00000  -0.03338  -0.03363   1.88489
   A28        1.89901   0.00574   0.00000   0.04306   0.04247   1.94148
   A29        1.88266   0.00693   0.00000   0.06063   0.06025   1.94291
[...]
    29  H   -0.000010   0.000042  -0.001429   0.002060  -0.000458   0.000059
    30  H    0.000001   0.000407  -0.007750  -0.001116   0.000114  -0.000043
    31  H   -0.008079  -0.048118   0.381512  -0.065971  -0.004194   0.014409
    32  C    0.000194  -0.009337  -0.037748   0.350944  -0.043628   0.002453
    33  H   -0.000035  -0.001597  -0.006138  -0.030283   0.004878  -0.000061
    34  H   -0.000061   0.003175  -0.006692  -0.034994  -0.006431   0.000005
    35  H   -0.000004   0.000151   0.004954  -0.028376  -0.004094  -0.000005
    36  H    0.002455  -0.007754  -0.040125   0.005414  -0.000191   0.000000
               7          8          9         10         11         12
     1  C   -0.004471   0.000217   0.000000   0.000000   0.000000   0.000025
     2  C   -0.042430   0.003905   0.000000   0.000000   0.000001  -0.000228
     3  C    0.277919  -0.030961   0.000000   0.000003  -0.000117   0.004408
     4  C   -0.058108  -0.003995   0.000000   0.000000   0.000023  -0.000025
     5  C    0.003494  -0.000007   0.000000   0.000000   0.000000   0.000001
     6  O    0.000081  -0.000024   0.000000   0.000000   0.000000   0.000000
     7  N    6.932772   0.283721   0.000020  -0.000074   0.003446  -0.035522
     8  C    0.283721   4.936082  -0.000654   0.007518  -0.046183   0.302012
     9  C    0.000020  -0.000654   4.863743   0.483136  -0.004208  -0.027468
    10  C   -0.000074   0.007518   0.483136   5.044440   0.473151  -0.072988
    11  C    0.003446  -0.046183  -0.004208   0.473151   4.600111   0.420422
    12  C   -0.035522   0.302012  -0.027468  -0.072988   0.420422   5.292039
    13  C   -0.007481  -0.052598  -0.006355  -0.046700   0.021191   0.384955
    14  C   -0.000167   0.008282   0.485791  -0.036851  -0.049123  -0.081220
    15  H    0.000000   0.000005   0.373553  -0.033803   0.003548   0.000447
    16  H    0.000001  -0.000117  -0.036603   0.361835  -0.032189   0.006117
    17  H    0.000001  -0.000133  -0.036073   0.004356   0.000351   0.006159
    18  F   -0.000068  -0.006382   0.003041  -0.044347   0.294836  -0.048086
    19  F   -0.004526   0.004842   0.002828  -0.000016   0.002579  -0.057557
    20  H    0.000117   0.000008   0.000000   0.000000   0.000000   0.000000
    21  H    0.001265  -0.000014   0.000000   0.000000  -0.000002  -0.000097
    22  H   -0.000222  -0.000006   0.000000   0.000000   0.000000  -0.000002
    23  H   -0.002697   0.000050   0.000000   0.000000   0.000000   0.000018
    24  H    0.004126  -0.000187   0.000000   0.000000   0.000000   0.000003
    25  H   -0.005013   0.000866   0.000000   0.000000   0.000024  -0.000246
    26  H   -0.000007  -0.000003   0.000000   0.000000   0.000000   0.000000
    27  H   -0.000096  -0.000004   0.000000   0.000000   0.000000   0.000000
    28  H    0.000001   0.000001   0.000000   0.000000   0.000000   0.000000
    29  H   -0.045082   0.374139  -0.000036   0.000488  -0.007392  -0.030594
    30  H   -0.049259   0.352718   0.000010  -0.000215   0.004143  -0.030008
    31  H   -0.053827  -0.008907   0.000000   0.000000   0.000006   0.000562
    32  C   -0.010596   0.000287   0.000000   0.000000  -0.000008  -0.000001
    33  H    0.015599  -0.000093   0.000000   0.000000   0.000016  -0.000011
    34  H    0.000283  -0.000009   0.000000   0.000000   0.000000   0.000001
    35  H   -0.000016  -0.000008   0.000000   0.000000   0.000000  -0.000001
    36  H    0.334154  -0.042064  -0.000017   0.000006  -0.000063  -0.010579
              13         14         15         16         17         18
     1  C   -0.000021  -0.000001   0.000000   0.000000   0.000000   0.000000
     2  C   -0.000050   0.000000   0.000000   0.000000   0.000000   0.000000
     3  C    0.000444   0.000007   0.000000   0.000000   0.000000   0.000004
     4  C   -0.000004   0.000000   0.000000   0.000000   0.000000  -0.000003
     5  C    0.000000   0.000000   0.000000   0.000000   0.000000   0.000000
     6  O    0.000000   0.000000   0.000000   0.000000   0.000000   0.000000
     7  N   -0.007481  -0.000167   0.000000   0.000001   0.000001  -0.000068
     8  C   -0.052598   0.008282   0.000005  -0.000117  -0.000133  -0.006382
     9  C   -0.006355   0.485791   0.373553  -0.036603  -0.036073   0.003041
    10  C   -0.046700  -0.036851  -0.033803   0.361835   0.004356  -0.044347
    11  C    0.021191  -0.049123   0.003548  -0.032189   0.000351   0.294836
    12  C    0.384955  -0.081220   0.000447   0.006117   0.006159  -0.048086
    13  C    4.637283   0.483662   0.003557   0.000325  -0.032178   0.002790
    14  C    0.483662   5.043486  -0.034735   0.004473   0.361062   0.000017
    15  H    0.003557  -0.034735   0.582007  -0.005667  -0.005635  -0.000025
    16  H    0.000325   0.004473  -0.005667   0.586455  -0.000132  -0.000612
    17  H   -0.032178   0.361062  -0.005635  -0.000132   0.585993   0.000001
    18  F    0.002790   0.000017  -0.000025  -0.000612   0.000001   9.085738
    19  F    0.292025  -0.046015  -0.000024   0.000001  -0.000373  -0.000001
    20  H    0.000000   0.000000   0.000000   0.000000   0.000000   0.000000
    21  H    0.000083   0.000007   0.000000   0.000000   0.000000   0.000000
    22  H    0.000001   0.000000   0.000000   0.000000   0.000000   0.000000
    23  H   -0.000008   0.000000   0.000000   0.000000   0.000000   0.000000
    24  H    0.000000   0.000000   0.000000   0.000000   0.000000   0.000000
    25  H   -0.000013   0.000000   0.000000   0.000000   0.000000  -0.000039
    26  H    0.000000   0.000000   0.000000   0.000000   0.000000   0.000000
    27  H    0.000000   0.000000   0.000000   0.000000   0.000000   0.000000
    28  H    0.000000   0.000000   0.000000   0.000000   0.000000   0.000000
    29  H    0.005891  -0.000137   0.000000  -0.000007   0.000002   0.011783
    30  H   -0.011129  -0.000194   0.000000   0.000002   0.000001   0.000217
    31  H   -0.000067  -0.000001   0.000000   0.000000   0.000000   0.000000
    32  C    0.000003   0.000000   0.000000   0.000000   0.000000   0.000000
    33  H   -0.000005   0.000000   0.000000   0.000000   0.000000   0.000000
    34  H    0.000000   0.000000   0.000000   0.000000   0.000000   0.000000
    35  H    0.000000   0.000000   0.000000   0.000000   0.000000   0.000000
    36  H    0.004232  -0.000094   0.000000   0.000000   0.000005  -0.000010
              19         20         21         22         23         24
     1  C   -0.000276   0.378952   0.382473   0.385150  -0.040918  -0.036297
     2  C   -0.000023  -0.027464  -0.036904  -0.034313   0.374461   0.380141
     3  C    0.000009   0.003829  -0.004365  -0.004684  -0.033442  -0.036628
     4  C   -0.000001  -0.000137   0.000108  -0.000052  -0.007325  -0.002919
     5  C    0.000000  -0.000004  -0.000008   0.000035   0.000281  -0.000253
     6  O    0.000000   0.000000   0.000001  -0.000020  -0.000011  -0.000053
     7  N   -0.004526   0.000117   0.001265  -0.000222  -0.002697   0.004126
     8  C    0.004842   0.000008  -0.000014  -0.000006   0.000050  -0.000187
     9  C    0.002828   0.000000   0.000000   0.000000   0.000000   0.000000
    10  C   -0.000016   0.000000   0.000000   0.000000   0.000000   0.000000
    11  C    0.002579   0.000000  -0.000002   0.000000   0.000000   0.000000
    12  C   -0.057557   0.000000  -0.000097  -0.000002   0.000018   0.000003
    13  C    0.292025   0.000000   0.000083   0.000001  -0.000008   0.000000
    14  C   -0.046015   0.000000   0.000007   0.000000   0.000000   0.000000
    15  H   -0.000024   0.000000   0.000000   0.000000   0.000000   0.000000
    16  H    0.000001   0.000000   0.000000   0.000000   0.000000   0.000000
    17  H   -0.000373   0.000000   0.000000   0.000000   0.000000   0.000000
    18  F   -0.000001   0.000000   0.000000   0.000000   0.000000   0.000000
    19  F    9.093709   0.000001   0.001537  -0.000001  -0.000001   0.000000
    20  H    0.000001   0.607838  -0.030826  -0.031062  -0.003143  -0.002994
    21  H    0.001537  -0.030826   0.609226  -0.032513  -0.004756   0.005210
    22  H   -0.000001  -0.031062  -0.032513   0.602116   0.005313  -0.005035
    23  H   -0.000001  -0.003143  -0.004756   0.005313   0.631499  -0.035068
    24  H    0.000000  -0.002994   0.005210  -0.005035  -0.035068   0.626175
    25  H    0.000000   0.000003  -0.000001  -0.000005  -0.000088   0.000106
    26  H    0.000000   0.000013   0.000001   0.000008  -0.000008   0.004995
    27  H    0.000000   0.000000   0.000000  -0.000001  -0.000025  -0.000165
    28  H    0.000000   0.000000   0.000000   0.000002   0.000002   0.000008
    29  H    0.000169   0.000000   0.000011   0.000002  -0.000028   0.000007
    30  H    0.002448  -0.000004  -0.000140   0.000027   0.000075  -0.000005
    31  H   -0.000005   0.000031  -0.000796   0.005662   0.006813  -0.001207
    32  C    0.000000   0.000003  -0.000009   0.000008   0.002455  -0.001555
    33  H    0.000000   0.000000  -0.000001   0.000000   0.002035   0.000114
    34  H    0.000000   0.000006   0.000002  -0.000001   0.000603   0.001153
    35  H    0.000000   0.000000   0.000000   0.000000  -0.000046  -0.000051
    36  H    0.012052  -0.000394   0.007096  -0.000105   0.000111   0.000140
              25         26         27         28         29         30
     1  C   -0.000150  -0.000258   0.000002  -0.000001  -0.000010   0.000001
     2  C    0.005322   0.001994   0.000060  -0.000023   0.000042   0.000407
     3  C   -0.044022  -0.013037   0.005683   0.000428  -0.001429  -0.007750
     4  C    0.373681  -0.036152  -0.039279   0.005708   0.002060  -0.001116
     5  C   -0.043800   0.363857   0.370927  -0.021822  -0.000458   0.000114
     6  O    0.003588  -0.037531  -0.037383   0.284096   0.000059  -0.000043
     7  N   -0.005013  -0.000007  -0.000096   0.000001  -0.045082  -0.049259
     8  C    0.000866  -0.000003  -0.000004   0.000001   0.374139   0.352718
     9  C    0.000000   0.000000   0.000000   0.000000  -0.000036   0.000010
    10  C    0.000000   0.000000   0.000000   0.000000   0.000488  -0.000215
    11  C    0.000024   0.000000   0.000000   0.000000  -0.007392   0.004143
    12  C   -0.000246   0.000000   0.000000   0.000000  -0.030594  -0.030008
    13  C   -0.000013   0.000000   0.000000   0.000000   0.005891  -0.011129
    14  C    0.000000   0.000000   0.000000   0.000000  -0.000137  -0.000194
    15  H    0.000000   0.000000   0.000000   0.000000   0.000000   0.000000
    16  H    0.000000   0.000000   0.000000   0.000000  -0.000007   0.000002
    17  H    0.000000   0.000000   0.000000   0.000000   0.000002   0.000001
    18  F   -0.000039   0.000000   0.000000   0.000000   0.011783   0.000217
    19  F    0.000000   0.000000   0.000000   0.000000   0.000169   0.002448
    20  H    0.000003   0.000013   0.000000   0.000000   0.000000  -0.000004
    21  H   -0.000001   0.000001   0.000000   0.000000   0.000011  -0.000140
    22  H   -0.000005   0.000008  -0.000001   0.000002   0.000002   0.000027
    23  H   -0.000088  -0.000008  -0.000025   0.000002  -0.000028   0.000075
    24  H    0.000106   0.004995  -0.000165   0.000008   0.000007  -0.000005
    25  H    0.656607   0.007667  -0.008007  -0.000128   0.003392   0.000226
    26  H    0.007667   0.685716  -0.056938  -0.005381  -0.000001   0.000002
    27  H   -0.008007  -0.056938   0.682226  -0.003187   0.000020  -0.000001
    28  H   -0.000128  -0.005381  -0.003187   0.420696  -0.000003   0.000002
    29  H    0.003392  -0.000001   0.000020  -0.000003   0.608629  -0.048256
    30  H    0.000226   0.000002  -0.000001   0.000002  -0.048256   0.678361
    31  H   -0.002660  -0.000010   0.000476  -0.000552  -0.002080   0.013527
    32  C   -0.038535  -0.001498  -0.001180  -0.000268   0.000171  -0.000018
    33  H   -0.002896  -0.000184  -0.000115   0.000004  -0.000245   0.000051
    34  H    0.005672   0.004759  -0.000654   0.000001  -0.000001   0.000001
    35  H   -0.005639  -0.000423   0.004688  -0.000002  -0.000004   0.000000
    36  H   -0.000095  -0.000004   0.000004   0.000000   0.006370  -0.004870
              31         32         33         34         35         36
     1  C   -0.008079   0.000194  -0.000035  -0.000061  -0.000004   0.002455
     2  C   -0.048118  -0.009337  -0.001597   0.003175   0.000151  -0.007754
     3  C    0.381512  -0.037748  -0.006138  -0.006692   0.004954  -0.040125
     4  C   -0.065971   0.350944  -0.030283  -0.034994  -0.028376   0.005414
     5  C   -0.004194  -0.043628   0.004878  -0.006431  -0.004094  -0.000191
     6  O    0.014409   0.002453  -0.000061   0.000005  -0.000005   0.000000
     7  N   -0.053827  -0.010596   0.015599   0.000283  -0.000016   0.334154
     8  C   -0.008907   0.000287  -0.000093  -0.000009  -0.000008  -0.042064
     9  C    0.000000   0.000000   0.000000   0.000000   0.000000  -0.000017
    10  C    0.000000   0.000000   0.000000   0.000000   0.000000   0.000006
    11  C    0.000006  -0.000008   0.000016   0.000000   0.000000  -0.000063
    12  C    0.000562  -0.000001  -0.000011   0.000001  -0.000001  -0.010579
    13  C   -0.000067   0.000003  -0.000005   0.000000   0.000000   0.004232
    14  C   -0.000001   0.000000   0.000000   0.000000   0.000000  -0.000094
    15  H    0.000000   0.000000   0.000000   0.000000   0.000000   0.000000
    16  H    0.000000   0.000000   0.000000   0.000000   0.000000   0.000000
    17  H    0.000000   0.000000   0.000000   0.000000   0.000000   0.000005
    18  F    0.000000   0.000000   0.000000   0.000000   0.000000  -0.000010
    19  F   -0.000005   0.000000   0.000000   0.000000   0.000000   0.012052
    20  H    0.000031   0.000003   0.000000   0.000006   0.000000  -0.000394
    21  H   -0.000796  -0.000009  -0.000001   0.000002   0.000000   0.007096
    22  H    0.005662   0.000008   0.000000  -0.000001   0.000000  -0.000105
    23  H    0.006813   0.002455   0.002035   0.000603  -0.000046   0.000111
    24  H   -0.001207  -0.001555   0.000114   0.001153  -0.000051   0.000140
    25  H   -0.002660  -0.038535  -0.002896   0.005672  -0.005639  -0.000095
    26  H   -0.000010  -0.001498  -0.000184   0.004759  -0.000423  -0.000004
    27  H    0.000476  -0.001180  -0.000115  -0.000654   0.004688   0.000004
    28  H   -0.000552  -0.000268   0.000004   0.000001  -0.000002   0.000000
    29  H   -0.002080   0.000171  -0.000245  -0.000001  -0.000004   0.006370
    30  H    0.013527  -0.000018   0.000051   0.000001   0.000000  -0.004870
    31  H    0.681741   0.005855   0.000402   0.000046  -0.000149   0.001887
    32  C    0.005855   4.974118   0.375569   0.382028   0.378263   0.000213
    33  H    0.000402   0.375569   0.586174  -0.030150  -0.029848  -0.000507
    34  H    0.000046   0.382028  -0.030150   0.615578  -0.033940  -0.000022
    35  H   -0.000149   0.378263  -0.029848  -0.033940   0.616244   0.000008
    36  H    0.001887   0.000213  -0.000507  -0.000022   0.000008   0.486379
 Mulliken charges:
               1
     1  C   -0.329279
     2  C   -0.207909
     3  C    0.097309
     4  C   -0.059213
     5  C    0.059846
     6  O   -0.565274
     7  N   -0.537336
     8  C   -0.082303
     9  C   -0.100709
    10  C   -0.139940
    11  C    0.315437
    12  C   -0.022537
    13  C    0.320166
    14  C   -0.138248
    15  H    0.116771
    16  H    0.116118
    17  H    0.116593
    18  F   -0.298853
    19  F   -0.303381
    20  H    0.105228
    21  H    0.103413
    22  H    0.109699
    23  H    0.103845
    24  H    0.100238
    25  H    0.094182
    26  H    0.082424
    27  H    0.082948
    28  H    0.320417
    29  H    0.122528
    30  H    0.100675
    31  H    0.083694
    32  C   -0.328183
    33  H    0.117326
    34  H    0.099643
    35  H    0.098298
    36  H    0.246370
 Sum of Mulliken charges =   0.00000
 Mulliken charges with hydrogens summed into heavy atoms:
               1
     1  C   -0.010940
     2  C   -0.003826
     3  C    0.181003
     4  C    0.034968
     5  C    0.225218
     6  O   -0.244857
     7  N   -0.290966
     8  C    0.140900
     9  C    0.016062
    10  C   -0.023822
    11  C    0.315437
    12  C   -0.022537
    13  C    0.320166
    14  C   -0.021654
    18  F   -0.298853
    19  F   -0.303381
    32  C   -0.012916
 Electronic spatial extent (au):  <R**2>=           5349.8177
 Charge=              0.0000 electrons
 Dipole moment (field-independent basis, Debye):
    X=              0.3726    Y=              0.7874    Z=             -0.1213  Tot=              0.8795
 Quadrupole moment (field-independent basis, Debye-Ang):
   XX=            -72.7015   YY=           -101.3531   ZZ=           -103.3404
   XY=             -1.7041   XZ=              4.0059   YZ=             -0.5625
 Traceless Quadrupole moment (field-independent basis, Debye-Ang):
   XX=             19.7635   YY=             -8.8881   ZZ=            -10.8754
   XY=             -1.7041   XZ=              4.0059   YZ=             -0.5625
 Octapole moment (field-independent basis, Debye-Ang**2):
  XXX=              6.9483  YYY=             -3.4783  ZZZ=             18.1004  XYY=             -1.2356
  XXY=            -16.4561  XXZ=             11.9517  XZZ=              9.9843  YZZ=             -1.3776
  YYZ=             -1.7940  XYZ=             -4.2560
 Hexadecapole moment (field-independent basis, Debye-Ang**3):
 XXXX=          -4093.9077 YYYY=          -1410.2049 ZZZZ=           -495.7861 XXXY=           -109.3170
 XXXZ=            258.9906 YYYX=            -20.7720 YYYZ=             -6.5876 ZZZX=             49.8843
 ZZZY=             -9.3621 XXYY=           -994.6525 XXZZ=           -889.2758 YYZZ=           -317.1328
 XXYZ=            -25.5427 YYXZ=             16.1555 ZZXY=             -9.4148
 N-N= 1.256825049887D+03 E-N=-4.468204332671D+03  KE= 8.290979285406D+02
 1\1\GINC-SWANNODE-0-13\FOpt\RB3LYP\6-31G(d,p)\C13H19F2N1O1\KE291\06-Ma
 r-2019\0\\# b3lyp/6-31g(d,p) Opt=(maxcycles=50) scrf=(solvent=chlorofo
 rm)\\AT3_1ginp009\\0,1\C,0.1748420621,-1.0640767338,3.3882783228\C,-0.
 7174025599,-0.0027881171,2.7304326388\C,-0.0378212433,1.3705762726,2.5
 840062426\C,-1.0287220971,2.536097364,2.3148901109\C,-1.8170661227,2.9
 361925762,3.5637871271\O,-0.9048144572,3.3879995797,4.5652063822\N,0.9
 534130011,1.3076785106,1.4890152627\C,2.1172878458,2.1788745056,1.6997
 828181\C,5.0345167785,1.6907761562,-1.4773981933\C,4.3227904161,2.8860
 286878,-1.377243542\C,3.3896977435,3.0214472189,-0.3546740313\C,3.1284
 957831,2.02523381,0.5872994007\C,3.8709834372,0.8528746786,0.432176591
 5\C,4.8127142962,0.6548449806,-0.5676147196\H,5.7653634588,1.564295702
 4,-2.2691505802\H,4.4763371827,3.7045476632,-2.0709271654\H,5.34922278
 61,-0.2851949451,-0.6229506456\F,2.7060940316,4.1855551511,-0.26270632
 09\F,3.6422109999,-0.1523632366,1.3181648138\H,-0.3392743389,-2.028804
 3504,3.44438868\H,1.1075025378,-1.2256861556,2.8357873963\H,0.44716024
 93,-0.7689857282,4.4075298517\H,-1.0371878847,-0.3480607373,1.73923678
 05\H,-1.6297127635,0.1052647011,3.327586149\H,-0.4166746759,3.41067391
 27,2.0559175556\H,-2.4134090628,2.0858094448,3.9304550555\H,-2.5277941
 48,3.7335392554,3.2961407338\H,-1.4125509412,3.5692109863,5.3666396719
 \H,1.7839662237,3.2184301399,1.7276546641\H,2.6184415553,1.9801347217,
 2.6637306595\H,0.462026054,1.5964887934,3.5410995464\C,-1.9762317386,2
 .2649670771,1.1387835505\H,-1.4065169336,1.9303883543,0.268394222\H,-2
 .7162349643,1.4932586775,1.3791851234\H,-2.5244277027,3.1715217486,0.8
 614613849\H,1.3002331915,0.3552543338,1.4179724621\\Version=EM64L-G09R
 evD.01\State=1-A\HF=-836.4922812\RMSD=7.226e-09\RMSF=4.230e-06\Dipole=
 -0.0913108,-0.3084857,0.1274163\Quadrupole=5.0735977,-6.4930755,1.4194
 778,-1.8781568,-11.5447812,1.164824\PG=C01 [X(C13H19F2N1O1)]\\@


 WORK FAITHFULLY FOR EIGHT HOURS A DAY AND DON'T WORRY.
 IN TIME YOU MAY BECOME BOSS AND WORK TWELVE HOURS A DAY
 AND HAVE ALL THE WORRY.
 Job cpu time:       0 days  3 hours 49 minutes 54.6 seconds.
 File lengths (MBytes):  RWF=    292 Int=      0 D2E=      0 Chk=     14 Scr=      1
 Normal termination of Gaussian 09 at Wed Mar  6 12:02:09 2019.
