 Entering Gaussian System, Link 0=/usr/local/shared/gaussian/em64t/09-D01/g09/g09
 Initial command:
 /usr/local/shared/gaussian/em64t/09-D01/g09/l1.exe "/scratch/ke291/AT3_2ginp003/Gau-13872.inp" -scrdir="/scratch/ke291/AT3_2ginp003/"
 Entering Link 1 = /usr/local/shared/gaussian/em64t/09-D01/g09/l1.exe PID=     13876.
  
 Copyright (c) 1988,1990,1992,1993,1995,1998,2003,2009,2013,
            Gaussian, Inc.  All Rights Reserved.
  
 This is part of the Gaussian(R) 09 program.  It is based on
 the Gaussian(R) 03 system (copyright 2003, Gaussian, Inc.),
 the Gaussian(R) 98 system (copyright 1998, Gaussian, Inc.),
 the Gaussian(R) 94 system (copyright 1995, Gaussian, Inc.),
 the Gaussian 92(TM) system (copyright 1992, Gaussian, Inc.),
 the Gaussian 90(TM) system (copyright 1990, Gaussian, Inc.),
 the Gaussian 88(TM) system (copyright 1988, Gaussian, Inc.),
 the Gaussian 86(TM) system (copyright 1986, Carnegie Mellon
 University), and the Gaussian 82(TM) system (copyright 1983,
 Carnegie Mellon University). Gaussian is a federally registered
 trademark of Gaussian, Inc.
  
 This software contains proprietary and confidential information,
 including trade secrets, belonging to Gaussian, Inc.
  
 This software is provided under written license and may be
 used, copied, transmitted, or stored only in accord with that
 written license.
  
 The following legend is applicable only to US Government
 contracts under FAR:
  
                    RESTRICTED RIGHTS LEGEND
  
 Use, reproduction and disclosure by the US Government is
 subject to restrictions as set forth in subparagraphs (a)
 and (c) of the Commercial Computer Software - Restricted
 Rights clause in FAR 52.227-19.
  
 Gaussian, Inc.
 340 Quinnipiac St., Bldg. 40, Wallingford CT 06492
  
  
 ---------------------------------------------------------------
 Warning -- This program may not be used in any manner that
 competes with the business of Gaussian, Inc. or will provide
 assistance to any competitor of Gaussian, Inc.  The licensee
 of this program is prohibited from giving any competitor of
 Gaussian, Inc. access to this program.  By using this program,
 the user acknowledges that Gaussian, Inc. is engaged in the
 business of creating and licensing software in the field of
 computational chemistry and represents and warrants to the
 licensee that it is not a competitor of Gaussian, Inc. and that
 it will not use this program in any manner prohibited above.
 ---------------------------------------------------------------
  

 Cite this work as:
 Gaussian 09, Revision D.01,
 M. J. Frisch, G. W. Trucks, H. B. Schlegel, G. E. Scuseria, 
 M. A. Robb, J. R. Cheeseman, G. Scalmani, V. Barone, B. Mennucci, 
 G. A. Petersson, H. Nakatsuji, M. Caricato, X. Li, H. P. Hratchian, 
 A. F. Izmaylov, J. Bloino, G. Zheng, J. L. Sonnenberg, M. Hada, 
 M. Ehara, K. Toyota, R. Fukuda, J. Hasegawa, M. Ishida, T. Nakajima, 
 Y. Honda, O. Kitao, H. Nakai, T. Vreven, J. A. Montgomery, Jr., 
 J. E. Peralta, F. Ogliaro, M. Bearpark, J. J. Heyd, E. Brothers, 
 K. N. Kudin, V. N. Staroverov, T. Keith, R. Kobayashi, J. Normand, 
 K. Raghavachari, A. Rendell, J. C. Burant, S. S. Iyengar, J. Tomasi, 
 M. Cossi, N. Rega, J. M. Millam, M. Klene, J. E. Knox, J. B. Cross, 
 V. Bakken, C. Adamo, J. Jaramillo, R. Gomperts, R. E. Stratmann, 
 O. Yazyev, A. J. Austin, R. Cammi, C. Pomelli, J. W. Ochterski, 
 R. L. Martin, K. Morokuma, V. G. Zakrzewski, G. A. Voth, 
 P. Salvador, J. J. Dannenberg, S. Dapprich, A. D. Daniels, 
 O. Farkas, J. B. Foresman, J. V. Ortiz, J. Cioslowski, 
 and D. J. Fox, Gaussian, Inc., Wallingford CT, 2013.
 
 ******************************************
 Gaussian 09:  EM64L-G09RevD.01 24-Apr-2013
                 6-Mar-2019 
 ******************************************
 %nprocshared=2
 Will use up to    2 processors via shared memory.
 %mem=6000MB
 %chk=AT3_2ginp003.chk
 ----------------------------------------------------------------------
 # b3lyp/6-31g(d,p) Opt=(maxcycles=100,MaxStep=1) scrf=(solvent=chlorof
 orm)
 ----------------------------------------------------------------------
 1/6=100,8=1,14=-1,18=20,19=15,26=3,38=1/1,3;
 2/9=110,12=2,17=6,18=5,40=1/2;
 3/5=1,6=6,7=101,11=2,16=1,25=1,30=1,70=2201,71=1,72=7,74=-5/1,2,3;
 4//1;
 5/5=2,38=5,53=7/2;
 6/7=2,8=2,9=2,10=2,28=1/1;
 7//1,2,3,16;
 1/6=100,8=1,14=-1,18=20,19=15,26=3/3(2);
 2/9=110/2;
 99//99;
 2/9=110/2;
 3/5=1,6=6,7=101,11=2,16=1,25=1,30=1,70=2205,71=1,72=7,74=-5/1,2,3;
 4/5=5,16=3,69=1/1;
 5/5=2,38=5,53=7/2;
 7//1,2,3,16;
 1/6=100,8=1,14=-1,18=20,19=15,26=3/3(-5);
 2/9=110/2;
 6/7=2,8=2,9=2,10=2,19=2,28=1/1;
 99/9=1/99;
 ------------
 AT3_2ginp003
 ------------
 Symbolic Z-matrix:
 Charge =  0 Multiplicity = 1
 C                    -3.04533  -1.4081   -0.55504 
 C                    -2.52356  -1.09863   0.85522 
 C                    -3.62697  -1.08153   1.92823 
 C                    -3.10749  -1.21684   3.39082 
 C                    -2.17019  -0.0709    3.82666 
 O                    -2.78616   1.21019   3.83542 
 N                    -4.39889   0.17846   1.76568 
 C                    -5.75338   0.20679   2.34528 
 C                    -8.46258  -2.87045   0.90566 
 C                    -8.06771  -2.87629   2.24354 
 C                    -7.1963   -1.88465   2.68109 
 C                    -6.6987   -0.87513   1.85596 
 C                    -7.12274  -0.93022   0.52647 
 C                    -7.98874  -1.89268   0.02763 
 H                    -9.14139  -3.63473   0.54232 
 H                    -8.41755  -3.62778   2.94178 
 H                    -8.27643  -1.86942  -1.01701 
 F                    -6.80721  -1.89581   3.97898 
 F                    -6.64367   0.0199   -0.31889 
 H                    -2.23618  -1.35292  -1.28971 
 H                    -3.47015  -2.4168   -0.60063 
 H                    -3.82699  -0.71236  -0.88178 
 H                    -1.7735   -1.85049   1.11987 
 H                    -2.00637  -0.13118   0.85823 
 H                    -3.99047  -1.16951   4.04135 
 H                    -1.27082  -0.07334   3.18633 
 H                    -1.82324  -0.26622   4.84934 
 H                    -3.31896   1.23507   3.00583 
 H                    -5.68042   0.15321   3.43167 
 H                    -6.17883   1.18631   2.10504 
 H                    -4.2776   -1.95481   1.7441 
 C                    -2.44194  -2.57901   3.63678 
 H                    -1.48144  -2.67097   3.11826 
 H                    -2.25042  -2.7236    4.70473 
 H                    -3.08258  -3.40103   3.29999 
 H                    -4.48108   0.3918    0.77568 
 

 GradGradGradGradGradGradGradGradGradGradGradGradGradGradGradGradGradGrad
 Berny optimization.
 Initialization pass.
                           ----------------------------
                           !    Initial Parameters    !
                           ! (Angstroms and Degrees)  !
 --------------------------                            --------------------------
 ! Name  Definition              Value          Derivative Info.                !
 --------------------------------------------------------------------------------
 ! R1    R(1,2)                  1.5352         estimate D2E/DX2                !
 ! R2    R(1,20)                 1.0943         estimate D2E/DX2                !
 ! R3    R(1,21)                 1.0955         estimate D2E/DX2                !
 ! R4    R(1,22)                 1.0963         estimate D2E/DX2                !
 ! R5    R(2,3)                  1.5392         estimate D2E/DX2                !
 ! R6    R(2,23)                 1.0945         estimate D2E/DX2                !
 ! R7    R(2,24)                 1.097          estimate D2E/DX2                !
 ! R8    R(3,4)                  1.558          estimate D2E/DX2                !
 ! R9    R(3,7)                  1.4866         estimate D2E/DX2                !
 ! R10   R(3,31)                 1.1045         estimate D2E/DX2                !
 ! R11   R(4,5)                  1.5433         estimate D2E/DX2                !
 ! R12   R(4,25)                 1.0978         estimate D2E/DX2                !
 ! R13   R(4,32)                 1.5359         estimate D2E/DX2                !
 ! R14   R(5,6)                  1.4215         estimate D2E/DX2                !
 ! R15   R(5,26)                 1.104          estimate D2E/DX2                !
 ! R16   R(5,27)                 1.0975         estimate D2E/DX2                !
 ! R17   R(6,28)                 0.9863         estimate D2E/DX2                !
 ! R18   R(7,8)                  1.4736         estimate D2E/DX2                !
 ! R19   R(7,36)                 1.0161         estimate D2E/DX2                !
 ! R20   R(8,12)                 1.5178         estimate D2E/DX2                !
 ! R21   R(8,29)                 1.0901         estimate D2E/DX2                !
 ! R22   R(8,30)                 1.0946         estimate D2E/DX2                !
 ! R23   R(9,10)                 1.3949         estimate D2E/DX2                !
 ! R24   R(9,14)                 1.397          estimate D2E/DX2                !
 ! R25   R(9,15)                 1.0849         estimate D2E/DX2                !
 ! R26   R(10,11)                1.3907         estimate D2E/DX2                !
 ! R27   R(10,16)                1.0838         estimate D2E/DX2                !
 ! R28   R(11,12)                1.3956         estimate D2E/DX2                !
 ! R29   R(11,18)                1.355          estimate D2E/DX2                !
 ! R30   R(12,13)                1.3966         estimate D2E/DX2                !
 ! R31   R(13,14)                1.3875         estimate D2E/DX2                !
 ! R32   R(13,19)                1.359          estimate D2E/DX2                !
 ! R33   R(14,17)                1.0838         estimate D2E/DX2                !
 ! R34   R(32,33)                1.0954         estimate D2E/DX2                !
 ! R35   R(32,34)                1.0946         estimate D2E/DX2                !
 ! R36   R(32,35)                1.0952         estimate D2E/DX2                !
 ! A1    A(2,1,20)             110.8087         estimate D2E/DX2                !
 ! A2    A(2,1,21)             110.8333         estimate D2E/DX2                !
 ! A3    A(2,1,22)             112.8421         estimate D2E/DX2                !
 ! A4    A(20,1,21)            107.7723         estimate D2E/DX2                !
 ! A5    A(20,1,22)            107.1645         estimate D2E/DX2                !
 ! A6    A(21,1,22)            107.1858         estimate D2E/DX2                !
 ! A7    A(1,2,3)              113.5141         estimate D2E/DX2                !
 ! A8    A(1,2,23)             108.4546         estimate D2E/DX2                !
 ! A9    A(1,2,24)             109.9088         estimate D2E/DX2                !
 ! A10   A(3,2,23)             109.2895         estimate D2E/DX2                !
 ! A11   A(3,2,24)             109.042          estimate D2E/DX2                !
 ! A12   A(23,2,24)            106.3837         estimate D2E/DX2                !
 ! A13   A(2,3,4)              114.4837         estimate D2E/DX2                !
 ! A14   A(2,3,7)              107.7844         estimate D2E/DX2                !
 ! A15   A(2,3,31)             107.2953         estimate D2E/DX2                !
 ! A16   A(4,3,7)              110.4511         estimate D2E/DX2                !
 ! A17   A(4,3,31)             106.5141         estimate D2E/DX2                !
 ! A18   A(7,3,31)             110.2462         estimate D2E/DX2                !
 ! A19   A(3,4,5)              113.7743         estimate D2E/DX2                !
 ! A20   A(3,4,25)             106.5206         estimate D2E/DX2                !
 ! A21   A(3,4,32)             111.8297         estimate D2E/DX2                !
 ! A22   A(5,4,25)             106.8071         estimate D2E/DX2                !
 ! A23   A(5,4,32)             110.4965         estimate D2E/DX2                !
 ! A24   A(25,4,32)            106.9712         estimate D2E/DX2                !
 ! A25   A(4,5,6)              114.0641         estimate D2E/DX2                !
 ! A26   A(4,5,26)             109.2279         estimate D2E/DX2                !
 ! A27   A(4,5,27)             108.8456         estimate D2E/DX2                !
 ! A28   A(6,5,26)             111.0118         estimate D2E/DX2                !
 ! A29   A(6,5,27)             106.9563         estimate D2E/DX2                !
 ! A30   A(26,5,27)            106.4121         estimate D2E/DX2                !
 ! A31   A(5,6,28)             104.5745         estimate D2E/DX2                !
 ! A32   A(3,7,8)              116.7815         estimate D2E/DX2                !
 ! A33   A(3,7,36)             109.0572         estimate D2E/DX2                !
 ! A34   A(8,7,36)             107.7497         estimate D2E/DX2                !
 ! A35   A(7,8,12)             115.5942         estimate D2E/DX2                !
 ! A36   A(7,8,29)             109.2393         estimate D2E/DX2                !
 ! A37   A(7,8,30)             106.7466         estimate D2E/DX2                !
 ! A38   A(12,8,29)            109.1432         estimate D2E/DX2                !
 ! A39   A(12,8,30)            108.9685         estimate D2E/DX2                !
 ! A40   A(29,8,30)            106.7809         estimate D2E/DX2                !
 ! A41   A(10,9,14)            120.6461         estimate D2E/DX2                !
 ! A42   A(10,9,15)            119.6955         estimate D2E/DX2                !
 ! A43   A(14,9,15)            119.658          estimate D2E/DX2                !
 ! A44   A(9,10,11)            118.433          estimate D2E/DX2                !
 ! A45   A(9,10,16)            121.9663         estimate D2E/DX2                !
 ! A46   A(11,10,16)           119.6006         estimate D2E/DX2                !
 ! A47   A(10,11,12)           123.5854         estimate D2E/DX2                !
 ! A48   A(10,11,18)           118.386          estimate D2E/DX2                !
 ! A49   A(12,11,18)           118.0286         estimate D2E/DX2                !
 ! A50   A(8,12,11)            123.1688         estimate D2E/DX2                !
 ! A51   A(8,12,13)            121.6106         estimate D2E/DX2                !
 ! A52   A(11,12,13)           115.2182         estimate D2E/DX2                !
 ! A53   A(12,13,14)           123.9957         estimate D2E/DX2                !
 ! A54   A(12,13,19)           117.2297         estimate D2E/DX2                !
 ! A55   A(14,13,19)           118.7737         estimate D2E/DX2                !
 ! A56   A(9,14,13)            118.1157         estimate D2E/DX2                !
 ! A57   A(9,14,17)            122.0609         estimate D2E/DX2                !
 ! A58   A(13,14,17)           119.8234         estimate D2E/DX2                !
 ! A59   A(4,32,33)            112.2483         estimate D2E/DX2                !
 ! A60   A(4,32,34)            110.4398         estimate D2E/DX2                !
 ! A61   A(4,32,35)            111.2805         estimate D2E/DX2                !
 ! A62   A(33,32,34)           107.2972         estimate D2E/DX2                !
 ! A63   A(33,32,35)           107.718          estimate D2E/DX2                !
 ! A64   A(34,32,35)           107.6511         estimate D2E/DX2                !
 ! D1    D(20,1,2,3)           176.7667         estimate D2E/DX2                !
 ! D2    D(20,1,2,23)          -61.5659         estimate D2E/DX2                !
 ! D3    D(20,1,2,24)           54.3546         estimate D2E/DX2                !
 ! D4    D(21,1,2,3)           -63.6299         estimate D2E/DX2                !
 ! D5    D(21,1,2,23)           58.0375         estimate D2E/DX2                !
 ! D6    D(21,1,2,24)          173.958          estimate D2E/DX2                !
 ! D7    D(22,1,2,3)            56.5908         estimate D2E/DX2                !
 ! D8    D(22,1,2,23)          178.2582         estimate D2E/DX2                !
 ! D9    D(22,1,2,24)          -65.8213         estimate D2E/DX2                !
 ! D10   D(1,2,3,4)            161.8154         estimate D2E/DX2                !
 ! D11   D(1,2,3,7)            -74.8678         estimate D2E/DX2                !
 ! D12   D(1,2,3,31)            43.8509         estimate D2E/DX2                !
 ! D13   D(23,2,3,4)            40.6148         estimate D2E/DX2                !
 ! D14   D(23,2,3,7)           163.9317         estimate D2E/DX2                !
 ! D15   D(23,2,3,31)          -77.3496         estimate D2E/DX2                !
 ! D16   D(24,2,3,4)           -75.2942         estimate D2E/DX2                !
 ! D17   D(24,2,3,7)            48.0227         estimate D2E/DX2                !
 ! D18   D(24,2,3,31)          166.7414         estimate D2E/DX2                !
 ! D19   D(2,3,4,5)             61.5047         estimate D2E/DX2                !
 ! D20   D(2,3,4,25)           178.9065         estimate D2E/DX2                !
 ! D21   D(2,3,4,32)           -64.5555         estimate D2E/DX2                !
 ! D22   D(7,3,4,5)            -60.3663         estimate D2E/DX2                !
 ! D23   D(7,3,4,25)            57.0355         estimate D2E/DX2                !
 ! D24   D(7,3,4,32)           173.5735         estimate D2E/DX2                !
 ! D25   D(31,3,4,5)           179.9121         estimate D2E/DX2                !
 ! D26   D(31,3,4,25)          -62.686          estimate D2E/DX2                !
 ! D27   D(31,3,4,32)           53.8519         estimate D2E/DX2                !
 ! D28   D(2,3,7,8)            159.4031         estimate D2E/DX2                !
 ! D29   D(2,3,7,36)            37.0152         estimate D2E/DX2                !
 ! D30   D(4,3,7,8)            -74.8556         estimate D2E/DX2                !
 ! D31   D(4,3,7,36)           162.7566         estimate D2E/DX2                !
 ! D32   D(31,3,7,8)            42.5895         estimate D2E/DX2                !
 ! D33   D(31,3,7,36)          -79.7984         estimate D2E/DX2                !
 ! D34   D(3,4,5,6)             62.8464         estimate D2E/DX2                !
 ! D35   D(3,4,5,26)           -62.0186         estimate D2E/DX2                !
 ! D36   D(3,4,5,27)          -177.8186         estimate D2E/DX2                !
 ! D37   D(25,4,5,6)           -54.3894         estimate D2E/DX2                !
 ! D38   D(25,4,5,26)         -179.2544         estimate D2E/DX2                !
 ! D39   D(25,4,5,27)           64.9456         estimate D2E/DX2                !
 ! D40   D(32,4,5,6)          -170.3936         estimate D2E/DX2                !
 ! D41   D(32,4,5,26)           64.7415         estimate D2E/DX2                !
 ! D42   D(32,4,5,27)          -51.0586         estimate D2E/DX2                !
 ! D43   D(3,4,32,33)           70.5919         estimate D2E/DX2                !
 ! D44   D(3,4,32,34)         -169.7194         estimate D2E/DX2                !
 ! D45   D(3,4,32,35)          -50.2189         estimate D2E/DX2                !
 ! D46   D(5,4,32,33)          -57.2414         estimate D2E/DX2                !
 ! D47   D(5,4,32,34)           62.4472         estimate D2E/DX2                !
 ! D48   D(5,4,32,35)         -178.0523         estimate D2E/DX2                !
 ! D49   D(25,4,32,33)        -173.1433         estimate D2E/DX2                !
 ! D50   D(25,4,32,34)         -53.4546         estimate D2E/DX2                !
 ! D51   D(25,4,32,35)          66.0459         estimate D2E/DX2                !
 ! D52   D(4,5,6,28)           -42.6925         estimate D2E/DX2                !
 ! D53   D(26,5,6,28)           81.2176         estimate D2E/DX2                !
 ! D54   D(27,5,6,28)         -163.0903         estimate D2E/DX2                !
 ! D55   D(3,7,8,12)           -56.8585         estimate D2E/DX2                !
 ! D56   D(3,7,8,29)            66.6657         estimate D2E/DX2                !
 ! D57   D(3,7,8,30)          -178.2247         estimate D2E/DX2                !
 ! D58   D(36,7,8,12)           66.2064         estimate D2E/DX2                !
 ! D59   D(36,7,8,29)         -170.2694         estimate D2E/DX2                !
 ! D60   D(36,7,8,30)          -55.1598         estimate D2E/DX2                !
 ! D61   D(7,8,12,11)          114.2496         estimate D2E/DX2                !
 ! D62   D(7,8,12,13)          -65.1699         estimate D2E/DX2                !
 ! D63   D(29,8,12,11)          -9.3251         estimate D2E/DX2                !
 ! D64   D(29,8,12,13)         171.2554         estimate D2E/DX2                !
 ! D65   D(30,8,12,11)        -125.5868         estimate D2E/DX2                !
 ! D66   D(30,8,12,13)          54.9937         estimate D2E/DX2                !
 ! D67   D(14,9,10,11)           0.1998         estimate D2E/DX2                !
 ! D68   D(14,9,10,16)        -179.6442         estimate D2E/DX2                !
 ! D69   D(15,9,10,11)         179.9719         estimate D2E/DX2                !
 ! D70   D(15,9,10,16)           0.1279         estimate D2E/DX2                !
 ! D71   D(10,9,14,13)          -0.2628         estimate D2E/DX2                !
 ! D72   D(10,9,14,17)         179.6816         estimate D2E/DX2                !
 ! D73   D(15,9,14,13)         179.965          estimate D2E/DX2                !
 ! D74   D(15,9,14,17)          -0.0906         estimate D2E/DX2                !
 ! D75   D(9,10,11,12)           0.3979         estimate D2E/DX2                !
 ! D76   D(9,10,11,18)        -179.6211         estimate D2E/DX2                !
 ! D77   D(16,10,11,12)       -179.7543         estimate D2E/DX2                !
 ! D78   D(16,10,11,18)          0.2267         estimate D2E/DX2                !
 ! D79   D(10,11,12,8)         179.681          estimate D2E/DX2                !
 ! D80   D(10,11,12,13)         -0.8655         estimate D2E/DX2                !
 ! D81   D(18,11,12,8)          -0.3001         estimate D2E/DX2                !
 ! D82   D(18,11,12,13)        179.1534         estimate D2E/DX2                !
 ! D83   D(8,12,13,14)        -179.7372         estimate D2E/DX2                !
 ! D84   D(8,12,13,19)           0.6051         estimate D2E/DX2                !
 ! D85   D(11,12,13,14)          0.7999         estimate D2E/DX2                !
 ! D86   D(11,12,13,19)       -178.8578         estimate D2E/DX2                !
 ! D87   D(12,13,14,9)          -0.2653         estimate D2E/DX2                !
 ! D88   D(12,13,14,17)        179.789          estimate D2E/DX2                !
 ! D89   D(19,13,14,9)         179.3874         estimate D2E/DX2                !
 ! D90   D(19,13,14,17)         -0.5583         estimate D2E/DX2                !
 --------------------------------------------------------------------------------
 Trust Radius=1.00D-02 FncErr=1.00D-07 GrdErr=1.00D-06
 Number of steps in this run=    100 maximum allowed number of steps=    216.
 GradGradGradGradGradGradGradGradGradGradGradGradGradGradGradGradGradGrad

                          Input orientation:                          
 ---------------------------------------------------------------------
 Center     Atomic      Atomic             Coordinates (Angstroms)
 Number     Number       Type             X           Y           Z
 ---------------------------------------------------------------------
      1          6           0       -3.045332   -1.408100   -0.555038
      2          6           0       -2.523558   -1.098625    0.855222
      3          6           0       -3.626973   -1.081526    1.928231
      4          6           0       -3.107486   -1.216842    3.390822
      5          6           0       -2.170187   -0.070902    3.826656
      6          8           0       -2.786156    1.210187    3.835420
      7          7           0       -4.398894    0.178464    1.765681
      8          6           0       -5.753378    0.206790    2.345282
      9          6           0       -8.462575   -2.870448    0.905659
     10          6           0       -8.067706   -2.876292    2.243535
     11          6           0       -7.196298   -1.884650    2.681093
     12          6           0       -6.698701   -0.875135    1.855957
     13          6           0       -7.122742   -0.930223    0.526468
     14          6           0       -7.988741   -1.892685    0.027632
     15          1           0       -9.141385   -3.634727    0.542316
     16          1           0       -8.417550   -3.627778    2.941780
     17          1           0       -8.276425   -1.869422   -1.017014
     18          9           0       -6.807214   -1.895808    3.978980
     19          9           0       -6.643669    0.019897   -0.318895
     20          1           0       -2.236184   -1.352919   -1.289714
     21          1           0       -3.470147   -2.416804   -0.600625
     22          1           0       -3.826994   -0.712361   -0.881780
     23          1           0       -1.773503   -1.850487    1.119869
     24          1           0       -2.006375   -0.131184    0.858226
     25          1           0       -3.990474   -1.169510    4.041347
     26          1           0       -1.270816   -0.073341    3.186332
     27          1           0       -1.823240   -0.266224    4.849336
     28          1           0       -3.318957    1.235066    3.005835
     29          1           0       -5.680419    0.153207    3.431667
     30          1           0       -6.178825    1.186313    2.105041
     31          1           0       -4.277598   -1.954813    1.744103
     32          6           0       -2.441940   -2.579011    3.636780
     33          1           0       -1.481441   -2.670972    3.118264
     34          1           0       -2.250415   -2.723603    4.704733
     35          1           0       -3.082583   -3.401033    3.299994
     36          1           0       -4.481084    0.391803    0.775679
 ---------------------------------------------------------------------
                    Distance matrix (angstroms):
                    1          2          3          4          5
     1  C    0.000000
     2  C    1.535206   0.000000
     3  C    2.571300   1.539210   0.000000
     4  C    3.950981   2.604653   1.557996   0.000000
     5  C    4.664034   3.163938   2.597615   1.543263   0.000000
     6  O    5.118468   3.779041   3.097788   2.488251   1.421507
     7  N    3.120104   2.444745   1.486560   2.501140   3.045807
     8  C    4.284068   3.788948   2.520969   3.181293   3.887266
     9  C    5.798157   6.197889   5.256324   6.130859   7.480898
    10  C    5.933956   5.985406   4.800073   5.354794   6.719912
    11  C    5.284899   5.078006   3.735222   4.203340   5.464777
    12  C    4.409541   4.299213   3.079501   3.920383   5.003787
    13  C    4.245385   4.613993   3.769380   4.940542   6.013108
    14  C    5.001162   5.584234   4.826518   5.966110   7.183805
    15  H    6.582091   7.094037   6.232843   7.097049   8.490309
    16  H    6.783467   6.744589   5.519085   5.849020   7.243198
    17  H    5.271677   6.098761   5.559915   6.824428   7.998872
    18  F    5.911593   5.361257   3.870731   3.807219   4.985530
    19  F    3.878527   4.427749   3.919587   5.272203   6.099662
    20  H    1.094310   2.178991   3.516123   4.762888   5.274956
    21  H    1.095458   2.180165   2.864032   4.183669   5.176289
    22  H    1.096271   2.205748   2.841207   4.362032   5.032480
    23  H    2.149085   1.094493   2.163355   2.708920   3.263584
    24  H    2.169623   1.097009   2.162036   2.967346   2.973557
    25  H    4.698614   3.508313   2.145957   1.097767   2.136932
    26  H    4.350671   2.838070   2.854949   2.173193   1.104033
    27  H    5.657265   4.139599   3.528601   2.163382   1.097451
    28  H    4.443086   3.271683   2.573461   2.490942   1.923271
    29  H    5.027442   4.262737   2.828696   2.915251   3.539487
    30  H    4.860636   4.488203   3.418524   4.106278   4.540234
    31  H    2.665225   2.144720   1.104466   2.150685   3.511030
    32  C    4.393910   3.152026   2.562402   1.535888   2.529924
    33  H    4.187331   2.946123   2.923325   2.198364   2.781467
    34  H    5.479747   4.187349   3.507177   2.175146   2.795403
    35  H    4.339866   3.404483   2.749220   2.186220   3.492795
    36  H    2.659293   2.461627   2.056351   3.363552   3.855230
                    6          7          8          9         10
     6  O    0.000000
     7  N    2.819432   0.000000
     8  C    3.468678   1.473555   0.000000
     9  C    7.580027   5.152573   4.345303   0.000000
    10  C    6.864996   4.797922   3.856405   1.394944   0.000000
    11  C    5.509976   3.594424   2.562988   2.393203   1.390742
    12  C    4.855394   2.531270   1.517773   2.827648   2.455407
    13  C    5.859735   3.191266   2.544806   2.388182   2.761967
    14  C    7.154995   4.494160   3.843975   1.396951   2.425685
    15  H    8.643302   6.207114   5.430150   1.084861   2.149921
    16  H    7.477773   5.658646   4.707178   2.172870   1.083821
    17  H    7.948155   5.193503   4.688439   2.175632   3.418849
    18  F    5.082984   3.873152   2.863644   3.624285   2.358380
    19  F    5.792714   3.067509   2.815206   3.627954   4.120903
    20  H    5.756647   4.044488   5.293065   6.774253   6.986498
    21  H    5.770737   3.632821   4.557933   5.234408   5.425673
    22  H    5.199184   2.851261   3.869072   5.416723   5.695070
    23  H    4.215140   3.380295   4.644720   6.769778   6.475484
    24  H    3.357234   2.577500   4.045441   7.013440   6.796649
    25  H    2.675023   2.676285   2.806896   5.720613   4.771692
    26  H    2.089262   3.444783   4.569377   8.046532   7.412362
    27  H    2.033475   4.042360   4.684016   8.149561   7.252310
    28  H    0.986260   1.954649   2.723984   6.908169   6.327320
    29  H    3.107569   2.102012   1.090150   4.823235   4.035921
    30  H    3.808541   2.073422   1.094618   4.807425   4.482389
    31  H    4.076178   2.136831   2.685492   4.365250   3.932362
    32  C    3.809982   3.864499   4.516002   6.617553   5.803339
    33  H    4.156921   4.296546   5.208499   7.326094   6.647270
    34  H    4.064164   4.655748   5.140521   7.283231   6.318360
    35  H    4.651656   4.110912   4.589227   5.912587   5.122784
    36  H    3.592290   1.016057   2.028944   5.148927   5.069408
                   11         12         13         14         15
    11  C    0.000000
    12  C    1.395555   0.000000
    13  C    2.357700   1.396562   0.000000
    14  C    2.769275   2.458126   1.387489   0.000000
    15  H    3.379424   3.912507   3.374835   2.151325   0.000000
    16  H    2.144273   3.422060   3.845395   3.418579   2.506275
    17  H    3.852649   3.425169   2.143693   1.083784   2.509176
    18  F    1.354999   2.358130   3.598854   4.124217   4.503649
    19  F    3.596196   2.352465   1.358999   2.363741   4.509606
    20  H    6.375953   5.480655   5.230261   5.926100   7.499652
    21  H    4.993703   4.339942   4.101428   4.592070   5.912072
    22  H    5.041878   3.970944   3.590623   4.420445   6.229849
    23  H    5.643164   5.074516   5.460162   6.310622   7.602813
    24  H    5.773456   4.854570   5.189002   6.291381   7.955060
    25  H    3.555140   3.492431   4.714099   5.711307   6.697193
    26  H    6.216707   5.645769   6.484918   7.643162   9.034388
    27  H    6.015840   5.753365   6.871157   7.994223   9.135233
    28  H    4.987169   4.147027   5.030359   6.360770   7.980256
    29  H    2.648416   2.139450   3.419692   4.593634   5.888555
    30  H    3.286016   2.140533   2.804032   4.131785   5.870374
    31  H    3.066216   2.653291   3.259948   4.089342   5.284206
    32  C    4.898918   4.918794   5.856829   6.653119   7.454717
    33  H    5.785241   5.660234   6.447627   7.245874   8.138739
    34  H    5.409317   5.596392   6.664358   7.449435   8.101934
    35  H    4.427766   4.641305   5.488190   6.087188   6.660968
    36  H    4.023087   2.773077   2.964492   4.252307   6.163263
                   16         17         18         19         20
    16  H    0.000000
    17  H    4.334026   0.000000
    18  F    2.582379   5.207613   0.000000
    19  F    5.204247   2.592835   4.708334   0.000000
    20  H    7.828781   6.068414   6.996298   4.717312   0.000000
    21  H    6.204183   4.855236   5.690364   4.011001   1.768999
    22  H    6.647741   4.599404   5.823165   2.964236   1.762782
    23  H    7.114878   6.845044   5.789199   5.411737   2.503545
    24  H    7.594112   6.771376   5.991750   4.786746   2.481753
    25  H    5.181807   6.666804   2.909540   5.240787   5.615282
    26  H    7.985590   8.364962   5.882295   6.415829   4.754392
    27  H    7.643542   8.867238   5.315361   7.073119   6.248149
    28  H    7.046063   7.099130   4.787205   4.856354   5.130478
    29  H    4.693370   5.533628   2.401600   3.874576   6.035114
    30  H    5.374708   4.846099   3.661420   2.729848   5.789342
    31  H    4.623034   4.860214   3.375962   3.708602   3.705900
    32  C    6.106624   7.496835   4.431646   6.328998   5.080943
    33  H    7.004016   7.994674   5.450282   6.760432   4.662314
    34  H    6.477583   8.353491   4.687897   7.215560   6.149176
    35  H    5.351785   6.925200   4.074261   6.122129   5.096723
    36  H    6.028664   4.767757   4.572219   2.452179   3.514182
                   21         22         23         24         25
    21  H    0.000000
    22  H    1.763948   0.000000
    23  H    2.481817   3.085248   0.000000
    24  H    3.081385   2.584578   1.754619   0.000000
    25  H    4.834707   4.947009   3.730111   3.891919   0.000000
    26  H    4.966883   4.846848   2.771500   2.442226   3.054371
    27  H    6.085998   6.087673   4.052319   3.997591   2.483078
    28  H    5.134741   4.377685   3.932675   2.863867   2.702815
    29  H    5.267793   4.773910   4.962176   4.494672   2.230965
    30  H    5.257377   4.249373   5.440550   4.549691   3.753407
    31  H    2.522531   2.939726   2.582837   3.044479   2.444682
    32  C    4.363384   5.081352   2.704145   3.728530   2.132681
    33  H    4.224889   5.033699   2.179926   3.440036   3.066223
    34  H    5.452403   6.143275   3.720353   4.644976   2.425509
    35  H    4.041503   5.026962   2.978394   4.220470   2.520628
    36  H    3.287016   2.096230   3.532325   2.530714   3.652805
                   26         27         28         29         30
    26  H    0.000000
    27  H    1.762941   0.000000
    28  H    2.437086   2.808832   0.000000
    29  H    4.422230   4.130803   2.632158   0.000000
    30  H    5.181166   5.349032   2.998775   1.753754   0.000000
    31  H    3.828930   4.303217   3.561781   3.042947   3.689392
    32  C    2.802289   2.683667   3.964144   4.242032   5.521613
    33  H    2.607046   2.982659   4.318130   5.070072   6.162036
    34  H    3.207655   2.498420   4.438367   4.654209   6.121948
    35  H    3.790641   3.716643   4.651432   4.404397   5.662012
    36  H    4.041464   4.908341   2.652400   2.923971   2.297994
                   31         32         33         34         35
    31  H    0.000000
    32  C    2.709519   0.000000
    33  H    3.196826   1.095388   0.000000
    34  H    3.669583   1.094583   1.763796   0.000000
    35  H    2.437296   1.095248   1.769088   1.767683   0.000000
    36  H    2.546734   4.601059   4.885299   5.488087   4.765876
                   36
    36  H    0.000000
 Stoichiometry    C13H19F2NO
 Framework group  C1[X(C13H19F2NO)]
 Deg. of freedom   102
 Full point group                 C1      NOp   1
 Largest Abelian subgroup         C1      NOp   1
 Largest concise Abelian subgroup C1      NOp   1
                         Standard orientation:                         
 ---------------------------------------------------------------------
 Center     Atomic      Atomic             Coordinates (Angstroms)
 Number     Number       Type             X           Y           Z
 ---------------------------------------------------------------------
      1          6           0       -1.005222    2.808900    1.275992
      2          6           0       -2.003884    1.702029    0.909430
      3          6           0       -1.332756    0.411020    0.407386
      4          6           0       -2.245586   -0.850758    0.452187
      5          6           0       -3.505853   -0.738595   -0.431445
      6          8           0       -3.230474   -0.606282   -1.819732
      7          7           0       -0.854539    0.657203   -0.978458
      8          6           0        0.202120   -0.236365   -1.484791
      9          6           0        3.848989   -0.336736    0.875702
     10          6           0        3.061351   -1.484238    0.782248
     11          6           0        1.896030   -1.427684    0.025288
     12          6           0        1.472337   -0.285482   -0.655472
     13          6           0        2.297921    0.832023   -0.514119
     14          6           0        3.471159    0.841095    0.226526
     15          1           0        4.762055   -0.357823    1.461184
     16          1           0        3.331100   -2.407585    1.281582
     17          1           0        4.062940    1.746986    0.287735
     18          9           0        1.127632   -2.540595   -0.058463
     19          9           0        1.911120    1.974158   -1.140850
     20          1           0       -1.529236    3.722886    1.571886
     21          1           0       -0.371921    2.500091    2.114798
     22          1           0       -0.338517    3.072300    0.446574
     23          1           0       -2.609077    1.475013    1.792675
     24          1           0       -2.699397    2.065315    0.142804
     25          1           0       -1.649952   -1.681335    0.051620
     26          1           0       -4.129946    0.097419   -0.070227
     27          1           0       -4.106401   -1.649034   -0.309619
     28          1           0       -2.481706    0.034085   -1.864296
     29          1           0       -0.198353   -1.245285   -1.585427
     30          1           0        0.449260    0.107688   -2.494116
     31          1           0       -0.478023    0.204038    1.075544
     32          6           0       -2.629304   -1.227270    1.890919
     33          1           0       -3.328213   -0.510153    2.334927
     34          1           0       -3.112567   -2.209144    1.913143
     35          1           0       -1.746799   -1.276763    2.537683
     36          1           0       -0.512256    1.611433   -1.046700
 ---------------------------------------------------------------------
 Rotational constants (GHZ):      0.6544276      0.3136827      0.2730231
 Standard basis: 6-31G(d,p) (6D, 7F)
 There are   350 symmetry adapted cartesian basis functions of A   symmetry.
 There are   350 symmetry adapted basis functions of A   symmetry.
   350 basis functions,   609 primitive gaussians,   350 cartesian basis functions
    65 alpha electrons       65 beta electrons
       nuclear repulsion energy      1306.9725042713 Hartrees.
 NAtoms=   36 NActive=   36 NUniq=   36 SFac= 1.00D+00 NAtFMM=   60 NAOKFM=F Big=F
 Integral buffers will be    131072 words long.
 Raffenetti 2 integral format.
 Two-electron integral symmetry is turned on.
 ------------------------------------------------------------------------------
 Polarizable Continuum Model (PCM)
 =================================
 Model                : PCM (using non-symmetric T matrix).
 Atomic radii         : UFF (Universal Force Field).
 Polarization charges : Total charges.
 Charge compensation  : None.
 Solution method      : On-the-fly selection.
 Cavity type          : Scaled VdW (van der Waals Surface) (Alpha=1.100).
 Cavity algorithm     : GePol (No added spheres)
                        Default sphere list used, NSphG=   36.
                        Lebedev-Laikov grids with approx.  5.0 points / Ang**2.
                        Smoothing algorithm: Karplus/York (Gamma=1.0000).
                        Polarization charges: spherical gaussians, with
                                              point-specific exponents (IZeta= 3).
                        Self-potential: point-specific (ISelfS= 7).
                        Self-field    : sphere-specific E.n sum rule (ISelfD= 2).
 1st derivatives      : Analytical E(r).r(x)/FMM algorithm (CHGder, D1EAlg=3).
                        Cavity 1st derivative terms included.
 Solvent              : Chloroform, Eps=   4.711300 Eps(inf)=   2.090627
 ------------------------------------------------------------------------------
 One-electron integrals computed using PRISM.
 NBasis=   350 RedAO= T EigKep=  4.19D-04  NBF=   350
 NBsUse=   350 1.00D-06 EigRej= -1.00D+00 NBFU=   350
 ExpMin= 1.61D-01 ExpMax= 7.00D+03 ExpMxC= 1.05D+03 IAcc=1 IRadAn=         1 AccDes= 0.00D+00
 Harris functional with IExCor=  402 and IRadAn=       1 diagonalized for initial guess.
 HarFok:  IExCor=  402 AccDes= 0.00D+00 IRadAn=         1 IDoV= 1 UseB2=F ITyADJ=14
 ICtDFT=  3500011 ScaDFX=  1.000000  1.000000  1.000000  1.000000
 FoFCou: FMM=F IPFlag=           0 FMFlag=      100000 FMFlg1=           0
         NFxFlg=           0 DoJE=T BraDBF=F KetDBF=T FulRan=T
         wScrn=  0.000000 ICntrl=     500 IOpCl=  0 I1Cent=   200000004 NGrid=           0
         NMat0=    1 NMatS0=      1 NMatT0=    0 NMatD0=    1 NMtDS0=    0 NMtDT0=    0
 Petite list used in FoFCou.
 Requested convergence on RMS density matrix=1.00D-08 within 128 cycles.
 Requested convergence on MAX density matrix=1.00D-06.
 Requested convergence on             energy=1.00D-06.
 No special actions if energy rises.
 Inv3:  Mode=1 IEnd=    18555507.
 Iteration    1 A*A^-1 deviation from unit magnitude is 8.22D-15 for   1457.
 Iteration    1 A*A^-1 deviation from orthogonality  is 6.22D-15 for   2113    844.
 Iteration    1 A^-1*A deviation from unit magnitude is 7.33D-15 for   1406.
 Iteration    1 A^-1*A deviation from orthogonality  is 1.88D-13 for   2084   2057.
 Error on total polarization charges =  0.00748
 SCF Done:  E(RB3LYP) =  -836.501450879     A.U. after   12 cycles
            NFock= 12  Conv=0.63D-08     -V/T= 2.0090

 **********************************************************************

            Population analysis using the SCF density.

 **********************************************************************

 Orbital symmetries:
       Occupied  (A) (A) (A) (A) (A) (A) (A) (A) (A) (A) (A) (A)
                 (A) (A) (A) (A) (A) (A) (A) (A) (A) (A) (A) (A)
                 (A) (A) (A) (A) (A) (A) (A) (A) (A) (A) (A) (A)
                 (A) (A) (A) (A) (A) (A) (A) (A) (A) (A) (A) (A)
                 (A) (A) (A) (A) (A) (A) (A) (A) (A) (A) (A) (A)
                 (A) (A) (A) (A) (A)
       Virtual   (A) (A) (A) (A) (A) (A) (A) (A) (A) (A) (A) (A)
                 (A) (A) (A) (A) (A) (A) (A) (A) (A) (A) (A) (A)
                 (A) (A) (A) (A) (A) (A) (A) (A) (A) (A) (A) (A)
                 (A) (A) (A) (A) (A) (A) (A) (A) (A) (A) (A) (A)
                 (A) (A) (A) (A) (A) (A) (A) (A) (A) (A) (A) (A)
                 (A) (A) (A) (A) (A) (A) (A) (A) (A) (A) (A) (A)
                 (A) (A) (A) (A) (A) (A) (A) (A) (A) (A) (A) (A)
                 (A) (A) (A) (A) (A) (A) (A) (A) (A) (A) (A) (A)
                 (A) (A) (A) (A) (A) (A) (A) (A) (A) (A) (A) (A)
                 (A) (A) (A) (A) (A) (A) (A) (A) (A) (A) (A) (A)
                 (A) (A) (A) (A) (A) (A) (A) (A) (A) (A) (A) (A)
                 (A) (A) (A) (A) (A) (A) (A) (A) (A) (A) (A) (A)
                 (A) (A) (A) (A) (A) (A) (A) (A) (A) (A) (A) (A)
                 (A) (A) (A) (A) (A) (A) (A) (A) (A) (A) (A) (A)
                 (A) (A) (A) (A) (A) (A) (A) (A) (A) (A) (A) (A)
                 (A) (A) (A) (A) (A) (A) (A) (A) (A) (A) (A) (A)
                 (A) (A) (A) (A) (A) (A) (A) (A) (A) (A) (A) (A)
                 (A) (A) (A) (A) (A) (A) (A) (A) (A) (A) (A) (A)
                 (A) (A) (A) (A) (A) (A) (A) (A) (A) (A) (A) (A)
                 (A) (A) (A) (A) (A) (A) (A) (A) (A) (A) (A) (A)
                 (A) (A) (A) (A) (A) (A) (A) (A) (A) (A) (A) (A)
                 (A) (A) (A) (A) (A) (A) (A) (A) (A) (A) (A) (A)
                 (A) (A) (A) (A) (A) (A) (A) (A) (A) (A) (A) (A)
                 (A) (A) (A) (A) (A) (A) (A) (A) (A)
 The electronic state is 1-A.
 Alpha  occ. eigenvalues --  -24.72035 -24.71638 -19.11670 -14.33394 -10.28427
 Alpha  occ. eigenvalues --  -10.28427 -10.22399 -10.21584 -10.21480 -10.21120
 Alpha  occ. eigenvalues --  -10.21097 -10.20344 -10.20285 -10.18440 -10.18320
 Alpha  occ. eigenvalues --  -10.17780 -10.17457  -1.22864  -1.22607  -0.99012
 Alpha  occ. eigenvalues --   -0.91543  -0.87339  -0.80203  -0.77415  -0.75804
 Alpha  occ. eigenvalues --   -0.75722  -0.69392  -0.66120  -0.65382  -0.63063
 Alpha  occ. eigenvalues --   -0.61500  -0.60848  -0.56108  -0.54849  -0.52935
 Alpha  occ. eigenvalues --   -0.50063  -0.49279  -0.49140  -0.48507  -0.47828
 Alpha  occ. eigenvalues --   -0.46847  -0.46191  -0.44614  -0.44241  -0.43511
 Alpha  occ. eigenvalues --   -0.42301  -0.40834  -0.40517  -0.40397  -0.39151
 Alpha  occ. eigenvalues --   -0.38640  -0.38091  -0.37498  -0.36706  -0.36239
 Alpha  occ. eigenvalues --   -0.35929  -0.35379  -0.33755  -0.32774  -0.31240
 Alpha  occ. eigenvalues --   -0.31121  -0.25988  -0.25264  -0.24680  -0.23439
 Alpha virt. eigenvalues --   -0.01958  -0.00550   0.06883   0.08726   0.09263
 Alpha virt. eigenvalues --    0.10849   0.11470   0.12832   0.13738   0.14119
 Alpha virt. eigenvalues --    0.14359   0.15146   0.15760   0.15997   0.16274
 Alpha virt. eigenvalues --    0.16618   0.17671   0.18257   0.18761   0.19327
 Alpha virt. eigenvalues --    0.20268   0.20483   0.21506   0.22537   0.23335
 Alpha virt. eigenvalues --    0.24521   0.24819   0.25675   0.26146   0.26490
 Alpha virt. eigenvalues --    0.27071   0.28712   0.30046   0.30295   0.30838
 Alpha virt. eigenvalues --    0.37069   0.39021   0.45585   0.47616   0.48688
 Alpha virt. eigenvalues --    0.49004   0.50623   0.51074   0.51775   0.52925
 Alpha virt. eigenvalues --    0.54500   0.55124   0.55757   0.56137   0.57348
 Alpha virt. eigenvalues --    0.58340   0.59210   0.59291   0.60215   0.61540
 Alpha virt. eigenvalues --    0.62893   0.63096   0.63547   0.64613   0.65134
 Alpha virt. eigenvalues --    0.66547   0.67660   0.68011   0.69988   0.70999
 Alpha virt. eigenvalues --    0.71605   0.73522   0.76080   0.77807   0.78067
 Alpha virt. eigenvalues --    0.78945   0.80710   0.81270   0.82546   0.83042
 Alpha virt. eigenvalues --    0.84154   0.84791   0.85330   0.86155   0.86704
 Alpha virt. eigenvalues --    0.87406   0.88063   0.88718   0.89648   0.90421
 Alpha virt. eigenvalues --    0.90961   0.91733   0.93002   0.93249   0.94543
 Alpha virt. eigenvalues --    0.95898   0.97245   0.97656   0.98533   0.99660
 Alpha virt. eigenvalues --    1.00507   1.01992   1.03409   1.04516   1.06778
 Alpha virt. eigenvalues --    1.08020   1.09758   1.10703   1.13220   1.17152
 Alpha virt. eigenvalues --    1.18258   1.20078   1.21513   1.21980   1.22211
 Alpha virt. eigenvalues --    1.24459   1.24941   1.26261   1.30501   1.31719
 Alpha virt. eigenvalues --    1.34489   1.36224   1.37319   1.38145   1.39158
 Alpha virt. eigenvalues --    1.39677   1.41283   1.43148   1.43953   1.44859
 Alpha virt. eigenvalues --    1.45724   1.48397   1.49515   1.51787   1.53122
 Alpha virt. eigenvalues --    1.56135   1.58488   1.62212   1.63124   1.65785
 Alpha virt. eigenvalues --    1.67458   1.70823   1.71882   1.72586   1.73805
 Alpha virt. eigenvalues --    1.74441   1.76053   1.77516   1.79621   1.80565
 Alpha virt. eigenvalues --    1.81869   1.82267   1.83084   1.83885   1.85178
 Alpha virt. eigenvalues --    1.85781   1.86919   1.87768   1.88903   1.89453
 Alpha virt. eigenvalues --    1.90092   1.91298   1.92692   1.93872   1.94767
 Alpha virt. eigenvalues --    1.96948   1.97402   1.98039   1.98453   2.00917
 Alpha virt. eigenvalues --    2.02195   2.02445   2.04049   2.05148   2.05384
 Alpha virt. eigenvalues --    2.06160   2.06514   2.07649   2.09097   2.11182
 Alpha virt. eigenvalues --    2.11482   2.12984   2.15256   2.16283   2.17752
 Alpha virt. eigenvalues --    2.18369   2.20483   2.21563   2.22855   2.25096
 Alpha virt. eigenvalues --    2.26517   2.26967   2.28204   2.28378   2.29723
 Alpha virt. eigenvalues --    2.30710   2.31446   2.31989   2.33905   2.34238
 Alpha virt. eigenvalues --    2.36297   2.37142   2.37731   2.38423   2.39213
 Alpha virt. eigenvalues --    2.40768   2.42024   2.42789   2.45179   2.48426
 Alpha virt. eigenvalues --    2.50025   2.50803   2.52084   2.53841   2.54959
 Alpha virt. eigenvalues --    2.56262   2.57330   2.57888   2.61299   2.61434
 Alpha virt. eigenvalues --    2.61857   2.64937   2.65371   2.66658   2.67265
 Alpha virt. eigenvalues --    2.71391   2.72772   2.74000   2.74509   2.75171
 Alpha virt. eigenvalues --    2.76054   2.76677   2.77033   2.78237   2.79959
 Alpha virt. eigenvalues --    2.82294   2.85076   2.85997   2.87507   2.89052
 Alpha virt. eigenvalues --    2.90000   2.90190   2.90737   2.92476   2.96962
 Alpha virt. eigenvalues --    2.98175   2.99829   3.04949   3.05303   3.06792
 Alpha virt. eigenvalues --    3.09965   3.13200   3.19952   3.20722   3.21630
 Alpha virt. eigenvalues --    3.25843   3.28750   3.31196   3.32223   3.33609
 Alpha virt. eigenvalues --    3.34602   3.37267   3.39671   3.41433   3.45237
 Alpha virt. eigenvalues --    3.45767   3.47650   3.49658   3.53621   3.54349
 Alpha virt. eigenvalues --    3.57233   3.61533   3.80403   3.97927   4.09603
 Alpha virt. eigenvalues --    4.11426   4.15445   4.20046   4.32647   4.38257
 Alpha virt. eigenvalues --    4.41146   4.46886   4.52788   4.57795   4.62152
 Alpha virt. eigenvalues --    4.67239   4.74781   4.78370   5.37000   5.49542
          Condensed to atoms (all electrons):
               1          2          3          4          5          6
     1  C    4.942095   0.362837  -0.035765   0.004473   0.000117   0.000003
     2  C    0.362837   4.944461   0.369628  -0.035870  -0.008744  -0.000651
     3  C   -0.035765   0.369628   4.881974   0.360581  -0.033086  -0.003494
     4  C    0.004473  -0.035870   0.360581   5.046864   0.352760  -0.034186
     5  C    0.000117  -0.008744  -0.033086   0.352760   4.718022   0.264865
     6  O    0.000003  -0.000651  -0.003494  -0.034186   0.264865   8.194674
     7  N   -0.004532  -0.046401   0.260971  -0.055649   0.001051  -0.025655
     8  C    0.000030   0.005421  -0.040152  -0.002310  -0.000342   0.000128
     9  C   -0.000002   0.000001   0.000009   0.000000   0.000000   0.000000
    10  C   -0.000001   0.000001  -0.000038  -0.000010   0.000000   0.000000
    11  C    0.000002   0.000008  -0.000075   0.000120  -0.000003  -0.000005
    12  C    0.000162   0.000086  -0.008017  -0.000820   0.000008   0.000107
    13  C    0.000281  -0.000077  -0.001524   0.000054   0.000000   0.000000
    14  C    0.000011  -0.000001  -0.000025   0.000000   0.000000   0.000000
    15  H    0.000000   0.000000   0.000000   0.000000   0.000000   0.000000
    16  H    0.000000   0.000000   0.000000   0.000000   0.000000   0.000000
    17  H    0.000000   0.000000   0.000001   0.000000   0.000000   0.000000
    18  F    0.000000   0.000000   0.000121  -0.001013   0.000011   0.000000
    19  F   -0.000741  -0.000045  -0.000051  -0.000001   0.000000   0.000000
    20  H    0.379548  -0.027242   0.003853  -0.000134   0.000002   0.000000
    21  H    0.385751  -0.034004  -0.005144  -0.000021   0.000005   0.000000
    22  H    0.379953  -0.036545  -0.004634   0.000057  -0.000009   0.000001
    23  H   -0.036037   0.383189  -0.036746  -0.005525  -0.000818   0.000016
    24  H   -0.040461   0.377962  -0.035330  -0.006202   0.002823   0.000249
    25  H   -0.000148   0.005325  -0.046084   0.370459  -0.044459   0.002463
    26  H   -0.000060   0.006630  -0.016003  -0.048529   0.361787  -0.041548
    27  H   -0.000001  -0.000027   0.005753  -0.033955   0.380939  -0.039626
    28  H   -0.000033  -0.001130   0.000255  -0.012445  -0.036554   0.278164
    29  H   -0.000007   0.000030  -0.006613   0.003363  -0.000178   0.003993
    30  H    0.000012  -0.000237   0.005328   0.000026  -0.000015   0.000034
    31  H   -0.008608  -0.047987   0.379922  -0.058961   0.005068  -0.000274
    32  C    0.000122  -0.006987  -0.041157   0.335634  -0.038105   0.002892
    33  H   -0.000147   0.000744  -0.005964  -0.034686  -0.006285   0.000008
    34  H    0.000000   0.000181   0.004137  -0.028236  -0.003389   0.000001
    35  H   -0.000072  -0.000267  -0.004601  -0.026220   0.003767  -0.000067
    36  H    0.003702  -0.007890  -0.039610   0.005910  -0.000017   0.000417
               7          8          9         10         11         12
     1  C   -0.004532   0.000030  -0.000002  -0.000001   0.000002   0.000162
     2  C   -0.046401   0.005421   0.000001   0.000001   0.000008   0.000086
     3  C    0.260971  -0.040152   0.000009  -0.000038  -0.000075  -0.008017
     4  C   -0.055649  -0.002310   0.000000  -0.000010   0.000120  -0.000820
     5  C    0.001051  -0.000342   0.000000   0.000000  -0.000003   0.000008
     6  O   -0.025655   0.000128   0.000000   0.000000  -0.000005   0.000107
     7  N    6.928361   0.288908   0.000005  -0.000090  -0.000503  -0.054254
     8  C    0.288908   4.960003  -0.000759   0.007615  -0.044182   0.269915
     9  C    0.000005  -0.000759   4.863039   0.484772  -0.004429  -0.028264
    10  C   -0.000090   0.007615   0.484772   5.036890   0.476564  -0.074960
    11  C   -0.000503  -0.044182  -0.004429   0.476564   4.600232   0.416749
    12  C   -0.054254   0.269915  -0.028264  -0.074960   0.416749   5.366996
    13  C   -0.001783  -0.055713  -0.004988  -0.045625   0.021061   0.383391
    14  C    0.000012   0.007877   0.484528  -0.037057  -0.047078  -0.078956
    15  H    0.000000   0.000004   0.374168  -0.033847   0.003590   0.000416
    16  H    0.000001  -0.000106  -0.036566   0.362229  -0.032508   0.006287
    17  H    0.000007  -0.000120  -0.035978   0.004376   0.000329   0.006258
    18  F    0.000023  -0.005578   0.002949  -0.044137   0.291289  -0.049550
    19  F   -0.004306   0.005526   0.002760   0.000001   0.002432  -0.058917
    20  H    0.000115   0.000005   0.000000   0.000000   0.000000   0.000001
    21  H   -0.000092   0.000007  -0.000001   0.000000  -0.000013  -0.000023
    22  H    0.000466  -0.000435  -0.000001   0.000002  -0.000003  -0.000039
    23  H    0.004073  -0.000210   0.000000   0.000000   0.000001   0.000014
    24  H   -0.002264   0.000114   0.000000   0.000000   0.000000   0.000002
    25  H   -0.003851   0.000948  -0.000002   0.000009   0.000315  -0.000523
    26  H    0.000779   0.000021   0.000000   0.000000   0.000000   0.000009
    27  H   -0.000330   0.000001   0.000000   0.000000   0.000001  -0.000004
    28  H    0.055314  -0.002098   0.000000   0.000000   0.000001   0.000523
    29  H   -0.037031   0.377553  -0.000028   0.000276  -0.005616  -0.042758
    30  H   -0.035382   0.380591   0.000013  -0.000206   0.002717  -0.037486
    31  H   -0.055347  -0.009413  -0.000042   0.000095   0.001505   0.011802
    32  C    0.003912  -0.000179   0.000000  -0.000002  -0.000025   0.000099
    33  H   -0.000018   0.000002   0.000000   0.000000   0.000000   0.000000
    34  H   -0.000096   0.000002   0.000000   0.000000   0.000000  -0.000001
    35  H    0.000005   0.000010   0.000000   0.000003   0.000039  -0.000022
    36  H    0.334758  -0.032505  -0.000018   0.000016  -0.000270  -0.009932
              13         14         15         16         17         18
     1  C    0.000281   0.000011   0.000000   0.000000   0.000000   0.000000
     2  C   -0.000077  -0.000001   0.000000   0.000000   0.000000   0.000000
     3  C   -0.001524  -0.000025   0.000000   0.000000   0.000001   0.000121
     4  C    0.000054   0.000000   0.000000   0.000000   0.000000  -0.001013
     5  C    0.000000   0.000000   0.000000   0.000000   0.000000   0.000011
     6  O    0.000000   0.000000   0.000000   0.000000   0.000000   0.000000
     7  N   -0.001783   0.000012   0.000000   0.000001   0.000007   0.000023
     8  C   -0.055713   0.007877   0.000004  -0.000106  -0.000120  -0.005578
     9  C   -0.004988   0.484528   0.374168  -0.036566  -0.035978   0.002949
    10  C   -0.045625  -0.037057  -0.033847   0.362229   0.004376  -0.044137
    11  C    0.021061  -0.047078   0.003590  -0.032508   0.000329   0.291289
    12  C    0.383391  -0.078956   0.000416   0.006287   0.006258  -0.049550
    13  C    4.629901   0.486644   0.003581   0.000257  -0.032977   0.002740
    14  C    0.486644   5.032518  -0.034726   0.004537   0.361915   0.000027
    15  H    0.003581  -0.034726   0.578785  -0.005650  -0.005640  -0.000025
    16  H    0.000257   0.004537  -0.005650   0.583600  -0.000126  -0.000533
    17  H   -0.032977   0.361915  -0.005640  -0.000126   0.583330   0.000001
    18  F    0.002740   0.000027  -0.000025  -0.000533   0.000001   9.089086
    19  F    0.294275  -0.044974  -0.000024   0.000001  -0.000385  -0.000001
    20  H   -0.000002   0.000000   0.000000   0.000000   0.000000   0.000000
    21  H    0.000127   0.000040   0.000000   0.000000   0.000002   0.000000
    22  H    0.000062  -0.000097   0.000000   0.000000   0.000008   0.000000
    23  H    0.000000   0.000000   0.000000   0.000000   0.000000   0.000000
    24  H   -0.000006   0.000000   0.000000   0.000000   0.000000   0.000000
    25  H    0.000000   0.000000   0.000000   0.000000   0.000000   0.004418
    26  H    0.000000   0.000000   0.000000   0.000000   0.000000   0.000000
    27  H    0.000000   0.000000   0.000000   0.000000   0.000000   0.000000
    28  H   -0.000004   0.000000   0.000000   0.000000   0.000000  -0.000002
    29  H    0.005139  -0.000139   0.000000  -0.000002   0.000002   0.009043
    30  H   -0.006721  -0.000011   0.000000   0.000002   0.000001   0.000209
    31  H    0.000856  -0.000117   0.000000  -0.000011  -0.000006  -0.000004
    32  C    0.000001   0.000000   0.000000   0.000000   0.000000  -0.000019
    33  H    0.000000   0.000000   0.000000   0.000000   0.000000   0.000000
    34  H    0.000000   0.000000   0.000000   0.000000   0.000000  -0.000001
    35  H   -0.000001   0.000000   0.000000   0.000000   0.000000   0.000021
    36  H    0.003854   0.000174   0.000000   0.000000   0.000002  -0.000007
              19         20         21         22         23         24
     1  C   -0.000741   0.379548   0.385751   0.379953  -0.036037  -0.040461
     2  C   -0.000045  -0.027242  -0.034004  -0.036545   0.383189   0.377962
     3  C   -0.000051   0.003853  -0.005144  -0.004634  -0.036746  -0.035330
     4  C   -0.000001  -0.000134  -0.000021   0.000057  -0.005525  -0.006202
     5  C    0.000000   0.000002   0.000005  -0.000009  -0.000818   0.002823
     6  O    0.000000   0.000000   0.000000   0.000001   0.000016   0.000249
     7  N   -0.004306   0.000115  -0.000092   0.000466   0.004073  -0.002264
     8  C    0.005526   0.000005   0.000007  -0.000435  -0.000210   0.000114
     9  C    0.002760   0.000000  -0.000001  -0.000001   0.000000   0.000000
    10  C    0.000001   0.000000   0.000000   0.000002   0.000000   0.000000
    11  C    0.002432   0.000000  -0.000013  -0.000003   0.000001   0.000000
    12  C   -0.058917   0.000001  -0.000023  -0.000039   0.000014   0.000002
    13  C    0.294275  -0.000002   0.000127   0.000062   0.000000  -0.000006
    14  C   -0.044974   0.000000   0.000040  -0.000097   0.000000   0.000000
    15  H   -0.000024   0.000000   0.000000   0.000000   0.000000   0.000000
    16  H    0.000001   0.000000   0.000000   0.000000   0.000000   0.000000
    17  H   -0.000385   0.000000   0.000002   0.000008   0.000000   0.000000
    18  F   -0.000001   0.000000   0.000000   0.000000   0.000000   0.000000
    19  F    9.090269   0.000004  -0.000027   0.003295   0.000000   0.000000
    20  H    0.000004   0.600937  -0.030613  -0.029864  -0.002743  -0.003525
    21  H   -0.000027  -0.030613   0.599557  -0.032996  -0.005353   0.005200
    22  H    0.003295  -0.029864  -0.032996   0.609589   0.005007  -0.003859
    23  H    0.000000  -0.002743  -0.005353   0.005007   0.614503  -0.033760
    24  H    0.000000  -0.003525   0.005200  -0.003859  -0.033760   0.623370
    25  H    0.000000   0.000002  -0.000006   0.000000   0.000146  -0.000142
    26  H    0.000000   0.000006  -0.000001   0.000003   0.000739  -0.000878
    27  H    0.000000   0.000000   0.000000   0.000000  -0.000052  -0.000018
    28  H    0.000001  -0.000001   0.000001  -0.000003   0.000000   0.001718
    29  H    0.000174   0.000000   0.000001  -0.000001   0.000001  -0.000034
    30  H    0.001894   0.000000   0.000000   0.000011   0.000004  -0.000007
    31  H    0.000009   0.000031   0.005777  -0.000440  -0.000029   0.007013
    32  C    0.000000  -0.000002   0.000002  -0.000003   0.001783   0.000044
    33  H    0.000000   0.000009   0.000005   0.000000   0.003737   0.000065
    34  H    0.000000   0.000000  -0.000001   0.000000  -0.000144  -0.000016
    35  H    0.000000   0.000001   0.000027   0.000001   0.000380   0.000048
    36  H    0.010312  -0.000417  -0.000204   0.007236   0.000079  -0.000535
              25         26         27         28         29         30
     1  C   -0.000148  -0.000060  -0.000001  -0.000033  -0.000007   0.000012
     2  C    0.005325   0.006630  -0.000027  -0.001130   0.000030  -0.000237
     3  C   -0.046084  -0.016003   0.005753   0.000255  -0.006613   0.005328
     4  C    0.370459  -0.048529  -0.033955  -0.012445   0.003363   0.000026
     5  C   -0.044459   0.361787   0.380939  -0.036554  -0.000178  -0.000015
     6  O    0.002463  -0.041548  -0.039626   0.278164   0.003993   0.000034
     7  N   -0.003851   0.000779  -0.000330   0.055314  -0.037031  -0.035382
     8  C    0.000948   0.000021   0.000001  -0.002098   0.377553   0.380591
     9  C   -0.000002   0.000000   0.000000   0.000000  -0.000028   0.000013
    10  C    0.000009   0.000000   0.000000   0.000000   0.000276  -0.000206
    11  C    0.000315   0.000000   0.000001   0.000001  -0.005616   0.002717
    12  C   -0.000523   0.000009  -0.000004   0.000523  -0.042758  -0.037486
    13  C    0.000000   0.000000   0.000000  -0.000004   0.005139  -0.006721
    14  C    0.000000   0.000000   0.000000   0.000000  -0.000139  -0.000011
    15  H    0.000000   0.000000   0.000000   0.000000   0.000000   0.000000
    16  H    0.000000   0.000000   0.000000   0.000000  -0.000002   0.000002
    17  H    0.000000   0.000000   0.000000   0.000000   0.000002   0.000001
    18  F    0.004418   0.000000   0.000000  -0.000002   0.009043   0.000209
    19  F    0.000000   0.000000   0.000000   0.000001   0.000174   0.001894
    20  H    0.000002   0.000006   0.000000  -0.000001   0.000000   0.000000
    21  H   -0.000006  -0.000001   0.000000   0.000001   0.000001   0.000000
    22  H    0.000000   0.000003   0.000000  -0.000003  -0.000001   0.000011
    23  H    0.000146   0.000739  -0.000052   0.000000   0.000001   0.000004
    24  H   -0.000142  -0.000878  -0.000018   0.001718  -0.000034  -0.000007
    25  H    0.655712   0.007308  -0.007273  -0.000878   0.003419  -0.000066
    26  H    0.007308   0.710714  -0.054393  -0.002972   0.000055   0.000001
    27  H   -0.007273  -0.054393   0.654643   0.006145  -0.000015   0.000000
    28  H   -0.000878  -0.002972   0.006145   0.388380  -0.002269  -0.000337
    29  H    0.003419   0.000055  -0.000015  -0.002269   0.583328  -0.028260
    30  H   -0.000066   0.000001   0.000000  -0.000337  -0.028260   0.591308
    31  H   -0.005224  -0.000063  -0.000193   0.000896  -0.001405   0.000149
    32  C   -0.034725   0.000093  -0.004386   0.000103  -0.000061   0.000000
    33  H    0.005619   0.005483  -0.000580   0.000003   0.000001   0.000000
    34  H   -0.005857  -0.000433   0.004602  -0.000001   0.000011   0.000000
    35  H   -0.003260  -0.000239  -0.000109   0.000010  -0.000010   0.000000
    36  H   -0.000193  -0.000032   0.000011  -0.000617   0.005884  -0.005990
              31         32         33         34         35         36
     1  C   -0.008608   0.000122  -0.000147   0.000000  -0.000072   0.003702
     2  C   -0.047987  -0.006987   0.000744   0.000181  -0.000267  -0.007890
     3  C    0.379922  -0.041157  -0.005964   0.004137  -0.004601  -0.039610
     4  C   -0.058961   0.335634  -0.034686  -0.028236  -0.026220   0.005910
     5  C    0.005068  -0.038105  -0.006285  -0.003389   0.003767  -0.000017
     6  O   -0.000274   0.002892   0.000008   0.000001  -0.000067   0.000417
     7  N   -0.055347   0.003912  -0.000018  -0.000096   0.000005   0.334758
     8  C   -0.009413  -0.000179   0.000002   0.000002   0.000010  -0.032505
     9  C   -0.000042   0.000000   0.000000   0.000000   0.000000  -0.000018
    10  C    0.000095  -0.000002   0.000000   0.000000   0.000003   0.000016
    11  C    0.001505  -0.000025   0.000000   0.000000   0.000039  -0.000270
    12  C    0.011802   0.000099   0.000000  -0.000001  -0.000022  -0.009932
    13  C    0.000856   0.000001   0.000000   0.000000  -0.000001   0.003854
    14  C   -0.000117   0.000000   0.000000   0.000000   0.000000   0.000174
    15  H    0.000000   0.000000   0.000000   0.000000   0.000000   0.000000
    16  H   -0.000011   0.000000   0.000000   0.000000   0.000000   0.000000
    17  H   -0.000006   0.000000   0.000000   0.000000   0.000000   0.000002
    18  F   -0.000004  -0.000019   0.000000  -0.000001   0.000021  -0.000007
    19  F    0.000009   0.000000   0.000000   0.000000   0.000000   0.010312
    20  H    0.000031  -0.000002   0.000009   0.000000   0.000001  -0.000417
    21  H    0.005777   0.000002   0.000005  -0.000001   0.000027  -0.000204
    22  H   -0.000440  -0.000003   0.000000   0.000000   0.000001   0.007236
    23  H   -0.000029   0.001783   0.003737  -0.000144   0.000380   0.000079
    24  H    0.007013   0.000044   0.000065  -0.000016   0.000048  -0.000535
    25  H   -0.005224  -0.034725   0.005619  -0.005857  -0.003260  -0.000193
    26  H   -0.000063   0.000093   0.005483  -0.000433  -0.000239  -0.000032
    27  H   -0.000193  -0.004386  -0.000580   0.004602  -0.000109   0.000011
    28  H    0.000896   0.000103   0.000003  -0.000001   0.000010  -0.000617
    29  H   -0.001405  -0.000061   0.000001   0.000011  -0.000010   0.005884
    30  H    0.000149   0.000000   0.000000   0.000000   0.000000  -0.005990
    31  H    0.694884  -0.004929  -0.000243  -0.000104   0.006426  -0.000460
    32  C   -0.004929   4.976962   0.384091   0.379819   0.374999  -0.000141
    33  H   -0.000243   0.384091   0.604172  -0.031422  -0.032983  -0.000001
    34  H   -0.000104   0.379819  -0.031422   0.602270  -0.029785   0.000003
    35  H    0.006426   0.374999  -0.032983  -0.029785   0.605698  -0.000005
    36  H   -0.000460  -0.000141  -0.000001   0.000003  -0.000005   0.467517
 Mulliken charges:
               1
     1  C   -0.332484
     2  C   -0.202399
     3  C    0.091580
     4  C   -0.095528
     5  C    0.080778
     6  O   -0.602511
     7  N   -0.551175
     8  C   -0.110581
     9  C   -0.101165
    10  C   -0.136877
    11  C    0.317755
    12  C   -0.018302
    13  C    0.317196
    14  C   -0.135102
    15  H    0.119368
    16  H    0.118588
    17  H    0.119002
    18  F   -0.299068
    19  F   -0.301478
    20  H    0.110029
    21  H    0.111996
    22  H    0.103239
    23  H    0.107745
    24  H    0.108431
    25  H    0.096547
    26  H    0.071523
    27  H    0.088867
    28  H    0.327829
    29  H    0.132155
    30  H    0.132418
    31  H    0.079429
    32  C   -0.329833
    33  H    0.108391
    34  H    0.108460
    35  H    0.106208
    36  H    0.258971
 Sum of Mulliken charges =   0.00000
 Mulliken charges with hydrogens summed into heavy atoms:
               1
     1  C   -0.007220
     2  C    0.013776
     3  C    0.171010
     4  C    0.001019
     5  C    0.241167
     6  O   -0.274682
     7  N   -0.292204
     8  C    0.153992
     9  C    0.018203
    10  C   -0.018289
    11  C    0.317755
    12  C   -0.018302
    13  C    0.317196
    14  C   -0.016100
    18  F   -0.299068
    19  F   -0.301478
    32  C   -0.006774
 Electronic spatial extent (au):  <R**2>=           4407.0336
 Charge=              0.0000 electrons
 Dipole moment (field-independent basis, Debye):
    X=              3.9966    Y=              1.4222    Z=              3.1461  Tot=              5.2814
 Quadrupole moment (field-independent basis, Debye-Ang):
   XX=           -100.4994   YY=           -100.4890   ZZ=           -103.9986
   XY=             -3.5793   XZ=             -5.8792   YZ=             -2.7117
 Traceless Quadrupole moment (field-independent basis, Debye-Ang):
   XX=              1.1629   YY=              1.1733   ZZ=             -2.3362
   XY=             -3.5793   XZ=             -5.8792   YZ=             -2.7117
 Octapole moment (field-independent basis, Debye-Ang**2):
  XXX=             86.1987  YYY=              1.2768  ZZZ=            -11.4390  XYY=              1.9960
  XXY=              6.1328  XXZ=             52.0595  XZZ=             23.8678  YZZ=              2.0088
  YYZ=              1.3302  XYZ=              4.1005
 Hexadecapole moment (field-independent basis, Debye-Ang**3):
 XXXX=          -3499.0150 YYYY=          -1288.3471 ZZZZ=           -814.1125 XXXY=              8.0317
 XXXZ=            -17.1634 YYYX=              4.2078 YYYZ=            -21.1920 ZZZX=            -32.8086
 ZZZY=            -26.2158 XXYY=           -771.7346 XXZZ=           -792.9117 YYZZ=           -349.5823
 XXYZ=            -43.2971 YYXZ=             11.5029 ZZXY=            -27.0245
 N-N= 1.306972504271D+03 E-N=-4.567443910774D+03  KE= 8.290572717575D+02
 D1PCM: PCM CHGder 1st derivatives, ID1Alg=3 FixD1E=F DoIter=F DoCFld=F I1PDM=0.
 Calling FoFJK, ICntrl=      2127 FMM=F ISym2X=0 I1Cent= 0 IOpClX= 0 NMat=1 NMatS=1 NMatT=0.
 ***** Axes restored to original set *****
 -------------------------------------------------------------------
 Center     Atomic                   Forces (Hartrees/Bohr)
 Number     Number              X              Y              Z
 -------------------------------------------------------------------
      1        6           0.000237389   -0.000065962   -0.000290627
      2        6           0.000382068   -0.000396342   -0.000179840
      3        6           0.000114840    0.001107814    0.001177018
      4        6          -0.000150326    0.001941357   -0.000940121
      5        6          -0.000111747   -0.000989686   -0.000921894
      6        8          -0.004470676   -0.000901881   -0.005753950
      7        7           0.000679598    0.000582021    0.002712831
      8        6           0.000837497    0.000090699   -0.000590761
      9        6          -0.000054665   -0.000119275    0.000088891
     10        6          -0.000023690    0.000011467   -0.000110018
     11        6           0.000078056    0.000167106   -0.000124915
     12        6          -0.000415294   -0.000191900   -0.000131329
     13        6          -0.000029515   -0.000155119    0.000231710
     14        6           0.000146870    0.000165298   -0.000001414
     15        1           0.000000364   -0.000008463    0.000000907
     16        1          -0.000019899   -0.000016864   -0.000014094
     17        1          -0.000014204   -0.000011642   -0.000000611
     18        9          -0.000008978   -0.000024750    0.000040875
     19        9          -0.000022339   -0.000032695   -0.000121054
     20        1          -0.000056830   -0.000023352   -0.000062616
     21        1          -0.000055833    0.000030161    0.000021376
     22        1           0.000137424   -0.000087405   -0.000070867
     23        1          -0.000072793    0.000110238   -0.000178288
     24        1          -0.000133363    0.000129386    0.000052766
     25        1          -0.000196214    0.000004238    0.000229119
     26        1           0.000158360   -0.000172222   -0.000034798
     27        1          -0.000108113   -0.000097525   -0.000237986
     28        1           0.002584353   -0.000780932    0.004106111
     29        1           0.000210106   -0.000186972    0.000150925
     30        1           0.000021654   -0.000001734   -0.000003473
     31        1           0.000343904   -0.000078641    0.000273499
     32        6          -0.000178660   -0.000064489    0.000148422
     33        1          -0.000122349    0.000072057    0.000084776
     34        1          -0.000034967   -0.000067645    0.000029446
     35        1           0.000080625    0.000056432   -0.000027007
     36        1           0.000267347    0.000007222    0.000446991
 -------------------------------------------------------------------
 Cartesian Forces:  Max     0.005753950 RMS     0.000954480

 GradGradGradGradGradGradGradGradGradGradGradGradGradGradGradGradGradGrad
 Berny optimization.
 FormGI is forming the generalized inverse of G from B-inverse, IUseBI=4.
 Internal  Forces:  Max     0.005873252 RMS     0.000986457
 Search for a local minimum.
 Step number   1 out of a maximum of  100
 All quantities printed in internal units (Hartrees-Bohrs-Radians)
 Mixed Optimization -- En-DIIS/RFO-DIIS
 Second derivative matrix not updated -- first step.
 ITU=  0
     Eigenvalues ---    0.00230   0.00230   0.00247   0.00291   0.00300
     Eigenvalues ---    0.00531   0.00547   0.00719   0.01407   0.01453
     Eigenvalues ---    0.02141   0.02142   0.02168   0.02171   0.02185
     Eigenvalues ---    0.02189   0.02195   0.02212   0.02370   0.03117
     Eigenvalues ---    0.03374   0.03750   0.04531   0.04556   0.04639
     Eigenvalues ---    0.04672   0.04748   0.04968   0.05286   0.05320
     Eigenvalues ---    0.05488   0.05505   0.05814   0.05893   0.06368
     Eigenvalues ---    0.08438   0.10430   0.11592   0.11790   0.12291
     Eigenvalues ---    0.13553   0.14092   0.16000   0.16000   0.16000
     Eigenvalues ---    0.16000   0.16000   0.16000   0.16000   0.16000
     Eigenvalues ---    0.16000   0.16000   0.17044   0.17138   0.17570
     Eigenvalues ---    0.17756   0.21919   0.22034   0.22044   0.22082
     Eigenvalues ---    0.23406   0.23520   0.24901   0.24999   0.25000
     Eigenvalues ---    0.25000   0.26982   0.28232   0.28589   0.28886
     Eigenvalues ---    0.28948   0.30582   0.33193   0.33240   0.33829
     Eigenvalues ---    0.33930   0.33966   0.34015   0.34098   0.34189
     Eigenvalues ---    0.34197   0.34213   0.34284   0.34288   0.34298
     Eigenvalues ---    0.34319   0.34795   0.35318   0.35413   0.35537
     Eigenvalues ---    0.35541   0.42234   0.42364   0.42677   0.44973
     Eigenvalues ---    0.46238   0.46327   0.46736   0.47530   0.50188
     Eigenvalues ---    0.53150   0.53971
 RFO step:  Lambda=-1.31350813D-03 EMin= 2.30000000D-03
 Linear search not attempted -- first point.
 Maximum step size (   0.010) exceeded in Quadratic search.
    -- Step size scaled by   0.144
 Iteration  1 RMS(Cart)=  0.01004044 RMS(Int)=  0.00004077
 Iteration  2 RMS(Cart)=  0.00005933 RMS(Int)=  0.00000087
 Iteration  3 RMS(Cart)=  0.00000000 RMS(Int)=  0.00000087
 Variable       Old X    -DE/DX   Delta X   Delta X   Delta X     New X
                                 (Linear)    (Quad)   (Total)
    R1        2.90112   0.00032   0.00000   0.00016   0.00016   2.90128
    R2        2.06795   0.00000   0.00000   0.00000   0.00000   2.06795
    R3        2.07012   0.00000   0.00000   0.00000   0.00000   2.07011
    R4        2.07165  -0.00013   0.00000  -0.00006  -0.00006   2.07160
    R5        2.90869   0.00081   0.00000   0.00041   0.00041   2.90909
    R6        2.06829  -0.00017   0.00000  -0.00007  -0.00007   2.06822
    R7        2.07305   0.00005   0.00000   0.00002   0.00002   2.07307
    R8        2.94419  -0.00389   0.00000  -0.00207  -0.00207   2.94212
    R9        2.80919  -0.00090   0.00000  -0.00038  -0.00038   2.80881
   R10        2.08714  -0.00019   0.00000  -0.00008  -0.00008   2.08706
   R11        2.91634  -0.00417   0.00000  -0.00211  -0.00211   2.91423
   R12        2.07448   0.00029   0.00000   0.00012   0.00012   2.07460
   R13        2.90241  -0.00007   0.00000  -0.00004  -0.00004   2.90237
   R14        2.68626  -0.00071   0.00000  -0.00024  -0.00024   2.68602
   R15        2.08632   0.00015   0.00000   0.00007   0.00007   2.08639
   R16        2.07388  -0.00024   0.00000  -0.00010  -0.00010   2.07378
   R17        1.86376  -0.00487   0.00000  -0.00139  -0.00139   1.86237
   R18        2.78462  -0.00087   0.00000  -0.00035  -0.00035   2.78426
   R19        1.92007  -0.00045   0.00000  -0.00014  -0.00014   1.91992
   R20        2.86818   0.00041   0.00000   0.00019   0.00019   2.86837
   R21        2.06008   0.00017   0.00000   0.00007   0.00007   2.06016
   R22        2.06853  -0.00001   0.00000   0.00000   0.00000   2.06852
   R23        2.63606  -0.00013   0.00000  -0.00004  -0.00004   2.63602
   R24        2.63985   0.00004   0.00000   0.00001   0.00001   2.63987
   R25        2.05009   0.00000   0.00000   0.00000   0.00000   2.05009
   R26        2.62812   0.00006   0.00000   0.00002   0.00002   2.62814
   R27        2.04812   0.00001   0.00000   0.00000   0.00000   2.04813
   R28        2.63722  -0.00011   0.00000  -0.00003  -0.00003   2.63718
   R29        2.56058   0.00004   0.00000   0.00001   0.00001   2.56059
   R30        2.63912  -0.00008   0.00000  -0.00002  -0.00002   2.63910
   R31        2.62197  -0.00009   0.00000  -0.00003  -0.00003   2.62195
   R32        2.56814   0.00004   0.00000   0.00001   0.00001   2.56815
   R33        2.04806   0.00000   0.00000   0.00000   0.00000   2.04806
   R34        2.06998  -0.00015   0.00000  -0.00006  -0.00006   2.06992
   R35        2.06846   0.00003   0.00000   0.00001   0.00001   2.06848
   R36        2.06972  -0.00008   0.00000  -0.00003  -0.00003   2.06968
    A1        1.93398   0.00011   0.00000   0.00011   0.00011   1.93408
    A2        1.93441  -0.00005   0.00000  -0.00005  -0.00005   1.93436
    A3        1.96947   0.00011   0.00000   0.00010   0.00010   1.96956
    A4        1.88098  -0.00002   0.00000  -0.00001  -0.00001   1.88097
    A5        1.87037  -0.00012   0.00000  -0.00010  -0.00010   1.87027
    A6        1.87074  -0.00005   0.00000  -0.00006  -0.00006   1.87069
    A7        1.98120   0.00068   0.00000   0.00046   0.00046   1.98166
    A8        1.89289  -0.00035   0.00000  -0.00033  -0.00033   1.89256
    A9        1.91827  -0.00010   0.00000   0.00002   0.00002   1.91829
   A10        1.90746  -0.00008   0.00000   0.00000   0.00000   1.90746
   A11        1.90314  -0.00031   0.00000  -0.00020  -0.00020   1.90294
   A12        1.85675   0.00014   0.00000   0.00002   0.00002   1.85677
   A13        1.99812   0.00112   0.00000   0.00019   0.00019   1.99831
   A14        1.88119   0.00133   0.00000   0.00042   0.00042   1.88161
   A15        1.87266  -0.00079   0.00000   0.00056   0.00056   1.87321
   A16        1.92773  -0.00317   0.00000  -0.00360  -0.00360   1.92414
   A17        1.85902   0.00058   0.00000   0.00076   0.00076   1.85978
   A18        1.92416   0.00101   0.00000   0.00190   0.00190   1.92606
   A19        1.98574  -0.00447   0.00000  -0.00418  -0.00418   1.98156
   A20        1.85913   0.00056   0.00000  -0.00032  -0.00032   1.85881
   A21        1.95180   0.00222   0.00000   0.00209   0.00209   1.95389
   A22        1.86414   0.00064   0.00000  -0.00021  -0.00022   1.86392
   A23        1.92853   0.00214   0.00000   0.00199   0.00199   1.93052
   A24        1.86700  -0.00107   0.00000   0.00070   0.00070   1.86770
   A25        1.99079  -0.00587   0.00000  -0.00409  -0.00409   1.98670
   A26        1.90639   0.00130   0.00000   0.00025   0.00025   1.90663
   A27        1.89971   0.00142   0.00000   0.00135   0.00135   1.90107
[...]
    30  H    0.000013  -0.000255   0.005221   0.000038  -0.000017   0.000081
    31  H   -0.008229  -0.047107   0.382512  -0.058609   0.005013  -0.000291
    32  C    0.000099  -0.006483  -0.041853   0.334465  -0.038778   0.003000
    33  H   -0.000148   0.000870  -0.005893  -0.034623  -0.006372   0.000009
    34  H    0.000001   0.000143   0.004180  -0.027950  -0.003218  -0.000001
    35  H   -0.000063  -0.000156  -0.004788  -0.026033   0.003800  -0.000070
    36  H    0.003313  -0.007504  -0.040068   0.005640   0.000016   0.000445
               7          8          9         10         11         12
     1  C   -0.004170   0.000020  -0.000006  -0.000003   0.000001   0.000342
     2  C   -0.043815   0.004982   0.000001   0.000002  -0.000003   0.000051
     3  C    0.256260  -0.039235   0.000009  -0.000050  -0.000267  -0.006863
     4  C   -0.056696  -0.003010   0.000000  -0.000001   0.000069  -0.000742
     5  C    0.000510  -0.000118   0.000000   0.000000  -0.000001  -0.000010
     6  O   -0.032179   0.000648   0.000000   0.000000  -0.000001   0.000028
     7  N    6.933239   0.290338   0.000007  -0.000095   0.000494  -0.052977
     8  C    0.290338   4.943205  -0.000680   0.007183  -0.043628   0.279243
     9  C    0.000007  -0.000680   4.862779   0.484035  -0.004630  -0.027532
    10  C   -0.000095   0.007183   0.484035   5.037785   0.477004  -0.074929
    11  C    0.000494  -0.043628  -0.004630   0.477004   4.596562   0.417289
    12  C   -0.052977   0.279243  -0.027532  -0.074929   0.417289   5.353562
    13  C   -0.002857  -0.056094  -0.006037  -0.044951   0.020024   0.388042
    14  C   -0.000019   0.007540   0.485762  -0.037904  -0.046038  -0.080287
    15  H    0.000000   0.000005   0.374085  -0.033702   0.003540   0.000436
    16  H    0.000001  -0.000105  -0.036654   0.362477  -0.032500   0.006249
    17  H    0.000007  -0.000121  -0.035694   0.004343   0.000354   0.006187
    18  F    0.000046  -0.006129   0.003000  -0.044391   0.293877  -0.049832
    19  F   -0.005096   0.005400   0.002754   0.000008   0.002401  -0.057583
    20  H    0.000101   0.000005   0.000000   0.000000   0.000000   0.000003
    21  H   -0.000107   0.000018  -0.000001   0.000001  -0.000023  -0.000006
    22  H    0.001167  -0.000569   0.000001   0.000005  -0.000004  -0.000141
    23  H    0.004015  -0.000209   0.000000   0.000000   0.000001   0.000011
    24  H   -0.003742   0.000188   0.000000   0.000000  -0.000001  -0.000004
    25  H   -0.003521   0.000366   0.000000   0.000000   0.000080   0.000269
    26  H    0.000640   0.000010   0.000000   0.000000   0.000000   0.000005
    27  H   -0.000415  -0.000004   0.000000   0.000000   0.000000  -0.000002
    28  H    0.060729  -0.001660   0.000000   0.000000  -0.000004   0.000527
    29  H   -0.036196   0.381429  -0.000040   0.000441  -0.004724  -0.045864
    30  H   -0.035749   0.381545   0.000015  -0.000210   0.002279  -0.038631
    31  H   -0.054915  -0.008254  -0.000048   0.000107   0.001394   0.010763
    32  C    0.003985  -0.000095   0.000000   0.000000  -0.000009   0.000064
    33  H   -0.000014  -0.000001   0.000000   0.000000   0.000000   0.000001
    34  H   -0.000103   0.000001   0.000000   0.000000   0.000000  -0.000001
    35  H    0.000009   0.000010   0.000000   0.000001   0.000017  -0.000018
    36  H    0.335269  -0.032915  -0.000020   0.000015  -0.000221  -0.010659
              13         14         15         16         17         18
     1  C    0.000681   0.000075   0.000000   0.000000  -0.000002   0.000000
     2  C   -0.000117  -0.000003   0.000000   0.000000   0.000000   0.000001
     3  C   -0.001175  -0.000018   0.000000   0.000000   0.000001   0.000009
     4  C    0.000037   0.000001   0.000000   0.000000   0.000000  -0.000124
     5  C    0.000000   0.000000   0.000000   0.000000   0.000000   0.000001
     6  O    0.000000   0.000000   0.000000   0.000000   0.000000   0.000000
     7  N   -0.002857  -0.000019   0.000000   0.000001   0.000007   0.000046
     8  C   -0.056094   0.007540   0.000005  -0.000105  -0.000121  -0.006129
     9  C   -0.006037   0.485762   0.374085  -0.036654  -0.035694   0.003000
    10  C   -0.044951  -0.037904  -0.033702   0.362477   0.004343  -0.044391
    11  C    0.020024  -0.046038   0.003540  -0.032500   0.000354   0.293877
    12  C    0.388042  -0.080287   0.000436   0.006249   0.006187  -0.049832
    13  C    4.630837   0.490682   0.003579   0.000254  -0.032739   0.002749
    14  C    0.490682   5.026704  -0.034602   0.004552   0.361876   0.000027
    15  H    0.003579  -0.034602   0.578095  -0.005635  -0.005613  -0.000024
    16  H    0.000254   0.004552  -0.005635   0.583298  -0.000127  -0.000590
    17  H   -0.032739   0.361876  -0.005613  -0.000127   0.582063   0.000001
    18  F    0.002749   0.000027  -0.000024  -0.000590   0.000001   9.088726
    19  F    0.286812  -0.044277  -0.000024   0.000001  -0.000423  -0.000001
    20  H   -0.000003   0.000000   0.000000   0.000000   0.000000   0.000000
    21  H    0.000195   0.000086   0.000000   0.000000   0.000003   0.000000
    22  H   -0.000261  -0.000296   0.000000   0.000000   0.000026   0.000000
    23  H    0.000000   0.000000   0.000000   0.000000   0.000000   0.000000
    24  H   -0.000009   0.000000   0.000000   0.000000   0.000000   0.000000
    25  H    0.000000   0.000000   0.000000   0.000000   0.000000   0.000613
    26  H    0.000000   0.000000   0.000000   0.000000   0.000000   0.000000
    27  H    0.000000   0.000000   0.000000   0.000000   0.000000   0.000000
    28  H   -0.000001   0.000000   0.000000   0.000000   0.000000  -0.000001
    29  H    0.004897  -0.000128   0.000000  -0.000002   0.000002   0.010919
    30  H   -0.006281  -0.000038   0.000000   0.000002   0.000001   0.000229
    31  H    0.000627  -0.000108   0.000000  -0.000009  -0.000004   0.000133
    32  C    0.000001   0.000000   0.000000   0.000000   0.000000  -0.000009
    33  H    0.000000   0.000000   0.000000   0.000000   0.000000   0.000000
    34  H    0.000000   0.000000   0.000000   0.000000   0.000000   0.000000
    35  H    0.000000   0.000000   0.000000   0.000000   0.000000   0.000011
    36  H    0.003662   0.000211   0.000000   0.000000   0.000002  -0.000007
              19         20         21         22         23         24
     1  C   -0.001869   0.378945   0.386003   0.376612  -0.035844  -0.040578
     2  C   -0.000073  -0.027248  -0.033863  -0.035938   0.383838   0.378273
     3  C   -0.000034   0.003828  -0.005320  -0.004410  -0.036765  -0.034715
     4  C   -0.000001  -0.000138  -0.000032   0.000067  -0.004445  -0.006759
     5  C    0.000000   0.000002   0.000005  -0.000011  -0.001119   0.003063
     6  O    0.000000   0.000000   0.000000   0.000001   0.000036   0.000778
     7  N   -0.005096   0.000101  -0.000107   0.001167   0.004015  -0.003742
     8  C    0.005400   0.000005   0.000018  -0.000569  -0.000209   0.000188
     9  C    0.002754   0.000000  -0.000001   0.000001   0.000000   0.000000
    10  C    0.000008   0.000000   0.000001   0.000005   0.000000   0.000000
    11  C    0.002401   0.000000  -0.000023  -0.000004   0.000001  -0.000001
    12  C   -0.057583   0.000003  -0.000006  -0.000141   0.000011  -0.000004
    13  C    0.286812  -0.000003   0.000195  -0.000261   0.000000  -0.000009
    14  C   -0.044277   0.000000   0.000086  -0.000296   0.000000   0.000000
    15  H   -0.000024   0.000000   0.000000   0.000000   0.000000   0.000000
    16  H    0.000001   0.000000   0.000000   0.000000   0.000000   0.000000
    17  H   -0.000423   0.000000   0.000003   0.000026   0.000000   0.000000
    18  F   -0.000001   0.000000   0.000000   0.000000   0.000000   0.000000
    19  F    9.092427   0.000012  -0.000042   0.007595  -0.000001  -0.000002
    20  H    0.000012   0.601457  -0.030690  -0.029336  -0.002843  -0.003393
    21  H   -0.000042  -0.030690   0.599701  -0.033102  -0.005140   0.005186
    22  H    0.007595  -0.029336  -0.033102   0.608740   0.004951  -0.004129
    23  H   -0.000001  -0.002843  -0.005140   0.004951   0.612411  -0.033975
    24  H   -0.000002  -0.003393   0.005186  -0.004129  -0.033975   0.623548
    25  H    0.000000   0.000002  -0.000006   0.000000   0.000150  -0.000172
    26  H    0.000000   0.000007  -0.000001   0.000004   0.000965  -0.001983
    27  H    0.000000   0.000000   0.000000   0.000000  -0.000050   0.000017
    28  H    0.000002  -0.000001   0.000001  -0.000007  -0.000033   0.001690
    29  H    0.000155   0.000000   0.000001  -0.000001   0.000003  -0.000025
    30  H    0.001312   0.000000   0.000000   0.000010   0.000004  -0.000005
    31  H    0.000005   0.000041   0.005708  -0.000577  -0.000586   0.006864
    32  C    0.000000  -0.000002   0.000005  -0.000002   0.001548   0.000070
    33  H    0.000000   0.000009   0.000004   0.000000   0.003811   0.000026
    34  H    0.000000   0.000000  -0.000001   0.000000  -0.000143  -0.000014
    35  H    0.000000   0.000001   0.000021   0.000001   0.000278   0.000040
    36  H    0.012240  -0.000387  -0.000163   0.006034   0.000101  -0.000041
              25         26         27         28         29         30
     1  C   -0.000147  -0.000061  -0.000002  -0.000030  -0.000010   0.000013
     2  C    0.005459   0.007632  -0.000052  -0.000962   0.000077  -0.000255
     3  C   -0.048597  -0.017630   0.006236  -0.001570  -0.005456   0.005221
     4  C    0.374799  -0.046144  -0.033178  -0.012782   0.002815   0.000038
     5  C   -0.046510   0.359522   0.379824  -0.039707   0.000002  -0.000017
     6  O    0.003008  -0.043167  -0.040533   0.282724   0.001172   0.000081
     7  N   -0.003521   0.000640  -0.000415   0.060729  -0.036196  -0.035749
     8  C    0.000366   0.000010  -0.000004  -0.001660   0.381429   0.381545
     9  C    0.000000   0.000000   0.000000   0.000000  -0.000040   0.000015
    10  C    0.000000   0.000000   0.000000   0.000000   0.000441  -0.000210
    11  C    0.000080   0.000000   0.000000  -0.000004  -0.004724   0.002279
    12  C    0.000269   0.000005  -0.000002   0.000527  -0.045864  -0.038631
    13  C    0.000000   0.000000   0.000000  -0.000001   0.004897  -0.006281
    14  C    0.000000   0.000000   0.000000   0.000000  -0.000128  -0.000038
    15  H    0.000000   0.000000   0.000000   0.000000   0.000000   0.000000
    16  H    0.000000   0.000000   0.000000   0.000000  -0.000002   0.000002
    17  H    0.000000   0.000000   0.000000   0.000000   0.000002   0.000001
    18  F    0.000613   0.000000   0.000000  -0.000001   0.010919   0.000229
    19  F    0.000000   0.000000   0.000000   0.000002   0.000155   0.001312
    20  H    0.000002   0.000007   0.000000  -0.000001   0.000000   0.000000
    21  H   -0.000006  -0.000001   0.000000   0.000001   0.000001   0.000000
    22  H    0.000000   0.000004   0.000000  -0.000007  -0.000001   0.000010
    23  H    0.000150   0.000965  -0.000050  -0.000033   0.000003   0.000004
    24  H   -0.000172  -0.001983   0.000017   0.001690  -0.000025  -0.000005
    25  H    0.658480   0.007721  -0.007954  -0.000585   0.004219  -0.000136
    26  H    0.007721   0.716432  -0.057315  -0.000954   0.000016   0.000001
    27  H   -0.007954  -0.057315   0.663859   0.005686   0.000009   0.000000
    28  H   -0.000585  -0.000954   0.005686   0.377673  -0.001123  -0.000496
    29  H    0.004219   0.000016   0.000009  -0.001123   0.578179  -0.027795
    30  H   -0.000136   0.000001   0.000000  -0.000496  -0.027795   0.588535
    31  H   -0.004702  -0.000064  -0.000197   0.000982  -0.001454   0.000187
    32  C   -0.034139   0.000234  -0.004927   0.000185  -0.000173   0.000001
    33  H    0.005679   0.005400  -0.000584   0.000005   0.000002   0.000000
    34  H   -0.005897  -0.000463   0.004618  -0.000004   0.000012   0.000000
    35  H   -0.003304  -0.000236  -0.000106   0.000010  -0.000008   0.000000
    36  H   -0.000146  -0.000029   0.000011  -0.000910   0.005765  -0.004877
              31         32         33         34         35         36
     1  C   -0.008229   0.000099  -0.000148   0.000001  -0.000063   0.003313
     2  C   -0.047107  -0.006483   0.000870   0.000143  -0.000156  -0.007504
     3  C    0.382512  -0.041853  -0.005893   0.004180  -0.004788  -0.040068
     4  C   -0.058609   0.334465  -0.034623  -0.027950  -0.026033   0.005640
     5  C    0.005013  -0.038778  -0.006372  -0.003218   0.003800   0.000016
     6  O   -0.000291   0.003000   0.000009  -0.000001  -0.000070   0.000445
     7  N   -0.054915   0.003985  -0.000014  -0.000103   0.000009   0.335269
     8  C   -0.008254  -0.000095  -0.000001   0.000001   0.000010  -0.032915
     9  C   -0.000048   0.000000   0.000000   0.000000   0.000000  -0.000020
    10  C    0.000107   0.000000   0.000000   0.000000   0.000001   0.000015
    11  C    0.001394  -0.000009   0.000000   0.000000   0.000017  -0.000221
    12  C    0.010763   0.000064   0.000001  -0.000001  -0.000018  -0.010659
    13  C    0.000627   0.000001   0.000000   0.000000   0.000000   0.003662
    14  C   -0.000108   0.000000   0.000000   0.000000   0.000000   0.000211
    15  H    0.000000   0.000000   0.000000   0.000000   0.000000   0.000000
    16  H   -0.000009   0.000000   0.000000   0.000000   0.000000   0.000000
    17  H   -0.000004   0.000000   0.000000   0.000000   0.000000   0.000002
    18  F    0.000133  -0.000009   0.000000   0.000000   0.000011  -0.000007
    19  F    0.000005   0.000000   0.000000   0.000000   0.000000   0.012240
    20  H    0.000041  -0.000002   0.000009   0.000000   0.000001  -0.000387
    21  H    0.005708   0.000005   0.000004  -0.000001   0.000021  -0.000163
    22  H   -0.000577  -0.000002   0.000000   0.000000   0.000001   0.006034
    23  H   -0.000586   0.001548   0.003811  -0.000143   0.000278   0.000101
    24  H    0.006864   0.000070   0.000026  -0.000014   0.000040  -0.000041
    25  H   -0.004702  -0.034139   0.005679  -0.005897  -0.003304  -0.000146
    26  H   -0.000064   0.000234   0.005400  -0.000463  -0.000236  -0.000029
    27  H   -0.000197  -0.004927  -0.000584   0.004618  -0.000106   0.000011
    28  H    0.000982   0.000185   0.000005  -0.000004   0.000010  -0.000910
    29  H   -0.001454  -0.000173   0.000002   0.000012  -0.000008   0.005765
    30  H    0.000187   0.000001   0.000000   0.000000   0.000000  -0.004877
    31  H    0.687519  -0.004848  -0.000288  -0.000096   0.006507   0.000782
    32  C   -0.004848   4.978636   0.384104   0.379794   0.374681  -0.000149
    33  H   -0.000288   0.384104   0.604170  -0.031365  -0.032891   0.000000
    34  H   -0.000096   0.379794  -0.031365   0.601616  -0.029788   0.000003
    35  H    0.006507   0.374681  -0.032891  -0.029788   0.606046  -0.000004
    36  H    0.000782  -0.000149   0.000000   0.000003  -0.000004   0.463132
 Mulliken charges:
               1
     1  C   -0.333942
     2  C   -0.206820
     3  C    0.091341
     4  C   -0.094542
     5  C    0.085429
     6  O   -0.608290
     7  N   -0.554150
     8  C   -0.109314
     9  C   -0.101104
    10  C   -0.137168
    11  C    0.316668
    12  C   -0.016994
    13  C    0.317448
    14  C   -0.133801
    15  H    0.119860
    16  H    0.118787
    17  H    0.119856
    18  F   -0.299234
    19  F   -0.301697
    20  H    0.109627
    21  H    0.111556
    22  H    0.103570
    23  H    0.109029
    24  H    0.109802
    25  H    0.094972
    26  H    0.069457
    27  H    0.085057
    28  H    0.330614
    29  H    0.132883
    30  H    0.135014
    31  H    0.081240
    32  C   -0.329404
    33  H    0.108087
    34  H    0.108674
    35  H    0.106033
    36  H    0.261456
 Sum of Mulliken charges =   0.00000
 Mulliken charges with hydrogens summed into heavy atoms:
               1
     1  C   -0.009188
     2  C    0.012011
     3  C    0.172581
     4  C    0.000430
     5  C    0.239944
     6  O   -0.277675
     7  N   -0.292694
     8  C    0.158583
     9  C    0.018755
    10  C   -0.018381
    11  C    0.316668
    12  C   -0.016994
    13  C    0.317448
    14  C   -0.013945
    18  F   -0.299234
    19  F   -0.301697
    32  C   -0.006611
 Electronic spatial extent (au):  <R**2>=           4474.1658
 Charge=              0.0000 electrons
 Dipole moment (field-independent basis, Debye):
    X=              4.4022    Y=              0.9897    Z=              3.1872  Tot=              5.5242
 Quadrupole moment (field-independent basis, Debye-Ang):
   XX=           -101.9228   YY=           -100.1576   ZZ=           -104.4528
   XY=             -1.4525   XZ=             -6.9184   YZ=             -1.2901
 Traceless Quadrupole moment (field-independent basis, Debye-Ang):
   XX=              0.2549   YY=              2.0201   ZZ=             -2.2751
   XY=             -1.4525   XZ=             -6.9184   YZ=             -1.2901
 Octapole moment (field-independent basis, Debye-Ang**2):
  XXX=             98.5370  YYY=              2.7244  ZZZ=            -10.5815  XYY=              0.9974
  XXY=              1.5391  XXZ=             56.5005  XZZ=             25.0764  YZZ=             -0.0636
  YYZ=             -0.5917  XYZ=              0.4277
 Hexadecapole moment (field-independent basis, Debye-Ang**3):
 XXXX=          -3683.1366 YYYY=          -1219.8728 ZZZZ=           -807.6255 XXXY=             19.9471
 XXXZ=            -35.4896 YYYX=              1.4352 YYYZ=            -18.5989 ZZZX=            -37.4067
 ZZZY=            -21.4848 XXYY=           -780.7972 XXZZ=           -832.6177 YYZZ=           -333.9456
 XXYZ=            -30.2492 YYXZ=             15.7197 ZZXY=            -21.6771
 N-N= 1.304531961359D+03 E-N=-4.562504529739D+03  KE= 8.290909893133D+02
 1\1\GINC-SWANNODE-0-1\FOpt\RB3LYP\6-31G(d,p)\C13H19F2N1O1\KE291\06-Mar
 -2019\0\\# b3lyp/6-31g(d,p) Opt=(maxcycles=100,MaxStep=1) scrf=(solven
 t=chloroform)\\AT3_2ginp003\\0,1\C,-3.2379304266,-1.5200744109,-0.4702
 783759\C,-2.6123905446,-1.1373237403,0.878322945\C,-3.6249529517,-1.08
 91913683,2.0380530106\C,-2.9827947329,-1.1422043422,3.4522503694\C,-2.
 0042148192,0.0164090932,3.7119761033\O,-2.6220319326,1.2941895883,3.66
 40922013\N,-4.4333489086,0.1513299952,1.9012025272\C,-5.7909302838,0.1
 109049859,2.4656856902\C,-8.4742533585,-2.8188901255,0.6940192395\C,-8
 .1569136166,-2.9083700019,2.049090317\C,-7.2930884101,-1.9631062931,2.
 5921755904\C,-6.7256820092,-0.9214037716,1.8561722181\C,-7.0807175458,
 -0.8889010954,0.5059226257\C,-7.9329144869,-1.8025082685,-0.0966653882
 \H,-9.1450844989,-3.546190964,0.2491915045\H,-8.5612838407,-3.68936689
 67,2.6825265399\H,-8.160756607,-1.711031681,-1.1522460065\F,-6.9856867
 011,-2.055313077,3.9078552578\F,-6.5416196434,0.0993210171,-0.25800852
 7\H,-2.4881993582,-1.4968288914,-1.2670614505\H,-3.6551324536,-2.53224
 01415,-0.4327042658\H,-4.0485258946,-0.8452925207,-0.7666744379\H,-1.8
 260637627,-1.860739752,1.1153339472\H,-2.1183372223,-0.1607312982,0.79
 76476708\H,-3.8033121082,-1.0272268661,4.1741573814\H,-1.1651196177,-0
 .0491243575,2.9969717253\H,-1.5675661056,-0.1015473079,4.7124108618\H,
 -3.2955370446,1.2186175714,2.9523209119\H,-5.7258336866,-0.0658909143,
 3.5400232937\H,-6.2248934326,1.1075280461,2.3340794457\H,-4.2730396002
 ,-1.9777757572,1.945898089\C,-2.3180469255,-2.4971806662,3.7337076924\
 H,-1.4112405237,-2.6442591934,3.1371433834\H,-2.0307148208,-2.57290801
 46,4.7871888569\H,-2.9989996698,-3.3262787405,3.513742523\H,-4.5088044
 556,0.3999041606,0.9193535297\\Version=EM64L-G09RevD.01\State=1-A\HF=-
 836.5017185\RMSD=7.037e-09\RMSF=6.996e-06\Dipole=-1.0967708,-1.4629628
 ,-1.1749348\Quadrupole=3.3562882,-2.9343115,-0.4219767,-2.8880522,-1.0
 934525,-3.3995419\PG=C01 [X(C13H19F2N1O1)]\\@


 The impersonal hand of government can
 never replace the helping hand of a neighbor.
                        -- Hubert H. Humphrey
 Job cpu time:       0 days  7 hours 22 minutes 30.3 seconds.
 File lengths (MBytes):  RWF=    279 Int=      0 D2E=      0 Chk=     13 Scr=      1
 Normal termination of Gaussian 09 at Wed Mar  6 22:17:31 2019.
