 Entering Gaussian System, Link 0=/usr/local/shared/gaussian/em64t/09-D01/g09/g09
 Initial command:
 /usr/local/shared/gaussian/em64t/09-D01/g09/l1.exe "/scratch/ke291/AT3_1ginp003/Gau-19414.inp" -scrdir="/scratch/ke291/AT3_1ginp003/"
 Entering Link 1 = /usr/local/shared/gaussian/em64t/09-D01/g09/l1.exe PID=     19426.
  
 Copyright (c) 1988,1990,1992,1993,1995,1998,2003,2009,2013,
            Gaussian, Inc.  All Rights Reserved.
  
 This is part of the Gaussian(R) 09 program.  It is based on
 the Gaussian(R) 03 system (copyright 2003, Gaussian, Inc.),
 the Gaussian(R) 98 system (copyright 1998, Gaussian, Inc.),
 the Gaussian(R) 94 system (copyright 1995, Gaussian, Inc.),
 the Gaussian 92(TM) system (copyright 1992, Gaussian, Inc.),
 the Gaussian 90(TM) system (copyright 1990, Gaussian, Inc.),
 the Gaussian 88(TM) system (copyright 1988, Gaussian, Inc.),
 the Gaussian 86(TM) system (copyright 1986, Carnegie Mellon
 University), and the Gaussian 82(TM) system (copyright 1983,
 Carnegie Mellon University). Gaussian is a federally registered
 trademark of Gaussian, Inc.
  
 This software contains proprietary and confidential information,
 including trade secrets, belonging to Gaussian, Inc.
  
 This software is provided under written license and may be
 used, copied, transmitted, or stored only in accord with that
 written license.
  
 The following legend is applicable only to US Government
 contracts under FAR:
  
                    RESTRICTED RIGHTS LEGEND
  
 Use, reproduction and disclosure by the US Government is
 subject to restrictions as set forth in subparagraphs (a)
 and (c) of the Commercial Computer Software - Restricted
 Rights clause in FAR 52.227-19.
  
 Gaussian, Inc.
 340 Quinnipiac St., Bldg. 40, Wallingford CT 06492
  
  
 ---------------------------------------------------------------
 Warning -- This program may not be used in any manner that
 competes with the business of Gaussian, Inc. or will provide
 assistance to any competitor of Gaussian, Inc.  The licensee
 of this program is prohibited from giving any competitor of
 Gaussian, Inc. access to this program.  By using this program,
 the user acknowledges that Gaussian, Inc. is engaged in the
 business of creating and licensing software in the field of
 computational chemistry and represents and warrants to the
 licensee that it is not a competitor of Gaussian, Inc. and that
 it will not use this program in any manner prohibited above.
 ---------------------------------------------------------------
  

 Cite this work as:
 Gaussian 09, Revision D.01,
 M. J. Frisch, G. W. Trucks, H. B. Schlegel, G. E. Scuseria, 
 M. A. Robb, J. R. Cheeseman, G. Scalmani, V. Barone, B. Mennucci, 
 G. A. Petersson, H. Nakatsuji, M. Caricato, X. Li, H. P. Hratchian, 
 A. F. Izmaylov, J. Bloino, G. Zheng, J. L. Sonnenberg, M. Hada, 
 M. Ehara, K. Toyota, R. Fukuda, J. Hasegawa, M. Ishida, T. Nakajima, 
 Y. Honda, O. Kitao, H. Nakai, T. Vreven, J. A. Montgomery, Jr., 
 J. E. Peralta, F. Ogliaro, M. Bearpark, J. J. Heyd, E. Brothers, 
 K. N. Kudin, V. N. Staroverov, T. Keith, R. Kobayashi, J. Normand, 
 K. Raghavachari, A. Rendell, J. C. Burant, S. S. Iyengar, J. Tomasi, 
 M. Cossi, N. Rega, J. M. Millam, M. Klene, J. E. Knox, J. B. Cross, 
 V. Bakken, C. Adamo, J. Jaramillo, R. Gomperts, R. E. Stratmann, 
 O. Yazyev, A. J. Austin, R. Cammi, C. Pomelli, J. W. Ochterski, 
 R. L. Martin, K. Morokuma, V. G. Zakrzewski, G. A. Voth, 
 P. Salvador, J. J. Dannenberg, S. Dapprich, A. D. Daniels, 
 O. Farkas, J. B. Foresman, J. V. Ortiz, J. Cioslowski, 
 and D. J. Fox, Gaussian, Inc., Wallingford CT, 2013.
 
 ******************************************
 Gaussian 09:  EM64L-G09RevD.01 24-Apr-2013
                 6-Mar-2019 
 ******************************************
 %nprocshared=2
 Will use up to    2 processors via shared memory.
 %mem=6000MB
 %chk=AT3_1ginp003.chk
 ---------------------------------------------------------------
 # b3lyp/6-31g(d,p) Opt=(maxcycles=50) scrf=(solvent=chloroform)
 ---------------------------------------------------------------
 1/6=50,14=-1,18=20,19=15,26=3,38=1/1,3;
 2/9=110,12=2,17=6,18=5,40=1/2;
 3/5=1,6=6,7=101,11=2,16=1,25=1,30=1,70=2201,71=1,72=7,74=-5/1,2,3;
 4//1;
 5/5=2,38=5,53=7/2;
 6/7=2,8=2,9=2,10=2,28=1/1;
 7//1,2,3,16;
 1/6=50,14=-1,18=20,19=15,26=3/3(2);
 2/9=110/2;
 99//99;
 2/9=110/2;
 3/5=1,6=6,7=101,11=2,16=1,25=1,30=1,70=2205,71=1,72=7,74=-5/1,2,3;
 4/5=5,16=3,69=1/1;
 5/5=2,38=5,53=7/2;
 7//1,2,3,16;
 1/6=50,14=-1,18=20,19=15,26=3/3(-5);
 2/9=110/2;
 6/7=2,8=2,9=2,10=2,19=2,28=1/1;
 99/9=1/99;
 ------------
 AT3_1ginp003
 ------------
 Symbolic Z-matrix:
 Charge =  0 Multiplicity = 1
 C                    -1.95632   0.42389   0.08426 
 C                    -1.95616   1.16117   1.41949 
 C                    -0.65753   0.94579   2.23271 
 C                    -0.82953   1.4493    3.69967 
 C                    -1.0242    2.97196   3.81983 
 O                     0.12292   3.69951   3.40021 
 N                     0.48101   1.61544   1.57247 
 C                     1.59965   0.69121   1.34127 
 C                     4.96844   2.79488  -0.35386 
 C                     4.96938   2.44111   0.9947 
 C                     3.88012   1.75774   1.53479 
 C                     2.77684   1.41241   0.75344 
 C                     2.79512   1.77771  -0.59399 
 C                     3.87525   2.46065  -1.15136 
 H                     5.81344   3.33027  -0.77912 
 H                     5.81031   2.69432   1.63364 
 H                     3.85375   2.73029  -2.203 
 F                     3.9145    1.42298   2.83261 
 F                     1.75151   1.47231  -1.37957 
 H                    -1.79887  -0.64943   0.23061 
 H                    -2.92053   0.5579   -0.41667 
 H                    -1.17847   0.7973   -0.58803 
 H                    -2.1263    2.22794   1.23169 
 H                    -2.81273   0.80305   2.00377 
 H                    -1.73616   0.97706   4.10225 
 H                    -1.22481   3.2463    4.86102 
 H                    -1.87926   3.3118    3.2285 
 H                     0.5218    3.17937   2.66833 
 H                     1.89882   0.20519   2.27696 
 H                     1.29586  -0.11212   0.65763 
 H                    -0.49403  -0.14034   2.27581 
 C                     0.33494   0.99518   4.59088 
 H                     1.28333   1.45975   4.30389 
 H                     0.14083   1.25839   5.63642 
 H                     0.45912  -0.09174   4.54206 
 H                     0.19398   1.97182   0.6577 
 

 GradGradGradGradGradGradGradGradGradGradGradGradGradGradGradGradGradGrad
 Berny optimization.
 Initialization pass.
                           ----------------------------
                           !    Initial Parameters    !
                           ! (Angstroms and Degrees)  !
 --------------------------                            --------------------------
 ! Name  Definition              Value          Derivative Info.                !
 --------------------------------------------------------------------------------
 ! R1    R(1,2)                  1.5253         estimate D2E/DX2                !
 ! R2    R(1,20)                 1.0946         estimate D2E/DX2                !
 ! R3    R(1,21)                 1.0948         estimate D2E/DX2                !
 ! R4    R(1,22)                 1.0938         estimate D2E/DX2                !
 ! R5    R(2,3)                  1.5473         estimate D2E/DX2                !
 ! R6    R(2,23)                 1.0965         estimate D2E/DX2                !
 ! R7    R(2,24)                 1.097          estimate D2E/DX2                !
 ! R8    R(3,4)                  1.5605         estimate D2E/DX2                !
 ! R9    R(3,7)                  1.4767         estimate D2E/DX2                !
 ! R10   R(3,31)                 1.0992         estimate D2E/DX2                !
 ! R11   R(4,5)                  1.5397         estimate D2E/DX2                !
 ! R12   R(4,25)                 1.0987         estimate D2E/DX2                !
 ! R13   R(4,32)                 1.5351         estimate D2E/DX2                !
 ! R14   R(5,6)                  1.4217         estimate D2E/DX2                !
 ! R15   R(5,26)                 1.0953         estimate D2E/DX2                !
 ! R16   R(5,27)                 1.0937         estimate D2E/DX2                !
 ! R17   R(6,28)                 0.9825         estimate D2E/DX2                !
 ! R18   R(7,8)                  1.4694         estimate D2E/DX2                !
 ! R19   R(7,36)                 1.0228         estimate D2E/DX2                !
 ! R20   R(8,12)                 1.5005         estimate D2E/DX2                !
 ! R21   R(8,29)                 1.096          estimate D2E/DX2                !
 ! R22   R(8,30)                 1.0977         estimate D2E/DX2                !
 ! R23   R(9,10)                 1.3942         estimate D2E/DX2                !
 ! R24   R(9,14)                 1.3938         estimate D2E/DX2                !
 ! R25   R(9,15)                 1.087          estimate D2E/DX2                !
 ! R26   R(10,11)                1.3947         estimate D2E/DX2                !
 ! R27   R(10,16)                1.0861         estimate D2E/DX2                !
 ! R28   R(11,12)                1.3953         estimate D2E/DX2                !
 ! R29   R(11,18)                1.3407         estimate D2E/DX2                !
 ! R30   R(12,13)                1.3962         estimate D2E/DX2                !
 ! R31   R(13,14)                1.3942         estimate D2E/DX2                !
 ! R32   R(13,19)                1.3415         estimate D2E/DX2                !
 ! R33   R(14,17)                1.0859         estimate D2E/DX2                !
 ! R34   R(32,33)                1.0944         estimate D2E/DX2                !
 ! R35   R(32,34)                1.0955         estimate D2E/DX2                !
 ! R36   R(32,35)                1.0951         estimate D2E/DX2                !
 ! A1    A(2,1,20)             110.9105         estimate D2E/DX2                !
 ! A2    A(2,1,21)             109.9666         estimate D2E/DX2                !
 ! A3    A(2,1,22)             111.8979         estimate D2E/DX2                !
 ! A4    A(20,1,21)            107.9313         estimate D2E/DX2                !
 ! A5    A(20,1,22)            108.3381         estimate D2E/DX2                !
 ! A6    A(21,1,22)            107.6554         estimate D2E/DX2                !
 ! A7    A(1,2,3)              113.1349         estimate D2E/DX2                !
 ! A8    A(1,2,23)             108.6831         estimate D2E/DX2                !
 ! A9    A(1,2,24)             107.9615         estimate D2E/DX2                !
 ! A10   A(3,2,23)             110.8356         estimate D2E/DX2                !
 ! A11   A(3,2,24)             109.2674         estimate D2E/DX2                !
 ! A12   A(23,2,24)            106.7194         estimate D2E/DX2                !
 ! A13   A(2,3,4)              110.8951         estimate D2E/DX2                !
 ! A14   A(2,3,7)              110.4248         estimate D2E/DX2                !
 ! A15   A(2,3,31)             106.4386         estimate D2E/DX2                !
 ! A16   A(4,3,7)              111.0369         estimate D2E/DX2                !
 ! A17   A(4,3,31)             107.3597         estimate D2E/DX2                !
 ! A18   A(7,3,31)             110.544          estimate D2E/DX2                !
 ! A19   A(3,4,5)              113.978          estimate D2E/DX2                !
 ! A20   A(3,4,25)             107.2616         estimate D2E/DX2                !
 ! A21   A(3,4,32)             111.5128         estimate D2E/DX2                !
 ! A22   A(5,4,25)             106.9855         estimate D2E/DX2                !
 ! A23   A(5,4,32)             110.0688         estimate D2E/DX2                !
 ! A24   A(25,4,32)            106.6237         estimate D2E/DX2                !
 ! A25   A(4,5,6)              112.3962         estimate D2E/DX2                !
 ! A26   A(4,5,26)             110.1845         estimate D2E/DX2                !
 ! A27   A(4,5,27)             111.3409         estimate D2E/DX2                !
 ! A28   A(6,5,26)             107.4686         estimate D2E/DX2                !
 ! A29   A(6,5,27)             108.1916         estimate D2E/DX2                !
 ! A30   A(26,5,27)            107.0343         estimate D2E/DX2                !
 ! A31   A(5,6,28)             106.0523         estimate D2E/DX2                !
 ! A32   A(3,7,8)              111.8442         estimate D2E/DX2                !
 ! A33   A(3,7,36)             109.9688         estimate D2E/DX2                !
 ! A34   A(8,7,36)             106.9826         estimate D2E/DX2                !
 ! A35   A(7,8,12)             110.8911         estimate D2E/DX2                !
 ! A36   A(7,8,29)             110.6344         estimate D2E/DX2                !
 ! A37   A(7,8,30)             110.3419         estimate D2E/DX2                !
 ! A38   A(12,8,29)            109.4777         estimate D2E/DX2                !
 ! A39   A(12,8,30)            108.9586         estimate D2E/DX2                !
 ! A40   A(29,8,30)            106.422          estimate D2E/DX2                !
 ! A41   A(10,9,14)            119.5458         estimate D2E/DX2                !
 ! A42   A(10,9,15)            120.1914         estimate D2E/DX2                !
 ! A43   A(14,9,15)            120.2625         estimate D2E/DX2                !
 ! A44   A(9,10,11)            119.8924         estimate D2E/DX2                !
 ! A45   A(9,10,16)            120.6918         estimate D2E/DX2                !
 ! A46   A(11,10,16)           119.4156         estimate D2E/DX2                !
 ! A47   A(10,11,12)           121.463          estimate D2E/DX2                !
 ! A48   A(10,11,18)           118.4998         estimate D2E/DX2                !
 ! A49   A(12,11,18)           120.0349         estimate D2E/DX2                !
 ! A50   A(8,12,11)            121.3262         estimate D2E/DX2                !
 ! A51   A(8,12,13)            120.9376         estimate D2E/DX2                !
 ! A52   A(11,12,13)           117.73           estimate D2E/DX2                !
 ! A53   A(12,13,14)           121.6096         estimate D2E/DX2                !
 ! A54   A(12,13,19)           119.6967         estimate D2E/DX2                !
 ! A55   A(14,13,19)           118.6934         estimate D2E/DX2                !
 ! A56   A(9,14,13)            119.7588         estimate D2E/DX2                !
 ! A57   A(9,14,17)            120.6713         estimate D2E/DX2                !
 ! A58   A(13,14,17)           119.5694         estimate D2E/DX2                !
 ! A59   A(4,32,33)            112.3063         estimate D2E/DX2                !
 ! A60   A(4,32,34)            110.4022         estimate D2E/DX2                !
 ! A61   A(4,32,35)            110.7178         estimate D2E/DX2                !
 ! A62   A(33,32,34)           107.5677         estimate D2E/DX2                !
 ! A63   A(33,32,35)           108.1429         estimate D2E/DX2                !
 ! A64   A(34,32,35)           107.5245         estimate D2E/DX2                !
 ! D1    D(20,1,2,3)            57.0118         estimate D2E/DX2                !
 ! D2    D(20,1,2,23)         -179.4298         estimate D2E/DX2                !
 ! D3    D(20,1,2,24)          -64.034          estimate D2E/DX2                !
 ! D4    D(21,1,2,3)           176.3177         estimate D2E/DX2                !
 ! D5    D(21,1,2,23)          -60.1239         estimate D2E/DX2                !
 ! D6    D(21,1,2,24)           55.2718         estimate D2E/DX2                !
 ! D7    D(22,1,2,3)           -64.0907         estimate D2E/DX2                !
 ! D8    D(22,1,2,23)           59.4676         estimate D2E/DX2                !
 ! D9    D(22,1,2,24)          174.8634         estimate D2E/DX2                !
 ! D10   D(1,2,3,4)           -167.5118         estimate D2E/DX2                !
 ! D11   D(1,2,3,7)             68.9714         estimate D2E/DX2                !
 ! D12   D(1,2,3,31)           -51.0485         estimate D2E/DX2                !
 ! D13   D(23,2,3,4)            70.1224         estimate D2E/DX2                !
 ! D14   D(23,2,3,7)           -53.3944         estimate D2E/DX2                !
 ! D15   D(23,2,3,31)         -173.4144         estimate D2E/DX2                !
 ! D16   D(24,2,3,4)           -47.2075         estimate D2E/DX2                !
 ! D17   D(24,2,3,7)          -170.7243         estimate D2E/DX2                !
 ! D18   D(24,2,3,31)           69.2558         estimate D2E/DX2                !
 ! D19   D(2,3,4,5)            -65.9633         estimate D2E/DX2                !
 ! D20   D(2,3,4,25)            52.2661         estimate D2E/DX2                !
 ! D21   D(2,3,4,32)           168.6568         estimate D2E/DX2                !
 ! D22   D(7,3,4,5)             57.2013         estimate D2E/DX2                !
 ! D23   D(7,3,4,25)           175.4307         estimate D2E/DX2                !
 ! D24   D(7,3,4,32)           -68.1785         estimate D2E/DX2                !
 ! D25   D(31,3,4,5)           178.1427         estimate D2E/DX2                !
 ! D26   D(31,3,4,25)          -63.6279         estimate D2E/DX2                !
 ! D27   D(31,3,4,32)           52.7628         estimate D2E/DX2                !
 ! D28   D(2,3,7,8)           -126.2187         estimate D2E/DX2                !
 ! D29   D(2,3,7,36)            -7.5033         estimate D2E/DX2                !
 ! D30   D(4,3,7,8)            110.3467         estimate D2E/DX2                !
 ! D31   D(4,3,7,36)          -130.9379         estimate D2E/DX2                !
 ! D32   D(31,3,7,8)            -8.7            estimate D2E/DX2                !
 ! D33   D(31,3,7,36)          110.0154         estimate D2E/DX2                !
 ! D34   D(3,4,5,6)            -65.0682         estimate D2E/DX2                !
 ! D35   D(3,4,5,26)           175.1029         estimate D2E/DX2                !
 ! D36   D(3,4,5,27)            56.5011         estimate D2E/DX2                !
 ! D37   D(25,4,5,6)           176.5445         estimate D2E/DX2                !
 ! D38   D(25,4,5,26)           56.7156         estimate D2E/DX2                !
 ! D39   D(25,4,5,27)          -61.8862         estimate D2E/DX2                !
 ! D40   D(32,4,5,6)            61.073          estimate D2E/DX2                !
 ! D41   D(32,4,5,26)          -58.7559         estimate D2E/DX2                !
 ! D42   D(32,4,5,27)         -177.3577         estimate D2E/DX2                !
 ! D43   D(3,4,32,33)           66.4245         estimate D2E/DX2                !
 ! D44   D(3,4,32,34)         -173.5309         estimate D2E/DX2                !
 ! D45   D(3,4,32,35)          -54.5738         estimate D2E/DX2                !
 ! D46   D(5,4,32,33)          -61.0968         estimate D2E/DX2                !
 ! D47   D(5,4,32,34)           58.9478         estimate D2E/DX2                !
 ! D48   D(5,4,32,35)          177.9049         estimate D2E/DX2                !
 ! D49   D(25,4,32,33)        -176.7964         estimate D2E/DX2                !
 ! D50   D(25,4,32,34)         -56.7519         estimate D2E/DX2                !
 ! D51   D(25,4,32,35)          62.2052         estimate D2E/DX2                !
 ! D52   D(4,5,6,28)            33.7996         estimate D2E/DX2                !
 ! D53   D(26,5,6,28)          155.1937         estimate D2E/DX2                !
 ! D54   D(27,5,6,28)          -89.5493         estimate D2E/DX2                !
 ! D55   D(3,7,8,12)          -176.2526         estimate D2E/DX2                !
 ! D56   D(3,7,8,29)           -54.5779         estimate D2E/DX2                !
 ! D57   D(3,7,8,30)            62.9248         estimate D2E/DX2                !
 ! D58   D(36,7,8,12)           63.2749         estimate D2E/DX2                !
 ! D59   D(36,7,8,29)         -175.0504         estimate D2E/DX2                !
 ! D60   D(36,7,8,30)          -57.5478         estimate D2E/DX2                !
 ! D61   D(7,8,12,11)          102.5032         estimate D2E/DX2                !
 ! D62   D(7,8,12,13)          -76.5727         estimate D2E/DX2                !
 ! D63   D(29,8,12,11)         -19.847          estimate D2E/DX2                !
 ! D64   D(29,8,12,13)         161.0771         estimate D2E/DX2                !
 ! D65   D(30,8,12,11)        -135.8594         estimate D2E/DX2                !
 ! D66   D(30,8,12,13)          45.0646         estimate D2E/DX2                !
 ! D67   D(14,9,10,11)          -0.0114         estimate D2E/DX2                !
 ! D68   D(14,9,10,16)        -179.851          estimate D2E/DX2                !
 ! D69   D(15,9,10,11)         179.8079         estimate D2E/DX2                !
 ! D70   D(15,9,10,16)          -0.0317         estimate D2E/DX2                !
 ! D71   D(10,9,14,13)           0.0291         estimate D2E/DX2                !
 ! D72   D(10,9,14,17)         179.7812         estimate D2E/DX2                !
 ! D73   D(15,9,14,13)        -179.7901         estimate D2E/DX2                !
 ! D74   D(15,9,14,17)          -0.038          estimate D2E/DX2                !
 ! D75   D(9,10,11,12)           0.0888         estimate D2E/DX2                !
 ! D76   D(9,10,11,18)         179.5361         estimate D2E/DX2                !
 ! D77   D(16,10,11,12)        179.9305         estimate D2E/DX2                !
 ! D78   D(16,10,11,18)         -0.6222         estimate D2E/DX2                !
 ! D79   D(10,11,12,8)        -179.2825         estimate D2E/DX2                !
 ! D80   D(10,11,12,13)         -0.1779         estimate D2E/DX2                !
 ! D81   D(18,11,12,8)           1.2785         estimate D2E/DX2                !
 ! D82   D(18,11,12,13)       -179.6169         estimate D2E/DX2                !
 ! D83   D(8,12,13,14)         179.3047         estimate D2E/DX2                !
 ! D84   D(8,12,13,19)          -0.5079         estimate D2E/DX2                !
 ! D85   D(11,12,13,14)          0.1964         estimate D2E/DX2                !
 ! D86   D(11,12,13,19)       -179.6162         estimate D2E/DX2                !
 ! D87   D(12,13,14,9)          -0.1252         estimate D2E/DX2                !
 ! D88   D(12,13,14,17)       -179.88           estimate D2E/DX2                !
 ! D89   D(19,13,14,9)         179.6892         estimate D2E/DX2                !
 ! D90   D(19,13,14,17)         -0.0656         estimate D2E/DX2                !
 --------------------------------------------------------------------------------
 Trust Radius=3.00D-01 FncErr=1.00D-07 GrdErr=1.00D-06
 Number of steps in this run=     50 maximum allowed number of steps=    216.
 GradGradGradGradGradGradGradGradGradGradGradGradGradGradGradGradGradGrad

                          Input orientation:                          
 ---------------------------------------------------------------------
 Center     Atomic      Atomic             Coordinates (Angstroms)
 Number     Number       Type             X           Y           Z
 ---------------------------------------------------------------------
      1          6           0       -1.956318    0.423891    0.084255
      2          6           0       -1.956156    1.161171    1.419490
      3          6           0       -0.657534    0.945785    2.232713
      4          6           0       -0.829527    1.449300    3.699667
      5          6           0       -1.024203    2.971959    3.819829
      6          8           0        0.122921    3.699508    3.400206
      7          7           0        0.481014    1.615441    1.572466
      8          6           0        1.599649    0.691205    1.341265
      9          6           0        4.968441    2.794882   -0.353860
     10          6           0        4.969382    2.441108    0.994699
     11          6           0        3.880117    1.757738    1.534788
     12          6           0        2.776842    1.412405    0.753441
     13          6           0        2.795122    1.777710   -0.593994
     14          6           0        3.875254    2.460647   -1.151365
     15          1           0        5.813439    3.330272   -0.779124
     16          1           0        5.810314    2.694315    1.633641
     17          1           0        3.853752    2.730291   -2.203004
     18          9           0        3.914504    1.422975    2.832609
     19          9           0        1.751510    1.472308   -1.379573
     20          1           0       -1.798871   -0.649433    0.230607
     21          1           0       -2.920525    0.557903   -0.416674
     22          1           0       -1.178469    0.797303   -0.588032
     23          1           0       -2.126298    2.227942    1.231688
     24          1           0       -2.812734    0.803047    2.003767
     25          1           0       -1.736155    0.977061    4.102254
     26          1           0       -1.224807    3.246297    4.861017
     27          1           0       -1.879258    3.311803    3.228500
     28          1           0        0.521799    3.179366    2.668327
     29          1           0        1.898819    0.205189    2.276960
     30          1           0        1.295862   -0.112116    0.657634
     31          1           0       -0.494031   -0.140344    2.275805
     32          6           0        0.334936    0.995178    4.590879
     33          1           0        1.283332    1.459752    4.303895
     34          1           0        0.140834    1.258387    5.636416
     35          1           0        0.459115   -0.091741    4.542062
     36          1           0        0.193982    1.971822    0.657703
 ---------------------------------------------------------------------
                    Distance matrix (angstroms):
                    1          2          3          4          5
     1  C    0.000000
     2  C    1.525265   0.000000
     3  C    2.564193   1.547301   0.000000
     4  C    3.923305   2.559593   1.560469   0.000000
     5  C    4.616926   3.147875   2.599762   1.539749   0.000000
     6  O    5.103767   3.832617   3.091139   2.461762   1.421726
     7  N    3.094374   2.483860   1.476705   2.504018   3.025964
     8  C    3.781062   3.587581   2.440157   3.469534   4.269627
     9  C    7.332519   7.332382   6.462284   7.201257   7.304986
    10  C    7.270722   7.055619   5.952382   6.475174   6.647272
    11  C    6.160127   5.867816   4.662257   5.192551   5.545097
    12  C    4.881370   4.786231   3.768411   4.656985   5.126684
    13  C    4.986886   5.197007   4.539075   5.628628   5.957794
    14  C    6.299394   6.504097   5.856019   6.833030   6.998492
    15  H    8.340360   8.360951   7.525319   8.229619   8.248158
    16  H    8.238689   7.919245   6.726760   7.064419   7.181025
    17  H    6.656422   7.024217   6.573564   7.643008   7.754184
    18  F    6.558824   6.044013   4.635851   4.822687   5.269230
    19  F    4.121888   4.656001   4.373709   5.697452   6.081720
    20  H    1.094638   2.171743   2.802820   4.168775   5.157238
    21  H    1.094799   2.159963   3.505828   4.702247   5.231793
    22  H    1.093826   2.183424   2.872285   4.351003   4.917537
    23  H    2.144783   1.096457   2.191631   2.894619   2.909751
    24  H    2.135822   1.096977   2.172022   2.688276   3.346805
    25  H    4.061870   2.698058   2.158607   1.098663   2.136880
    26  H    5.596297   4.089833   3.538663   2.175817   1.095251
    27  H    4.269924   2.811343   2.842929   2.189258   1.093747
    28  H    4.517868   3.431176   2.563098   2.425463   1.938839
    29  H    4.440480   4.063249   2.661838   3.319003   4.310397
    30  H    3.345556   3.574536   2.723194   4.026073   4.989358
    31  H    2.694353   2.136592   1.099212   2.160303   3.514473
    32  C    5.087816   3.915912   2.558981   1.535076   2.519810
    33  H    5.419751   4.347784   2.884600   2.197584   2.801037
    34  H    5.993407   4.710550   3.510029   2.174637   2.755654
    35  H    5.096296   4.141712   2.767031   2.178310   3.479671
    36  H    2.710853   2.420861   2.063610   3.251791   3.533170
                    6          7          8          9         10
     6  O    0.000000
     7  N    2.795031   0.000000
     8  C    3.933173   1.469357   0.000000
     9  C    6.196001   5.023825   4.318294   0.000000
    10  C    5.555017   4.600107   3.812790   1.394191   0.000000
    11  C    4.622421   3.402289   2.524971   2.413940   1.394700
    12  C    4.390843   2.445987   1.500483   2.817883   2.433858
    13  C    5.175674   3.174110   2.520888   2.411559   2.773346
    14  C    6.027568   4.433339   3.810841   1.393838   2.408960
    15  H    7.070016   6.074980   5.405252   1.086974   2.156268
    16  H    6.039669   5.437752   4.672005   2.160792   1.086060
    17  H    6.801062   5.183862   4.669121   2.160101   3.399053
    18  F    4.458797   3.662493   2.849236   3.625810   2.351016
    19  F    5.518968   3.217014   2.834809   3.626284   4.114662
    20  H    5.714274   3.482544   3.818483   7.615866   7.479608
    21  H    5.805241   4.079894   4.851813   8.200232   8.233412
    22  H    5.101221   2.844466   3.383989   6.467585   6.557683
    23  H    3.453544   2.699882   4.031904   7.291825   7.102836
    24  H    4.354032   3.419763   4.463243   8.370932   8.016408
    25  H    3.370572   3.423915   4.339627   8.253062   7.534226
    26  H    2.038563   4.047726   5.186010   8.108948   7.346068
    27  H    2.046587   3.345292   4.746787   7.745417   7.256159
    28  H    0.982496   1.910088   3.018907   5.390182   4.809059
    29  H    4.077470   2.120211   1.096011   4.801073   4.008975
    30  H    4.840038   2.117864   1.097708   4.791826   4.486348
    31  H    4.048379   2.127952   2.438921   6.735673   6.176893
    32  C    2.962440   3.084944   3.500270   7.011330   6.041632
    33  H    2.679499   2.851080   3.076995   6.087469   5.049832
    34  H    3.310593   4.093763   4.571450   7.845382   6.801415
    35  H    3.973717   3.425412   3.486965   7.255113   6.272290
    36  H    3.242109   1.022832   2.020677   4.949358   4.810223
                   11         12         13         14         15
    11  C    0.000000
    12  C    1.395340   0.000000
    13  C    2.389420   1.396196   0.000000
    14  C    2.776603   2.435899   1.394185   0.000000
    15  H    3.400704   3.904855   3.399259   2.156704   0.000000
    16  H    2.147699   3.408812   3.859262   3.399311   2.495173
    17  H    3.862337   3.411323   2.148725   1.085871   2.495553
    18  F    1.340742   2.370090   3.622218   4.117081   4.504259
    19  F    3.620212   2.367413   1.341466   2.353547   4.506865
    20  H    6.304464   5.045957   5.260776   6.616505   8.648981
    21  H    7.176109   5.878719   5.847050   7.095267   9.170579
    22  H    5.569389   4.221657   4.092757   5.350156   7.439034
    23  H    6.032411   4.993456   5.268415   6.461557   8.264256
    24  H    6.776845   5.760034   6.256707   7.578369   9.409687
    25  H    6.224456   5.636596   6.574820   7.828758   9.293106
    26  H    6.272149   6.020676   6.933522   7.923169   9.019709
    27  H    6.201143   5.604721   6.230147   7.281627   8.674040
    28  H    3.818931   3.445890   4.216085   5.133446   6.317369
    29  H    2.624266   2.132933   3.393900   4.554865   5.867712
    30  H    3.308191   2.127591   2.717682   4.067536   5.858567
    31  H    4.825453   3.927751   4.767935   6.131990   7.820610
    32  C    4.742309   4.567594   5.792045   6.903247   8.018952
    33  H    3.807892   3.852082   5.135750   6.122068   7.061005
    34  H    5.572696   5.551189   6.792124   7.839980   8.810806
    35  H    4.916048   4.689132   5.943976   7.113354   8.288183
    36  H    3.795089   2.644481   2.893156   4.130792   5.957194
                   16         17         18         19         20
    16  H    0.000000
    17  H    4.306887   0.000000
    18  F    2.578357   5.202900   0.000000
    19  F    5.200639   2.584566   4.735341   0.000000
    20  H    8.429048   7.021192   6.611198   4.438431   0.000000
    21  H    9.219306   7.334921   7.617336   4.857080   1.770520
    22  H    7.574799   5.627417   6.166897   3.109171   1.774292
    23  H    7.960457   6.914511   6.300969   4.735722   3.064092
    24  H    8.835771   8.115000   6.806396   5.720771   2.506335
    25  H    8.123559   8.606809   5.808682   6.516096   4.199889
    26  H    7.759740   8.715413   5.818201   7.137959   6.078401
    27  H    7.877461   7.918762   6.106724   6.148216   4.968422
    28  H    5.410567   5.918906   3.823918   4.561988   5.097812
    29  H    4.680748   5.501634   2.419656   3.872664   4.311711
    30  H    5.404528   4.775492   3.734208   2.620730   3.169926
    31  H    6.942077   6.870480   4.710539   4.583109   2.478833
    32  C    6.450743   7.845351   4.010964   6.154724   5.125412
    33  H    5.398886   7.110630   3.014814   5.702732   5.526329
    34  H    7.087108   8.798225   4.704148   7.201676   6.051860
    35  H    6.697488   8.061224   4.142017   6.259576   4.898792
    36  H    5.746097   4.706680   4.344391   2.612643   3.320369
                   21         22         23         24         25
    21  H    0.000000
    22  H    1.766758   0.000000
    23  H    2.477282   2.501297   0.000000
    24  H    2.435210   3.064030   1.760007   0.000000
    25  H    4.690324   4.726744   3.155482   2.364942   0.000000
    26  H    6.160921   5.974266   3.875792   4.081037   2.446759
    27  H    4.685669   4.623822   2.285397   2.943672   2.496987
    28  H    5.314028   4.378243   3.159360   4.148210   3.464773
    29  H    5.532282   4.245996   4.624466   4.757184   4.140111
    30  H    4.402384   2.915654   4.185282   4.419294   4.716444
    31  H    3.691188   3.090178   3.059944   2.518010   2.475355
    32  C    5.988725   5.399136   4.342988   4.078957   2.128027
    33  H    6.385101   5.516362   4.653402   4.743375   3.064466
    34  H    6.819274   6.379413   5.047926   4.703938   2.440468
    35  H    6.035981   5.458017   4.798319   4.236577   2.480923
    36  H    3.585193   2.194305   2.403904   3.495463   4.071844
                   26         27         28         29         30
    26  H    0.000000
    27  H    1.760031   0.000000
    28  H    2.804104   2.469091   0.000000
    29  H    5.067813   4.983006   3.300770   0.000000
    30  H    5.941476   5.330475   3.933944   1.756831   0.000000
    31  H    4.322811   3.839766   3.493774   2.417669   2.413087
    32  C    2.751965   3.482166   2.915785   2.902419   4.197606
    33  H    3.129359   3.819495   2.492406   2.461954   3.970661
    34  H    2.533378   3.754377   3.555959   3.935185   5.291563
    35  H    3.752309   4.333306   3.770272   2.700297   3.973580
    36  H    4.615745   3.564109   2.368171   2.940996   2.357316
                   31         32         33         34         35
    31  H    0.000000
    32  C    2.708535   0.000000
    33  H    3.135678   1.094369   0.000000
    34  H    3.695025   1.095492   1.766766   0.000000
    35  H    2.459018   1.095078   1.772904   1.766850   0.000000
    36  H    2.748247   4.055068   3.839742   5.029851   4.406454
                   36
    36  H    0.000000
 Stoichiometry    C13H19F2NO
 Framework group  C1[X(C13H19F2NO)]
 Deg. of freedom   102
 Full point group                 C1      NOp   1
 Largest Abelian subgroup         C1      NOp   1
 Largest concise Abelian subgroup C1      NOp   1
                         Standard orientation:                         
 ---------------------------------------------------------------------
 Center     Atomic      Atomic             Coordinates (Angstroms)
 Number     Number       Type             X           Y           Z
 ---------------------------------------------------------------------
      1          6           0       -2.343477    2.979255   -0.406522
      2          6           0       -2.895970    1.650773    0.099761
      3          6           0       -2.153567    0.423155   -0.479837
      4          6           0       -2.941106   -0.892133   -0.188525
      5          6           0       -3.023683   -1.254101    1.305793
      6          8           0       -1.749989   -1.554126    1.861664
      7          7           0       -0.780701    0.349412    0.059103
      8          6           0        0.223124    0.269328   -1.010912
      9          6           0        4.176320   -0.201396    0.661910
     10          6           0        3.514632   -1.296407    0.107936
     11          6           0        2.239842   -1.136515   -0.434774
     12          6           0        1.601101    0.104030   -0.440556
     13          6           0        2.280265    1.187062    0.120819
     14          6           0        3.555041    1.046309    0.667522
     15          1           0        5.168672   -0.321140    1.089006
     16          1           0        3.980304   -2.277494    0.095855
     17          1           0        4.052183    1.910712    1.097373
     18          9           0        1.633038   -2.206254   -0.968659
     19          9           0        1.699764    2.396214    0.143226
     20          1           0       -2.375238    3.024386   -1.499768
     21          1           0       -2.945138    3.806996   -0.017380
     22          1           0       -1.310371    3.140394   -0.085301
     23          1           0       -2.856667    1.648759    1.195512
     24          1           0       -3.955820    1.597260   -0.178110
     25          1           0       -3.971085   -0.739892   -0.539275
     26          1           0       -3.659604   -2.134616    1.446765
     27          1           0       -3.467632   -0.441688    1.888184
     28          1           0       -1.107291   -0.974355    1.396794
     29          1           0        0.003699   -0.566904   -1.684564
     30          1           0        0.198434    1.178122   -1.626092
     31          1           0       -2.133063    0.558425   -1.570501
     32          6           0       -2.375747   -2.075277   -0.986648
     33          1           0       -1.363673   -2.344717   -0.669233
     34          1           0       -3.009034   -2.959920   -0.858368
     35          1           0       -2.347040   -1.842605   -2.056338
     36          1           0       -0.572679    1.191268    0.601497
 ---------------------------------------------------------------------
 Rotational constants (GHZ):      0.6539354      0.3048274      0.2409694
 Standard basis: 6-31G(d,p) (6D, 7F)
 There are   350 symmetry adapted cartesian basis functions of A   symmetry.
 There are   350 symmetry adapted basis functions of A   symmetry.
   350 basis functions,   609 primitive gaussians,   350 cartesian basis functions
    65 alpha electrons       65 beta electrons
       nuclear repulsion energy      1291.6716964657 Hartrees.
 NAtoms=   36 NActive=   36 NUniq=   36 SFac= 1.00D+00 NAtFMM=   60 NAOKFM=F Big=F
 Integral buffers will be    131072 words long.
 Raffenetti 2 integral format.
 Two-electron integral symmetry is turned on.
 ------------------------------------------------------------------------------
 Polarizable Continuum Model (PCM)
 =================================
 Model                : PCM (using non-symmetric T matrix).
 Atomic radii         : UFF (Universal Force Field).
 Polarization charges : Total charges.
 Charge compensation  : None.
 Solution method      : On-the-fly selection.
 Cavity type          : Scaled VdW (van der Waals Surface) (Alpha=1.100).
 Cavity algorithm     : GePol (No added spheres)
                        Default sphere list used, NSphG=   36.
                        Lebedev-Laikov grids with approx.  5.0 points / Ang**2.
                        Smoothing algorithm: Karplus/York (Gamma=1.0000).
                        Polarization charges: spherical gaussians, with
                                              point-specific exponents (IZeta= 3).
                        Self-potential: point-specific (ISelfS= 7).
                        Self-field    : sphere-specific E.n sum rule (ISelfD= 2).
 1st derivatives      : Analytical E(r).r(x)/FMM algorithm (CHGder, D1EAlg=3).
                        Cavity 1st derivative terms included.
 Solvent              : Chloroform, Eps=   4.711300 Eps(inf)=   2.090627
 ------------------------------------------------------------------------------
 One-electron integrals computed using PRISM.
 NBasis=   350 RedAO= T EigKep=  4.09D-04  NBF=   350
 NBsUse=   350 1.00D-06 EigRej= -1.00D+00 NBFU=   350
 ExpMin= 1.61D-01 ExpMax= 7.00D+03 ExpMxC= 1.05D+03 IAcc=1 IRadAn=         1 AccDes= 0.00D+00
 Harris functional with IExCor=  402 and IRadAn=       1 diagonalized for initial guess.
 HarFok:  IExCor=  402 AccDes= 0.00D+00 IRadAn=         1 IDoV= 1 UseB2=F ITyADJ=14
 ICtDFT=  3500011 ScaDFX=  1.000000  1.000000  1.000000  1.000000
 FoFCou: FMM=F IPFlag=           0 FMFlag=      100000 FMFlg1=           0
         NFxFlg=           0 DoJE=T BraDBF=F KetDBF=T FulRan=T
         wScrn=  0.000000 ICntrl=     500 IOpCl=  0 I1Cent=   200000004 NGrid=           0
         NMat0=    1 NMatS0=      1 NMatT0=    0 NMatD0=    1 NMtDS0=    0 NMtDT0=    0
 Petite list used in FoFCou.
 Requested convergence on RMS density matrix=1.00D-08 within 128 cycles.
 Requested convergence on MAX density matrix=1.00D-06.
 Requested convergence on             energy=1.00D-06.
 No special actions if energy rises.
 Inv3:  Mode=1 IEnd=    18228675.
 Iteration    1 A*A^-1 deviation from unit magnitude is 9.99D-15 for    741.
 Iteration    1 A*A^-1 deviation from orthogonality  is 7.77D-15 for   2229   1011.
 Iteration    1 A^-1*A deviation from unit magnitude is 6.11D-15 for   1361.
 Iteration    1 A^-1*A deviation from orthogonality  is 1.58D-13 for   2446   2394.
 Error on total polarization charges =  0.00791
 SCF Done:  E(RB3LYP) =  -836.495703043     A.U. after   12 cycles
            NFock= 12  Conv=0.64D-08     -V/T= 2.0088

 **********************************************************************

            Population analysis using the SCF density.

 **********************************************************************

 Orbital symmetries:
       Occupied  (A) (A) (A) (A) (A) (A) (A) (A) (A) (A) (A) (A)
                 (A) (A) (A) (A) (A) (A) (A) (A) (A) (A) (A) (A)
                 (A) (A) (A) (A) (A) (A) (A) (A) (A) (A) (A) (A)
                 (A) (A) (A) (A) (A) (A) (A) (A) (A) (A) (A) (A)
                 (A) (A) (A) (A) (A) (A) (A) (A) (A) (A) (A) (A)
                 (A) (A) (A) (A) (A)
       Virtual   (A) (A) (A) (A) (A) (A) (A) (A) (A) (A) (A) (A)
                 (A) (A) (A) (A) (A) (A) (A) (A) (A) (A) (A) (A)
                 (A) (A) (A) (A) (A) (A) (A) (A) (A) (A) (A) (A)
                 (A) (A) (A) (A) (A) (A) (A) (A) (A) (A) (A) (A)
                 (A) (A) (A) (A) (A) (A) (A) (A) (A) (A) (A) (A)
                 (A) (A) (A) (A) (A) (A) (A) (A) (A) (A) (A) (A)
                 (A) (A) (A) (A) (A) (A) (A) (A) (A) (A) (A) (A)
                 (A) (A) (A) (A) (A) (A) (A) (A) (A) (A) (A) (A)
                 (A) (A) (A) (A) (A) (A) (A) (A) (A) (A) (A) (A)
                 (A) (A) (A) (A) (A) (A) (A) (A) (A) (A) (A) (A)
                 (A) (A) (A) (A) (A) (A) (A) (A) (A) (A) (A) (A)
                 (A) (A) (A) (A) (A) (A) (A) (A) (A) (A) (A) (A)
                 (A) (A) (A) (A) (A) (A) (A) (A) (A) (A) (A) (A)
                 (A) (A) (A) (A) (A) (A) (A) (A) (A) (A) (A) (A)
                 (A) (A) (A) (A) (A) (A) (A) (A) (A) (A) (A) (A)
                 (A) (A) (A) (A) (A) (A) (A) (A) (A) (A) (A) (A)
                 (A) (A) (A) (A) (A) (A) (A) (A) (A) (A) (A) (A)
                 (A) (A) (A) (A) (A) (A) (A) (A) (A) (A) (A) (A)
                 (A) (A) (A) (A) (A) (A) (A) (A) (A) (A) (A) (A)
                 (A) (A) (A) (A) (A) (A) (A) (A) (A) (A) (A) (A)
                 (A) (A) (A) (A) (A) (A) (A) (A) (A) (A) (A) (A)
                 (A) (A) (A) (A) (A) (A) (A) (A) (A) (A) (A) (A)
                 (A) (A) (A) (A) (A) (A) (A) (A) (A) (A) (A) (A)
                 (A) (A) (A) (A) (A) (A) (A) (A) (A)
 The electronic state is 1-A.
 Alpha  occ. eigenvalues --  -24.72500 -24.72045 -19.10921 -14.33608 -10.28445
 Alpha  occ. eigenvalues --  -10.28376 -10.22328 -10.21600 -10.21294 -10.21064
 Alpha  occ. eigenvalues --  -10.20863 -10.20079 -10.20008 -10.18415 -10.18280
 Alpha  occ. eigenvalues --  -10.17657 -10.16692  -1.23807  -1.23365  -0.98637
 Alpha  occ. eigenvalues --   -0.92143  -0.87177  -0.80218  -0.77099  -0.75862
 Alpha  occ. eigenvalues --   -0.75552  -0.69239  -0.66604  -0.65329  -0.63236
 Alpha  occ. eigenvalues --   -0.61361  -0.59583  -0.56560  -0.55878  -0.53437
 Alpha  occ. eigenvalues --   -0.49858  -0.49554  -0.49517  -0.48665  -0.47354
 Alpha  occ. eigenvalues --   -0.46726  -0.45589  -0.44898  -0.44463  -0.44164
 Alpha  occ. eigenvalues --   -0.42710  -0.41578  -0.40766  -0.39917  -0.39164
 Alpha  occ. eigenvalues --   -0.39100  -0.38219  -0.37115  -0.36057  -0.35753
 Alpha  occ. eigenvalues --   -0.35606  -0.35048  -0.34301  -0.32235  -0.31592
 Alpha  occ. eigenvalues --   -0.30399  -0.25818  -0.24926  -0.24168  -0.23533
 Alpha virt. eigenvalues --   -0.01663  -0.00444   0.06687   0.08459   0.09853
 Alpha virt. eigenvalues --    0.11147   0.11395   0.13050   0.13575   0.14237
 Alpha virt. eigenvalues --    0.14812   0.14956   0.15271   0.15819   0.16929
 Alpha virt. eigenvalues --    0.17262   0.17991   0.18332   0.18703   0.19437
 Alpha virt. eigenvalues --    0.20098   0.20380   0.20930   0.21798   0.22515
 Alpha virt. eigenvalues --    0.23755   0.25200   0.25754   0.26829   0.27154
 Alpha virt. eigenvalues --    0.28613   0.29332   0.29775   0.30007   0.31773
 Alpha virt. eigenvalues --    0.37140   0.38283   0.46065   0.48326   0.49596
 Alpha virt. eigenvalues --    0.49850   0.50756   0.51781   0.52099   0.52805
 Alpha virt. eigenvalues --    0.54249   0.54609   0.55693   0.56891   0.57792
 Alpha virt. eigenvalues --    0.57959   0.58631   0.59296   0.59843   0.60371
 Alpha virt. eigenvalues --    0.61522   0.62764   0.63171   0.64822   0.66167
 Alpha virt. eigenvalues --    0.66745   0.67541   0.69212   0.69879   0.70019
 Alpha virt. eigenvalues --    0.72992   0.75732   0.76185   0.76893   0.78870
 Alpha virt. eigenvalues --    0.79059   0.80043   0.81283   0.81521   0.83076
 Alpha virt. eigenvalues --    0.84239   0.84410   0.84937   0.86552   0.87348
 Alpha virt. eigenvalues --    0.87500   0.87833   0.88788   0.89831   0.90143
 Alpha virt. eigenvalues --    0.90717   0.92350   0.92622   0.93963   0.94081
 Alpha virt. eigenvalues --    0.94566   0.95727   0.97272   0.97494   0.99521
 Alpha virt. eigenvalues --    1.00276   1.01586   1.03440   1.03923   1.05381
 Alpha virt. eigenvalues --    1.09416   1.10884   1.11699   1.12375   1.15761
 Alpha virt. eigenvalues --    1.20100   1.21311   1.21604   1.22682   1.23881
 Alpha virt. eigenvalues --    1.24115   1.25401   1.26692   1.31546   1.32284
 Alpha virt. eigenvalues --    1.34963   1.35683   1.37047   1.38504   1.39159
 Alpha virt. eigenvalues --    1.40623   1.41549   1.41958   1.42318   1.43600
 Alpha virt. eigenvalues --    1.44007   1.49712   1.50783   1.51594   1.53985
 Alpha virt. eigenvalues --    1.56209   1.59886   1.60949   1.63868   1.66105
 Alpha virt. eigenvalues --    1.68298   1.70171   1.71917   1.72728   1.75573
 Alpha virt. eigenvalues --    1.76499   1.77552   1.78040   1.79877   1.80443
 Alpha virt. eigenvalues --    1.81658   1.82222   1.82831   1.84942   1.85673
 Alpha virt. eigenvalues --    1.86102   1.86970   1.88180   1.89094   1.89187
 Alpha virt. eigenvalues --    1.90241   1.91337   1.93166   1.93568   1.94355
 Alpha virt. eigenvalues --    1.95533   1.97153   1.98193   1.99134   2.00561
 Alpha virt. eigenvalues --    2.01849   2.03710   2.04739   2.04864   2.05498
 Alpha virt. eigenvalues --    2.05927   2.06054   2.07574   2.08391   2.11704
 Alpha virt. eigenvalues --    2.13219   2.13712   2.15964   2.17097   2.17762
 Alpha virt. eigenvalues --    2.18945   2.19832   2.21278   2.23177   2.26324
 Alpha virt. eigenvalues --    2.26766   2.28298   2.29582   2.30482   2.30886
 Alpha virt. eigenvalues --    2.31163   2.32602   2.33264   2.34310   2.34940
 Alpha virt. eigenvalues --    2.36223   2.37765   2.38058   2.40392   2.40780
 Alpha virt. eigenvalues --    2.42193   2.43743   2.46442   2.46786   2.48069
 Alpha virt. eigenvalues --    2.50622   2.52052   2.52382   2.53103   2.53450
 Alpha virt. eigenvalues --    2.56625   2.57718   2.59579   2.60109   2.63290
 Alpha virt. eigenvalues --    2.63819   2.64194   2.66201   2.67649   2.68388
 Alpha virt. eigenvalues --    2.69309   2.72239   2.72285   2.73741   2.75270
 Alpha virt. eigenvalues --    2.76698   2.77432   2.78647   2.80905   2.82632
 Alpha virt. eigenvalues --    2.83702   2.85100   2.85345   2.86944   2.89318
 Alpha virt. eigenvalues --    2.89665   2.90154   2.93445   2.93664   2.95653
 Alpha virt. eigenvalues --    2.98810   3.00554   3.04304   3.05095   3.06388
 Alpha virt. eigenvalues --    3.09955   3.14374   3.19856   3.20391   3.22282
 Alpha virt. eigenvalues --    3.25489   3.29932   3.31248   3.32093   3.35129
 Alpha virt. eigenvalues --    3.35664   3.39635   3.39992   3.42395   3.44001
 Alpha virt. eigenvalues --    3.45343   3.47310   3.48023   3.52601   3.52969
 Alpha virt. eigenvalues --    3.57180   3.60715   3.80215   3.94332   4.07220
 Alpha virt. eigenvalues --    4.09702   4.11618   4.16859   4.32924   4.38194
 Alpha virt. eigenvalues --    4.41964   4.46894   4.54694   4.59227   4.62359
 Alpha virt. eigenvalues --    4.67791   4.78122   4.79485   5.50742   5.60662
          Condensed to atoms (all electrons):
               1          2          3          4          5          6
     1  C    4.950945   0.356408  -0.040945   0.004627   0.000155   0.000002
     2  C    0.356408   4.951986   0.370220  -0.040650  -0.006589  -0.000657
     3  C   -0.040945   0.370220   4.867377   0.366750  -0.031856  -0.005795
     4  C    0.004627  -0.040650   0.366750   5.021949   0.361189  -0.041002
     5  C    0.000155  -0.006589  -0.031856   0.361189   4.708782   0.271108
     6  O    0.000002  -0.000657  -0.005795  -0.041002   0.271108   8.203803
     7  N   -0.003637  -0.043604   0.251435  -0.062365  -0.002750  -0.028067
     8  C   -0.000017   0.001701  -0.029337   0.000636   0.000156   0.000592
     9  C    0.000000   0.000000   0.000000   0.000000   0.000000   0.000000
    10  C    0.000000   0.000000   0.000003   0.000000   0.000000   0.000001
    11  C    0.000000   0.000000  -0.000110  -0.000003  -0.000005  -0.000044
    12  C    0.000034  -0.000257   0.005285  -0.000340   0.000007  -0.000026
    13  C   -0.000031  -0.000040   0.000239   0.000010   0.000000   0.000011
    14  C   -0.000001   0.000000   0.000006   0.000000   0.000000   0.000000
    15  H    0.000000   0.000000   0.000000   0.000000   0.000000   0.000000
    16  H    0.000000   0.000000   0.000000   0.000000   0.000000   0.000000
    17  H    0.000000   0.000000   0.000000   0.000000   0.000000   0.000000
    18  F    0.000000   0.000000  -0.000008   0.000014   0.000000  -0.000002
    19  F   -0.000371  -0.000011   0.000016   0.000000   0.000000   0.000000
    20  H    0.386391  -0.035761  -0.005831  -0.000027   0.000003   0.000000
    21  H    0.380506  -0.027308   0.004079  -0.000134   0.000002   0.000000
    22  H    0.380987  -0.036267  -0.005022   0.000156  -0.000014   0.000001
    23  H   -0.041767   0.381358  -0.031299  -0.007052   0.001635   0.000166
    24  H   -0.037698   0.380590  -0.033512  -0.002950  -0.000523   0.000039
    25  H    0.000080  -0.006619  -0.042292   0.360498  -0.032870   0.003440
    26  H    0.000000  -0.000030   0.005505  -0.026941   0.376976  -0.042338
    27  H   -0.000117   0.003990  -0.013199  -0.045797   0.369935  -0.046759
    28  H   -0.000010   0.000307  -0.002833  -0.011425  -0.041934   0.281314
    29  H    0.000000   0.000066  -0.002348   0.000735   0.000075   0.000104
    30  H    0.000691   0.000715  -0.006216  -0.000650  -0.000007  -0.000037
    31  H   -0.008366  -0.040195   0.386187  -0.055988   0.004571  -0.000230
    32  C   -0.000157   0.004908  -0.047745   0.349253  -0.050939  -0.001607
    33  H    0.000001   0.000076  -0.009297  -0.030541  -0.007771   0.010388
    34  H    0.000002  -0.000149   0.004686  -0.027302  -0.003277  -0.000445
    35  H   -0.000005   0.000066  -0.005230  -0.033027   0.004951   0.000195
    36  H    0.001816  -0.008123  -0.038858   0.003996   0.000303   0.000691
               7          8          9         10         11         12
     1  C   -0.003637  -0.000017   0.000000   0.000000   0.000000   0.000034
     2  C   -0.043604   0.001701   0.000000   0.000000   0.000000  -0.000257
     3  C    0.251435  -0.029337   0.000000   0.000003  -0.000110   0.005285
     4  C   -0.062365   0.000636   0.000000   0.000000  -0.000003  -0.000340
     5  C   -0.002750   0.000156   0.000000   0.000000  -0.000005   0.000007
     6  O   -0.028067   0.000592   0.000000   0.000001  -0.000044  -0.000026
     7  N    6.951750   0.268500   0.000025  -0.000094   0.003621  -0.047187
     8  C    0.268500   4.950725  -0.000596   0.008236  -0.047786   0.293956
     9  C    0.000025  -0.000596   4.849873   0.487317  -0.009019  -0.027492
    10  C   -0.000094   0.008236   0.487317   5.044807   0.475320  -0.071208
    11  C    0.003621  -0.047786  -0.009019   0.475320   4.586723   0.417614
    12  C   -0.047187   0.293956  -0.027492  -0.071208   0.417614   5.315982
    13  C   -0.006812  -0.049311  -0.009595  -0.047876   0.016801   0.392016
    14  C   -0.000154   0.008886   0.487820  -0.031429  -0.050374  -0.075307
    15  H    0.000000   0.000004   0.375797  -0.034180   0.003625   0.000208
    16  H    0.000001  -0.000149  -0.037052   0.359337  -0.032165   0.006357
    17  H    0.000001  -0.000157  -0.036913   0.004629   0.000507   0.006430
    18  F   -0.000194  -0.003478   0.003015  -0.045604   0.305416  -0.051176
    19  F   -0.002496   0.004412   0.002958  -0.000071   0.002380  -0.058919
    20  H   -0.000453  -0.000026   0.000000   0.000000   0.000000   0.000004
    21  H    0.000100   0.000021   0.000000   0.000000   0.000000   0.000000
    22  H    0.002782   0.000080   0.000000   0.000000  -0.000005  -0.000248
    23  H   -0.005955   0.000006   0.000000   0.000000   0.000000   0.000029
    24  H    0.004361  -0.000144   0.000000   0.000000   0.000000   0.000003
    25  H    0.005052  -0.000118   0.000000   0.000000   0.000000   0.000006
    26  H   -0.000249   0.000010   0.000000   0.000000   0.000000   0.000000
    27  H    0.000200  -0.000056   0.000000   0.000000   0.000000  -0.000002
    28  H    0.065798  -0.002562  -0.000002  -0.000011   0.000747   0.000612
    29  H   -0.040503   0.378944  -0.000027   0.000420  -0.008136  -0.028788
    30  H   -0.047328   0.359427  -0.000006  -0.000217   0.005038  -0.031612
    31  H   -0.052050  -0.008826   0.000000   0.000000   0.000037   0.000905
    32  C   -0.002238  -0.000941   0.000000  -0.000002  -0.000038   0.000056
    33  H    0.005270  -0.001134  -0.000001   0.000018   0.000459  -0.000588
    34  H   -0.000107   0.000064   0.000000   0.000000  -0.000001   0.000001
    35  H   -0.000071  -0.000497   0.000000   0.000000  -0.000008   0.000032
    36  H    0.332292  -0.033786  -0.000014   0.000009  -0.000321  -0.009515
              13         14         15         16         17         18
     1  C   -0.000031  -0.000001   0.000000   0.000000   0.000000   0.000000
     2  C   -0.000040   0.000000   0.000000   0.000000   0.000000   0.000000
     3  C    0.000239   0.000006   0.000000   0.000000   0.000000  -0.000008
     4  C    0.000010   0.000000   0.000000   0.000000   0.000000   0.000014
     5  C    0.000000   0.000000   0.000000   0.000000   0.000000   0.000000
     6  O    0.000011   0.000000   0.000000   0.000000   0.000000  -0.000002
     7  N   -0.006812  -0.000154   0.000000   0.000001   0.000001  -0.000194
     8  C   -0.049311   0.008886   0.000004  -0.000149  -0.000157  -0.003478
     9  C   -0.009595   0.487820   0.375797  -0.037052  -0.036913   0.003015
    10  C   -0.047876  -0.031429  -0.034180   0.359337   0.004629  -0.045604
    11  C    0.016801  -0.050374   0.003625  -0.032165   0.000507   0.305416
    12  C    0.392016  -0.075307   0.000208   0.006357   0.006430  -0.051176
    13  C    4.616608   0.478070   0.003634   0.000497  -0.032668   0.002514
    14  C    0.478070   5.051216  -0.034814   0.004681   0.359177  -0.000044
    15  H    0.003634  -0.034814   0.577901  -0.005877  -0.005914  -0.000023
    16  H    0.000497   0.004681  -0.005877   0.590226  -0.000149  -0.000518
    17  H   -0.032668   0.359177  -0.005914  -0.000149   0.591467   0.000001
    18  F    0.002514  -0.000044  -0.000023  -0.000518   0.000001   9.064857
    19  F    0.307570  -0.047612  -0.000022   0.000001  -0.000427   0.000000
    20  H    0.000000   0.000000   0.000000   0.000000   0.000000   0.000000
    21  H    0.000000   0.000000   0.000000   0.000000   0.000000   0.000000
    22  H    0.000206   0.000011   0.000000   0.000000   0.000000   0.000000
    23  H   -0.000009   0.000000   0.000000   0.000000   0.000000   0.000000
    24  H    0.000000   0.000000   0.000000   0.000000   0.000000   0.000000
    25  H    0.000000   0.000000   0.000000   0.000000   0.000000   0.000000
    26  H    0.000000   0.000000   0.000000   0.000000   0.000000   0.000000
    27  H    0.000000   0.000000   0.000000   0.000000   0.000000   0.000000
    28  H   -0.000151  -0.000008   0.000000   0.000000   0.000000   0.000018
    29  H    0.005337  -0.000160   0.000000  -0.000008   0.000002   0.008948
    30  H   -0.011476  -0.000029   0.000000   0.000003   0.000000   0.000200
    31  H   -0.000075   0.000000   0.000000   0.000000   0.000000  -0.000002
    32  C   -0.000004   0.000000   0.000000   0.000000   0.000000  -0.000711
    33  H   -0.000012   0.000000   0.000000   0.000000   0.000000   0.003648
    34  H    0.000000   0.000000   0.000000   0.000000   0.000000   0.000000
    35  H    0.000000   0.000000   0.000000   0.000000   0.000000  -0.000011
    36  H    0.005020  -0.000072   0.000000   0.000000   0.000002  -0.000012
              19         20         21         22         23         24
     1  C   -0.000371   0.386391   0.380506   0.380987  -0.041767  -0.037698
     2  C   -0.000011  -0.035761  -0.027308  -0.036267   0.381358   0.380590
     3  C    0.000016  -0.005831   0.004079  -0.005022  -0.031299  -0.033512
     4  C    0.000000  -0.000027  -0.000134   0.000156  -0.007052  -0.002950
     5  C    0.000000   0.000003   0.000002  -0.000014   0.001635  -0.000523
     6  O    0.000000   0.000000   0.000000   0.000001   0.000166   0.000039
     7  N   -0.002496  -0.000453   0.000100   0.002782  -0.005955   0.004361
     8  C    0.004412  -0.000026   0.000021   0.000080   0.000006  -0.000144
     9  C    0.002958   0.000000   0.000000   0.000000   0.000000   0.000000
    10  C   -0.000071   0.000000   0.000000   0.000000   0.000000   0.000000
    11  C    0.002380   0.000000   0.000000  -0.000005   0.000000   0.000000
    12  C   -0.058919   0.000004   0.000000  -0.000248   0.000029   0.000003
    13  C    0.307570   0.000000   0.000000   0.000206  -0.000009   0.000000
    14  C   -0.047612   0.000000   0.000000   0.000011   0.000000   0.000000
    15  H   -0.000022   0.000000   0.000000   0.000000   0.000000   0.000000
    16  H    0.000001   0.000000   0.000000   0.000000   0.000000   0.000000
    17  H   -0.000427   0.000000   0.000000   0.000000   0.000000   0.000000
    18  F    0.000000   0.000000   0.000000   0.000000   0.000000   0.000000
    19  F    9.069948  -0.000002   0.000001   0.002160  -0.000001   0.000000
    20  H   -0.000002   0.601898  -0.030506  -0.032490   0.005532  -0.004468
    21  H    0.000001  -0.030506   0.600004  -0.029604  -0.002696  -0.004174
    22  H    0.002160  -0.032490  -0.029604   0.609401  -0.006076   0.005598
    23  H   -0.000001   0.005532  -0.002696  -0.006076   0.621906  -0.035082
    24  H    0.000000  -0.004468  -0.004174   0.005598  -0.035082   0.620532
    25  H    0.000000   0.000003  -0.000010   0.000000   0.000053   0.004721
    26  H    0.000000   0.000000   0.000000   0.000000  -0.000056  -0.000033
    27  H    0.000000   0.000000   0.000006   0.000011   0.001479   0.000668
    28  H   -0.000003   0.000000   0.000000  -0.000021   0.000544  -0.000068
    29  H    0.000171   0.000000   0.000000   0.000040  -0.000020   0.000017
    30  H    0.003548   0.000438  -0.000024  -0.000233   0.000089  -0.000048
    31  H   -0.000003   0.006312   0.000034  -0.000856   0.006263  -0.003271
    32  C    0.000000  -0.000009   0.000002   0.000002  -0.000050   0.000136
    33  H    0.000000   0.000000   0.000000  -0.000001   0.000000   0.000001
    34  H    0.000000   0.000000   0.000000   0.000000   0.000003  -0.000007
    35  H    0.000000  -0.000001   0.000000   0.000000   0.000001  -0.000006
    36  H    0.006745  -0.000026  -0.000331   0.005926   0.001697   0.000248
              25         26         27         28         29         30
     1  C    0.000080   0.000000  -0.000117  -0.000010   0.000000   0.000691
     2  C   -0.006619  -0.000030   0.003990   0.000307   0.000066   0.000715
     3  C   -0.042292   0.005505  -0.013199  -0.002833  -0.002348  -0.006216
     4  C    0.360498  -0.026941  -0.045797  -0.011425   0.000735  -0.000650
     5  C   -0.032870   0.376976   0.369935  -0.041934   0.000075  -0.000007
     6  O    0.003440  -0.042338  -0.046759   0.281314   0.000104  -0.000037
     7  N    0.005052  -0.000249   0.000200   0.065798  -0.040503  -0.047328
     8  C   -0.000118   0.000010  -0.000056  -0.002562   0.378944   0.359427
     9  C    0.000000   0.000000   0.000000  -0.000002  -0.000027  -0.000006
    10  C    0.000000   0.000000   0.000000  -0.000011   0.000420  -0.000217
    11  C    0.000000   0.000000   0.000000   0.000747  -0.008136   0.005038
    12  C    0.000006   0.000000  -0.000002   0.000612  -0.028788  -0.031612
    13  C    0.000000   0.000000   0.000000  -0.000151   0.005337  -0.011476
    14  C    0.000000   0.000000   0.000000  -0.000008  -0.000160  -0.000029
    15  H    0.000000   0.000000   0.000000   0.000000   0.000000   0.000000
    16  H    0.000000   0.000000   0.000000   0.000000  -0.000008   0.000003
    17  H    0.000000   0.000000   0.000000   0.000000   0.000002   0.000000
    18  F    0.000000   0.000000   0.000000   0.000018   0.008948   0.000200
    19  F    0.000000   0.000000   0.000000  -0.000003   0.000171   0.003548
    20  H    0.000003   0.000000   0.000000   0.000000   0.000000   0.000438
    21  H   -0.000010   0.000000   0.000006   0.000000   0.000000  -0.000024
    22  H    0.000000   0.000000   0.000011  -0.000021   0.000040  -0.000233
    23  H    0.000053  -0.000056   0.001479   0.000544  -0.000020   0.000089
    24  H    0.004721  -0.000033   0.000668  -0.000068   0.000017  -0.000048
    25  H    0.669796  -0.003294   0.000830   0.000279  -0.000084   0.000024
    26  H   -0.003294   0.660421  -0.055874   0.005257   0.000004   0.000000
    27  H    0.000830  -0.055874   0.704720   0.000603  -0.000006   0.000001
    28  H    0.000279   0.005257   0.000603   0.379200  -0.000659   0.000500
    29  H   -0.000084   0.000004  -0.000006  -0.000659   0.591117  -0.044560
    30  H    0.000024   0.000000   0.000001   0.000500  -0.044560   0.660298
    31  H   -0.001676  -0.000180  -0.000010   0.000736  -0.002077   0.008799
    32  C   -0.040336  -0.010568   0.007209  -0.000022   0.001777   0.000097
    33  H    0.006015  -0.000931   0.000405   0.001238   0.000313   0.000130
    34  H   -0.005152   0.004796  -0.000119  -0.000046  -0.000020  -0.000004
    35  H   -0.003517  -0.000113  -0.000152  -0.000056   0.001199   0.000041
    36  H   -0.000192   0.000016  -0.000111  -0.002324   0.005971  -0.007465
              31         32         33         34         35         36
     1  C   -0.008366  -0.000157   0.000001   0.000002  -0.000005   0.001816
     2  C   -0.040195   0.004908   0.000076  -0.000149   0.000066  -0.008123
     3  C    0.386187  -0.047745  -0.009297   0.004686  -0.005230  -0.038858
     4  C   -0.055988   0.349253  -0.030541  -0.027302  -0.033027   0.003996
     5  C    0.004571  -0.050939  -0.007771  -0.003277   0.004951   0.000303
     6  O   -0.000230  -0.001607   0.010388  -0.000445   0.000195   0.000691
     7  N   -0.052050  -0.002238   0.005270  -0.000107  -0.000071   0.332292
     8  C   -0.008826  -0.000941  -0.001134   0.000064  -0.000497  -0.033786
     9  C    0.000000   0.000000  -0.000001   0.000000   0.000000  -0.000014
    10  C    0.000000  -0.000002   0.000018   0.000000   0.000000   0.000009
    11  C    0.000037  -0.000038   0.000459  -0.000001  -0.000008  -0.000321
    12  C    0.000905   0.000056  -0.000588   0.000001   0.000032  -0.009515
    13  C   -0.000075  -0.000004  -0.000012   0.000000   0.000000   0.005020
    14  C    0.000000   0.000000   0.000000   0.000000   0.000000  -0.000072
    15  H    0.000000   0.000000   0.000000   0.000000   0.000000   0.000000
    16  H    0.000000   0.000000   0.000000   0.000000   0.000000   0.000000
    17  H    0.000000   0.000000   0.000000   0.000000   0.000000   0.000002
    18  F   -0.000002  -0.000711   0.003648   0.000000  -0.000011  -0.000012
    19  F   -0.000003   0.000000   0.000000   0.000000   0.000000   0.006745
    20  H    0.006312  -0.000009   0.000000   0.000000  -0.000001  -0.000026
    21  H    0.000034   0.000002   0.000000   0.000000   0.000000  -0.000331
    22  H   -0.000856   0.000002  -0.000001   0.000000   0.000000   0.005926
    23  H    0.006263  -0.000050   0.000000   0.000003   0.000001   0.001697
    24  H   -0.003271   0.000136   0.000001  -0.000007  -0.000006   0.000248
    25  H   -0.001676  -0.040336   0.006015  -0.005152  -0.003517  -0.000192
    26  H   -0.000180  -0.010568  -0.000931   0.004796  -0.000113   0.000016
    27  H   -0.000010   0.007209   0.000405  -0.000119  -0.000152  -0.000111
    28  H    0.000736  -0.000022   0.001238  -0.000046  -0.000056  -0.002324
    29  H   -0.002077   0.001777   0.000313  -0.000020   0.001199   0.005971
    30  H    0.008799   0.000097   0.000130  -0.000004   0.000041  -0.007465
    31  H    0.667621  -0.005535  -0.000269   0.000010   0.005459   0.003513
    32  C   -0.005535   4.993240   0.375814   0.375393   0.376265  -0.000078
    33  H   -0.000269   0.375814   0.593702  -0.029865  -0.032853  -0.000096
    34  H    0.000010   0.375393  -0.029865   0.613435  -0.031456   0.000007
    35  H    0.005459   0.376265  -0.032853  -0.031456   0.624955  -0.000018
    36  H    0.003513  -0.000078  -0.000096   0.000007  -0.000018   0.468311
 Mulliken charges:
               1
     1  C   -0.329520
     2  C   -0.206131
     3  C    0.089944
     4  C   -0.083621
     5  C    0.078688
     6  O   -0.604844
     7  N   -0.544874
     8  C   -0.097437
     9  C   -0.086088
    10  C   -0.149404
    11  C    0.329728
    12  C   -0.036871
    13  C    0.329527
    14  C   -0.149862
    15  H    0.119662
    16  H    0.114815
    17  H    0.114012
    18  F   -0.286847
    19  F   -0.289969
    20  H    0.109017
    21  H    0.110032
    22  H    0.103475
    23  H    0.109302
    24  H    0.105070
    25  H    0.085363
    26  H    0.087624
    27  H    0.072144
    28  H    0.324982
    29  H    0.132154
    30  H    0.109876
    31  H    0.089163
    32  C   -0.323174
    33  H    0.115878
    34  H    0.099552
    35  H    0.093859
    36  H    0.264777
 Sum of Mulliken charges =   0.00000
 Mulliken charges with hydrogens summed into heavy atoms:
               1
     1  C   -0.006996
     2  C    0.008241
     3  C    0.179108
     4  C    0.001742
     5  C    0.238456
     6  O   -0.279862
     7  N   -0.280097
     8  C    0.144593
     9  C    0.033574
    10  C   -0.034589
    11  C    0.329728
    12  C   -0.036871
    13  C    0.329527
    14  C   -0.035850
    18  F   -0.286847
    19  F   -0.289969
    32  C   -0.013885
 Electronic spatial extent (au):  <R**2>=           4706.8339
 Charge=              0.0000 electrons
 Dipole moment (field-independent basis, Debye):
    X=              1.3256    Y=              2.8473    Z=             -2.0425  Tot=              3.7465
 Quadrupole moment (field-independent basis, Debye-Ang):
   XX=            -85.0472   YY=           -104.9918   ZZ=           -105.9874
   XY=             -5.0320   XZ=              7.6641   YZ=              5.0019
 Traceless Quadrupole moment (field-independent basis, Debye-Ang):
   XX=             13.6283   YY=             -6.3163   ZZ=             -7.3120
   XY=             -5.0320   XZ=              7.6641   YZ=              5.0019
 Octapole moment (field-independent basis, Debye-Ang**2):
  XXX=             52.0937  YYY=              3.2397  ZZZ=            -16.2710  XYY=              9.0868
  XXY=             -2.9970  XXZ=             16.0884  XZZ=             10.6998  YZZ=             14.2996
  YYZ=             -2.6710  XYZ=             -5.7108
 Hexadecapole moment (field-independent basis, Debye-Ang**3):
 XXXX=          -3677.3483 YYYY=          -1583.7482 ZZZZ=           -560.1616 XXXY=            -12.1823
 XXXZ=             82.5229 YYYX=            -13.8415 YYYZ=             25.8312 ZZZX=              1.9680
 ZZZY=             34.5438 XXYY=           -879.6330 XXZZ=           -775.6186 YYZZ=           -369.0821
 XXYZ=             17.7745 YYXZ=             12.1793 ZZXY=             -9.4628
 N-N= 1.291671696466D+03 E-N=-4.537056778315D+03  KE= 8.291832342664D+02
 D1PCM: PCM CHGder 1st derivatives, ID1Alg=3 FixD1E=F DoIter=F DoCFld=F I1PDM=0.
 Calling FoFJK, ICntrl=      2127 FMM=F ISym2X=0 I1Cent= 0 IOpClX= 0 NMat=1 NMatS=1 NMatT=0.
 ***** Axes restored to original set *****
 -------------------------------------------------------------------
 Center     Atomic                   Forces (Hartrees/Bohr)
 Number     Number              X              Y              Z
 -------------------------------------------------------------------
      1        6          -0.002367581   -0.000551013   -0.002537923
      2        6           0.000980467   -0.003695922    0.000196275
      3        6          -0.021325871    0.010961976    0.005726877
      4        6           0.003159188   -0.002330539    0.003763119
      5        6           0.006345966    0.001147821   -0.008718501
      6        8           0.006848885    0.003021969    0.002478877
      7        7           0.002925109   -0.001582458   -0.000914965
      8        6           0.002548749   -0.004306454   -0.002641849
      9        6          -0.004380326   -0.002779722    0.003201016
     10        6           0.005490515    0.001029941    0.006236035
     11        6           0.008008848    0.009234522   -0.019228152
     12        6          -0.006156410   -0.005967798    0.004165729
     13        6           0.023128460    0.009537240    0.006642107
     14        6          -0.002822551    0.000951010   -0.008298813
     15        1          -0.001557103   -0.001013832    0.000701127
     16        1          -0.001156058   -0.000858849    0.000406535
     17        1          -0.001186061   -0.000866576    0.000499857
     18        9          -0.003251151   -0.002642083    0.006254643
     19        9          -0.009241592   -0.003523862   -0.001845058
     20        1           0.000342443   -0.000601172   -0.001051878
     21        1           0.000943781   -0.000516163   -0.001593204
     22        1           0.000813883   -0.001148248   -0.001810745
     23        1           0.001026090    0.001137547    0.002554743
     24        1           0.001520935    0.001526544    0.002023272
     25        1          -0.001384014   -0.000355394   -0.002122793
     26        1          -0.000391794   -0.001372714    0.001643409
     27        1          -0.007633128   -0.002502122   -0.000663918
     28        1          -0.002964061   -0.000727231    0.001555348
     29        1          -0.002713422    0.004862329   -0.001104454
     30        1           0.000340769   -0.002729350   -0.000940417
     31        1           0.002201710   -0.000313097   -0.000272263
     32        6           0.001524521   -0.001354736    0.001423471
     33        1          -0.001022390    0.000489662   -0.000619258
     34        1           0.000593665    0.000270342    0.000042834
     35        1           0.000438305   -0.000660091    0.000381284
     36        1           0.000371222   -0.001771475    0.004467633
 -------------------------------------------------------------------
 Cartesian Forces:  Max     0.023128460 RMS     0.005012635

 GradGradGradGradGradGradGradGradGradGradGradGradGradGradGradGradGradGrad
 Berny optimization.
 FormGI is forming the generalized inverse of G from B-inverse, IUseBI=4.
 Internal  Forces:  Max     0.012306642 RMS     0.002690875
 Search for a local minimum.
 Step number   1 out of a maximum of   50
 All quantities printed in internal units (Hartrees-Bohrs-Radians)
 Mixed Optimization -- RFO/linear search
 Second derivative matrix not updated -- first step.
 ITU=  0
     Eigenvalues ---    0.00230   0.00230   0.00240   0.00302   0.00432
     Eigenvalues ---    0.00677   0.00760   0.00774   0.01404   0.01572
     Eigenvalues ---    0.02146   0.02153   0.02155   0.02160   0.02162
     Eigenvalues ---    0.02167   0.02167   0.02168   0.02899   0.03172
     Eigenvalues ---    0.03461   0.03906   0.04596   0.04709   0.04795
     Eigenvalues ---    0.04866   0.05035   0.05147   0.05340   0.05474
     Eigenvalues ---    0.05564   0.05571   0.05584   0.05684   0.06545
     Eigenvalues ---    0.08402   0.09796   0.10775   0.11775   0.12252
     Eigenvalues ---    0.13159   0.13980   0.16000   0.16000   0.16000
     Eigenvalues ---    0.16000   0.16000   0.16000   0.16000   0.16000
     Eigenvalues ---    0.16000   0.16000   0.16668   0.16890   0.17531
     Eigenvalues ---    0.18056   0.21924   0.21928   0.22004   0.22085
     Eigenvalues ---    0.23490   0.23509   0.24907   0.24996   0.24999
     Eigenvalues ---    0.25000   0.26780   0.27882   0.28541   0.28960
     Eigenvalues ---    0.29865   0.32327   0.33769   0.33830   0.33937
     Eigenvalues ---    0.34019   0.34077   0.34127   0.34186   0.34213
     Eigenvalues ---    0.34232   0.34264   0.34282   0.34313   0.34374
     Eigenvalues ---    0.34383   0.34950   0.35165   0.35272   0.35294
     Eigenvalues ---    0.35817   0.42202   0.42354   0.42495   0.43889
     Eigenvalues ---    0.46353   0.46494   0.46553   0.46622   0.50903
     Eigenvalues ---    0.56878   0.57039
 RFO step:  Lambda=-7.07713116D-03 EMin= 2.30000000D-03
 Linear search not attempted -- first point.
 Iteration  1 RMS(Cart)=  0.08710388 RMS(Int)=  0.00217943
 Iteration  2 RMS(Cart)=  0.00427771 RMS(Int)=  0.00017078
 Iteration  3 RMS(Cart)=  0.00000795 RMS(Int)=  0.00017075
 Iteration  4 RMS(Cart)=  0.00000000 RMS(Int)=  0.00017075
 Variable       Old X    -DE/DX   Delta X   Delta X   Delta X     New X
                                 (Linear)    (Quad)   (Total)
    R1        2.88233   0.00748   0.00000   0.02448   0.02448   2.90681
    R2        2.06857   0.00050   0.00000   0.00142   0.00142   2.06999
    R3        2.06887  -0.00017   0.00000  -0.00047  -0.00047   2.06840
    R4        2.06703   0.00130   0.00000   0.00371   0.00371   2.07074
    R5        2.92398  -0.00210   0.00000  -0.00735  -0.00735   2.91662
    R6        2.07200   0.00051   0.00000   0.00147   0.00147   2.07347
    R7        2.07299  -0.00061   0.00000  -0.00175  -0.00175   2.07123
    R8        2.94886  -0.00280   0.00000  -0.01020  -0.01020   2.93866
    R9        2.79057   0.00794   0.00000   0.02227   0.02227   2.81284
   R10        2.07721   0.00063   0.00000   0.00181   0.00181   2.07902
   R11        2.90970  -0.00099   0.00000  -0.00338  -0.00338   2.90633
   R12        2.07617   0.00052   0.00000   0.00150   0.00150   2.07767
   R13        2.90087   0.00224   0.00000   0.00756   0.00756   2.90843
   R14        2.68667   0.00312   0.00000   0.00727   0.00727   2.69394
   R15        2.06973   0.00129   0.00000   0.00369   0.00369   2.07342
   R16        2.06688   0.00555   0.00000   0.01582   0.01582   2.08270
   R17        1.85665  -0.00198   0.00000  -0.00383  -0.00383   1.85282
   R18        2.77668   0.00574   0.00000   0.01573   0.01573   2.79241
   R19        1.93287  -0.00472   0.00000  -0.01058  -0.01058   1.92230
   R20        2.83550   0.00737   0.00000   0.02232   0.02232   2.85782
   R21        2.07116  -0.00384   0.00000  -0.01102  -0.01102   2.06014
   R22        2.07437   0.00249   0.00000   0.00718   0.00718   2.08155
   R23        2.63464   0.00093   0.00000   0.00219   0.00216   2.63680
   R24        2.63397   0.00171   0.00000   0.00380   0.00377   2.63775
   R25        2.05408  -0.00198   0.00000  -0.00553  -0.00553   2.04855
   R26        2.63560  -0.00322   0.00000  -0.00676  -0.00677   2.62883
   R27        2.05236  -0.00086   0.00000  -0.00238  -0.00238   2.04998
   R28        2.63681   0.00025   0.00000   0.00035   0.00037   2.63718
   R29        2.53363   0.00663   0.00000   0.01148   0.01148   2.54512
   R30        2.63843  -0.00107   0.00000  -0.00250  -0.00247   2.63596
   R31        2.63463  -0.00391   0.00000  -0.00831  -0.00830   2.62633
   R32        2.53500   0.00907   0.00000   0.01575   0.01575   2.55076
   R33        2.05200  -0.00068   0.00000  -0.00188  -0.00188   2.05012
   R34        2.06806  -0.00052   0.00000  -0.00147  -0.00147   2.06658
   R35        2.07018   0.00000   0.00000   0.00000   0.00000   2.07018
   R36        2.06940   0.00069   0.00000   0.00196   0.00196   2.07136
    A1        1.93575   0.00072   0.00000   0.00355   0.00353   1.93928
    A2        1.91928   0.00212   0.00000   0.01443   0.01436   1.93364
    A3        1.95299   0.00178   0.00000   0.00961   0.00956   1.96255
    A4        1.88376  -0.00121   0.00000  -0.00523  -0.00528   1.87848
    A5        1.89086  -0.00176   0.00000  -0.01369  -0.01368   1.87718
    A6        1.87894  -0.00188   0.00000  -0.00991  -0.01000   1.86894
    A7        1.97458   0.00244   0.00000   0.01350   0.01355   1.98813
    A8        1.89688   0.00103   0.00000   0.01405   0.01417   1.91105
    A9        1.88428   0.00106   0.00000   0.02079   0.02082   1.90510
   A10        1.93445  -0.00277   0.00000  -0.02670  -0.02687   1.90758
   A11        1.90708  -0.00190   0.00000  -0.01418  -0.01452   1.89255
   A12        1.86261   0.00012   0.00000  -0.00741  -0.00796   1.85464
   A13        1.93548   0.00432   0.00000   0.03495   0.03485   1.97034
   A14        1.92728  -0.00072   0.00000   0.00586   0.00564   1.93291
   A15        1.85770  -0.00038   0.00000   0.00224   0.00239   1.86010
   A16        1.93796  -0.00164   0.00000  -0.00352  -0.00405   1.93391
   A17        1.87378  -0.00123   0.00000  -0.01510  -0.01537   1.85841
   A18        1.92936  -0.00029   0.00000  -0.02505  -0.02519   1.90416
   A19        1.98929  -0.00201   0.00000  -0.01671  -0.01675   1.97254
   A20        1.87207  -0.00069   0.00000  -0.01417  -0.01424   1.85783
   A21        1.94627   0.00111   0.00000   0.00516   0.00520   1.95147
   A22        1.86725   0.00063   0.00000   0.00432   0.00405   1.87130
   A23        1.92106   0.00060   0.00000   0.00520   0.00518   1.92624
   A24        1.86093   0.00045   0.00000   0.01802   0.01800   1.87894
   A25        1.96168   0.00141   0.00000   0.01090   0.01075   1.97244
   A26        1.92308  -0.00213   0.00000  -0.02902  -0.02936   1.89372
   A27        1.94327  -0.00385   0.00000  -0.02004  -0.02079   1.92248
   A28        1.87568  -0.00049   0.00000  -0.00862  -0.00858   1.86711
[...]
    31  H   -0.007758  -0.042770   0.383535  -0.057704   0.004937  -0.000254
    32  C   -0.000142   0.004681  -0.045239   0.352974  -0.049795  -0.003607
    33  H    0.000002   0.000047  -0.008556  -0.032439  -0.008956   0.013239
    34  H    0.000002  -0.000143   0.004514  -0.027300  -0.002624  -0.000335
    35  H   -0.000006   0.000062  -0.005689  -0.032142   0.004819   0.000204
    36  H    0.001628  -0.007643  -0.039532   0.004099   0.000255   0.000559
               7          8          9         10         11         12
     1  C   -0.004529   0.000034   0.000000   0.000000   0.000000   0.000052
     2  C   -0.042049   0.002357   0.000000   0.000000   0.000001  -0.000243
     3  C    0.250979  -0.027500   0.000000   0.000002  -0.000107   0.004524
     4  C   -0.062529   0.000680   0.000000   0.000000   0.000007  -0.000319
     5  C   -0.001908   0.000092   0.000000   0.000000  -0.000007   0.000009
     6  O   -0.029401   0.000670   0.000000   0.000001  -0.000024  -0.000073
     7  N    6.955186   0.270705   0.000022  -0.000066   0.003156  -0.040088
     8  C    0.270705   4.937059  -0.000720   0.007834  -0.046448   0.299974
     9  C    0.000022  -0.000720   4.861685   0.482550  -0.003816  -0.027363
    10  C   -0.000066   0.007834   0.482550   5.043066   0.473643  -0.074860
    11  C    0.003156  -0.046448  -0.003816   0.473643   4.591891   0.419114
    12  C   -0.040088   0.299974  -0.027363  -0.074860   0.419114   5.306295
    13  C   -0.006536  -0.052103  -0.005053  -0.047184   0.021200   0.386204
    14  C   -0.000132   0.008491   0.484099  -0.035813  -0.048900  -0.081336
    15  H    0.000000   0.000005   0.374195  -0.033621   0.003518   0.000441
    16  H    0.000001  -0.000121  -0.036237   0.362448  -0.031949   0.006103
    17  H    0.000001  -0.000135  -0.035777   0.004312   0.000356   0.006141
    18  F   -0.000163  -0.004660   0.002999  -0.044535   0.297283  -0.049937
    19  F   -0.003436   0.004781   0.002824  -0.000017   0.002526  -0.058428
    20  H   -0.000239   0.000007   0.000000   0.000000   0.000000  -0.000001
    21  H    0.000095   0.000012   0.000000   0.000000   0.000000   0.000000
    22  H    0.002525   0.000318   0.000000   0.000000  -0.000006  -0.000361
    23  H   -0.005965  -0.000020   0.000000   0.000000   0.000000   0.000028
    24  H    0.004341  -0.000142   0.000000   0.000000   0.000000   0.000003
    25  H    0.005106  -0.000119   0.000000   0.000000   0.000000   0.000005
    26  H   -0.000221   0.000004   0.000000   0.000000   0.000000   0.000000
    27  H    0.000431  -0.000033   0.000000   0.000000   0.000001  -0.000004
    28  H    0.066143  -0.002792  -0.000003  -0.000008   0.000730   0.000483
    29  H   -0.044157   0.376095  -0.000025   0.000368  -0.008029  -0.028214
    30  H   -0.046379   0.358228   0.000007  -0.000199   0.004533  -0.028514
    31  H   -0.053358  -0.008936   0.000000   0.000000   0.000017   0.000817
    32  C   -0.001317  -0.001264   0.000000  -0.000001  -0.000036   0.000071
    33  H    0.004629  -0.001934   0.000000   0.000007   0.000227  -0.000245
    34  H   -0.000113   0.000083   0.000000   0.000000   0.000000   0.000000
    35  H   -0.000104  -0.000329   0.000000   0.000000  -0.000004   0.000035
    36  H    0.334607  -0.037531  -0.000014   0.000007  -0.000165  -0.010489
              13         14         15         16         17         18
     1  C   -0.000037  -0.000002   0.000000   0.000000   0.000000   0.000000
     2  C   -0.000052   0.000000   0.000000   0.000000   0.000000   0.000000
     3  C    0.000293   0.000006   0.000000   0.000000   0.000000   0.000000
     4  C    0.000007   0.000000   0.000000   0.000000   0.000000   0.000006
     5  C    0.000000   0.000000   0.000000   0.000000   0.000000   0.000000
     6  O    0.000011   0.000000   0.000000   0.000000   0.000000  -0.000006
     7  N   -0.006536  -0.000132   0.000000   0.000001   0.000001  -0.000163
     8  C   -0.052103   0.008491   0.000005  -0.000121  -0.000135  -0.004660
     9  C   -0.005053   0.484099   0.374195  -0.036237  -0.035777   0.002999
    10  C   -0.047184  -0.035813  -0.033621   0.362448   0.004312  -0.044535
    11  C    0.021200  -0.048900   0.003518  -0.031949   0.000356   0.297283
    12  C    0.386204  -0.081336   0.000441   0.006103   0.006141  -0.049937
    13  C    4.632086   0.481095   0.003521   0.000333  -0.032127   0.002749
    14  C    0.481095   5.044428  -0.034532   0.004413   0.361766   0.000009
    15  H    0.003521  -0.034532   0.577862  -0.005627  -0.005595  -0.000024
    16  H    0.000333   0.004413  -0.005627   0.581624  -0.000129  -0.000623
    17  H   -0.032127   0.361766  -0.005595  -0.000129   0.582209   0.000001
    18  F    0.002749   0.000009  -0.000024  -0.000623   0.000001   9.081906
    19  F    0.293975  -0.046149  -0.000024   0.000001  -0.000448  -0.000001
    20  H    0.000001   0.000000   0.000000   0.000000   0.000000   0.000000
    21  H    0.000000   0.000000   0.000000   0.000000   0.000000   0.000000
    22  H    0.000286   0.000023   0.000000   0.000000   0.000000   0.000000
    23  H   -0.000011   0.000000   0.000000   0.000000   0.000000   0.000000
    24  H    0.000001   0.000000   0.000000   0.000000   0.000000   0.000000
    25  H    0.000000   0.000000   0.000000   0.000000   0.000000   0.000000
    26  H    0.000000   0.000000   0.000000   0.000000   0.000000   0.000000
    27  H    0.000000   0.000000   0.000000   0.000000   0.000000   0.000000
    28  H   -0.000139  -0.000007   0.000000   0.000000   0.000000   0.000099
    29  H    0.005817  -0.000144   0.000000  -0.000008   0.000001   0.010028
    30  H   -0.011017  -0.000144   0.000000   0.000002   0.000000   0.000209
    31  H   -0.000071  -0.000001   0.000000   0.000000   0.000000   0.000000
    32  C   -0.000004   0.000000   0.000000   0.000000   0.000000  -0.000230
    33  H   -0.000008   0.000000   0.000000   0.000000   0.000000   0.001275
    34  H    0.000000   0.000000   0.000000   0.000000   0.000000  -0.000001
    35  H    0.000000   0.000000   0.000000   0.000000   0.000000  -0.000002
    36  H    0.004630  -0.000139   0.000000   0.000000   0.000004  -0.000013
              19         20         21         22         23         24
     1  C   -0.000857   0.385796   0.380286   0.378576  -0.040101  -0.035389
     2  C   -0.000022  -0.034362  -0.026381  -0.036003   0.379434   0.380567
     3  C    0.000002  -0.005207   0.003825  -0.005029  -0.034038  -0.035441
     4  C   -0.000001  -0.000034  -0.000123   0.000166  -0.006598  -0.003149
     5  C    0.000000   0.000002   0.000002  -0.000014   0.001577  -0.000485
     6  O    0.000000   0.000000   0.000000   0.000001  -0.000016   0.000032
     7  N   -0.003436  -0.000239   0.000095   0.002525  -0.005965   0.004341
     8  C    0.004781   0.000007   0.000012   0.000318  -0.000020  -0.000142
     9  C    0.002824   0.000000   0.000000   0.000000   0.000000   0.000000
    10  C   -0.000017   0.000000   0.000000   0.000000   0.000000   0.000000
    11  C    0.002526   0.000000   0.000000  -0.000006   0.000000   0.000000
    12  C   -0.058428  -0.000001   0.000000  -0.000361   0.000028   0.000003
    13  C    0.293975   0.000001   0.000000   0.000286  -0.000011   0.000001
    14  C   -0.046149   0.000000   0.000000   0.000023   0.000000   0.000000
    15  H   -0.000024   0.000000   0.000000   0.000000   0.000000   0.000000
    16  H    0.000001   0.000000   0.000000   0.000000   0.000000   0.000000
    17  H   -0.000448   0.000000   0.000000   0.000000   0.000000   0.000000
    18  F   -0.000001   0.000000   0.000000   0.000000   0.000000   0.000000
    19  F    9.089903   0.000000   0.000003   0.004599  -0.000003   0.000000
    20  H    0.000000   0.600519  -0.030726  -0.032361   0.005236  -0.004975
    21  H    0.000003  -0.030726   0.598370  -0.029843  -0.003239  -0.002900
    22  H    0.004599  -0.032361  -0.029843   0.607249  -0.004886   0.005190
    23  H   -0.000003   0.005236  -0.003239  -0.004886   0.624170  -0.035509
    24  H    0.000000  -0.004975  -0.002900   0.005190  -0.035509   0.618536
    25  H    0.000000   0.000000  -0.000009   0.000001   0.000105   0.005158
    26  H    0.000000   0.000000   0.000000   0.000000  -0.000090  -0.000037
    27  H    0.000000   0.000000   0.000004   0.000008   0.002138   0.000676
    28  H   -0.000002   0.000000   0.000000  -0.000018   0.000589  -0.000062
    29  H    0.000185   0.000003   0.000000   0.000040  -0.000022   0.000014
    30  H    0.002908   0.000147  -0.000012  -0.000333   0.000084  -0.000036
    31  H   -0.000005   0.005726   0.000054  -0.001028   0.006708  -0.002747
    32  C    0.000000  -0.000009   0.000002   0.000002  -0.000063   0.000144
    33  H    0.000000   0.000000   0.000000  -0.000001   0.000002   0.000001
    34  H    0.000000   0.000000   0.000000   0.000000   0.000003  -0.000008
    35  H    0.000000  -0.000001   0.000000   0.000000   0.000002  -0.000003
    36  H    0.008989  -0.000052  -0.000356   0.005979   0.001739   0.000211
              25         26         27         28         29         30
     1  C    0.000104   0.000000  -0.000096  -0.000005  -0.000014   0.000563
     2  C   -0.007182   0.000006   0.003481   0.000099  -0.000001   0.000627
     3  C   -0.044653   0.005570  -0.013468  -0.001920  -0.001147  -0.006970
     4  C    0.360754  -0.029236  -0.049919  -0.011016   0.000753  -0.000752
     5  C   -0.032020   0.377977   0.367213  -0.041677   0.000084   0.000001
     6  O    0.003367  -0.041463  -0.041406   0.278468   0.000193  -0.000043
     7  N    0.005106  -0.000221   0.000431   0.066143  -0.044157  -0.046379
     8  C   -0.000119   0.000004  -0.000033  -0.002792   0.376095   0.358228
     9  C    0.000000   0.000000   0.000000  -0.000003  -0.000025   0.000007
    10  C    0.000000   0.000000   0.000000  -0.000008   0.000368  -0.000199
    11  C    0.000000   0.000000   0.000001   0.000730  -0.008029   0.004533
    12  C    0.000005   0.000000  -0.000004   0.000483  -0.028214  -0.028514
    13  C    0.000000   0.000000   0.000000  -0.000139   0.005817  -0.011017
    14  C    0.000000   0.000000   0.000000  -0.000007  -0.000144  -0.000144
    15  H    0.000000   0.000000   0.000000   0.000000   0.000000   0.000000
    16  H    0.000000   0.000000   0.000000   0.000000  -0.000008   0.000002
    17  H    0.000000   0.000000   0.000000   0.000000   0.000001   0.000000
    18  F    0.000000   0.000000   0.000000   0.000099   0.010028   0.000209
    19  F    0.000000   0.000000   0.000000  -0.000002   0.000185   0.002908
    20  H    0.000000   0.000000   0.000000   0.000000   0.000003   0.000147
    21  H   -0.000009   0.000000   0.000004   0.000000   0.000000  -0.000012
    22  H    0.000001   0.000000   0.000008  -0.000018   0.000040  -0.000333
    23  H    0.000105  -0.000090   0.002138   0.000589  -0.000022   0.000084
    24  H    0.005158  -0.000037   0.000676  -0.000062   0.000014  -0.000036
    25  H    0.668573  -0.003553   0.001339   0.000200  -0.000059   0.000024
    26  H   -0.003553   0.656704  -0.053560   0.005903   0.000007   0.000000
    27  H    0.001339  -0.053560   0.706924  -0.001318  -0.000014   0.000001
    28  H    0.000200   0.005903  -0.001318   0.383112  -0.001112   0.000554
    29  H   -0.000059   0.000007  -0.000014  -0.001112   0.595452  -0.044847
    30  H    0.000024   0.000000   0.000001   0.000554  -0.044847   0.654810
    31  H   -0.001175  -0.000200   0.000011   0.000789  -0.001863   0.010364
    32  C   -0.039141  -0.009340   0.006977  -0.000209   0.002016   0.000112
    33  H    0.006011  -0.000889   0.000516   0.000689   0.001357   0.000143
    34  H   -0.005535   0.004404  -0.000108  -0.000031  -0.000026  -0.000005
    35  H   -0.002676  -0.000117  -0.000150  -0.000045   0.000867   0.000070
    36  H   -0.000196   0.000013  -0.000096  -0.001760   0.006040  -0.005166
              31         32         33         34         35         36
     1  C   -0.007758  -0.000142   0.000002   0.000002  -0.000006   0.001628
     2  C   -0.042770   0.004681   0.000047  -0.000143   0.000062  -0.007643
     3  C    0.383535  -0.045239  -0.008556   0.004514  -0.005689  -0.039532
     4  C   -0.057704   0.352974  -0.032439  -0.027300  -0.032142   0.004099
     5  C    0.004937  -0.049795  -0.008956  -0.002624   0.004819   0.000255
     6  O   -0.000254  -0.003607   0.013239  -0.000335   0.000204   0.000559
     7  N   -0.053358  -0.001317   0.004629  -0.000113  -0.000104   0.334607
     8  C   -0.008936  -0.001264  -0.001934   0.000083  -0.000329  -0.037531
     9  C    0.000000   0.000000   0.000000   0.000000   0.000000  -0.000014
    10  C    0.000000  -0.000001   0.000007   0.000000   0.000000   0.000007
    11  C    0.000017  -0.000036   0.000227   0.000000  -0.000004  -0.000165
    12  C    0.000817   0.000071  -0.000245   0.000000   0.000035  -0.010489
    13  C   -0.000071  -0.000004  -0.000008   0.000000   0.000000   0.004630
    14  C   -0.000001   0.000000   0.000000   0.000000   0.000000  -0.000139
    15  H    0.000000   0.000000   0.000000   0.000000   0.000000   0.000000
    16  H    0.000000   0.000000   0.000000   0.000000   0.000000   0.000000
    17  H    0.000000   0.000000   0.000000   0.000000   0.000000   0.000004
    18  F    0.000000  -0.000230   0.001275  -0.000001  -0.000002  -0.000013
    19  F   -0.000005   0.000000   0.000000   0.000000   0.000000   0.008989
    20  H    0.005726  -0.000009   0.000000   0.000000  -0.000001  -0.000052
    21  H    0.000054   0.000002   0.000000   0.000000   0.000000  -0.000356
    22  H   -0.001028   0.000002  -0.000001   0.000000   0.000000   0.005979
    23  H    0.006708  -0.000063   0.000002   0.000003   0.000002   0.001739
    24  H   -0.002747   0.000144   0.000001  -0.000008  -0.000003   0.000211
    25  H   -0.001175  -0.039141   0.006011  -0.005535  -0.002676  -0.000196
    26  H   -0.000200  -0.009340  -0.000889   0.004404  -0.000117   0.000013
    27  H    0.000011   0.006977   0.000516  -0.000108  -0.000150  -0.000096
    28  H    0.000789  -0.000209   0.000689  -0.000031  -0.000045  -0.001760
    29  H   -0.001863   0.002016   0.001357  -0.000026   0.000867   0.006040
    30  H    0.010364   0.000112   0.000143  -0.000005   0.000070  -0.005166
    31  H    0.678369  -0.006427  -0.000275   0.000015   0.005995   0.003442
    32  C   -0.006427   4.983014   0.377955   0.375546   0.376553  -0.000118
    33  H   -0.000275   0.377955   0.591710  -0.029687  -0.032756  -0.000073
    34  H    0.000015   0.375546  -0.029687   0.611951  -0.031433   0.000007
    35  H    0.005995   0.376553  -0.032756  -0.031433   0.621577  -0.000015
    36  H    0.003442  -0.000118  -0.000073   0.000007  -0.000015   0.467728
 Mulliken charges:
               1
     1  C   -0.331635
     2  C   -0.207850
     3  C    0.092685
     4  C   -0.081413
     5  C    0.071917
     6  O   -0.595664
     7  N   -0.555236
     8  C   -0.082640
     9  C   -0.099371
    10  C   -0.137935
    11  C    0.321286
    12  C   -0.029825
    13  C    0.322138
    14  C   -0.137031
    15  H    0.119880
    16  H    0.119769
    17  H    0.119420
    18  F   -0.296368
    19  F   -0.301305
    20  H    0.110529
    21  H    0.110936
    22  H    0.104917
    23  H    0.108746
    24  H    0.106008
    25  H    0.085573
    26  H    0.088122
    27  H    0.070451
    28  H    0.324265
    29  H    0.130361
    30  H    0.111032
    31  H    0.083794
    32  C   -0.323103
    33  H    0.118009
    34  H    0.100826
    35  H    0.095290
    36  H    0.263423
 Sum of Mulliken charges =   0.00000
 Mulliken charges with hydrogens summed into heavy atoms:
               1
     1  C   -0.005254
     2  C    0.006904
     3  C    0.176479
     4  C    0.004160
     5  C    0.230491
     6  O   -0.271399
     7  N   -0.291812
     8  C    0.158753
     9  C    0.020509
    10  C   -0.018167
    11  C    0.321286
    12  C   -0.029825
    13  C    0.322138
    14  C   -0.017611
    18  F   -0.296368
    19  F   -0.301305
    32  C   -0.008978
 Electronic spatial extent (au):  <R**2>=           4742.7320
 Charge=              0.0000 electrons
 Dipole moment (field-independent basis, Debye):
    X=              1.5396    Y=              3.0899    Z=             -1.7398  Tot=              3.8659
 Quadrupole moment (field-independent basis, Debye-Ang):
   XX=            -83.8493   YY=           -105.9998   ZZ=           -105.2623
   XY=             -4.7899   XZ=              7.1973   YZ=              5.2359
 Traceless Quadrupole moment (field-independent basis, Debye-Ang):
   XX=             14.5211   YY=             -7.6293   ZZ=             -6.8919
   XY=             -4.7899   XZ=              7.1973   YZ=              5.2359
 Octapole moment (field-independent basis, Debye-Ang**2):
  XXX=             57.3252  YYY=              6.8349  ZZZ=            -13.4086  XYY=             11.5699
  XXY=             -0.9800  XXZ=             17.1225  XZZ=              8.8636  YZZ=             12.6201
  YYZ=             -3.6771  XYZ=             -5.8689
 Hexadecapole moment (field-independent basis, Debye-Ang**3):
 XXXX=          -3705.1002 YYYY=          -1611.3671 ZZZZ=           -527.8041 XXXY=             -6.7506
 XXXZ=             79.7186 YYYX=            -17.8110 YYYZ=             26.8296 ZZZX=             -4.1798
 ZZZY=             25.7883 XXYY=           -891.1127 XXZZ=           -782.4627 YYZZ=           -368.6581
 XXYZ=             16.7926 YYXZ=             17.7238 ZZXY=            -11.2901
 N-N= 1.289042636141D+03 E-N=-4.531793690291D+03  KE= 8.290897440274D+02
 1\1\GINC-SWANNODE-0-8\FOpt\RB3LYP\6-31G(d,p)\C13H19F2N1O1\ROOT\06-Mar-
 2019\0\\# b3lyp/6-31g(d,p) Opt=(maxcycles=50) scrf=(solvent=chloroform
 )\\AT3_1ginp003\\0,1\C,-1.9151707903,0.4744020198,0.0200815951\C,-1.93
 68063117,1.2183043993,1.3616328083\C,-0.6956567505,0.9558159882,2.2350
 955114\C,-0.8865657764,1.4087777483,3.708739631\C,-0.9881907436,2.9408
 133346,3.8502995243\O,0.2336830691,3.606726758,3.5612868533\N,0.499051
 6041,1.6097050844,1.6237509042\C,1.6733054016,0.7282893018,1.482798673
 1\C,4.9237885887,2.8035419682,-0.4932916783\C,5.0019837776,2.553673834
 9,0.8770688922\C,3.9466743396,1.8892087843,1.4918597157\C,2.8135354278
 ,1.4482290497,0.8065477767\C,2.790268839,1.7342379951,-0.5594466219\C,
 3.8094893452,2.3953075416,-1.2297018719\H,5.7354863602,3.3227722882,-0
 .9917089318\H,5.8552002129,2.8643995674,1.4686466544\H,3.7226091664,2.
 5818712378,-2.2936764392\F,4.0217195034,1.6478023262,2.8205482017\F,1.
 6924063336,1.3437914652,-1.2591866339\H,-1.8987244644,-0.610130277,0.1
 739048649\H,-2.8023523613,0.7150075799,-0.573531368\H,-1.0388619328,0.
 7336372875,-0.5845668836\H,-2.035410087,2.2973128699,1.1847109192\H,-2
 .8286919321,0.9193042109,1.924148478\H,-1.8508629992,0.9932645839,4.03
 52240176\H,-1.2569425503,3.1887051587,4.8850824444\H,-1.8064835487,3.3
 192205315,3.2148420328\H,0.5834485673,3.1322924312,2.7752741562\H,1.99
 37429989,0.4078733852,2.4742105132\H,1.4287305782,-0.1795790945,0.9094
 678223\H,-0.5369935038,-0.1352558031,2.2485669573\C,0.2044332925,0.854
 1035634,4.6370496069\H,1.1731476217,1.3142250391,4.4250689536\H,-0.035
 3195079,1.071695942,5.6835417335\H,0.3033716837,-0.2321395779,4.534940
 5132\H,0.2530105484,1.9331184764,0.691677674\\Version=EM64L-G09RevD.01
 \State=1-A\HF=-836.4996567\RMSD=3.528e-09\RMSF=3.206e-06\Dipole=0.1293
 851,-0.8843174,-1.2306788\Quadrupole=8.459301,-5.4862653,-2.9730357,5.
 2257271,-4.1563346,-6.6429633\PG=C01 [X(C13H19F2N1O1)]\\@


 TO DETECT ERRORS, THE PROGRAMMER MUST HAVE A CONNIVING MIND,
 ONE THAT DELIGHTS IN UNCOVERING FLAWS WHERE BEAUTY AND
 PERFECTION WERE ONCE THOUGHT TO LIE.

             -- THE PSYCHOLOGY OF COMPUTER PROGRAMMING
                GERALD M. WEINBERG
 Job cpu time:       0 days 10 hours 39 minutes 15.8 seconds.
 File lengths (MBytes):  RWF=    279 Int=      0 D2E=      0 Chk=     13 Scr=      1
 Normal termination of Gaussian 09 at Wed Mar  6 15:38:36 2019.
