 Entering Gaussian System, Link 0=/usr/local/shared/gaussian/em64t/09-D01/g09/g09
 Initial command:
 /usr/local/shared/gaussian/em64t/09-D01/g09/l1.exe "/scratch/ke291/AT3_1ginp019/Gau-19421.inp" -scrdir="/scratch/ke291/AT3_1ginp019/"
 Entering Link 1 = /usr/local/shared/gaussian/em64t/09-D01/g09/l1.exe PID=     19427.
  
 Copyright (c) 1988,1990,1992,1993,1995,1998,2003,2009,2013,
            Gaussian, Inc.  All Rights Reserved.
  
 This is part of the Gaussian(R) 09 program.  It is based on
 the Gaussian(R) 03 system (copyright 2003, Gaussian, Inc.),
 the Gaussian(R) 98 system (copyright 1998, Gaussian, Inc.),
 the Gaussian(R) 94 system (copyright 1995, Gaussian, Inc.),
 the Gaussian 92(TM) system (copyright 1992, Gaussian, Inc.),
 the Gaussian 90(TM) system (copyright 1990, Gaussian, Inc.),
 the Gaussian 88(TM) system (copyright 1988, Gaussian, Inc.),
 the Gaussian 86(TM) system (copyright 1986, Carnegie Mellon
 University), and the Gaussian 82(TM) system (copyright 1983,
 Carnegie Mellon University). Gaussian is a federally registered
 trademark of Gaussian, Inc.
  
 This software contains proprietary and confidential information,
 including trade secrets, belonging to Gaussian, Inc.
  
 This software is provided under written license and may be
 used, copied, transmitted, or stored only in accord with that
 written license.
  
 The following legend is applicable only to US Government
 contracts under FAR:
  
                    RESTRICTED RIGHTS LEGEND
  
 Use, reproduction and disclosure by the US Government is
 subject to restrictions as set forth in subparagraphs (a)
 and (c) of the Commercial Computer Software - Restricted
 Rights clause in FAR 52.227-19.
  
 Gaussian, Inc.
 340 Quinnipiac St., Bldg. 40, Wallingford CT 06492
  
  
 ---------------------------------------------------------------
 Warning -- This program may not be used in any manner that
 competes with the business of Gaussian, Inc. or will provide
 assistance to any competitor of Gaussian, Inc.  The licensee
 of this program is prohibited from giving any competitor of
 Gaussian, Inc. access to this program.  By using this program,
 the user acknowledges that Gaussian, Inc. is engaged in the
 business of creating and licensing software in the field of
 computational chemistry and represents and warrants to the
 licensee that it is not a competitor of Gaussian, Inc. and that
 it will not use this program in any manner prohibited above.
 ---------------------------------------------------------------
  

 Cite this work as:
 Gaussian 09, Revision D.01,
 M. J. Frisch, G. W. Trucks, H. B. Schlegel, G. E. Scuseria, 
 M. A. Robb, J. R. Cheeseman, G. Scalmani, V. Barone, B. Mennucci, 
 G. A. Petersson, H. Nakatsuji, M. Caricato, X. Li, H. P. Hratchian, 
 A. F. Izmaylov, J. Bloino, G. Zheng, J. L. Sonnenberg, M. Hada, 
 M. Ehara, K. Toyota, R. Fukuda, J. Hasegawa, M. Ishida, T. Nakajima, 
 Y. Honda, O. Kitao, H. Nakai, T. Vreven, J. A. Montgomery, Jr., 
 J. E. Peralta, F. Ogliaro, M. Bearpark, J. J. Heyd, E. Brothers, 
 K. N. Kudin, V. N. Staroverov, T. Keith, R. Kobayashi, J. Normand, 
 K. Raghavachari, A. Rendell, J. C. Burant, S. S. Iyengar, J. Tomasi, 
 M. Cossi, N. Rega, J. M. Millam, M. Klene, J. E. Knox, J. B. Cross, 
 V. Bakken, C. Adamo, J. Jaramillo, R. Gomperts, R. E. Stratmann, 
 O. Yazyev, A. J. Austin, R. Cammi, C. Pomelli, J. W. Ochterski, 
 R. L. Martin, K. Morokuma, V. G. Zakrzewski, G. A. Voth, 
 P. Salvador, J. J. Dannenberg, S. Dapprich, A. D. Daniels, 
 O. Farkas, J. B. Foresman, J. V. Ortiz, J. Cioslowski, 
 and D. J. Fox, Gaussian, Inc., Wallingford CT, 2013.
 
 ******************************************
 Gaussian 09:  EM64L-G09RevD.01 24-Apr-2013
                 6-Mar-2019 
 ******************************************
 %nprocshared=2
 Will use up to    2 processors via shared memory.
 %mem=6000MB
 %chk=AT3_1ginp019.chk
 ---------------------------------------------------------------
 # b3lyp/6-31g(d,p) Opt=(maxcycles=50) scrf=(solvent=chloroform)
 ---------------------------------------------------------------
 1/6=50,14=-1,18=20,19=15,26=3,38=1/1,3;
 2/9=110,12=2,17=6,18=5,40=1/2;
 3/5=1,6=6,7=101,11=2,16=1,25=1,30=1,70=2201,71=1,72=7,74=-5/1,2,3;
 4//1;
 5/5=2,38=5,53=7/2;
 6/7=2,8=2,9=2,10=2,28=1/1;
 7//1,2,3,16;
 1/6=50,14=-1,18=20,19=15,26=3/3(2);
 2/9=110/2;
 99//99;
 2/9=110/2;
 3/5=1,6=6,7=101,11=2,16=1,25=1,30=1,70=2205,71=1,72=7,74=-5/1,2,3;
 4/5=5,16=3,69=1/1;
 5/5=2,38=5,53=7/2;
 7//1,2,3,16;
 1/6=50,14=-1,18=20,19=15,26=3/3(-5);
 2/9=110/2;
 6/7=2,8=2,9=2,10=2,19=2,28=1/1;
 99/9=1/99;
 ------------
 AT3_1ginp019
 ------------
 Symbolic Z-matrix:
 Charge =  0 Multiplicity = 1
 C                    -1.76826   0.36228   0.8024 
 C                    -0.94836   1.6455    0.75472 
 C                     0.23641   1.67975   1.75145 
 C                    -0.19506   1.39941   3.22533 
 C                    -1.1517    2.45978   3.78863 
 O                    -1.61102   2.05807   5.07734 
 N                     0.94619   2.9714    1.65989 
 C                     1.68399   3.19759   0.41045 
 C                     5.04577   0.54816  -0.18382 
 C                     3.947     0.49151  -1.03966 
 C                     2.86658   1.35071  -0.84079 
 C                     2.85235   2.27595   0.20399 
 C                     3.96416   2.3174    1.04785 
 C                     5.05312   1.46621   0.86472 
 H                     5.89071  -0.11929  -0.33296 
 H                     3.92183  -0.21702  -1.86243 
 H                     5.89896   1.5259    1.54327 
 F                     1.82367   1.27065  -1.67943 
 F                     3.99439   3.1881    2.06749 
 H                    -1.12543  -0.5192    0.71543 
 H                    -2.34636   0.28642   1.72769 
 H                    -2.48145   0.34389  -0.02833 
 H                    -0.56879   1.7366   -0.26931 
 H                    -1.61353   2.50277   0.91188 
 H                    -0.71172   0.43165   3.25574 
 H                    -2.03279   2.57997   3.15264 
 H                    -0.65741   3.43124   3.89154 
 H                    -2.19132   2.7681    5.40139 
 H                     1.00994   3.1879   -0.45223 
 H                     2.07278   4.224     0.43705 
 H                     0.92246   0.86807   1.47694 
 C                     1.01986   1.22201   4.15389 
 H                     0.71012   0.81443   5.12239 
 H                     1.74199   0.52144   3.72141 
 H                     1.53269   2.16926   4.34746 
 H                     1.61704   3.05747   2.42417 
 

 GradGradGradGradGradGradGradGradGradGradGradGradGradGradGradGradGradGrad
 Berny optimization.
 Initialization pass.
                           ----------------------------
                           !    Initial Parameters    !
                           ! (Angstroms and Degrees)  !
 --------------------------                            --------------------------
 ! Name  Definition              Value          Derivative Info.                !
 --------------------------------------------------------------------------------
 ! R1    R(1,2)                  1.5235         estimate D2E/DX2                !
 ! R2    R(1,20)                 1.0944         estimate D2E/DX2                !
 ! R3    R(1,21)                 1.0937         estimate D2E/DX2                !
 ! R4    R(1,22)                 1.095          estimate D2E/DX2                !
 ! R5    R(2,3)                  1.5487         estimate D2E/DX2                !
 ! R6    R(2,23)                 1.0959         estimate D2E/DX2                !
 ! R7    R(2,24)                 1.0964         estimate D2E/DX2                !
 ! R8    R(3,4)                  1.5611         estimate D2E/DX2                !
 ! R9    R(3,7)                  1.4767         estimate D2E/DX2                !
 ! R10   R(3,31)                 1.0977         estimate D2E/DX2                !
 ! R11   R(4,5)                  1.5352         estimate D2E/DX2                !
 ! R12   R(4,25)                 1.0975         estimate D2E/DX2                !
 ! R13   R(4,32)                 1.5394         estimate D2E/DX2                !
 ! R14   R(5,6)                  1.4259         estimate D2E/DX2                !
 ! R15   R(5,26)                 1.0933         estimate D2E/DX2                !
 ! R16   R(5,27)                 1.0948         estimate D2E/DX2                !
 ! R17   R(6,28)                 0.9726         estimate D2E/DX2                !
 ! R18   R(7,8)                  1.4685         estimate D2E/DX2                !
 ! R19   R(7,36)                 1.0206         estimate D2E/DX2                !
 ! R20   R(8,12)                 1.5024         estimate D2E/DX2                !
 ! R21   R(8,29)                 1.0948         estimate D2E/DX2                !
 ! R22   R(8,30)                 1.0979         estimate D2E/DX2                !
 ! R23   R(9,10)                 1.3939         estimate D2E/DX2                !
 ! R24   R(9,14)                 1.3937         estimate D2E/DX2                !
 ! R25   R(9,15)                 1.087          estimate D2E/DX2                !
 ! R26   R(10,11)                1.3947         estimate D2E/DX2                !
 ! R27   R(10,16)                1.0861         estimate D2E/DX2                !
 ! R28   R(11,12)                1.3956         estimate D2E/DX2                !
 ! R29   R(11,18)                1.3407         estimate D2E/DX2                !
 ! R30   R(12,13)                1.3964         estimate D2E/DX2                !
 ! R31   R(13,14)                1.3942         estimate D2E/DX2                !
 ! R32   R(13,19)                1.3412         estimate D2E/DX2                !
 ! R33   R(14,17)                1.086          estimate D2E/DX2                !
 ! R34   R(32,33)                1.0955         estimate D2E/DX2                !
 ! R35   R(32,34)                1.0951         estimate D2E/DX2                !
 ! R36   R(32,35)                1.0944         estimate D2E/DX2                !
 ! A1    A(2,1,20)             111.0873         estimate D2E/DX2                !
 ! A2    A(2,1,21)             111.676          estimate D2E/DX2                !
 ! A3    A(2,1,22)             109.9315         estimate D2E/DX2                !
 ! A4    A(20,1,21)            108.7746         estimate D2E/DX2                !
 ! A5    A(20,1,22)            107.9828         estimate D2E/DX2                !
 ! A6    A(21,1,22)            107.2424         estimate D2E/DX2                !
 ! A7    A(1,2,3)              114.2166         estimate D2E/DX2                !
 ! A8    A(1,2,23)             106.5975         estimate D2E/DX2                !
 ! A9    A(1,2,24)             109.1225         estimate D2E/DX2                !
 ! A10   A(3,2,23)             109.5478         estimate D2E/DX2                !
 ! A11   A(3,2,24)             110.7681         estimate D2E/DX2                !
 ! A12   A(23,2,24)            106.2055         estimate D2E/DX2                !
 ! A13   A(2,3,4)              113.0936         estimate D2E/DX2                !
 ! A14   A(2,3,7)              110.3137         estimate D2E/DX2                !
 ! A15   A(2,3,31)             107.508          estimate D2E/DX2                !
 ! A16   A(4,3,7)              110.3936         estimate D2E/DX2                !
 ! A17   A(4,3,31)             106.0256         estimate D2E/DX2                !
 ! A18   A(7,3,31)             109.3229         estimate D2E/DX2                !
 ! A19   A(3,4,5)              113.2418         estimate D2E/DX2                !
 ! A20   A(3,4,25)             108.3388         estimate D2E/DX2                !
 ! A21   A(3,4,32)             111.8426         estimate D2E/DX2                !
 ! A22   A(5,4,25)             107.791          estimate D2E/DX2                !
 ! A23   A(5,4,32)             110.4912         estimate D2E/DX2                !
 ! A24   A(25,4,32)            104.6673         estimate D2E/DX2                !
 ! A25   A(4,5,6)              109.7409         estimate D2E/DX2                !
 ! A26   A(4,5,26)             111.3877         estimate D2E/DX2                !
 ! A27   A(4,5,27)             111.4708         estimate D2E/DX2                !
 ! A28   A(6,5,26)             107.285          estimate D2E/DX2                !
 ! A29   A(6,5,27)             108.0876         estimate D2E/DX2                !
 ! A30   A(26,5,27)            108.7229         estimate D2E/DX2                !
 ! A31   A(5,6,28)             106.7175         estimate D2E/DX2                !
 ! A32   A(3,7,8)              115.4019         estimate D2E/DX2                !
 ! A33   A(3,7,36)             110.0774         estimate D2E/DX2                !
 ! A34   A(8,7,36)             107.0918         estimate D2E/DX2                !
 ! A35   A(7,8,12)             114.4022         estimate D2E/DX2                !
 ! A36   A(7,8,29)             111.0829         estimate D2E/DX2                !
 ! A37   A(7,8,30)             107.5348         estimate D2E/DX2                !
 ! A38   A(12,8,29)            111.4122         estimate D2E/DX2                !
 ! A39   A(12,8,30)            107.5451         estimate D2E/DX2                !
 ! A40   A(29,8,30)            104.2051         estimate D2E/DX2                !
 ! A41   A(10,9,14)            119.5295         estimate D2E/DX2                !
 ! A42   A(10,9,15)            120.2329         estimate D2E/DX2                !
 ! A43   A(14,9,15)            120.2376         estimate D2E/DX2                !
 ! A44   A(9,10,11)            119.8721         estimate D2E/DX2                !
 ! A45   A(9,10,16)            120.6578         estimate D2E/DX2                !
 ! A46   A(11,10,16)           119.4701         estimate D2E/DX2                !
 ! A47   A(10,11,12)           121.538          estimate D2E/DX2                !
 ! A48   A(10,11,18)           118.4662         estimate D2E/DX2                !
 ! A49   A(12,11,18)           119.9956         estimate D2E/DX2                !
 ! A50   A(8,12,11)            121.1643         estimate D2E/DX2                !
 ! A51   A(8,12,13)            121.1933         estimate D2E/DX2                !
 ! A52   A(11,12,13)           117.6421         estimate D2E/DX2                !
 ! A53   A(12,13,14)           121.6255         estimate D2E/DX2                !
 ! A54   A(12,13,19)           119.7793         estimate D2E/DX2                !
 ! A55   A(14,13,19)           118.5943         estimate D2E/DX2                !
 ! A56   A(9,14,13)            119.7925         estimate D2E/DX2                !
 ! A57   A(9,14,17)            120.6905         estimate D2E/DX2                !
 ! A58   A(13,14,17)           119.5169         estimate D2E/DX2                !
 ! A59   A(4,32,33)            110.6714         estimate D2E/DX2                !
 ! A60   A(4,32,34)            110.8502         estimate D2E/DX2                !
 ! A61   A(4,32,35)            112.1331         estimate D2E/DX2                !
 ! A62   A(33,32,34)           107.3124         estimate D2E/DX2                !
 ! A63   A(33,32,35)           107.3462         estimate D2E/DX2                !
 ! A64   A(34,32,35)           108.3341         estimate D2E/DX2                !
 ! D1    D(20,1,2,3)           -51.6495         estimate D2E/DX2                !
 ! D2    D(20,1,2,23)           69.4743         estimate D2E/DX2                !
 ! D3    D(20,1,2,24)         -176.2222         estimate D2E/DX2                !
 ! D4    D(21,1,2,3)            69.9823         estimate D2E/DX2                !
 ! D5    D(21,1,2,23)         -168.8939         estimate D2E/DX2                !
 ! D6    D(21,1,2,24)          -54.5904         estimate D2E/DX2                !
 ! D7    D(22,1,2,3)          -171.1087         estimate D2E/DX2                !
 ! D8    D(22,1,2,23)          -49.9849         estimate D2E/DX2                !
 ! D9    D(22,1,2,24)           64.3186         estimate D2E/DX2                !
 ! D10   D(1,2,3,4)            -54.2255         estimate D2E/DX2                !
 ! D11   D(1,2,3,7)           -178.4055         estimate D2E/DX2                !
 ! D12   D(1,2,3,31)            62.4673         estimate D2E/DX2                !
 ! D13   D(23,2,3,4)          -173.7015         estimate D2E/DX2                !
 ! D14   D(23,2,3,7)            62.1185         estimate D2E/DX2                !
 ! D15   D(23,2,3,31)          -57.0087         estimate D2E/DX2                !
 ! D16   D(24,2,3,4)            69.4662         estimate D2E/DX2                !
 ! D17   D(24,2,3,7)           -54.7138         estimate D2E/DX2                !
 ! D18   D(24,2,3,31)         -173.841          estimate D2E/DX2                !
 ! D19   D(2,3,4,5)            -63.2779         estimate D2E/DX2                !
 ! D20   D(2,3,4,25)            56.2389         estimate D2E/DX2                !
 ! D21   D(2,3,4,32)           171.0892         estimate D2E/DX2                !
 ! D22   D(7,3,4,5)             60.8585         estimate D2E/DX2                !
 ! D23   D(7,3,4,25)          -179.6247         estimate D2E/DX2                !
 ! D24   D(7,3,4,32)           -64.7744         estimate D2E/DX2                !
 ! D25   D(31,3,4,5)           179.1577         estimate D2E/DX2                !
 ! D26   D(31,3,4,25)          -61.3255         estimate D2E/DX2                !
 ! D27   D(31,3,4,32)           53.5248         estimate D2E/DX2                !
 ! D28   D(2,3,7,8)            -68.6257         estimate D2E/DX2                !
 ! D29   D(2,3,7,36)           170.0436         estimate D2E/DX2                !
 ! D30   D(4,3,7,8)            165.6534         estimate D2E/DX2                !
 ! D31   D(4,3,7,36)            44.3227         estimate D2E/DX2                !
 ! D32   D(31,3,7,8)            49.3919         estimate D2E/DX2                !
 ! D33   D(31,3,7,36)          -71.9388         estimate D2E/DX2                !
 ! D34   D(3,4,5,6)            173.7072         estimate D2E/DX2                !
 ! D35   D(3,4,5,26)            55.0499         estimate D2E/DX2                !
 ! D36   D(3,4,5,27)           -66.5835         estimate D2E/DX2                !
 ! D37   D(25,4,5,6)            53.8768         estimate D2E/DX2                !
 ! D38   D(25,4,5,26)          -64.7805         estimate D2E/DX2                !
 ! D39   D(25,4,5,27)          173.5861         estimate D2E/DX2                !
 ! D40   D(32,4,5,6)           -59.9395         estimate D2E/DX2                !
 ! D41   D(32,4,5,26)         -178.5968         estimate D2E/DX2                !
 ! D42   D(32,4,5,27)           59.7698         estimate D2E/DX2                !
 ! D43   D(3,4,32,33)         -167.6379         estimate D2E/DX2                !
 ! D44   D(3,4,32,34)          -48.6879         estimate D2E/DX2                !
 ! D45   D(3,4,32,35)           72.5295         estimate D2E/DX2                !
 ! D46   D(5,4,32,33)           65.2308         estimate D2E/DX2                !
 ! D47   D(5,4,32,34)         -175.8192         estimate D2E/DX2                !
 ! D48   D(5,4,32,35)          -54.6018         estimate D2E/DX2                !
 ! D49   D(25,4,32,33)         -50.5536         estimate D2E/DX2                !
 ! D50   D(25,4,32,34)          68.3964         estimate D2E/DX2                !
 ! D51   D(25,4,32,35)        -170.3862         estimate D2E/DX2                !
 ! D52   D(4,5,6,28)           178.5158         estimate D2E/DX2                !
 ! D53   D(26,5,6,28)          -60.3235         estimate D2E/DX2                !
 ! D54   D(27,5,6,28)           56.7597         estimate D2E/DX2                !
 ! D55   D(3,7,8,12)           -66.2354         estimate D2E/DX2                !
 ! D56   D(3,7,8,29)            60.961          estimate D2E/DX2                !
 ! D57   D(3,7,8,30)           174.391          estimate D2E/DX2                !
 ! D58   D(36,7,8,12)           56.6941         estimate D2E/DX2                !
 ! D59   D(36,7,8,29)         -176.1096         estimate D2E/DX2                !
 ! D60   D(36,7,8,30)          -62.6796         estimate D2E/DX2                !
 ! D61   D(7,8,12,11)          114.7415         estimate D2E/DX2                !
 ! D62   D(7,8,12,13)          -65.4603         estimate D2E/DX2                !
 ! D63   D(29,8,12,11)         -12.2856         estimate D2E/DX2                !
 ! D64   D(29,8,12,13)         167.5126         estimate D2E/DX2                !
 ! D65   D(30,8,12,11)        -125.8907         estimate D2E/DX2                !
 ! D66   D(30,8,12,13)          53.9075         estimate D2E/DX2                !
 ! D67   D(14,9,10,11)          -0.0211         estimate D2E/DX2                !
 ! D68   D(14,9,10,16)        -179.9816         estimate D2E/DX2                !
 ! D69   D(15,9,10,11)         179.954          estimate D2E/DX2                !
 ! D70   D(15,9,10,16)          -0.0065         estimate D2E/DX2                !
 ! D71   D(10,9,14,13)           0.0079         estimate D2E/DX2                !
 ! D72   D(10,9,14,17)         179.9471         estimate D2E/DX2                !
 ! D73   D(15,9,14,13)        -179.9672         estimate D2E/DX2                !
 ! D74   D(15,9,14,17)          -0.0279         estimate D2E/DX2                !
 ! D75   D(9,10,11,12)          -0.0829         estimate D2E/DX2                !
 ! D76   D(9,10,11,18)        -179.8956         estimate D2E/DX2                !
 ! D77   D(16,10,11,12)        179.878          estimate D2E/DX2                !
 ! D78   D(16,10,11,18)          0.0654         estimate D2E/DX2                !
 ! D79   D(10,11,12,8)         179.9987         estimate D2E/DX2                !
 ! D80   D(10,11,12,13)          0.1935         estimate D2E/DX2                !
 ! D81   D(18,11,12,8)          -0.1915         estimate D2E/DX2                !
 ! D82   D(18,11,12,13)       -179.9967         estimate D2E/DX2                !
 ! D83   D(8,12,13,14)         179.9877         estimate D2E/DX2                !
 ! D84   D(8,12,13,19)           0.3467         estimate D2E/DX2                !
 ! D85   D(11,12,13,14)         -0.2072         estimate D2E/DX2                !
 ! D86   D(11,12,13,19)       -179.8483         estimate D2E/DX2                !
 ! D87   D(12,13,14,9)           0.11           estimate D2E/DX2                !
 ! D88   D(12,13,14,17)       -179.83           estimate D2E/DX2                !
 ! D89   D(19,13,14,9)         179.7551         estimate D2E/DX2                !
 ! D90   D(19,13,14,17)         -0.1849         estimate D2E/DX2                !
 --------------------------------------------------------------------------------
 Trust Radius=3.00D-01 FncErr=1.00D-07 GrdErr=1.00D-06
 Number of steps in this run=     50 maximum allowed number of steps=    216.
 GradGradGradGradGradGradGradGradGradGradGradGradGradGradGradGradGradGrad

                          Input orientation:                          
 ---------------------------------------------------------------------
 Center     Atomic      Atomic             Coordinates (Angstroms)
 Number     Number       Type             X           Y           Z
 ---------------------------------------------------------------------
      1          6           0       -1.768263    0.362276    0.802401
      2          6           0       -0.948362    1.645504    0.754717
      3          6           0        0.236407    1.679754    1.751454
      4          6           0       -0.195061    1.399413    3.225328
      5          6           0       -1.151701    2.459782    3.788634
      6          8           0       -1.611024    2.058066    5.077340
      7          7           0        0.946185    2.971404    1.659894
      8          6           0        1.683991    3.197591    0.410447
      9          6           0        5.045769    0.548157   -0.183816
     10          6           0        3.946995    0.491506   -1.039662
     11          6           0        2.866580    1.350714   -0.840793
     12          6           0        2.852346    2.275946    0.203992
     13          6           0        3.964158    2.317400    1.047852
     14          6           0        5.053124    1.466207    0.864717
     15          1           0        5.890712   -0.119289   -0.332960
     16          1           0        3.921825   -0.217022   -1.862431
     17          1           0        5.898960    1.525904    1.543272
     18          9           0        1.823665    1.270650   -1.679427
     19          9           0        3.994393    3.188100    2.067490
     20          1           0       -1.125427   -0.519197    0.715429
     21          1           0       -2.346359    0.286423    1.727686
     22          1           0       -2.481445    0.343885   -0.028334
     23          1           0       -0.568792    1.736597   -0.269312
     24          1           0       -1.613530    2.502769    0.911880
     25          1           0       -0.711724    0.431646    3.255742
     26          1           0       -2.032794    2.579970    3.152643
     27          1           0       -0.657406    3.431243    3.891544
     28          1           0       -2.191316    2.768101    5.401385
     29          1           0        1.009939    3.187895   -0.452234
     30          1           0        2.072779    4.224001    0.437053
     31          1           0        0.922464    0.868065    1.476939
     32          6           0        1.019864    1.222005    4.153889
     33          1           0        0.710116    0.814432    5.122392
     34          1           0        1.741991    0.521435    3.721408
     35          1           0        1.532691    2.169255    4.347461
     36          1           0        1.617043    3.057471    2.424170
 ---------------------------------------------------------------------
                    Distance matrix (angstroms):
                    1          2          3          4          5
     1  C    0.000000
     2  C    1.523544   0.000000
     3  C    2.579758   1.548656   0.000000
     4  C    3.069396   2.594599   1.561109   0.000000
     5  C    3.700982   3.147864   2.585612   1.535206   0.000000
     6  O    4.601688   4.392539   3.823302   2.422545   1.425874
     7  N    3.861486   2.483277   1.476661   2.494831   3.032230
     8  C    4.484495   3.075188   2.489504   3.832471   4.471874
     9  C    6.887540   6.165600   5.306199   6.309770   7.605479
    10  C    6.006169   5.340040   4.792778   6.014238   7.292685
    11  C    5.015861   4.145641   3.707536   5.090123   6.229623
    12  C    5.036889   3.891804   3.097292   4.379894   5.377346
    13  C    6.061634   4.966913   3.846788   4.783639   5.805529
    14  C    6.910417   6.005171   4.902312   5.755032   6.930825
    15  H    7.757632   7.146361   6.289078   7.211415   8.557729
    16  H    6.309835   5.834140   5.499112   6.741432   8.052359
    17  H    7.790329   6.893616   5.668467   6.323164   7.458257
    18  F    4.459435   3.708060   3.802328   5.305512   6.337707
    19  F    6.541707   5.341704   4.061705   4.700161   5.474949
    20  H    1.094439   2.172286   2.786274   3.293363   4.280140
    21  H    1.093664   2.179029   2.934726   2.847764   3.224625
    22  H    1.095029   2.158176   3.512679   4.114366   4.562289
    23  H    2.115670   1.095905   2.176022   3.530705   4.162896
    24  H    2.148869   1.096381   2.191918   2.929418   2.913906
    25  H    2.672072   2.790085   2.172466   1.097469   2.142636
    26  H    3.242188   2.792717   2.814781   2.185466   1.093277
    27  H    4.493925   3.621216   2.906304   2.187679   1.094831
    28  H    5.207458   4.939300   4.516673   3.254776   1.943406
    29  H    4.156518   2.769593   2.780123   4.263233   4.815371
    30  H    5.458938   3.984577   3.401927   4.571200   4.974217
    31  H    2.819723   2.150815   1.097666   2.141975   3.489937
    32  C    4.443564   3.950650   2.568080   1.539397   2.526103
    33  H    5.000913   4.745294   3.512322   2.181834   2.820009
    34  H    4.568131   4.159662   2.736641   2.183829   3.483556
    35  H    5.170002   4.397471   2.942655   2.199310   2.757291
    36  H    4.621094   3.370761   2.063203   2.583550   3.144032
                    6          7          8          9         10
     6  O    0.000000
     7  N    4.364910   0.000000
     8  C    5.825421   1.468549   0.000000
     9  C    8.618148   5.106661   4.321366   0.000000
    10  C    8.412098   4.737337   3.814040   1.393910   0.000000
    11  C    7.454769   3.545136   2.524891   2.413417   1.394663
    12  C    6.612009   2.497351   1.502367   2.818999   2.434986
    13  C    6.883799   3.148091   2.525902   2.411868   2.773427
    14  C    7.906160   4.445770   3.815116   1.393661   2.408365
    15  H    9.502014   6.162159   5.408405   1.087040   2.156510
    16  H    9.162361   5.606003   4.672629   2.160208   1.086091
    17  H    8.317012   5.160722   4.673734   2.160268   3.398778
    18  F    7.620434   3.848844   2.846082   3.625024   2.350510
    19  F    6.461956   3.082963   2.843209   3.625337   4.114397
    20  H    5.089632   4.167480   4.669085   6.327049   5.461806
    21  H    3.860002   4.249066   5.143320   7.639758   6.877978
    22  H    5.455635   4.637091   5.068237   7.531590   6.509179
    23  H    5.456764   2.746223   2.769767   5.739599   4.747212
    24  H    4.189132   2.707635   3.407031   7.026188   6.226808
    25  H    2.602345   3.427209   4.635257   6.707672   6.337014
    26  H    2.038316   3.354972   4.659998   8.084941   7.595721
    27  H    2.049662   2.786255   4.201758   7.579377   7.359304
    28  H    0.972571   4.887126   6.333398   9.407339   9.184162
    29  H    6.222712   2.124151   1.094833   4.829926   4.030122
    30  H    6.308244   2.081719   1.097899   4.768226   4.429999
    31  H    4.560433   2.111414   2.672830   4.456691   3.952577
    32  C    2.910899   3.047267   4.284549   5.956313   6.006221
    33  H    2.633694   4.086215   5.369386   6.857451   6.967968
    34  H    3.929694   3.299317   4.257656   5.115314   5.246973
    35  H    3.229246   2.865388   4.071909   5.958368   6.137165
    36  H    4.296340   1.020576   2.019702   4.985420   4.900100
                   11         12         13         14         15
    11  C    0.000000
    12  C    1.395648   0.000000
    13  C    2.388753   1.396404   0.000000
    14  C    2.775442   2.436321   1.394243   0.000000
    15  H    3.400614   3.906038   3.399368   2.156335   0.000000
    16  H    2.148274   3.410100   3.859383   3.398593   2.495065
    17  H    3.861319   3.411465   2.148340   1.086020   2.495391
    18  F    1.340667   2.369825   3.621525   4.115862   4.503973
    19  F    3.620229   2.368316   1.341154   2.352125   4.505220
    20  H    4.674881   4.888463   5.836151   6.491426   7.105297
    21  H    5.908006   5.771168   6.664058   7.542477   8.500600
    22  H    5.502287   5.677690   6.826327   7.669868   8.390491
    23  H    3.503895   3.495583   4.756037   5.741522   6.721128
    24  H    4.946764   4.527317   5.582424   6.746922   8.046022
    25  H    5.516389   5.041549   5.504064   6.326199   7.534884
    26  H    6.439136   5.714155   6.361016   7.528965   9.067380
    27  H    6.256364   5.220260   5.539502   6.755235   8.563327
    28  H    8.158191   7.259038   7.552896   8.646282  10.321769
    29  H    2.640706   2.157950   3.425701   4.587583   5.896918
    30  H    3.243268   2.111151   2.754182   4.082987   5.833841
    31  H    3.063400   2.706837   3.396556   4.218405   5.379042
    32  C    5.326704   4.480008   4.417717   5.210132   6.756926
    33  H    6.363765   5.560201   5.426747   6.116725   7.580981
    34  H    4.771382   4.084533   3.912981   4.474023   5.836121
    35  H    5.419156   4.349851   4.101390   5.001723   6.792358
    36  H    3.890289   2.658185   2.819735   4.095201   5.996484
                   16         17         18         19         20
    16  H    0.000000
    17  H    4.306468   0.000000
    18  F    2.578553   5.201824   0.000000
    19  F    5.200423   2.581681   4.735827   0.000000
    20  H    5.675511   7.362729   4.199527   6.464107   0.000000
    21  H    7.241031   8.340000   5.474141   6.981428   1.778866
    22  H    6.684340   8.608037   4.703081   7.376891   1.771124
    23  H    5.149786   6.720243   2.815916   5.328242   2.523522
    24  H    6.762708   7.602002   4.477421   5.766621   3.067428
    25  H    6.934424   6.916003   5.611419   5.581892   2.743801
    26  H    8.272341   8.161731   6.319454   6.154215   4.045759
    27  H    8.208984   7.220155   6.469899   5.002552   5.090454
    28  H    9.952109   9.048793   8.276493   7.039478   5.822425
    29  H    4.696935   5.535954   2.417433   3.905890   4.434609
    30  H    5.331912   4.810729   3.641954   2.724705   5.727473
    31  H    4.617897   5.020226   3.307096   3.894619   2.588098
    32  C    6.832882   5.541954   5.888636   4.131152   4.411016
    33  H    7.756721   6.343532   6.907450   5.074761   4.956723
    34  H    6.039557   4.799336   5.453165   3.862624   4.282629
    35  H    7.068595   5.228927   6.100454   3.506607   5.242616
    36  H    5.865942   4.632115   4.480506   2.407504   4.820113
                   21         22         23         24         25
    21  H    0.000000
    22  H    1.762145   0.000000
    23  H    3.041505   2.378226   0.000000
    24  H    2.472806   2.509593   1.753200   0.000000
    25  H    2.242337   3.731591   3.761560   3.255226   0.000000
    26  H    2.718305   3.914074   3.816328   2.280956   2.524114
    27  H    4.174295   5.312659   4.493595   3.264144   3.066721
    28  H    4.436083   5.953389   5.987770   4.534302   3.500285
    29  H    4.943210   4.523035   2.152236   3.035259   4.930529
    30  H    6.057973   6.001070   3.696489   4.095970   5.484562
    31  H    3.329622   3.758618   2.455114   3.069660   2.454623
    32  C    4.253614   5.524604   4.727932   4.368723   2.104693
    33  H    4.598354   6.077619   5.617514   5.096884   2.377506
    34  H    4.554642   5.650619   4.768876   4.804025   2.499125
    35  H    5.045325   6.212314   5.090974   4.670456   3.041140
    36  H    4.885934   5.493262   3.711796   3.609892   3.606886
                   26         27         28         29         30
    26  H    0.000000
    27  H    1.778295   0.000000
    28  H    2.262159   2.252167   0.000000
    29  H    4.756357   4.659149   6.684992   0.000000
    30  H    5.189701   4.473911   6.704233   1.730311   0.000000
    31  H    3.804228   3.859558   5.357895   3.018439   3.696876
    32  C    3.487877   2.786179   3.776021   5.008113   4.892390
    33  H    3.810589   3.198875   3.508984   6.066274   5.952681
    34  H    4.337057   3.775319   4.831225   5.006515   4.960383
    35  H    3.782719   2.568462   3.916325   4.934366   4.450277
    36  H    3.752331   2.732400   4.842638   2.942666   2.348855
                   31         32         33         34         35
    31  H    0.000000
    32  C    2.702003   0.000000
    33  H    3.652026   1.095471   0.000000
    34  H    2.414419   1.095128   1.764474   0.000000
    35  H    3.210198   1.094415   1.764283   1.775122   0.000000
    36  H    2.484590   2.591811   3.624106   2.851301   2.120163
                   36
    36  H    0.000000
 Stoichiometry    C13H19F2NO
 Framework group  C1[X(C13H19F2NO)]
 Deg. of freedom   102
 Full point group                 C1      NOp   1
 Largest Abelian subgroup         C1      NOp   1
 Largest concise Abelian subgroup C1      NOp   1
                         Standard orientation:                         
 ---------------------------------------------------------------------
 Center     Atomic      Atomic             Coordinates (Angstroms)
 Number     Number       Type             X           Y           Z
 ---------------------------------------------------------------------
      1          6           0       -2.233182    2.708191   -0.766969
      2          6           0       -1.608544    1.904256    0.366477
      3          6           0       -1.222929    0.455042   -0.020068
      4          6           0       -2.411457   -0.352946   -0.629672
      5          6           0       -3.573877   -0.554671    0.352643
      6          8           0       -4.671303   -1.168765   -0.319414
      7          7           0       -0.662985   -0.255136    1.147252
      8          6           0        0.647957    0.222220    1.605725
      9          6           0        3.872502   -0.450720   -1.191355
     10          6           0        3.476581    0.847819   -0.875083
     11          6           0        2.435287    1.055758    0.029102
     12          6           0        1.768621   -0.011461    0.632786
     13          6           0        2.182919   -1.303715    0.303574
     14          6           0        3.221631   -1.530963   -0.598285
     15          1           0        4.682912   -0.619571   -1.895899
     16          1           0        3.970876    1.703000   -1.326673
     17          1           0        3.514119   -2.550475   -0.831707
     18          9           0        2.076146    2.316227    0.311278
     19          9           0        1.569974   -2.360822    0.856313
     20          1           0       -1.611511    2.668744   -1.666839
     21          1           0       -3.234826    2.345827   -1.014967
     22          1           0       -2.331929    3.757552   -0.470021
     23          1           0       -0.712164    2.450751    0.680887
     24          1           0       -2.287675    1.909414    1.227178
     25          1           0       -2.796583    0.199971   -1.495928
     26          1           0       -3.929522    0.399391    0.750810
     27          1           0       -3.284293   -1.198633    1.189369
     28          1           0       -5.369861   -1.297106    0.344995
     29          1           0        0.599061    1.271442    1.914595
     30          1           0        0.892821   -0.319259    2.528885
     31          1           0       -0.461396    0.515043   -0.808319
     32          6           0       -1.950281   -1.704795   -1.203747
     33          1           0       -2.740404   -2.155465   -1.814205
     34          1           0       -1.074078   -1.576167   -1.847974
     35          1           0       -1.696746   -2.421976   -0.416907
     36          1           0       -0.563931   -1.249148    0.938193
 ---------------------------------------------------------------------
 Rotational constants (GHZ):      0.7067535      0.2804343      0.2322213
 Standard basis: 6-31G(d,p) (6D, 7F)
 There are   350 symmetry adapted cartesian basis functions of A   symmetry.
 There are   350 symmetry adapted basis functions of A   symmetry.
   350 basis functions,   609 primitive gaussians,   350 cartesian basis functions
    65 alpha electrons       65 beta electrons
       nuclear repulsion energy      1285.9631134271 Hartrees.
 NAtoms=   36 NActive=   36 NUniq=   36 SFac= 1.00D+00 NAtFMM=   60 NAOKFM=F Big=F
 Integral buffers will be    131072 words long.
 Raffenetti 2 integral format.
 Two-electron integral symmetry is turned on.
 ------------------------------------------------------------------------------
 Polarizable Continuum Model (PCM)
 =================================
 Model                : PCM (using non-symmetric T matrix).
 Atomic radii         : UFF (Universal Force Field).
 Polarization charges : Total charges.
 Charge compensation  : None.
 Solution method      : On-the-fly selection.
 Cavity type          : Scaled VdW (van der Waals Surface) (Alpha=1.100).
 Cavity algorithm     : GePol (No added spheres)
                        Default sphere list used, NSphG=   36.
                        Lebedev-Laikov grids with approx.  5.0 points / Ang**2.
                        Smoothing algorithm: Karplus/York (Gamma=1.0000).
                        Polarization charges: spherical gaussians, with
                                              point-specific exponents (IZeta= 3).
                        Self-potential: point-specific (ISelfS= 7).
                        Self-field    : sphere-specific E.n sum rule (ISelfD= 2).
 1st derivatives      : Analytical E(r).r(x)/FMM algorithm (CHGder, D1EAlg=3).
                        Cavity 1st derivative terms included.
 Solvent              : Chloroform, Eps=   4.711300 Eps(inf)=   2.090627
 ------------------------------------------------------------------------------
 One-electron integrals computed using PRISM.
 NBasis=   350 RedAO= T EigKep=  4.14D-04  NBF=   350
 NBsUse=   350 1.00D-06 EigRej= -1.00D+00 NBFU=   350
 ExpMin= 1.61D-01 ExpMax= 7.00D+03 ExpMxC= 1.05D+03 IAcc=1 IRadAn=         1 AccDes= 0.00D+00
 Harris functional with IExCor=  402 and IRadAn=       1 diagonalized for initial guess.
 HarFok:  IExCor=  402 AccDes= 0.00D+00 IRadAn=         1 IDoV= 1 UseB2=F ITyADJ=14
 ICtDFT=  3500011 ScaDFX=  1.000000  1.000000  1.000000  1.000000
 FoFCou: FMM=F IPFlag=           0 FMFlag=      100000 FMFlg1=           0
         NFxFlg=           0 DoJE=T BraDBF=F KetDBF=T FulRan=T
         wScrn=  0.000000 ICntrl=     500 IOpCl=  0 I1Cent=   200000004 NGrid=           0
         NMat0=    1 NMatS0=      1 NMatT0=    0 NMatD0=    1 NMtDS0=    0 NMtDT0=    0
 Petite list used in FoFCou.
 Requested convergence on RMS density matrix=1.00D-08 within 128 cycles.
 Requested convergence on MAX density matrix=1.00D-06.
 Requested convergence on             energy=1.00D-06.
 No special actions if energy rises.
 Inv3:  Mode=1 IEnd=    18825075.
 Iteration    1 A*A^-1 deviation from unit magnitude is 6.88D-15 for   1261.
 Iteration    1 A*A^-1 deviation from orthogonality  is 7.55D-15 for   2128    873.
 Iteration    1 A^-1*A deviation from unit magnitude is 8.10D-15 for    195.
 Iteration    1 A^-1*A deviation from orthogonality  is 2.40D-13 for   2458   2385.
 Error on total polarization charges =  0.00737
 SCF Done:  E(RB3LYP) =  -836.487554150     A.U. after   12 cycles
            NFock= 12  Conv=0.66D-08     -V/T= 2.0089

 **********************************************************************

            Population analysis using the SCF density.

 **********************************************************************

 Orbital symmetries:
       Occupied  (A) (A) (A) (A) (A) (A) (A) (A) (A) (A) (A) (A)
                 (A) (A) (A) (A) (A) (A) (A) (A) (A) (A) (A) (A)
                 (A) (A) (A) (A) (A) (A) (A) (A) (A) (A) (A) (A)
                 (A) (A) (A) (A) (A) (A) (A) (A) (A) (A) (A) (A)
                 (A) (A) (A) (A) (A) (A) (A) (A) (A) (A) (A) (A)
                 (A) (A) (A) (A) (A)
       Virtual   (A) (A) (A) (A) (A) (A) (A) (A) (A) (A) (A) (A)
                 (A) (A) (A) (A) (A) (A) (A) (A) (A) (A) (A) (A)
                 (A) (A) (A) (A) (A) (A) (A) (A) (A) (A) (A) (A)
                 (A) (A) (A) (A) (A) (A) (A) (A) (A) (A) (A) (A)
                 (A) (A) (A) (A) (A) (A) (A) (A) (A) (A) (A) (A)
                 (A) (A) (A) (A) (A) (A) (A) (A) (A) (A) (A) (A)
                 (A) (A) (A) (A) (A) (A) (A) (A) (A) (A) (A) (A)
                 (A) (A) (A) (A) (A) (A) (A) (A) (A) (A) (A) (A)
                 (A) (A) (A) (A) (A) (A) (A) (A) (A) (A) (A) (A)
                 (A) (A) (A) (A) (A) (A) (A) (A) (A) (A) (A) (A)
                 (A) (A) (A) (A) (A) (A) (A) (A) (A) (A) (A) (A)
                 (A) (A) (A) (A) (A) (A) (A) (A) (A) (A) (A) (A)
                 (A) (A) (A) (A) (A) (A) (A) (A) (A) (A) (A) (A)
                 (A) (A) (A) (A) (A) (A) (A) (A) (A) (A) (A) (A)
                 (A) (A) (A) (A) (A) (A) (A) (A) (A) (A) (A) (A)
                 (A) (A) (A) (A) (A) (A) (A) (A) (A) (A) (A) (A)
                 (A) (A) (A) (A) (A) (A) (A) (A) (A) (A) (A) (A)
                 (A) (A) (A) (A) (A) (A) (A) (A) (A) (A) (A) (A)
                 (A) (A) (A) (A) (A) (A) (A) (A) (A) (A) (A) (A)
                 (A) (A) (A) (A) (A) (A) (A) (A) (A) (A) (A) (A)
                 (A) (A) (A) (A) (A) (A) (A) (A) (A) (A) (A) (A)
                 (A) (A) (A) (A) (A) (A) (A) (A) (A) (A) (A) (A)
                 (A) (A) (A) (A) (A) (A) (A) (A) (A) (A) (A) (A)
                 (A) (A) (A) (A) (A) (A) (A) (A) (A)
 The electronic state is 1-A.
 Alpha  occ. eigenvalues --  -24.72310 -24.71920 -19.13564 -14.31653 -10.28199
 Alpha  occ. eigenvalues --  -10.28094 -10.21979 -10.21518 -10.20936 -10.20664
 Alpha  occ. eigenvalues --  -10.20577 -10.19930 -10.19865 -10.18582 -10.17441
 Alpha  occ. eigenvalues --  -10.17010 -10.16947  -1.23643  -1.23279  -1.00703
 Alpha  occ. eigenvalues --   -0.90689  -0.86809  -0.79908  -0.76734  -0.75443
 Alpha  occ. eigenvalues --   -0.75373  -0.68774  -0.66946  -0.64891  -0.62974
 Alpha  occ. eigenvalues --   -0.61245  -0.59371  -0.56217  -0.54234  -0.52692
 Alpha  occ. eigenvalues --   -0.50732  -0.49608  -0.49358  -0.48355  -0.47131
 Alpha  occ. eigenvalues --   -0.46800  -0.46658  -0.45170  -0.44384  -0.43679
 Alpha  occ. eigenvalues --   -0.42895  -0.41843  -0.40023  -0.39596  -0.38825
 Alpha  occ. eigenvalues --   -0.38548  -0.37277  -0.36532  -0.35821  -0.35533
 Alpha  occ. eigenvalues --   -0.35364  -0.34960  -0.33802  -0.31943  -0.31007
 Alpha  occ. eigenvalues --   -0.30689  -0.25907  -0.25560  -0.24791  -0.22068
 Alpha virt. eigenvalues --   -0.01386  -0.00291   0.07516   0.08127   0.09321
 Alpha virt. eigenvalues --    0.09844   0.11787   0.12541   0.13959   0.14404
 Alpha virt. eigenvalues --    0.14908   0.15199   0.15766   0.15960   0.16902
 Alpha virt. eigenvalues --    0.17219   0.17901   0.18123   0.19005   0.19443
 Alpha virt. eigenvalues --    0.20661   0.20998   0.21640   0.22642   0.22982
 Alpha virt. eigenvalues --    0.24466   0.24717   0.25297   0.26119   0.27861
 Alpha virt. eigenvalues --    0.28168   0.28983   0.29745   0.30918   0.31881
 Alpha virt. eigenvalues --    0.37614   0.38436   0.45935   0.49620   0.50136
 Alpha virt. eigenvalues --    0.50566   0.50679   0.51470   0.52250   0.52735
 Alpha virt. eigenvalues --    0.54257   0.55444   0.55603   0.57323   0.57785
 Alpha virt. eigenvalues --    0.58203   0.59276   0.59627   0.60138   0.61423
 Alpha virt. eigenvalues --    0.62789   0.63461   0.64427   0.65304   0.66140
 Alpha virt. eigenvalues --    0.66912   0.67242   0.67977   0.69492   0.71472
 Alpha virt. eigenvalues --    0.72964   0.74587   0.76557   0.77941   0.78753
 Alpha virt. eigenvalues --    0.80720   0.80928   0.81734   0.82697   0.83364
 Alpha virt. eigenvalues --    0.84097   0.85058   0.85593   0.86589   0.86708
 Alpha virt. eigenvalues --    0.87750   0.88311   0.88739   0.89048   0.90513
 Alpha virt. eigenvalues --    0.91605   0.92530   0.93067   0.93868   0.94604
 Alpha virt. eigenvalues --    0.95456   0.95980   0.96634   0.98200   0.99664
 Alpha virt. eigenvalues --    0.99983   1.02340   1.03764   1.04850   1.05153
 Alpha virt. eigenvalues --    1.06083   1.09038   1.09871   1.14653   1.15307
 Alpha virt. eigenvalues --    1.20967   1.21088   1.21777   1.22123   1.22728
 Alpha virt. eigenvalues --    1.24383   1.25633   1.27547   1.30173   1.32539
 Alpha virt. eigenvalues --    1.34062   1.36131   1.36518   1.38353   1.39251
 Alpha virt. eigenvalues --    1.40157   1.41228   1.41756   1.42679   1.44316
 Alpha virt. eigenvalues --    1.45595   1.47171   1.50742   1.51998   1.54918
 Alpha virt. eigenvalues --    1.56166   1.58771   1.59961   1.61998   1.66593
 Alpha virt. eigenvalues --    1.68151   1.68634   1.71956   1.73147   1.73995
 Alpha virt. eigenvalues --    1.74972   1.76820   1.78563   1.78870   1.80999
 Alpha virt. eigenvalues --    1.82266   1.83129   1.84730   1.84813   1.85218
 Alpha virt. eigenvalues --    1.86857   1.87909   1.88633   1.89213   1.90685
 Alpha virt. eigenvalues --    1.91357   1.92644   1.93543   1.93717   1.94704
 Alpha virt. eigenvalues --    1.95985   1.97531   1.98444   1.98968   2.00720
 Alpha virt. eigenvalues --    2.01359   2.02475   2.03918   2.04651   2.06132
 Alpha virt. eigenvalues --    2.06438   2.07249   2.08322   2.09254   2.11390
 Alpha virt. eigenvalues --    2.12757   2.13398   2.14992   2.16049   2.16683
 Alpha virt. eigenvalues --    2.19161   2.20143   2.20868   2.24486   2.25088
 Alpha virt. eigenvalues --    2.27711   2.28161   2.29034   2.29488   2.30471
 Alpha virt. eigenvalues --    2.30801   2.31430   2.32404   2.33164   2.34743
 Alpha virt. eigenvalues --    2.35204   2.37067   2.37916   2.38676   2.39147
 Alpha virt. eigenvalues --    2.40143   2.41056   2.44061   2.47100   2.48100
 Alpha virt. eigenvalues --    2.51010   2.52277   2.53000   2.54598   2.55775
 Alpha virt. eigenvalues --    2.56773   2.57858   2.60040   2.60779   2.63430
 Alpha virt. eigenvalues --    2.64331   2.65682   2.66381   2.66615   2.68080
 Alpha virt. eigenvalues --    2.70495   2.72506   2.72750   2.74312   2.74782
 Alpha virt. eigenvalues --    2.75565   2.76354   2.77919   2.78591   2.79634
 Alpha virt. eigenvalues --    2.83447   2.85177   2.86451   2.88983   2.89912
 Alpha virt. eigenvalues --    2.90125   2.91599   2.92718   2.93424   2.95169
 Alpha virt. eigenvalues --    2.97809   2.99305   3.04282   3.06128   3.06897
 Alpha virt. eigenvalues --    3.10155   3.14656   3.20080   3.20373   3.21642
 Alpha virt. eigenvalues --    3.25609   3.29662   3.32271   3.32849   3.35484
 Alpha virt. eigenvalues --    3.36060   3.39305   3.40061   3.42141   3.44711
 Alpha virt. eigenvalues --    3.45987   3.46435   3.49331   3.51501   3.55299
 Alpha virt. eigenvalues --    3.56907   3.58006   3.80379   3.95951   4.07772
 Alpha virt. eigenvalues --    4.11554   4.13344   4.18413   4.32552   4.38747
 Alpha virt. eigenvalues --    4.40845   4.44825   4.53063   4.56992   4.59806
 Alpha virt. eigenvalues --    4.67934   4.75492   4.79125   5.54548   5.56590
          Condensed to atoms (all electrons):
               1          2          3          4          5          6
     1  C    4.936187   0.352830  -0.037143  -0.005338  -0.001010   0.000011
     2  C    0.352830   4.976554   0.365117  -0.033146  -0.008578  -0.000015
     3  C   -0.037143   0.365117   4.840723   0.361042  -0.036038   0.002013
     4  C   -0.005338  -0.033146   0.361042   4.992370   0.363229  -0.049421
     5  C   -0.001010  -0.008578  -0.036038   0.363229   4.748936   0.223555
     6  O    0.000011  -0.000015   0.002013  -0.049421   0.223555   8.186502
     7  N    0.003720  -0.061627   0.279597  -0.042164  -0.004467   0.000059
     8  C    0.000038  -0.003218  -0.045593   0.005048   0.000170   0.000000
     9  C    0.000000   0.000000   0.000003   0.000001   0.000000   0.000000
    10  C    0.000000  -0.000001  -0.000070   0.000001   0.000000   0.000000
    11  C   -0.000015   0.000340   0.000056  -0.000002  -0.000001   0.000000
    12  C    0.000086  -0.001489  -0.006731  -0.000288   0.000019   0.000000
    13  C    0.000001  -0.000006  -0.001048  -0.000061  -0.000001   0.000000
    14  C    0.000000   0.000002   0.000007  -0.000001   0.000000   0.000000
    15  H    0.000000   0.000000   0.000000   0.000000   0.000000   0.000000
    16  H    0.000000   0.000000   0.000000   0.000000   0.000000   0.000000
    17  H    0.000000   0.000000   0.000001   0.000000   0.000000   0.000000
    18  F   -0.000021  -0.001503   0.000207   0.000002   0.000000   0.000000
    19  F    0.000000  -0.000001  -0.000047  -0.000001   0.000001   0.000000
    20  H    0.385871  -0.036841  -0.004789  -0.001679   0.000169   0.000000
    21  H    0.388262  -0.034289  -0.005568   0.001407   0.000785  -0.000030
    22  H    0.379947  -0.027628   0.004061   0.000269  -0.000021   0.000000
    23  H   -0.039270   0.374106  -0.030423   0.004735   0.000084   0.000000
    24  H   -0.037805   0.371371  -0.032034  -0.009725   0.002934  -0.000051
    25  H    0.004193  -0.008604  -0.030430   0.376354  -0.041806   0.003299
    26  H    0.000051   0.002013  -0.002313  -0.042486   0.379911  -0.040465
    27  H    0.000104  -0.000853  -0.003245  -0.035157   0.370398  -0.040863
    28  H    0.000000   0.000004  -0.000251   0.006123  -0.024514   0.284708
    29  H   -0.000258   0.003132  -0.006932   0.000070  -0.000024   0.000000
    30  H   -0.000004   0.000104   0.005935  -0.000182  -0.000011   0.000000
    31  H   -0.000774  -0.060529   0.371293  -0.044150   0.006342  -0.000038
    32  C   -0.000008   0.005565  -0.035586   0.351961  -0.050518   0.001501
    33  H   -0.000001  -0.000116   0.004122  -0.027471  -0.004676   0.007546
    34  H   -0.000004   0.000065  -0.005111  -0.032558   0.005098   0.000129
    35  H    0.000002  -0.000112  -0.005349  -0.033390  -0.006256  -0.000337
    36  H   -0.000174   0.005846  -0.039176  -0.008196  -0.000593  -0.000039
               7          8          9         10         11         12
     1  C    0.003720   0.000038   0.000000   0.000000  -0.000015   0.000086
     2  C   -0.061627  -0.003218   0.000000  -0.000001   0.000340  -0.001489
     3  C    0.279597  -0.045593   0.000003  -0.000070   0.000056  -0.006731
     4  C   -0.042164   0.005048   0.000001   0.000001  -0.000002  -0.000288
     5  C   -0.004467   0.000170   0.000000   0.000000  -0.000001   0.000019
     6  O    0.000059   0.000000   0.000000   0.000000   0.000000   0.000000
     7  N    6.893016   0.324291  -0.000004  -0.000098  -0.000096  -0.064042
     8  C    0.324291   4.934285  -0.000614   0.007693  -0.041266   0.268544
     9  C   -0.000004  -0.000614   4.852685   0.489720  -0.010062  -0.028699
    10  C   -0.000098   0.007693   0.489720   5.043319   0.476557  -0.072335
    11  C   -0.000096  -0.041266  -0.010062   0.476557   4.595993   0.415023
    12  C   -0.064042   0.268544  -0.028699  -0.072335   0.415023   5.380579
    13  C   -0.004155  -0.055415  -0.010280  -0.045271   0.012585   0.393018
    14  C    0.000073   0.008117   0.489957  -0.033383  -0.047180  -0.072055
    15  H    0.000000   0.000004   0.375612  -0.034511   0.003651   0.000203
    16  H    0.000002  -0.000130  -0.037727   0.358821  -0.033060   0.006612
    17  H    0.000008  -0.000137  -0.037227   0.004705   0.000500   0.006681
    18  F    0.000022  -0.003661   0.002996  -0.046070   0.303100  -0.052315
    19  F   -0.005150   0.005592   0.002871  -0.000054   0.002301  -0.059032
    20  H    0.000039  -0.000017   0.000000  -0.000001  -0.000003   0.000007
    21  H   -0.000014   0.000001   0.000000   0.000000   0.000000   0.000000
    22  H   -0.000091   0.000003   0.000000   0.000000   0.000000  -0.000001
    23  H   -0.003687   0.001285  -0.000002   0.000033   0.000480  -0.001393
    24  H    0.003278  -0.000378   0.000000   0.000000  -0.000019   0.000231
    25  H    0.003767  -0.000160   0.000000   0.000000   0.000002   0.000014
    26  H   -0.000350  -0.000026   0.000000   0.000000   0.000000   0.000000
    27  H    0.008904  -0.000028   0.000000   0.000000   0.000000   0.000019
    28  H    0.000007   0.000000   0.000000   0.000000   0.000000   0.000000
    29  H   -0.034007   0.385883  -0.000034   0.000427  -0.005299  -0.045148
    30  H   -0.037850   0.380504   0.000003  -0.000273   0.003353  -0.045957
    31  H   -0.059132  -0.011208  -0.000005  -0.000026   0.001353   0.013808
    32  C   -0.004320   0.000039  -0.000001   0.000000   0.000007   0.000006
    33  H    0.000173   0.000002   0.000000   0.000000   0.000000   0.000001
    34  H   -0.000773  -0.000114  -0.000003  -0.000003  -0.000019   0.000102
    35  H    0.000277  -0.000184   0.000000   0.000000  -0.000001   0.000060
    36  H    0.331603  -0.035544  -0.000034   0.000035  -0.000227  -0.013676
              13         14         15         16         17         18
     1  C    0.000001   0.000000   0.000000   0.000000   0.000000  -0.000021
     2  C   -0.000006   0.000002   0.000000   0.000000   0.000000  -0.001503
     3  C   -0.001048   0.000007   0.000000   0.000000   0.000001   0.000207
     4  C   -0.000061  -0.000001   0.000000   0.000000   0.000000   0.000002
     5  C   -0.000001   0.000000   0.000000   0.000000   0.000000   0.000000
     6  O    0.000000   0.000000   0.000000   0.000000   0.000000   0.000000
     7  N   -0.004155   0.000073   0.000000   0.000002   0.000008   0.000022
     8  C   -0.055415   0.008117   0.000004  -0.000130  -0.000137  -0.003661
     9  C   -0.010280   0.489957   0.375612  -0.037727  -0.037227   0.002996
    10  C   -0.045271  -0.033383  -0.034511   0.358821   0.004705  -0.046070
    11  C    0.012585  -0.047180   0.003651  -0.033060   0.000500   0.303100
    12  C    0.393018  -0.072055   0.000203   0.006612   0.006681  -0.052315
    13  C    4.621553   0.487551   0.003705   0.000389  -0.033788   0.002448
    14  C    0.487551   5.032851  -0.035100   0.004874   0.358864  -0.000022
    15  H    0.003705  -0.035100   0.581085  -0.005969  -0.006014  -0.000023
    16  H    0.000389   0.004874  -0.005969   0.595461  -0.000147  -0.000444
    17  H   -0.033788   0.358864  -0.006014  -0.000147   0.594450   0.000001
    18  F    0.002448  -0.000022  -0.000023  -0.000444   0.000001   9.071181
    19  F    0.303187  -0.045968  -0.000023   0.000001  -0.000241   0.000000
    20  H    0.000000   0.000000   0.000000   0.000000   0.000000   0.000015
    21  H    0.000000   0.000000   0.000000   0.000000   0.000000   0.000000
    22  H    0.000000   0.000000   0.000000   0.000000   0.000000  -0.000001
    23  H   -0.000023   0.000001   0.000000   0.000000   0.000000   0.005562
    24  H    0.000002   0.000000   0.000000   0.000000   0.000000   0.000015
    25  H   -0.000001   0.000000   0.000000   0.000000   0.000000   0.000000
    26  H    0.000000   0.000000   0.000000   0.000000   0.000000   0.000000
    27  H   -0.000002   0.000000   0.000000   0.000000   0.000000   0.000000
    28  H    0.000000   0.000000   0.000000   0.000000   0.000000   0.000000
    29  H    0.004435  -0.000138   0.000000  -0.000003   0.000002   0.007154
    30  H   -0.007922   0.000096   0.000000   0.000003   0.000002   0.000234
    31  H    0.001734  -0.000181   0.000000  -0.000013  -0.000005   0.000068
    32  C    0.000018  -0.000020   0.000000   0.000000   0.000001   0.000000
    33  H    0.000000   0.000000   0.000000   0.000000   0.000000   0.000000
    34  H    0.000410   0.000067   0.000000   0.000000   0.000001   0.000000
    35  H   -0.000024  -0.000011   0.000000   0.000000   0.000000   0.000000
    36  H    0.004011   0.000159   0.000000   0.000000   0.000005  -0.000010
              19         20         21         22         23         24
     1  C    0.000000   0.385871   0.388262   0.379947  -0.039270  -0.037805
     2  C   -0.000001  -0.036841  -0.034289  -0.027628   0.374106   0.371371
     3  C   -0.000047  -0.004789  -0.005568   0.004061  -0.030423  -0.032034
     4  C   -0.000001  -0.001679   0.001407   0.000269   0.004735  -0.009725
     5  C    0.000001   0.000169   0.000785  -0.000021   0.000084   0.002934
     6  O    0.000000   0.000000  -0.000030   0.000000   0.000000  -0.000051
     7  N   -0.005150   0.000039  -0.000014  -0.000091  -0.003687   0.003278
     8  C    0.005592  -0.000017   0.000001   0.000003   0.001285  -0.000378
     9  C    0.002871   0.000000   0.000000   0.000000  -0.000002   0.000000
    10  C   -0.000054  -0.000001   0.000000   0.000000   0.000033   0.000000
    11  C    0.002301  -0.000003   0.000000   0.000000   0.000480  -0.000019
    12  C   -0.059032   0.000007   0.000000  -0.000001  -0.001393   0.000231
    13  C    0.303187   0.000000   0.000000   0.000000  -0.000023   0.000002
    14  C   -0.045968   0.000000   0.000000   0.000000   0.000001   0.000000
    15  H   -0.000023   0.000000   0.000000   0.000000   0.000000   0.000000
    16  H    0.000001   0.000000   0.000000   0.000000   0.000000   0.000000
    17  H   -0.000241   0.000000   0.000000   0.000000   0.000000   0.000000
    18  F    0.000000   0.000015   0.000000  -0.000001   0.005562   0.000015
    19  F    9.069533   0.000000   0.000000   0.000000   0.000000   0.000000
    20  H    0.000000   0.607010  -0.032837  -0.031143  -0.003774   0.005747
    21  H    0.000000  -0.032837   0.601786  -0.031669   0.005512  -0.006615
    22  H    0.000000  -0.031143  -0.031669   0.612917  -0.005823  -0.002031
    23  H    0.000000  -0.003774   0.005512  -0.005823   0.637150  -0.037177
    24  H    0.000000   0.005747  -0.006615  -0.002031  -0.037177   0.633476
    25  H    0.000000   0.000849   0.001471  -0.000060   0.000036   0.000072
    26  H    0.000000  -0.000007   0.001081  -0.000043  -0.000044   0.003134
    27  H   -0.000001  -0.000002  -0.000030   0.000001  -0.000027   0.000223
    28  H    0.000000   0.000000  -0.000002   0.000000   0.000000   0.000011
    29  H    0.000143   0.000013   0.000000   0.000012   0.002039   0.000334
    30  H    0.002183   0.000000   0.000000   0.000000  -0.000036  -0.000070
    31  H    0.000017   0.005651  -0.000148  -0.000116  -0.006312   0.006833
    32  C   -0.000101  -0.000070  -0.000044  -0.000003  -0.000129  -0.000041
    33  H    0.000000   0.000000   0.000007   0.000000   0.000002   0.000000
    34  H   -0.000017   0.000012   0.000003   0.000000  -0.000005   0.000007
    35  H    0.000060   0.000000  -0.000001   0.000000   0.000000   0.000001
    36  H    0.013652   0.000000  -0.000003   0.000003  -0.000205   0.000011
              25         26         27         28         29         30
     1  C    0.004193   0.000051   0.000104   0.000000  -0.000258  -0.000004
     2  C   -0.008604   0.002013  -0.000853   0.000004   0.003132   0.000104
     3  C   -0.030430  -0.002313  -0.003245  -0.000251  -0.006932   0.005935
     4  C    0.376354  -0.042486  -0.035157   0.006123   0.000070  -0.000182
     5  C   -0.041806   0.379911   0.370398  -0.024514  -0.000024  -0.000011
     6  O    0.003299  -0.040465  -0.040863   0.284708   0.000000   0.000000
     7  N    0.003767  -0.000350   0.008904   0.000007  -0.034007  -0.037850
     8  C   -0.000160  -0.000026  -0.000028   0.000000   0.385883   0.380504
     9  C    0.000000   0.000000   0.000000   0.000000  -0.000034   0.000003
    10  C    0.000000   0.000000   0.000000   0.000000   0.000427  -0.000273
    11  C    0.000002   0.000000   0.000000   0.000000  -0.005299   0.003353
    12  C    0.000014   0.000000   0.000019   0.000000  -0.045148  -0.045957
    13  C   -0.000001   0.000000  -0.000002   0.000000   0.004435  -0.007922
    14  C    0.000000   0.000000   0.000000   0.000000  -0.000138   0.000096
    15  H    0.000000   0.000000   0.000000   0.000000   0.000000   0.000000
    16  H    0.000000   0.000000   0.000000   0.000000  -0.000003   0.000003
    17  H    0.000000   0.000000   0.000000   0.000000   0.000002   0.000002
    18  F    0.000000   0.000000   0.000000   0.000000   0.007154   0.000234
    19  F    0.000000   0.000000  -0.000001   0.000000   0.000143   0.002183
    20  H    0.000849  -0.000007  -0.000002   0.000000   0.000013   0.000000
    21  H    0.001471   0.001081  -0.000030  -0.000002   0.000000   0.000000
    22  H   -0.000060  -0.000043   0.000001   0.000000   0.000012   0.000000
    23  H    0.000036  -0.000044  -0.000027   0.000000   0.002039  -0.000036
    24  H    0.000072   0.003134   0.000223   0.000011   0.000334  -0.000070
    25  H    0.640493  -0.007035   0.006955  -0.000103  -0.000003   0.000003
    26  H   -0.007035   0.670561  -0.051997  -0.004078  -0.000001   0.000000
    27  H    0.006955  -0.051997   0.667506  -0.004867  -0.000006  -0.000002
    28  H   -0.000103  -0.004078  -0.004867   0.423287   0.000000   0.000000
    29  H   -0.000003  -0.000001  -0.000006   0.000000   0.589488  -0.031740
    30  H    0.000003   0.000000  -0.000002   0.000000  -0.031740   0.616247
    31  H   -0.002455  -0.000038   0.000152   0.000005  -0.000698  -0.000093
    32  C   -0.048568   0.006646  -0.012055   0.000096  -0.000002   0.000016
    33  H   -0.005242   0.000135   0.000086  -0.000320   0.000000   0.000000
    34  H   -0.002658  -0.000148  -0.000006   0.000003  -0.000001   0.000001
    35  H    0.005845  -0.000050   0.005653  -0.000038  -0.000004   0.000008
    36  H    0.000103   0.000014   0.000123   0.000002   0.005801  -0.004712
              31         32         33         34         35         36
     1  C   -0.000774  -0.000008  -0.000001  -0.000004   0.000002  -0.000174
     2  C   -0.060529   0.005565  -0.000116   0.000065  -0.000112   0.005846
     3  C    0.371293  -0.035586   0.004122  -0.005111  -0.005349  -0.039176
     4  C   -0.044150   0.351961  -0.027471  -0.032558  -0.033390  -0.008196
     5  C    0.006342  -0.050518  -0.004676   0.005098  -0.006256  -0.000593
     6  O   -0.000038   0.001501   0.007546   0.000129  -0.000337  -0.000039
     7  N   -0.059132  -0.004320   0.000173  -0.000773   0.000277   0.331603
     8  C   -0.011208   0.000039   0.000002  -0.000114  -0.000184  -0.035544
     9  C   -0.000005  -0.000001   0.000000  -0.000003   0.000000  -0.000034
    10  C   -0.000026   0.000000   0.000000  -0.000003   0.000000   0.000035
    11  C    0.001353   0.000007   0.000000  -0.000019  -0.000001  -0.000227
    12  C    0.013808   0.000006   0.000001   0.000102   0.000060  -0.013676
    13  C    0.001734   0.000018   0.000000   0.000410  -0.000024   0.004011
    14  C   -0.000181  -0.000020   0.000000   0.000067  -0.000011   0.000159
    15  H    0.000000   0.000000   0.000000   0.000000   0.000000   0.000000
    16  H   -0.000013   0.000000   0.000000   0.000000   0.000000   0.000000
    17  H   -0.000005   0.000001   0.000000   0.000001   0.000000   0.000005
    18  F    0.000068   0.000000   0.000000   0.000000   0.000000  -0.000010
    19  F    0.000017  -0.000101   0.000000  -0.000017   0.000060   0.013652
    20  H    0.005651  -0.000070   0.000000   0.000012   0.000000   0.000000
    21  H   -0.000148  -0.000044   0.000007   0.000003  -0.000001  -0.000003
    22  H   -0.000116  -0.000003   0.000000   0.000000   0.000000   0.000003
    23  H   -0.006312  -0.000129   0.000002  -0.000005   0.000000  -0.000205
    24  H    0.006833  -0.000041   0.000000   0.000007   0.000001   0.000011
    25  H   -0.002455  -0.048568  -0.005242  -0.002658   0.005845   0.000103
    26  H   -0.000038   0.006646   0.000135  -0.000148  -0.000050   0.000014
    27  H    0.000152  -0.012055   0.000086  -0.000006   0.005653   0.000123
    28  H    0.000005   0.000096  -0.000320   0.000003  -0.000038   0.000002
    29  H   -0.000698  -0.000002   0.000000  -0.000001  -0.000004   0.005801
    30  H   -0.000093   0.000016   0.000000   0.000001   0.000008  -0.004712
    31  H    0.713659  -0.011483  -0.000150   0.006851  -0.000107  -0.001025
    32  C   -0.011483   4.987888   0.379801   0.377018   0.378086   0.005428
    33  H   -0.000150   0.379801   0.588525  -0.031019  -0.028940  -0.000323
    34  H    0.006851   0.377018  -0.031019   0.613603  -0.032848   0.000045
    35  H   -0.000107   0.378086  -0.028940  -0.032848   0.613173   0.005010
    36  H   -0.001025   0.005428  -0.000323   0.000045   0.005010   0.484516
 Mulliken charges:
               1
     1  C   -0.329478
     2  C   -0.178493
     3  C    0.093701
     4  C   -0.097196
     5  C    0.076887
     6  O   -0.578065
     7  N   -0.526812
     8  C   -0.123807
     9  C   -0.089155
    10  C   -0.149214
    11  C    0.321949
    12  C   -0.021849
    13  C    0.322947
    14  C   -0.148561
    15  H    0.117378
    16  H    0.111332
    17  H    0.112339
    18  F   -0.288931
    19  F   -0.288903
    20  H    0.105782
    21  H    0.110933
    22  H    0.101418
    23  H    0.097305
    24  H    0.098264
    25  H    0.103666
    26  H    0.085536
    27  H    0.089016
    28  H    0.319929
    29  H    0.125365
    30  H    0.120156
    31  H    0.070919
    32  C   -0.331128
    33  H    0.117856
    34  H    0.101871
    35  H    0.099476
    36  H    0.247568
 Sum of Mulliken charges =   0.00000
 Mulliken charges with hydrogens summed into heavy atoms:
               1
     1  C   -0.011346
     2  C    0.017076
     3  C    0.164620
     4  C    0.006470
     5  C    0.251439
     6  O   -0.258136
     7  N   -0.279244
     8  C    0.121714
     9  C    0.028223
    10  C   -0.037883
    11  C    0.321949
    12  C   -0.021849
    13  C    0.322947
    14  C   -0.036222
    18  F   -0.288931
    19  F   -0.288903
    32  C   -0.011925
 Electronic spatial extent (au):  <R**2>=           4824.3347
 Charge=              0.0000 electrons
 Dipole moment (field-independent basis, Debye):
    X=              1.6006    Y=             -0.0048    Z=              0.0193  Tot=              1.6007
 Quadrupole moment (field-independent basis, Debye-Ang):
   XX=            -90.8659   YY=           -101.6036   ZZ=           -100.7129
   XY=             -2.5678   XZ=            -11.3470   YZ=             -0.9658
 Traceless Quadrupole moment (field-independent basis, Debye-Ang):
   XX=              6.8616   YY=             -3.8761   ZZ=             -2.9855
   XY=             -2.5678   XZ=            -11.3470   YZ=             -0.9658
 Octapole moment (field-independent basis, Debye-Ang**2):
  XXX=             -0.6331  YYY=             -8.6175  ZZZ=              8.9927  XYY=              3.1482
  XXY=             -9.7701  XXZ=             18.4178  XZZ=             11.1677  YZZ=             -1.0362
  YYZ=              2.7058  XYZ=             11.1517
 Hexadecapole moment (field-independent basis, Debye-Ang**3):
 XXXX=          -3733.8261 YYYY=          -1388.3562 ZZZZ=           -575.2578 XXXY=             65.1673
 XXXZ=           -322.1495 YYYX=             13.3481 YYYZ=             -3.9552 ZZZX=             18.7114
 ZZZY=             -8.8302 XXYY=           -894.9498 XXZZ=           -761.0685 YYZZ=           -323.8327
 XXYZ=            -44.6529 YYXZ=            -32.9921 ZZXY=             15.1252
 N-N= 1.285963113427D+03 E-N=-4.526041871751D+03  KE= 8.291477675460D+02
 D1PCM: PCM CHGder 1st derivatives, ID1Alg=3 FixD1E=F DoIter=F DoCFld=F I1PDM=0.
 Calling FoFJK, ICntrl=      2127 FMM=F ISym2X=0 I1Cent= 0 IOpClX= 0 NMat=1 NMatS=1 NMatT=0.
 ***** Axes restored to original set *****
 -------------------------------------------------------------------
 Center     Atomic                   Forces (Hartrees/Bohr)
 Number     Number              X              Y              Z
 -------------------------------------------------------------------
      1        6          -0.003498941   -0.001405924    0.000157775
      2        6           0.002159847    0.000729808   -0.001653287
      3        6          -0.005310694    0.003980745    0.003649649
      4        6           0.004952881    0.002966617    0.003604333
      5        6          -0.004531066    0.000268455    0.002889994
      6        8          -0.002732282   -0.002416918    0.008970928
      7        7          -0.005227750    0.003850401    0.001149616
      8        6          -0.002108412    0.013840732    0.004017382
      9        6          -0.004710473    0.002897324   -0.000408825
     10        6          -0.001406278   -0.005224493   -0.007061314
     11        6           0.022542392   -0.006056127    0.010922321
     12        6          -0.007481766    0.002703596   -0.006394919
     13        6           0.008344612   -0.019803550   -0.015922324
     14        6           0.004602253    0.002966821    0.007052017
     15        1          -0.001540082    0.001212772    0.000293598
     16        1          -0.001003142    0.000812088    0.000236102
     17        1          -0.001105203    0.001039663    0.000179203
     18        9          -0.007918914    0.001802878   -0.003750364
     19        9          -0.003454083    0.007666873    0.006055957
     20        1          -0.000722395   -0.001678662    0.000495406
     21        1           0.000041133   -0.002306579    0.000217436
     22        1           0.000085967   -0.001186022    0.000156629
     23        1           0.002819701    0.002033236    0.001359720
     24        1           0.002693916    0.001555968    0.001273321
     25        1          -0.002759639    0.002416689   -0.004334311
     26        1           0.000960582    0.002139250   -0.007845414
     27        1           0.003647257    0.001862556   -0.006871933
     28        1           0.004156023   -0.005464239   -0.001573627
     29        1           0.001165382   -0.004785582    0.003386706
     30        1          -0.000961710    0.000188492    0.002808568
     31        1           0.000043912   -0.006732844   -0.001015206
     32        6           0.000434728   -0.001632668    0.001426949
     33        1          -0.000389615    0.002236649   -0.001315260
     34        1           0.000596674    0.000376552   -0.000598800
     35        1           0.001393392    0.000586557    0.000775937
     36        1          -0.003778205   -0.001441115   -0.002333964
 -------------------------------------------------------------------
 Cartesian Forces:  Max     0.022542392 RMS     0.005045769

 GradGradGradGradGradGradGradGradGradGradGradGradGradGradGradGradGradGrad
 Berny optimization.
 FormGI is forming the generalized inverse of G from B-inverse, IUseBI=4.
 Internal  Forces:  Max     0.012645772 RMS     0.003096743
 Search for a local minimum.
 Step number   1 out of a maximum of   50
 All quantities printed in internal units (Hartrees-Bohrs-Radians)
 Mixed Optimization -- RFO/linear search
 Second derivative matrix not updated -- first step.
 ITU=  0
     Eigenvalues ---    0.00230   0.00230   0.00245   0.00300   0.00455
     Eigenvalues ---    0.00678   0.00735   0.00785   0.01350   0.01559
     Eigenvalues ---    0.02144   0.02151   0.02153   0.02160   0.02164
     Eigenvalues ---    0.02168   0.02169   0.02171   0.02558   0.03172
     Eigenvalues ---    0.03347   0.03710   0.04547   0.04597   0.04734
     Eigenvalues ---    0.04769   0.05074   0.05088   0.05302   0.05486
     Eigenvalues ---    0.05498   0.05525   0.05712   0.05830   0.06465
     Eigenvalues ---    0.08607   0.10395   0.11404   0.11547   0.12400
     Eigenvalues ---    0.13557   0.13765   0.16000   0.16000   0.16000
     Eigenvalues ---    0.16000   0.16000   0.16000   0.16000   0.16000
     Eigenvalues ---    0.16000   0.16000   0.16979   0.17158   0.17444
     Eigenvalues ---    0.18061   0.21923   0.21928   0.22014   0.22085
     Eigenvalues ---    0.23414   0.23491   0.24908   0.25000   0.25000
     Eigenvalues ---    0.25000   0.26728   0.27766   0.28572   0.28948
     Eigenvalues ---    0.30028   0.32130   0.33916   0.33941   0.33964
     Eigenvalues ---    0.34085   0.34139   0.34188   0.34227   0.34238
     Eigenvalues ---    0.34260   0.34260   0.34305   0.34307   0.34393
     Eigenvalues ---    0.34437   0.34955   0.35157   0.35268   0.35277
     Eigenvalues ---    0.35914   0.41588   0.42350   0.42492   0.44246
     Eigenvalues ---    0.46326   0.46490   0.46552   0.46649   0.52855
     Eigenvalues ---    0.56947   0.57056
 RFO step:  Lambda=-8.88326479D-03 EMin= 2.30000000D-03
 Linear search not attempted -- first point.
 Iteration  1 RMS(Cart)=  0.06573768 RMS(Int)=  0.00096769
 Iteration  2 RMS(Cart)=  0.00236234 RMS(Int)=  0.00030964
 Iteration  3 RMS(Cart)=  0.00000273 RMS(Int)=  0.00030963
 Iteration  4 RMS(Cart)=  0.00000000 RMS(Int)=  0.00030963
 Variable       Old X    -DE/DX   Delta X   Delta X   Delta X     New X
                                 (Linear)    (Quad)   (Total)
    R1        2.87908   0.00779   0.00000   0.02520   0.02520   2.90428
    R2        2.06819   0.00089   0.00000   0.00254   0.00254   2.07073
    R3        2.06673   0.00032   0.00000   0.00091   0.00091   2.06763
    R4        2.06930  -0.00016   0.00000  -0.00044  -0.00044   2.06886
    R5        2.92654  -0.00399   0.00000  -0.01391  -0.01391   2.91262
    R6        2.07096  -0.00012   0.00000  -0.00036  -0.00036   2.07060
    R7        2.07186  -0.00024   0.00000  -0.00068  -0.00068   2.07118
    R8        2.95007  -0.00678   0.00000  -0.02455  -0.02455   2.92552
    R9        2.79048  -0.00044   0.00000  -0.00123  -0.00123   2.78926
   R10        2.07429   0.00526   0.00000   0.01511   0.01511   2.08939
   R11        2.90112  -0.00506   0.00000  -0.01697  -0.01697   2.88415
   R12        2.07392  -0.00095   0.00000  -0.00273  -0.00273   2.07119
   R13        2.90904   0.00160   0.00000   0.00543   0.00543   2.91447
   R14        2.69451   0.00845   0.00000   0.01989   0.01989   2.71440
   R15        2.06599   0.00403   0.00000   0.01140   0.01140   2.07739
   R16        2.06893   0.00265   0.00000   0.00754   0.00754   2.07647
   R17        1.83789  -0.00700   0.00000  -0.01302  -0.01302   1.82488
   R18        2.77516   0.00118   0.00000   0.00321   0.00321   2.77836
   R19        1.92861  -0.00436   0.00000  -0.00965  -0.00965   1.91896
   R20        2.83906   0.01265   0.00000   0.03830   0.03830   2.87736
   R21        2.06893  -0.00334   0.00000  -0.00951  -0.00951   2.05943
   R22        2.07473  -0.00010   0.00000  -0.00028  -0.00028   2.07445
   R23        2.63411   0.00052   0.00000   0.00130   0.00126   2.63537
   R24        2.63364   0.00205   0.00000   0.00442   0.00438   2.63802
   R25        2.05421  -0.00198   0.00000  -0.00551  -0.00551   2.04870
   R26        2.63553  -0.00230   0.00000  -0.00475  -0.00475   2.63078
   R27        2.05242  -0.00069   0.00000  -0.00191  -0.00191   2.05051
   R28        2.63739   0.00091   0.00000   0.00183   0.00186   2.63925
   R29        2.53349   0.00840   0.00000   0.01449   0.01449   2.54799
   R30        2.63882  -0.00050   0.00000  -0.00128  -0.00124   2.63758
   R31        2.63474  -0.00397   0.00000  -0.00847  -0.00847   2.62627
   R32        2.53441   0.00951   0.00000   0.01644   0.01644   2.55085
   R33        2.05228  -0.00069   0.00000  -0.00191  -0.00191   2.05037
   R34        2.07014  -0.00188   0.00000  -0.00537  -0.00537   2.06477
   R35        2.06949   0.00039   0.00000   0.00111   0.00111   2.07060
   R36        2.06814   0.00130   0.00000   0.00369   0.00369   2.07183
    A1        1.93884   0.00134   0.00000   0.00575   0.00574   1.94458
    A2        1.94911   0.00222   0.00000   0.01368   0.01361   1.96273
    A3        1.91867   0.00097   0.00000   0.00741   0.00735   1.92601
    A4        1.89847  -0.00234   0.00000  -0.01685  -0.01686   1.88162
    A5        1.88466  -0.00135   0.00000  -0.00915  -0.00915   1.87550
    A6        1.87173  -0.00106   0.00000  -0.00204  -0.00215   1.86958
    A7        1.99346   0.00166   0.00000   0.00880   0.00892   2.00238
    A8        1.86048   0.00172   0.00000   0.02213   0.02217   1.88265
    A9        1.90455   0.00159   0.00000   0.02046   0.02049   1.92504
   A10        1.91197  -0.00265   0.00000  -0.02490  -0.02512   1.88685
   A11        1.93327  -0.00263   0.00000  -0.02429  -0.02450   1.90877
   A12        1.85364   0.00037   0.00000  -0.00126  -0.00207   1.85157
   A13        1.97386   0.00393   0.00000   0.01285   0.01276   1.98662
   A14        1.92534  -0.00055   0.00000  -0.00481  -0.00480   1.92054
   A15        1.87637  -0.00217   0.00000  -0.01539  -0.01539   1.86098
   A16        1.92673  -0.00374   0.00000  -0.02243  -0.02236   1.90437
   A17        1.85050  -0.00064   0.00000  -0.00605  -0.00587   1.84462
   A18        1.90804   0.00330   0.00000   0.03770   0.03774   1.94578
   A19        1.97644  -0.00063   0.00000  -0.00947  -0.00966   1.96678
   A20        1.89087  -0.00143   0.00000  -0.02485  -0.02524   1.86563
   A21        1.95202   0.00061   0.00000   0.00786   0.00795   1.95997
   A22        1.88131  -0.00056   0.00000  -0.01390  -0.01443   1.86688
   A23        1.92843   0.00020   0.00000   0.00712   0.00717   1.93560
   A24        1.82679   0.00192   0.00000   0.03495   0.03511   1.86190
   A25        1.91534  -0.00989   0.00000  -0.03582  -0.03543   1.87991
   A26        1.94408  -0.00129   0.00000  -0.02185  -0.02187   1.92221
   A27        1.94553  -0.00291   0.00000  -0.03728  -0.03738   1.90816
   A28        1.87248   0.00776   0.00000   0.06240   0.06185   1.93433
[...]
    29  H   -0.000217   0.003867  -0.006645   0.000053  -0.000042   0.000000
    30  H   -0.000003   0.000054   0.005789  -0.000177  -0.000013   0.000000
    31  H   -0.001263  -0.062161   0.370392  -0.047656   0.006611  -0.000041
    32  C    0.000017   0.005395  -0.035894   0.358599  -0.049776  -0.001733
    33  H    0.000000  -0.000127   0.004340  -0.029641  -0.005648   0.010447
    34  H   -0.000005   0.000032  -0.004521  -0.030881   0.005063   0.000112
    35  H    0.000002  -0.000070  -0.005937  -0.034429  -0.005393  -0.000196
    36  H   -0.000182   0.006398  -0.040552  -0.007558  -0.001043  -0.000040
               7          8          9         10         11         12
     1  C    0.003679  -0.000023   0.000000   0.000000  -0.000013   0.000084
     2  C   -0.064138  -0.001445   0.000001  -0.000006   0.000346  -0.001611
     3  C    0.282179  -0.043354   0.000000  -0.000015   0.000583  -0.007221
     4  C   -0.045134   0.005240   0.000000   0.000000  -0.000001  -0.000178
     5  C   -0.005455   0.000224   0.000000   0.000000   0.000000   0.000023
     6  O    0.000088   0.000000   0.000000   0.000000   0.000000   0.000000
     7  N    6.885764   0.324256  -0.000009  -0.000043  -0.000848  -0.062464
     8  C    0.324256   4.932273  -0.000657   0.006502  -0.043476   0.261153
     9  C   -0.000009  -0.000657   4.862098   0.490478  -0.007572  -0.027955
    10  C   -0.000043   0.006502   0.490478   5.019738   0.488209  -0.076494
    11  C   -0.000848  -0.043476  -0.007572   0.488209   4.603069   0.419352
    12  C   -0.062464   0.261153  -0.027955  -0.076494   0.419352   5.387233
    13  C   -0.001813  -0.053209  -0.005710  -0.043327   0.017696   0.384090
    14  C    0.000108   0.007642   0.485191  -0.039033  -0.046030  -0.079107
    15  H    0.000000   0.000005   0.373795  -0.033991   0.003626   0.000423
    16  H    0.000002  -0.000096  -0.036661   0.361518  -0.032705   0.006367
    17  H    0.000008  -0.000110  -0.036453   0.004424   0.000311   0.006388
    18  F    0.000053  -0.005802   0.002868  -0.042489   0.281263  -0.047389
    19  F   -0.004663   0.005183   0.002773   0.000007   0.002462  -0.058012
    20  H    0.000038  -0.000024   0.000000  -0.000001   0.000009   0.000009
    21  H   -0.000021   0.000004   0.000000   0.000000   0.000000  -0.000001
    22  H   -0.000088   0.000003   0.000000   0.000000   0.000000  -0.000001
    23  H   -0.004364   0.002864  -0.000008   0.000040   0.000406  -0.002642
    24  H    0.003784  -0.000874   0.000000   0.000000  -0.000023   0.000360
    25  H    0.004239  -0.000180   0.000000   0.000000   0.000002   0.000015
    26  H   -0.000498  -0.000051   0.000000   0.000000   0.000000   0.000000
    27  H    0.010347  -0.000052   0.000000   0.000000   0.000000   0.000024
    28  H    0.000008   0.000000   0.000000   0.000000   0.000000   0.000000
    29  H   -0.038357   0.386011  -0.000036   0.000328  -0.006391  -0.049958
    30  H   -0.036504   0.381403   0.000010  -0.000208   0.003232  -0.040570
    31  H   -0.053736  -0.012262   0.000021  -0.000084   0.001630   0.013613
    32  C   -0.005402   0.000098   0.000000   0.000000   0.000001  -0.000040
    33  H    0.000131   0.000003   0.000000   0.000000   0.000000   0.000000
    34  H   -0.000453  -0.000054  -0.000001   0.000000  -0.000006   0.000005
    35  H    0.000194  -0.000259   0.000000   0.000000   0.000000   0.000063
    36  H    0.330285  -0.033092  -0.000022   0.000022  -0.000350  -0.012496
              13         14         15         16         17         18
     1  C    0.000001   0.000000   0.000000   0.000000   0.000000  -0.000002
     2  C    0.000030   0.000002   0.000000   0.000000   0.000000  -0.003296
     3  C   -0.001609  -0.000015   0.000000   0.000000   0.000001   0.000166
     4  C   -0.000058   0.000000   0.000000   0.000000   0.000000   0.000000
     5  C   -0.000001   0.000000   0.000000   0.000000   0.000000   0.000000
     6  O    0.000000   0.000000   0.000000   0.000000   0.000000   0.000000
     7  N   -0.001813   0.000108   0.000000   0.000002   0.000008   0.000053
     8  C   -0.053209   0.007642   0.000005  -0.000096  -0.000110  -0.005802
     9  C   -0.005710   0.485191   0.373795  -0.036661  -0.036453   0.002868
    10  C   -0.043327  -0.039033  -0.033991   0.361518   0.004424  -0.042489
    11  C    0.017696  -0.046030   0.003626  -0.032705   0.000311   0.281263
    12  C    0.384090  -0.079107   0.000423   0.006367   0.006388  -0.047389
    13  C    4.629729   0.487841   0.003561   0.000223  -0.033280   0.002685
    14  C    0.487841   5.033600  -0.034796   0.004601   0.361554   0.000046
    15  H    0.003561  -0.034796   0.581264  -0.005692  -0.005664  -0.000025
    16  H    0.000223   0.004601  -0.005692   0.586439  -0.000127  -0.000417
    17  H   -0.033280   0.361554  -0.005664  -0.000127   0.586439   0.000001
    18  F    0.002685   0.000046  -0.000025  -0.000417   0.000001   9.092343
    19  F    0.295015  -0.045093  -0.000025   0.000001  -0.000327  -0.000001
    20  H    0.000000   0.000000   0.000000   0.000000   0.000000   0.000010
    21  H    0.000000   0.000000   0.000000   0.000000   0.000000   0.000000
    22  H    0.000000   0.000000   0.000000   0.000000   0.000000  -0.000002
    23  H   -0.000018   0.000004   0.000000   0.000000   0.000000   0.011731
    24  H    0.000001   0.000000   0.000000   0.000000   0.000000   0.000030
    25  H   -0.000001   0.000000   0.000000   0.000000   0.000000   0.000000
    26  H    0.000000   0.000000   0.000000   0.000000   0.000000   0.000000
    27  H   -0.000002   0.000000   0.000000   0.000000   0.000000   0.000000
    28  H    0.000000   0.000000   0.000000   0.000000   0.000000   0.000000
    29  H    0.005200  -0.000124   0.000000  -0.000001   0.000002   0.008354
    30  H   -0.007687  -0.000004   0.000000   0.000002   0.000001   0.000189
    31  H    0.001738  -0.000216   0.000000  -0.000011  -0.000008  -0.000054
    32  C    0.000052  -0.000007   0.000000   0.000000   0.000001   0.000000
    33  H    0.000000   0.000000   0.000000   0.000000   0.000000   0.000000
    34  H    0.000172   0.000020   0.000000   0.000000   0.000001   0.000000
    35  H   -0.000015  -0.000008   0.000000   0.000000   0.000000   0.000000
    36  H    0.004330   0.000185   0.000000   0.000000   0.000004  -0.000007
              19         20         21         22         23         24
     1  C    0.000000   0.385000   0.388056   0.379938  -0.036116  -0.036098
     2  C   -0.000001  -0.035725  -0.032817  -0.026984   0.368328   0.368782
     3  C   -0.000063  -0.004729  -0.005128   0.003837  -0.030828  -0.034023
     4  C   -0.000015  -0.001458   0.000822   0.000282   0.004700  -0.010167
     5  C    0.000001   0.000129   0.000779  -0.000026   0.000107   0.002539
     6  O    0.000000   0.000000  -0.000011   0.000000   0.000000  -0.000055
     7  N   -0.004663   0.000038  -0.000021  -0.000088  -0.004364   0.003784
     8  C    0.005183  -0.000024   0.000004   0.000003   0.002864  -0.000874
     9  C    0.002773   0.000000   0.000000   0.000000  -0.000008   0.000000
    10  C    0.000007  -0.000001   0.000000   0.000000   0.000040   0.000000
    11  C    0.002462   0.000009   0.000000   0.000000   0.000406  -0.000023
    12  C   -0.058012   0.000009  -0.000001  -0.000001  -0.002642   0.000360
    13  C    0.295015   0.000000   0.000000   0.000000  -0.000018   0.000001
    14  C   -0.045093   0.000000   0.000000   0.000000   0.000004   0.000000
    15  H   -0.000025   0.000000   0.000000   0.000000   0.000000   0.000000
    16  H    0.000001   0.000000   0.000000   0.000000   0.000000   0.000000
    17  H   -0.000327   0.000000   0.000000   0.000000   0.000000   0.000000
    18  F   -0.000001   0.000010   0.000000  -0.000002   0.011731   0.000030
    19  F    9.090529   0.000000   0.000000   0.000000   0.000000   0.000000
    20  H    0.000000   0.608512  -0.034129  -0.031615  -0.003687   0.005451
    21  H    0.000000  -0.034129   0.600271  -0.031382   0.004989  -0.005818
    22  H    0.000000  -0.031615  -0.031382   0.610711  -0.005144  -0.001961
    23  H    0.000000  -0.003687   0.004989  -0.005144   0.633619  -0.036606
    24  H    0.000000   0.005451  -0.005818  -0.001961  -0.036606   0.635980
    25  H    0.000000   0.000858   0.001945  -0.000097   0.000058   0.000105
    26  H    0.000000  -0.000005   0.000683  -0.000030  -0.000077   0.003675
    27  H   -0.000001  -0.000001  -0.000024   0.000001  -0.000028   0.000198
    28  H    0.000000   0.000000  -0.000002   0.000000   0.000000   0.000012
    29  H    0.000173   0.000010  -0.000001   0.000011   0.000570   0.000344
    30  H    0.002213   0.000000   0.000000   0.000000   0.000012  -0.000053
    31  H    0.000019   0.005825  -0.000137  -0.000116  -0.006953   0.007373
    32  C   -0.000069  -0.000078  -0.000052  -0.000002  -0.000139  -0.000054
    33  H    0.000000   0.000001   0.000008   0.000000   0.000003   0.000001
    34  H   -0.000001   0.000015   0.000003   0.000000  -0.000004   0.000007
    35  H    0.000080   0.000000  -0.000001   0.000000  -0.000001   0.000000
    36  H    0.011541   0.000000  -0.000003   0.000003  -0.000225  -0.000021
              25         26         27         28         29         30
     1  C    0.004242   0.000190   0.000063   0.000000  -0.000217  -0.000003
     2  C   -0.009513   0.001388  -0.000652   0.000003   0.003867   0.000054
     3  C   -0.034298  -0.001181  -0.004118  -0.000270  -0.006645   0.005789
     4  C    0.375652  -0.043860  -0.035367   0.006006   0.000053  -0.000177
     5  C   -0.044405   0.376986   0.367109  -0.024236  -0.000042  -0.000013
     6  O    0.003640  -0.037345  -0.036848   0.285105   0.000000   0.000000
     7  N    0.004239  -0.000498   0.010347   0.000008  -0.038357  -0.036504
     8  C   -0.000180  -0.000051  -0.000052   0.000000   0.386011   0.381403
     9  C    0.000000   0.000000   0.000000   0.000000  -0.000036   0.000010
    10  C    0.000000   0.000000   0.000000   0.000000   0.000328  -0.000208
    11  C    0.000002   0.000000   0.000000   0.000000  -0.006391   0.003232
    12  C    0.000015   0.000000   0.000024   0.000000  -0.049958  -0.040570
    13  C   -0.000001   0.000000  -0.000002   0.000000   0.005200  -0.007687
    14  C    0.000000   0.000000   0.000000   0.000000  -0.000124  -0.000004
    15  H    0.000000   0.000000   0.000000   0.000000   0.000000   0.000000
    16  H    0.000000   0.000000   0.000000   0.000000  -0.000001   0.000002
    17  H    0.000000   0.000000   0.000000   0.000000   0.000002   0.000001
    18  F    0.000000   0.000000   0.000000   0.000000   0.008354   0.000189
    19  F    0.000000   0.000000  -0.000001   0.000000   0.000173   0.002213
    20  H    0.000858  -0.000005  -0.000001   0.000000   0.000010   0.000000
    21  H    0.001945   0.000683  -0.000024  -0.000002  -0.000001   0.000000
    22  H   -0.000097  -0.000030   0.000001   0.000000   0.000011   0.000000
    23  H    0.000058  -0.000077  -0.000028   0.000000   0.000570   0.000012
    24  H    0.000105   0.003675   0.000198   0.000012   0.000344  -0.000053
    25  H    0.645337  -0.007083   0.007459  -0.000094  -0.000002   0.000004
    26  H   -0.007083   0.673629  -0.054556  -0.002972  -0.000001   0.000001
    27  H    0.007459  -0.054556   0.669835  -0.004812  -0.000012   0.000006
    28  H   -0.000094  -0.002972  -0.004812   0.422180   0.000000   0.000000
    29  H   -0.000002  -0.000001  -0.000012   0.000000   0.596313  -0.029357
    30  H    0.000004   0.000001   0.000006   0.000000  -0.029357   0.604496
    31  H   -0.002099  -0.000019   0.000141   0.000005  -0.000745  -0.000024
    32  C   -0.044980   0.006444  -0.011852   0.000248  -0.000003   0.000010
    33  H   -0.004113   0.000254  -0.000002  -0.000477   0.000000   0.000000
    34  H   -0.003734  -0.000158  -0.000021   0.000005   0.000000   0.000000
    35  H    0.005651  -0.000054   0.005253  -0.000031  -0.000003   0.000016
    36  H    0.000081   0.000051  -0.000038   0.000001   0.006131  -0.006359
              31         32         33         34         35         36
     1  C   -0.001263   0.000017   0.000000  -0.000005   0.000002  -0.000182
     2  C   -0.062161   0.005395  -0.000127   0.000032  -0.000070   0.006398
     3  C    0.370392  -0.035894   0.004340  -0.004521  -0.005937  -0.040552
     4  C   -0.047656   0.358599  -0.029641  -0.030881  -0.034429  -0.007558
     5  C    0.006611  -0.049776  -0.005648   0.005063  -0.005393  -0.001043
     6  O   -0.000041  -0.001733   0.010447   0.000112  -0.000196  -0.000040
     7  N   -0.053736  -0.005402   0.000131  -0.000453   0.000194   0.330285
     8  C   -0.012262   0.000098   0.000003  -0.000054  -0.000259  -0.033092
     9  C    0.000021   0.000000   0.000000  -0.000001   0.000000  -0.000022
    10  C   -0.000084   0.000000   0.000000   0.000000   0.000000   0.000022
    11  C    0.001630   0.000001   0.000000  -0.000006   0.000000  -0.000350
    12  C    0.013613  -0.000040   0.000000   0.000005   0.000063  -0.012496
    13  C    0.001738   0.000052   0.000000   0.000172  -0.000015   0.004330
    14  C   -0.000216  -0.000007   0.000000   0.000020  -0.000008   0.000185
    15  H    0.000000   0.000000   0.000000   0.000000   0.000000   0.000000
    16  H   -0.000011   0.000000   0.000000   0.000000   0.000000   0.000000
    17  H   -0.000008   0.000001   0.000000   0.000001   0.000000   0.000004
    18  F   -0.000054   0.000000   0.000000   0.000000   0.000000  -0.000007
    19  F    0.000019  -0.000069   0.000000  -0.000001   0.000080   0.011541
    20  H    0.005825  -0.000078   0.000001   0.000015   0.000000   0.000000
    21  H   -0.000137  -0.000052   0.000008   0.000003  -0.000001  -0.000003
    22  H   -0.000116  -0.000002   0.000000   0.000000   0.000000   0.000003
    23  H   -0.006953  -0.000139   0.000003  -0.000004  -0.000001  -0.000225
    24  H    0.007373  -0.000054   0.000001   0.000007   0.000000  -0.000021
    25  H   -0.002099  -0.044980  -0.004113  -0.003734   0.005651   0.000081
    26  H   -0.000019   0.006444   0.000254  -0.000158  -0.000054   0.000051
    27  H    0.000141  -0.011852  -0.000002  -0.000021   0.005253  -0.000038
    28  H    0.000005   0.000248  -0.000477   0.000005  -0.000031   0.000001
    29  H   -0.000745  -0.000003   0.000000   0.000000  -0.000003   0.006131
    30  H   -0.000024   0.000010   0.000000   0.000000   0.000016  -0.006359
    31  H    0.719776  -0.011643  -0.000116   0.006686  -0.000179  -0.002012
    32  C   -0.011643   4.980514   0.379097   0.377533   0.377731   0.004939
    33  H   -0.000116   0.379097   0.586141  -0.029755  -0.029523  -0.000359
    34  H    0.006686   0.377533  -0.029755   0.611216  -0.033252  -0.000101
    35  H   -0.000179   0.377731  -0.029523  -0.033252   0.617367   0.006155
    36  H   -0.002012   0.004939  -0.000359  -0.000101   0.006155   0.485975
 Mulliken charges:
               1
     1  C   -0.331353
     2  C   -0.180917
     3  C    0.087914
     4  C   -0.092717
     5  C    0.073152
     6  O   -0.571723
     7  N   -0.521173
     8  C   -0.117841
     9  C   -0.102150
    10  C   -0.135573
    11  C    0.315216
    12  C   -0.013063
    13  C    0.314365
    14  C   -0.136362
    15  H    0.117517
    16  H    0.116556
    17  H    0.116835
    18  F   -0.300256
    19  F   -0.301727
    20  H    0.105588
    21  H    0.111966
    22  H    0.102661
    23  H    0.099406
    24  H    0.097108
    25  H    0.101307
    26  H    0.084588
    27  H    0.087948
    28  H    0.319320
    29  H    0.124525
    30  H    0.123519
    31  H    0.067706
    32  C   -0.328953
    33  H    0.119334
    34  H    0.102077
    35  H    0.096837
    36  H    0.248359
 Sum of Mulliken charges =   0.00000
 Mulliken charges with hydrogens summed into heavy atoms:
               1
     1  C   -0.011138
     2  C    0.015598
     3  C    0.155619
     4  C    0.008590
     5  C    0.245688
     6  O   -0.252403
     7  N   -0.272814
     8  C    0.130204
     9  C    0.015368
    10  C   -0.019017
    11  C    0.315216
    12  C   -0.013063
    13  C    0.314365
    14  C   -0.019527
    18  F   -0.300256
    19  F   -0.301727
    32  C   -0.010704
 Electronic spatial extent (au):  <R**2>=           4827.7435
 Charge=              0.0000 electrons
 Dipole moment (field-independent basis, Debye):
    X=              1.7582    Y=             -0.2038    Z=             -0.0292  Tot=              1.7702
 Quadrupole moment (field-independent basis, Debye-Ang):
   XX=            -90.8444   YY=           -101.6357   ZZ=           -100.2036
   XY=             -1.9896   XZ=            -11.8483   YZ=             -1.0816
 Traceless Quadrupole moment (field-independent basis, Debye-Ang):
   XX=              6.7168   YY=             -4.0745   ZZ=             -2.6424
   XY=             -1.9896   XZ=            -11.8483   YZ=             -1.0816
 Octapole moment (field-independent basis, Debye-Ang**2):
  XXX=              5.5033  YYY=             -7.9742  ZZZ=             11.0461  XYY=              2.2374
  XXY=             -8.1301  XXZ=             18.6084  XZZ=              8.8420  YZZ=             -3.2526
  YYZ=              0.2973  XYZ=              9.0197
 Hexadecapole moment (field-independent basis, Debye-Ang**3):
 XXXX=          -3752.4820 YYYY=          -1359.5118 ZZZZ=           -578.5964 XXXY=             63.4850
 XXXZ=           -337.9242 YYYX=             12.0202 YYYZ=              1.5347 ZZZX=             16.3809
 ZZZY=             -3.7233 XXYY=           -894.3204 XXZZ=           -761.0587 YYZZ=           -318.6653
 XXYZ=            -32.4117 YYXZ=            -29.8352 ZZXY=              9.9429
 N-N= 1.285677013374D+03 E-N=-4.525529179762D+03  KE= 8.290875031198D+02
 1\1\GINC-SWANNODE-0-8\FOpt\RB3LYP\6-31G(d,p)\C13H19F2N1O1\ROOT\06-Mar-
 2019\0\\# b3lyp/6-31g(d,p) Opt=(maxcycles=50) scrf=(solvent=chloroform
 )\\AT3_1ginp019\\0,1\C,-1.5811518776,0.2133338493,0.7946352855\C,-0.80
 70818967,1.5362372883,0.7624151069\C,0.2899892042,1.6698876361,1.83979
 67834\C,-0.2135510851,1.455606573,3.2907469278\C,-1.2013672471,2.53401
 77549,3.7453252143\O,-1.7626213951,2.1191314818,4.9937411532\N,0.93521
 40419,2.993496348,1.7405447438\C,1.7006405507,3.2751397333,0.520240324
 1\C,4.9482063094,0.5116069858,-0.3570973741\C,3.8453039013,0.564744556
 3,-1.2092439335\C,2.8195597903,1.4551786598,-0.9102957298\C,2.82894553
 8,2.3053563848,0.1958298656\C,3.9577006191,2.2005260667,1.0117865756\C
 ,5.0146294808,1.3344476722,0.7697575297\H,5.7605857854,-0.1750960545,-
 0.5702775921\H,3.7687933492,-0.0640532256,-2.0887850647\H,5.8593531322
 ,1.313105239,1.4485335984\F,1.7504406576,1.5027960691,-1.7449680046\F,
 4.0116683209,3.0032561544,2.1061973855\H,-0.9009467286,-0.6463710477,0
 .7861573068\H,-2.2184391507,0.1237492525,1.6796593833\H,-2.2292425545,
 0.1280985629,-0.0833725604\H,-0.3278975415,1.6214691827,-0.2184979739\
 H,-1.4995931288,2.3828672771,0.8389357409\H,-0.764065395,0.5072655872,
 3.2937255282\H,-1.9926506244,2.6652177764,2.9935727717\H,-0.6841649023
 ,3.498381566,3.845525608\H,-2.3280048438,2.8349552563,5.3112285943\H,1
 .0250030114,3.3222794869,-0.3345820378\H,2.1278315138,4.2761798865,0.6
 39657779\H,1.0146880003,0.8547336939,1.6497956869\C,0.9391213053,1.300
 2890723,4.2971226968\H,0.5432642,1.0522667765,5.2845103876\H,1.6243965
 363,0.5029602946,3.9903697122\H,1.5238257051,2.2213207568,4.4098014025
 \H,1.5704104181,3.103676446,2.5256971788\\Version=EM64L-G09RevD.01\Sta
 te=1-A\HF=-836.4925539\RMSD=2.026e-09\RMSF=5.732e-06\Dipole=0.5974025,
 -0.0324829,-0.3565433\Quadrupole=5.0658718,-0.5511041,-4.5147677,-6.56
 9619,-2.4971312,5.1815571\PG=C01 [X(C13H19F2N1O1)]\\@


 ART, GLORY, FREEDOM FAIL, BUT NATURE STILL IS FAIR.

                                           -- BYRON
 Job cpu time:       0 days  3 hours 20 minutes 35.0 seconds.
 File lengths (MBytes):  RWF=    280 Int=      0 D2E=      0 Chk=     12 Scr=      1
 Normal termination of Gaussian 09 at Wed Mar  6 11:59:09 2019.
