 Entering Gaussian System, Link 0=/usr/local/Cluster-Apps/gaussian/g09/g09
 Initial command:
 /usr/local/Cluster-Apps/gaussian/g09/l1.exe "/home/ah809/rds/hpc-work/04Mar1111AT3/Gau-161504.inp" -scrdir="/home/ah809/rds/hpc-work/04Mar1111AT3/"
 Entering Link 1 = /usr/local/Cluster-Apps/gaussian/g09/l1.exe PID=    161526.
  
 Copyright (c) 1988,1990,1992,1993,1995,1998,2003,2009,2013,
            Gaussian, Inc.  All Rights Reserved.
  
 This is part of the Gaussian(R) 09 program.  It is based on
 the Gaussian(R) 03 system (copyright 2003, Gaussian, Inc.),
 the Gaussian(R) 98 system (copyright 1998, Gaussian, Inc.),
 the Gaussian(R) 94 system (copyright 1995, Gaussian, Inc.),
 the Gaussian 92(TM) system (copyright 1992, Gaussian, Inc.),
 the Gaussian 90(TM) system (copyright 1990, Gaussian, Inc.),
 the Gaussian 88(TM) system (copyright 1988, Gaussian, Inc.),
 the Gaussian 86(TM) system (copyright 1986, Carnegie Mellon
 University), and the Gaussian 82(TM) system (copyright 1983,
 Carnegie Mellon University). Gaussian is a federally registered
 trademark of Gaussian, Inc.
  
 This software contains proprietary and confidential information,
 including trade secrets, belonging to Gaussian, Inc.
  
 This software is provided under written license and may be
 used, copied, transmitted, or stored only in accord with that
 written license.
  
 The following legend is applicable only to US Government
 contracts under FAR:
  
                    RESTRICTED RIGHTS LEGEND
  
 Use, reproduction and disclosure by the US Government is
 subject to restrictions as set forth in subparagraphs (a)
 and (c) of the Commercial Computer Software - Restricted
 Rights clause in FAR 52.227-19.
  
 Gaussian, Inc.
 340 Quinnipiac St., Bldg. 40, Wallingford CT 06492
  
  
 ---------------------------------------------------------------
 Warning -- This program may not be used in any manner that
 competes with the business of Gaussian, Inc. or will provide
 assistance to any competitor of Gaussian, Inc.  The licensee
 of this program is prohibited from giving any competitor of
 Gaussian, Inc. access to this program.  By using this program,
 the user acknowledges that Gaussian, Inc. is engaged in the
 business of creating and licensing software in the field of
 computational chemistry and represents and warrants to the
 licensee that it is not a competitor of Gaussian, Inc. and that
 it will not use this program in any manner prohibited above.
 ---------------------------------------------------------------
  

 Cite this work as:
 Gaussian 09, Revision D.01,
 M. J. Frisch, G. W. Trucks, H. B. Schlegel, G. E. Scuseria, 
 M. A. Robb, J. R. Cheeseman, G. Scalmani, V. Barone, B. Mennucci, 
 G. A. Petersson, H. Nakatsuji, M. Caricato, X. Li, H. P. Hratchian, 
 A. F. Izmaylov, J. Bloino, G. Zheng, J. L. Sonnenberg, M. Hada, 
 M. Ehara, K. Toyota, R. Fukuda, J. Hasegawa, M. Ishida, T. Nakajima, 
 Y. Honda, O. Kitao, H. Nakai, T. Vreven, J. A. Montgomery, Jr., 
 J. E. Peralta, F. Ogliaro, M. Bearpark, J. J. Heyd, E. Brothers, 
 K. N. Kudin, V. N. Staroverov, T. Keith, R. Kobayashi, J. Normand, 
 K. Raghavachari, A. Rendell, J. C. Burant, S. S. Iyengar, J. Tomasi, 
 M. Cossi, N. Rega, J. M. Millam, M. Klene, J. E. Knox, J. B. Cross, 
 V. Bakken, C. Adamo, J. Jaramillo, R. Gomperts, R. E. Stratmann, 
 O. Yazyev, A. J. Austin, R. Cammi, C. Pomelli, J. W. Ochterski, 
 R. L. Martin, K. Morokuma, V. G. Zakrzewski, G. A. Voth, 
 P. Salvador, J. J. Dannenberg, S. Dapprich, A. D. Daniels, 
 O. Farkas, J. B. Foresman, J. V. Ortiz, J. Cioslowski, 
 and D. J. Fox, Gaussian, Inc., Wallingford CT, 2013.
 
 ******************************************
 Gaussian 09:  ES64L-G09RevD.01 24-Apr-2013
                 4-Mar-2019 
 ******************************************
 %nprocshared=8
 Will use up to    8 processors via shared memory.
 %mem=6000MB
 %chk=AT3_1ginp005.chk
 -------------------------------------------------------
 # mPW1PW91/6-311g(d) nmr=giao scrf=(solvent=chloroform)
 -------------------------------------------------------
 1/38=1/1;
 2/12=2,17=6,18=5,40=1/2;
 3/5=4,6=6,7=1,11=2,16=1,25=1,30=1,70=2201,72=7,74=-7/1,2,8,3;
 4//1;
 5/5=2,38=5,53=7/2;
 8/6=1,10=90,11=11/1;
 10/13=100,45=16/2;
 6/7=2,8=2,9=2,10=2,28=1/1;
 99/9=1/99;
 ------------
 AT3_1ginp005
 ------------
 Symbolic Z-matrix:
 Charge =  0 Multiplicity = 1
 C                    -3.12156   0.47959   1.59021 
 C                    -1.85175   1.17099   1.11313 
 C                    -0.61878   0.91516   2.01394 
 C                    -0.82557   1.36744   3.49309 
 C                    -1.0647    2.87988   3.65251 
 O                     0.06099   3.65179   3.2546 
 N                     0.54337   1.60158   1.40595 
 C                     1.68529   0.69245   1.22883 
 C                     5.12023   2.85635  -0.24407 
 C                     4.07959   2.51851  -1.1076 
 C                     2.97756   1.81604  -0.62186 
 C                     2.88545   1.43448   0.71798 
 C                     3.93712   1.78367   1.56606 
 C                     5.04723   2.48647   1.09814 
 H                     5.98164   3.40691  -0.61332 
 H                     4.11587   2.80036  -2.15563 
 H                     5.84631   2.74202   1.78784 
 F                     1.98575   1.50714  -1.47059 
 F                     3.9006    1.43343   2.85975 
 H                    -3.49906   0.92439   2.51526 
 H                    -3.90801   0.58006   0.83503 
 H                    -2.94969  -0.58794   1.75925 
 H                    -1.63226   0.7991    0.10308 
 H                    -2.04615   2.24497   1.00813 
 H                    -1.71615   0.85684   3.87944 
 H                    -1.2755    3.12134   4.69982 
 H                    -1.92861   3.20961   3.06845 
 H                     0.48959   3.15457   2.52355 
 H                     1.93848   0.19528   2.17175 
 H                     1.42912  -0.10455   0.51873 
 H                    -0.45884  -0.17228   2.01414 
 C                     0.33736   0.92304   4.39224 
 H                     1.27311   1.43389   4.1457 
 H                     0.11146   1.13987   5.44215 
 H                     0.50249  -0.15613   4.30717 
 H                     0.29477   1.94048   0.47233 
 
                          Input orientation:                          
 ---------------------------------------------------------------------
 Center     Atomic      Atomic             Coordinates (Angstroms)
 Number     Number       Type             X           Y           Z
 ---------------------------------------------------------------------
      1          6           0       -3.121561    0.479589    1.590206
      2          6           0       -1.851748    1.170993    1.113133
      3          6           0       -0.618784    0.915157    2.013936
      4          6           0       -0.825574    1.367442    3.493086
      5          6           0       -1.064697    2.879876    3.652507
      6          8           0        0.060991    3.651791    3.254603
      7          7           0        0.543369    1.601576    1.405945
      8          6           0        1.685292    0.692448    1.228834
      9          6           0        5.120226    2.856352   -0.244074
     10          6           0        4.079594    2.518508   -1.107604
     11          6           0        2.977556    1.816044   -0.621856
     12          6           0        2.885446    1.434477    0.717982
     13          6           0        3.937118    1.783668    1.566063
     14          6           0        5.047230    2.486472    1.098139
     15          1           0        5.981642    3.406909   -0.613323
     16          1           0        4.115871    2.800360   -2.155631
     17          1           0        5.846306    2.742024    1.787838
     18          9           0        1.985748    1.507139   -1.470594
     19          9           0        3.900600    1.433431    2.859746
     20          1           0       -3.499064    0.924390    2.515257
     21          1           0       -3.908011    0.580062    0.835025
     22          1           0       -2.949688   -0.587937    1.759251
     23          1           0       -1.632261    0.799096    0.103081
     24          1           0       -2.046154    2.244966    1.008126
     25          1           0       -1.716147    0.856837    3.879442
     26          1           0       -1.275504    3.121340    4.699819
     27          1           0       -1.928608    3.209606    3.068447
     28          1           0        0.489585    3.154571    2.523550
     29          1           0        1.938476    0.195279    2.171747
     30          1           0        1.429118   -0.104550    0.518729
     31          1           0       -0.458844   -0.172283    2.014139
     32          6           0        0.337359    0.923044    4.392242
     33          1           0        1.273111    1.433891    4.145696
     34          1           0        0.111461    1.139865    5.442150
     35          1           0        0.502492   -0.156127    4.307170
     36          1           0        0.294772    1.940478    0.472329
 ---------------------------------------------------------------------
                    Distance matrix (angstroms):
                    1          2          3          4          5
     1  C    0.000000
     2  C    1.522519   0.000000
     3  C    2.575492   1.548257   0.000000
     4  C    3.111397   2.599192   1.560515   0.000000
     5  C    3.774275   3.160404   2.596897   1.539497   0.000000
     6  O    4.791839   3.794578   3.080668   2.461935   1.421743
     7  N    3.837254   2.451066   1.480346   2.506986   3.044170
     8  C    4.825115   3.571140   2.444330   3.447739   4.268662
     9  C    8.771581   7.300059   6.465530   7.178841   7.310073
    10  C    7.955627   6.475206   5.864256   6.822901   7.018046
    11  C    6.624089   5.171891   4.548918   5.621191   5.978438
    12  C    6.144650   4.760943   3.772111   4.634368   5.128766
    13  C    7.178172   5.838791   4.659522   5.154600   5.529292
    14  C    8.426082   7.023290   5.950750   6.440328   6.635903
    15  H    9.812902   8.327183   7.528409   8.207327   8.253845
    16  H    8.473352   6.996580   6.584545   7.640624   7.783256
    17  H    9.250963   7.885645   6.722050   7.022203   7.159466
    18  F    6.042265   4.638428   4.390442   5.706239   6.118479
    19  F    7.199465   6.017395   4.626968   4.768878   5.232098
    20  H    1.093653   2.177249   2.923597   2.880971   3.323162
    21  H    1.094941   2.157490   3.510147   4.145681   4.616469
    22  H    1.094408   2.171814   2.785188   3.367722   4.377595
    23  H    2.128765   1.098493   2.166096   3.530707   4.153336
    24  H    2.147527   1.096466   2.194865   2.904288   2.891214
    25  H    2.712583   2.787391   2.165114   1.096863   2.137422
    26  H    4.478445   4.123133   3.537300   2.175959   1.095266
    27  H    3.325857   2.825793   2.844667   2.188737   1.093705
    28  H    4.589884   3.377232   2.550130   2.421461   1.940565
    29  H    5.101274   4.054439   2.661336   3.280225   4.291708
    30  H    4.711471   3.569931   2.733011   4.012131   4.994645
    31  H    2.773935   2.134569   1.099139   2.166224   3.516672
    32  C    4.473498   3.950471   2.563320   1.535703   2.518365
    33  H    5.172462   4.362373   2.897025   2.198817   2.792750
    34  H    5.072067   4.753477   3.512322   2.174552   2.759313
    35  H    4.573816   4.183965   2.768363   2.178934   3.478790
    36  H    3.880100   2.368604   2.064563   3.272387   3.583875
                    6          7          8          9         10
     6  O    0.000000
     7  N    2.802429   0.000000
     8  C    3.936979   1.470330   0.000000
     9  C    6.202364   5.024405   4.318647   0.000000
    10  C    6.038406   4.434364   3.811315   1.393821   0.000000
    11  C    5.186835   3.175412   2.521402   2.411637   1.394236
    12  C    4.396416   2.446741   1.500649   2.818071   2.435955
    13  C    4.622273   3.402400   2.524917   2.413916   2.776470
    14  C    5.556157   4.600277   3.812903   1.394158   2.408869
    15  H    7.076364   6.075482   5.405596   1.086966   2.156700
    16  H    6.814515   5.185044   4.669648   2.160073   1.085872
    17  H    6.037296   5.437610   4.671968   2.160771   3.399237
    18  F    5.534592   3.219294   2.835649   3.626249   2.353470
    19  F    4.451924   3.662350   2.848951   3.625726   4.116952
    20  H    4.545255   4.246224   5.346609   9.254110   8.549994
    21  H    5.571611   4.602632   5.608276   9.373101   8.445899
    22  H    5.410689   4.137661   4.837744   8.999997   8.202418
    23  H    4.575703   2.659849   3.504975   7.067454   6.086659
    24  H    3.386130   2.697747   4.047556   7.300603   6.486596
    25  H    3.370521   3.431943   4.315383   8.230276   7.824474
    26  H    2.038687   4.058028   5.168517   8.088118   7.922540
    27  H    2.046628   3.385313   4.772896   7.796387   7.349524
    28  H    0.982527   1.914086   3.027880   5.402917   5.145680
    29  H    4.079829   2.123781   1.095611   4.800108   4.553671
    30  H    4.844262   2.117208   1.097761   4.793025   4.068220
    31  H    4.053705   2.126242   2.441676   6.737817   6.130502
    32  C    2.969286   3.069335   3.446338   6.936060   6.840916
    33  H    2.679993   2.840225   3.037715   6.007809   6.053916
    34  H    3.331318   4.085422   4.519863   7.769633   7.781132
    35  H    3.975306   3.392388   3.405180   7.149288   7.019196
    36  H    3.274797   1.023862   2.015794   4.963574   4.141882
                   11         12         13         14         15
    11  C    0.000000
    12  C    1.396153   0.000000
    13  C    2.389309   1.395417   0.000000
    14  C    2.773339   2.434034   1.394717   0.000000
    15  H    3.399332   3.905034   3.400693   2.156254   0.000000
    16  H    2.148745   3.411339   3.862204   3.398967   2.495539
    17  H    3.859247   3.408953   2.147703   1.086054   2.495188
    18  F    1.341440   2.367404   3.620166   4.114627   4.506796
    19  F    3.622148   2.370167   1.340752   2.350939   4.504171
    20  H    7.251423   6.652244   7.545603   8.802696  10.287599
    21  H    7.145711   6.847976   7.970516   9.159693  10.387204
    22  H    6.825029   6.262842   7.286284   8.593006  10.067599
    23  H    4.775995   4.603421   5.841890   6.960817   8.079941
    24  H    5.298913   5.006172   6.026909   7.098065   8.271923
    25  H    6.573630   5.612767   6.178199   7.492304   9.270586
    26  H    6.936320   6.001170   6.227457   7.304254   8.998733
    27  H    6.295300   5.643659   6.220707   7.284734   8.727337
    28  H    4.227911   3.458171   3.831663   4.821854   6.329798
    29  H    3.392755   2.132087   2.623815   4.008310   5.866717
    30  H    2.717954   2.128191   3.309432   4.487744   5.859809
    31  H    4.765581   3.930137   4.832287   6.182628   7.822661
    32  C    5.736660   4.500500   4.656847   5.956367   7.942493
    33  H    5.077472   3.787987   3.724753   4.963820   6.979350
    34  H    6.741208   5.486306   5.483993   6.711602   8.733113
    35  H    5.857533   4.592468   4.803450   6.159209   8.180927
    36  H    2.900009   2.651033   3.806249   4.824480   5.972399
                   16         17         18         19         20
    16  H    0.000000
    17  H    4.306827   0.000000
    18  F    2.584399   5.200599   0.000000
    19  F    5.202773   2.578211   4.735392   0.000000
    20  H    9.128181   9.548239   6.805128   7.425148   0.000000
    21  H    8.846266  10.036365   6.396229   8.111852   1.763230
    22  H    8.759508   9.405263   6.259375   7.226580   1.777777
    23  H    6.492138   7.908371   4.008462   6.214027   3.052744
    24  H    6.948984   7.946442   4.790060   6.281001   2.475139
    25  H    8.614628   8.069661   6.538333   5.737603   2.245965
    26  H    8.727379   7.703486   7.163477   5.746909   3.813544
    27  H    7.999637   7.893534   6.230848   6.097378   2.827466
    28  H    5.930443   5.422723   4.572278   3.835411   4.569803
    29  H    5.500336   4.680217   3.871674   2.419978   5.496949
    30  H    4.775913   5.406031   2.620073   3.735501   5.415886
    31  H    6.866703   6.949771   4.576008   4.722089   3.270588
    32  C    7.789487   6.359254   6.118104   3.912253   4.270974
    33  H    7.046648   5.308938   5.661796   2.925298   5.068686
    34  H    8.747504   6.986369   7.171741   4.594841   4.652851
    35  H    7.972774   6.580476   6.192662   4.021053   4.515631
    36  H    4.716606   5.761299   2.611921   4.354176   4.427096
                   21         22         23         24         25
    21  H    0.000000
    22  H    1.771101   0.000000
    23  H    2.400574   2.530291   0.000000
    24  H    2.503673   3.066904   1.755265   0.000000
    25  H    3.761562   2.846789   3.777734   3.206285   0.000000
    26  H    5.322107   5.020813   5.162373   3.871761   2.448501
    27  H    3.977526   4.144627   3.832985   2.277997   2.497674
    28  H    5.368246   5.139953   3.988629   3.090932   3.461687
    29  H    6.009683   4.967668   4.170628   4.629526   4.087805
    30  H    5.390147   4.576735   3.218910   4.223417   4.702271
    31  H    3.721973   2.538117   2.443896   3.061814   2.473713
    32  C    5.549288   4.474414   4.721405   4.345210   2.117601
    33  H    6.207543   5.254992   5.018654   4.638934   3.056067
    34  H    6.139636   5.091137   5.626931   5.053427   2.421221
    35  H    5.661299   4.312296   4.810820   4.810877   2.476168
    36  H    4.432343   4.309939   2.269924   2.420687   4.102011
                   26         27         28         29         30
    26  H    0.000000
    27  H    1.759463   0.000000
    28  H    2.802283   2.479435   0.000000
    29  H    5.028185   4.984433   3.313678   0.000000
    30  H    5.933200   5.362743   3.940038   1.755509   0.000000
    31  H    4.327559   3.835224   3.496709   2.430450   2.409406
    32  C    2.743800   3.480719   2.914600   2.832634   4.153552
    33  H    3.106441   3.816364   2.491187   2.423498   3.942845
    34  H    2.530014   3.752356   3.566545   3.863387   5.246414
    35  H    3.749298   4.332764   3.760610   2.597223   3.900459
    36  H    4.661746   3.646085   2.391544   2.938623   2.339024
                   31         32         33         34         35
    31  H    0.000000
    32  C    2.736614   0.000000
    33  H    3.181666   1.094249   0.000000
    34  H    3.714598   1.095604   1.765411   0.000000
    35  H    2.486447   1.095042   1.774284   1.766545   0.000000
    36  H    2.721925   4.050025   3.835023   5.037232   4.375489
                   36
    36  H    0.000000
 Stoichiometry    C13H19F2NO
 Framework group  C1[X(C13H19F2NO)]
 Deg. of freedom   102
 Full point group                 C1      NOp   1
 Largest Abelian subgroup         C1      NOp   1
 Largest concise Abelian subgroup C1      NOp   1
                         Standard orientation:                         
 ---------------------------------------------------------------------
 Center     Atomic      Atomic             Coordinates (Angstroms)
 Number     Number       Type             X           Y           Z
 ---------------------------------------------------------------------
      1          6           0       -4.192628    1.870662   -0.388991
      2          6           0       -2.764880    1.692731    0.108944
      3          6           0       -2.043560    0.453946   -0.476039
      4          6           0       -2.775437   -0.890929   -0.174583
      5          6           0       -2.873455   -1.222042    1.325686
      6          8           0       -1.598631   -1.431640    1.919189
      7          7           0       -0.660932    0.436564    0.052604
      8          6           0        0.335456    0.329287   -1.023301
      9          6           0        4.307089   -0.040627    0.631995
     10          6           0        3.673019    1.200152    0.597930
     11          6           0        2.392451    1.308384    0.057259
     12          6           0        1.719901    0.199193   -0.459088
     13          6           0        2.371609   -1.033870   -0.414130
     14          6           0        3.652314   -1.161392    0.123242
     15          1           0        5.304004   -0.134959    1.054794
     16          1           0        4.164662    2.084433    0.992203
     17          1           0        4.127949   -2.137567    0.142424
     18          9           0        1.800137    2.511859    0.040653
     19          9           0        1.771932   -2.128144   -0.904606
     20          1           0       -4.855611    1.094329    0.003229
     21          1           0       -4.587152    2.836018   -0.055321
     22          1           0       -4.234722    1.848007   -1.482355
     23          1           0       -2.201816    2.592869   -0.172832
     24          1           0       -2.768370    1.664743    1.205047
     25          1           0       -3.800862   -0.808337   -0.555095
     26          1           0       -3.459554   -2.135307    1.474145
     27          1           0       -3.379725   -0.424374    1.876692
     28          1           0       -0.974303   -0.840954    1.443098
     29          1           0        0.122615   -0.530389   -1.668297
     30          1           0        0.294450    1.216690   -1.668215
     31          1           0       -2.030472    0.592511   -1.566330
     32          6           0       -2.139757   -2.066947   -0.930413
     33          1           0       -1.130007   -2.293493   -0.574796
     34          1           0       -2.743569   -2.972297   -0.803525
     35          1           0       -2.086412   -1.854592   -2.003341
     36          1           0       -0.466879    1.315123    0.541247
 ---------------------------------------------------------------------
 Rotational constants (GHZ):      0.7311342      0.2743143      0.2293000
 Standard basis: 6-311G(d) (5D, 7F)
 There are   380 symmetry adapted cartesian basis functions of A   symmetry.
 There are   363 symmetry adapted basis functions of A   symmetry.
   363 basis functions,   639 primitive gaussians,   380 cartesian basis functions
    65 alpha electrons       65 beta electrons
       nuclear repulsion energy      1284.3954433922 Hartrees.
 NAtoms=   36 NActive=   36 NUniq=   36 SFac= 1.00D+00 NAtFMM=   60 NAOKFM=F Big=F
 Integral buffers will be    131072 words long.
 Raffenetti 2 integral format.
 Two-electron integral symmetry is turned on.
 ------------------------------------------------------------------------------
 Polarizable Continuum Model (PCM)
 =================================
 Model                : PCM (using non-symmetric T matrix).
 Atomic radii         : UFF (Universal Force Field).
 Polarization charges : Total charges.
 Charge compensation  : None.
 Solution method      : On-the-fly selection.
 Cavity type          : Scaled VdW (van der Waals Surface) (Alpha=1.100).
 Cavity algorithm     : GePol (No added spheres)
                        Default sphere list used, NSphG=   36.
                        Lebedev-Laikov grids with approx.  5.0 points / Ang**2.
                        Smoothing algorithm: Karplus/York (Gamma=1.0000).
                        Polarization charges: spherical gaussians, with
                                              point-specific exponents (IZeta= 3).
                        Self-potential: point-specific (ISelfS= 7).
                        Self-field    : sphere-specific E.n sum rule (ISelfD= 2).
 Solvent              : Chloroform, Eps=   4.711300 Eps(inf)=   2.090627
 ------------------------------------------------------------------------------
 One-electron integrals computed using PRISM.
 NBasis=   363 RedAO= T EigKep=  2.44D-04  NBF=   363
 NBsUse=   363 1.00D-06 EigRej= -1.00D+00 NBFU=   363
 ExpMin= 1.03D-01 ExpMax= 1.14D+04 ExpMxC= 1.72D+03 IAcc=1 IRadAn=         1 AccDes= 0.00D+00
 Harris functional with IExCor=  908 and IRadAn=       1 diagonalized for initial guess.
 HarFok:  IExCor=  908 AccDes= 0.00D+00 IRadAn=         1 IDoV= 1 UseB2=F ITyADJ=14
 ICtDFT=  3500011 ScaDFX=  1.000000  1.000000  1.000000  1.000000
 FoFCou: FMM=F IPFlag=           0 FMFlag=      100000 FMFlg1=           0
         NFxFlg=           0 DoJE=T BraDBF=F KetDBF=T FulRan=T
         wScrn=  0.000000 ICntrl=     500 IOpCl=  0 I1Cent=   200000004 NGrid=           0
         NMat0=    1 NMatS0=      1 NMatT0=    0 NMatD0=    1 NMtDS0=    0 NMtDT0=    0
 Petite list used in FoFCou.
 Requested convergence on RMS density matrix=1.00D-08 within 128 cycles.
 Requested convergence on MAX density matrix=1.00D-06.
 Requested convergence on             energy=1.00D-06.
 No special actions if energy rises.
 Inv3:  Mode=1 IEnd=    18332352.
 Iteration    1 A*A^-1 deviation from unit magnitude is 5.55D-15 for   2457.
 Iteration    1 A*A^-1 deviation from orthogonality  is 4.58D-15 for   2191   2023.
 Iteration    1 A^-1*A deviation from unit magnitude is 5.33D-15 for   2457.
 Iteration    1 A^-1*A deviation from orthogonality  is 5.93D-12 for   2467   2452.
 Error on total polarization charges =  0.00960
 SCF Done:  E(RmPW1PW91) =  -836.464425359     A.U. after   12 cycles
            NFock= 12  Conv=0.71D-08     -V/T= 2.0037
 DoSCS=F DFT=T ScalE2(SS,OS)=  1.000000  1.000000
 Range of M.O.s used for correlation:     1   363
 NBasis=   363 NAE=    65 NBE=    65 NFC=     0 NFV=     0
 NROrb=    363 NOA=    65 NOB=    65 NVA=   298 NVB=   298

 **** Warning!!: The largest alpha MO coefficient is  0.10696045D+02

 NEqPCM:  Using equilibrium solvation (IEInf=0, Eps=   4.7113, EpsInf=   2.0906)
          Differentiating once with respect to magnetic field using GIAOs.
          Electric field/nuclear overlap derivatives assumed to be zero.
 FoFJK:  IHMeth= 1 ICntrl=    6127 DoSepK=F KAlg= 0 I1Cent=   0 FoldK=F
 IRaf=         1 NMat=   1 IRICut=       1 DoRegI=T DoRafI=F ISym2E= 0.
          There are     3 degrees of freedom in the 1st order CPHF.  IDoFFX=0 NUNeed=     3.
      3 vectors produced by pass  0 Test12= 6.46D-13 3.33D-08 XBig12= 4.93D+01 2.34D+00.
 AX will form     3 AO Fock derivatives at one time.
      3 vectors produced by pass  1 Test12= 6.46D-13 3.33D-08 XBig12= 1.60D-01 2.23D-01.
      3 vectors produced by pass  2 Test12= 6.46D-13 3.33D-08 XBig12= 7.64D-04 8.94D-03.
      3 vectors produced by pass  3 Test12= 6.46D-13 3.33D-08 XBig12= 1.72D-06 2.61D-04.
      3 vectors produced by pass  4 Test12= 6.46D-13 3.33D-08 XBig12= 3.34D-09 1.42D-05.
      3 vectors produced by pass  5 Test12= 6.46D-13 3.33D-08 XBig12= 1.44D-11 5.98D-07.
      1 vectors produced by pass  6 Test12= 6.46D-13 3.33D-08 XBig12= 2.93D-14 3.39D-08.
 InvSVY:  IOpt=1 It=  1 EMax= 1.78D-15
 Solved reduced A of dimension    19 with     3 vectors.
 Calculating GIAO nuclear magnetic shielding tensors.
 SCF GIAO Magnetic shielding tensor (ppm):
      1  C    Isotropic =   174.8870   Anisotropy =    20.1970
   XX=   183.5285   YX=    -7.3699   ZX=     6.6219
   XY=    -5.6184   YY=   169.0335   ZY=     2.1448
   XZ=     7.3192   YZ=     0.4601   ZZ=   172.0990
   Eigenvalues:   164.3022   172.0072   188.3516
      2  C    Isotropic =   157.6834   Anisotropy =    32.6044
   XX=   172.6005   YX=    -9.3553   ZX=     7.0879
   XY=   -11.4220   YY=   162.7114   ZY=    10.0580
   XZ=     0.0175   YZ=    12.6194   ZZ=   137.7384
   Eigenvalues:   132.0652   161.5654   179.4197
      3  C    Isotropic =   120.4196   Anisotropy =    30.7297
   XX=   138.4996   YX=     2.3768   ZX=     8.7484
   XY=    -8.1116   YY=   108.0429   ZY=    -9.0816
   XZ=     4.7206   YZ=    -4.2803   ZZ=   114.7164
   Eigenvalues:   103.8727   116.4801   140.9061
      4  C    Isotropic =   151.8008   Anisotropy =     7.6774
   XX=   152.2859   YX=     2.4294   ZX=     0.5712
   XY=    -5.4711   YY=   151.2292   ZY=    -7.5803
   XZ=    -7.4749   YZ=    -1.8328   ZZ=   151.8872
   Eigenvalues:   145.1165   153.3668   156.9190
      5  C    Isotropic =   122.8949   Anisotropy =    57.2767
   XX=   149.0888   YX=    -1.9537   ZX=    24.5620
   XY=    -3.7744   YY=    98.8854   ZY=    -6.6146
   XZ=    18.4815   YZ=    -3.7935   ZZ=   120.7106
   Eigenvalues:    97.5894   110.0159   161.0794
      6  O    Isotropic =   317.4022   Anisotropy =    99.8317
   XX=   303.9420   YX=    28.9175   ZX=   -23.2443
   XY=    46.4525   YY=   320.0863   ZY=   -28.6934
   XZ=   -29.6606   YZ=   -39.5401   ZZ=   328.1782
   Eigenvalues:   273.4490   294.8009   383.9566
      7  N    Isotropic =   195.6462   Anisotropy =    67.1270
   XX=   234.8143   YX=     1.9766   ZX=    22.6339
   XY=   -15.5613   YY=   171.2115   ZY=    26.2491
   XZ=    13.6963   YZ=    27.6268   ZZ=   180.9128
   Eigenvalues:   145.4518   201.0893   240.3975
      8  C    Isotropic =   143.9557   Anisotropy =    54.8469
   XX=   165.7674   YX=    -4.4900   ZX=   -16.2514
   XY=    -1.2057   YY=   113.4483   ZY=    -2.4974
   XZ=   -24.1525   YZ=     2.0887   ZZ=   152.6514
   Eigenvalues:   113.2405   138.1062   180.5203
      9  C    Isotropic =    54.1471   Anisotropy =   186.5310
   XX=   -16.7753   YX=    17.3743   ZX=   -83.2125
   XY=    17.0389   YY=    40.8258   ZY=   -19.3847
   XZ=   -81.9530   YZ=   -19.2070   ZZ=   138.3910
   Eigenvalues:   -53.2250    37.1652   178.5012
     10  C    Isotropic =    70.8733   Anisotropy =   148.4217
   XX=    62.3982   YX=   -10.8460   ZX=   -49.9770
   XY=   -19.2140   YY=    11.1187   ZY=   -39.9596
   XZ=   -52.5361   YZ=   -37.0093   ZZ=   139.1030
   Eigenvalues:   -12.3653    55.1641   169.8211
     11  C    Isotropic =    19.1926   Anisotropy =    98.1292
   XX=    27.4223   YX=    46.3303   ZX=   -17.3094
   XY=    38.5871   YY=   -44.5472   ZY=    -8.5470
   XZ=   -16.4091   YZ=   -10.3404   ZZ=    74.7028
   Eigenvalues:   -64.2351    37.2009    84.6121
     12  C    Isotropic =    67.1618   Anisotropy =   139.9629
   XX=    44.5233   YX=     9.4970   ZX=   -53.0340
   XY=    10.5375   YY=    25.2265   ZY=   -21.3799
   XZ=   -51.2284   YZ=   -22.9665   ZZ=   131.7355
   Eigenvalues:    20.0482    20.9667   160.4704
     13  C    Isotropic =    20.2303   Anisotropy =    99.3995
   XX=    26.1963   YX=   -36.2077   ZX=   -35.1717
   XY=   -27.5401   YY=   -31.0719   ZY=   -36.4829
   XZ=   -30.0487   YZ=   -34.4243   ZZ=    65.5666
   Eigenvalues:   -61.9370    36.1313    86.4966
     14  C    Isotropic =    70.2593   Anisotropy =   149.7315
   XX=    61.9515   YX=    28.6375   ZX=   -42.7303
   XY=    37.2835   YY=     1.0263   ZY=   -16.6481
   XZ=   -40.7543   YZ=   -20.5265   ZZ=   147.8002
   Eigenvalues:   -13.3935    54.0911   170.0803
     15  H    Isotropic =    24.5224   Anisotropy =     3.2041
   XX=    25.2814   YX=    -0.3267   ZX=     1.6527
   XY=    -0.2812   YY=    26.4557   ZY=     0.9845
   XZ=     1.7220   YZ=     0.9845   ZZ=    21.8302
   Eigenvalues:    20.9509    25.9579    26.6585
     16  H    Isotropic =    25.2239   Anisotropy =     4.9969
   XX=    27.6616   YX=    -0.3666   ZX=     2.4167
   XY=    -0.7209   YY=    25.7085   ZY=     0.5020
   XZ=     2.1919   YZ=     0.5312   ZZ=    22.3017
   Eigenvalues:    21.3430    25.7736    28.5552
     17  H    Isotropic =    25.1593   Anisotropy =     5.1469
   XX=    27.6980   YX=    -0.5935   ZX=     2.3685
   XY=    -0.1096   YY=    25.4597   ZY=     0.8819
   XZ=     2.3610   YZ=     0.7324   ZZ=    22.3202
   Eigenvalues:    21.2448    25.6425    28.5906
     18  F    Isotropic =   306.7831   Anisotropy =   128.8616
   XX=   262.8607   YX=    -2.2405   ZX=   -53.8042
   XY=   -15.8545   YY=   295.3159   ZY=   -26.3003
   XZ=   -48.4087   YZ=   -44.2637   ZZ=   362.1728
   Eigenvalues:   232.7200   294.9385   392.6908
     19  F    Isotropic =   302.2543   Anisotropy =   125.7350
   XX=   263.0626   YX=    29.4377   ZX=   -48.6560
   XY=    34.1287   YY=   277.1728   ZY=    -5.0741
   XZ=   -43.4543   YZ=    -1.6148   ZZ=   366.5276
   Eigenvalues:   228.3938   292.2915   386.0777
     20  H    Isotropic =    31.2126   Anisotropy =     7.6511
   XX=    35.7970   YX=     1.2524   ZX=    -1.2332
   XY=     1.0218   YY=    31.0771   ZY=    -1.8291
   XZ=    -1.1097   YZ=    -1.6909   ZZ=    26.7638
   Eigenvalues:    26.0809    31.2435    36.3134
     21  H    Isotropic =    30.9998   Anisotropy =    11.4105
   XX=    32.1543   YX=    -5.7897   ZX=    -0.2826
   XY=    -4.6644   YY=    34.0362   ZY=     1.9602
   XZ=    -0.1704   YZ=     1.6554   ZZ=    26.8090
   Eigenvalues:    26.0564    28.3362    38.6069
     22  H    Isotropic =    31.3972   Anisotropy =     8.7892
   XX=    30.8932   YX=    -2.1458   ZX=     3.9653
   XY=    -1.8933   YY=    28.3171   ZY=    -1.0489
   XZ=     2.5354   YZ=    -1.4068   ZZ=    34.9813
   Eigenvalues:    27.1657    29.7692    37.2567
     23  H    Isotropic =    30.3823   Anisotropy =     7.0379
   XX=    32.3093   YX=     1.2904   ZX=    -0.3158
   XY=     1.2639   YY=    34.4501   ZY=    -0.8354
   XZ=    -0.0091   YZ=    -0.2224   ZZ=    24.3875
   Eigenvalues:    24.3586    31.7141    35.0742
     24  H    Isotropic =    30.2949   Anisotropy =     4.7772
   XX=    29.2994   YX=    -2.0551   ZX=     0.7238
   XY=    -1.6015   YY=    28.9337   ZY=     2.1947
   XZ=    -0.4981   YZ=     1.4199   ZZ=    32.6518
   Eigenvalues:    26.9097    30.4954    33.4797
     25  H    Isotropic =    30.5744   Anisotropy =     7.4984
   XX=    34.6379   YX=    -1.1347   ZX=     3.4461
   XY=    -1.3800   YY=    31.1462   ZY=     0.9483
   XZ=     1.8408   YZ=     1.2914   ZZ=    25.9390
   Eigenvalues:    24.8743    31.2755    35.5733
     26  H    Isotropic =    28.6553   Anisotropy =     8.7681
   XX=    31.5929   YX=     4.8095   ZX=    -1.3865
   XY=     2.7009   YY=    27.3258   ZY=    -2.9670
   XZ=    -0.8538   YZ=    -2.2212   ZZ=    27.0470
   Eigenvalues:    24.0147    27.4504    34.5007
     27  H    Isotropic =    27.9927   Anisotropy =     5.8355
   XX=    29.7657   YX=    -3.4120   ZX=    -2.6202
   XY=    -1.8951   YY=    26.0384   ZY=     0.0030
   XZ=    -1.3721   YZ=    -0.7157   ZZ=    28.1739
   Eigenvalues:    24.2310    27.8640    31.8830
     28  H    Isotropic =    28.1566   Anisotropy =    24.9642
   XX=    31.6002   YX=     9.2043   ZX=    -4.5437
   XY=     8.9873   YY=    25.9440   ZY=   -10.4327
   XZ=    -5.1001   YZ=   -11.4039   ZZ=    26.9255
   Eigenvalues:    14.6785    24.9918    44.7994
     29  H    Isotropic =    28.3863   Anisotropy =     4.7543
   XX=    30.1549   YX=    -0.9884   ZX=    -1.4657
   XY=    -0.4064   YY=    28.3590   ZY=     2.5531
   XZ=     0.4513   YZ=     4.2825   ZZ=    26.6450
   Eigenvalues:    23.9782    29.6248    31.5558
     30  H    Isotropic =    28.3515   Anisotropy =     5.8319
   XX=    28.3911   YX=     1.1445   ZX=    -2.6326
   XY=     0.9266   YY=    28.1322   ZY=    -2.3073
   XZ=     0.5808   YZ=    -4.3933   ZZ=    28.5312
   Eigenvalues:    24.9747    27.8404    32.2395
     31  H    Isotropic =    29.5201   Anisotropy =     2.5676
   XX=    30.1099   YX=    -1.1035   ZX=     1.2926
   XY=     0.0266   YY=    28.2626   ZY=    -1.6808
   XZ=    -0.4307   YZ=    -0.9919   ZZ=    30.1879
   Eigenvalues:    27.5455    29.7830    31.2319
     32  C    Isotropic =   169.6830   Anisotropy =    25.7617
   XX=   154.0044   YX=    -1.4229   ZX=   -13.2475
   XY=     0.5764   YY=   183.7217   ZY=     7.2135
   XZ=    -9.7931   YZ=     4.4866   ZZ=   171.3229
   Eigenvalues:   148.1075   174.0841   186.8574
     33  H    Isotropic =    29.9422   Anisotropy =     6.4459
   XX=    33.5446   YX=    -1.5022   ZX=     0.8096
   XY=    -1.8813   YY=    30.1191   ZY=     1.0218
   XZ=     0.0230   YZ=     1.2413   ZZ=    26.1630
   Eigenvalues:    25.7660    29.8213    34.2395
     34  H    Isotropic =    30.9282   Anisotropy =    11.1999
   XX=    29.0111   YX=     3.6479   ZX=     0.1393
   XY=     4.1994   YY=    36.5990   ZY=     1.2245
   XZ=    -0.7604   YZ=     1.6727   ZZ=    27.1745
   Eigenvalues:    26.3349    28.0549    38.3948
     35  H    Isotropic =    31.1586   Anisotropy =     7.6033
   XX=    27.8679   YX=     0.8296   ZX=    -0.7655
   XY=     0.1197   YY=    30.0407   ZY=     2.2351
   XZ=    -0.3621   YZ=     1.7448   ZZ=    35.5671
   Eigenvalues:    27.6295    29.6188    36.2275
     36  H    Isotropic =    31.1808   Anisotropy =     9.6657
   XX=    35.5509   YX=     2.6552   ZX=    -0.0282
   XY=     2.3919   YY=    31.6134   ZY=     5.7667
   XZ=    -1.8676   YZ=     7.8174   ZZ=    26.3781
   Eigenvalues:    21.3686    34.5492    37.6246
 End of Minotr F.D. properties file   721 does not exist.
 End of Minotr F.D. properties file   722 does not exist.
 End of Minotr F.D. properties file   788 does not exist.

 **********************************************************************

            Population analysis using the SCF density.

 **********************************************************************

 Orbital symmetries:
       Occupied  (A) (A) (A) (A) (A) (A) (A) (A) (A) (A) (A) (A)
                 (A) (A) (A) (A) (A) (A) (A) (A) (A) (A) (A) (A)
                 (A) (A) (A) (A) (A) (A) (A) (A) (A) (A) (A) (A)
                 (A) (A) (A) (A) (A) (A) (A) (A) (A) (A) (A) (A)
                 (A) (A) (A) (A) (A) (A) (A) (A) (A) (A) (A) (A)
                 (A) (A) (A) (A) (A)
       Virtual   (A) (A) (A) (A) (A) (A) (A) (A) (A) (A) (A) (A)
                 (A) (A) (A) (A) (A) (A) (A) (A) (A) (A) (A) (A)
                 (A) (A) (A) (A) (A) (A) (A) (A) (A) (A) (A) (A)
                 (A) (A) (A) (A) (A) (A) (A) (A) (A) (A) (A) (A)
                 (A) (A) (A) (A) (A) (A) (A) (A) (A) (A) (A) (A)
                 (A) (A) (A) (A) (A) (A) (A) (A) (A) (A) (A) (A)
                 (A) (A) (A) (A) (A) (A) (A) (A) (A) (A) (A) (A)
                 (A) (A) (A) (A) (A) (A) (A) (A) (A) (A) (A) (A)
                 (A) (A) (A) (A) (A) (A) (A) (A) (A) (A) (A) (A)
                 (A) (A) (A) (A) (A) (A) (A) (A) (A) (A) (A) (A)
                 (A) (A) (A) (A) (A) (A) (A) (A) (A) (A) (A) (A)
                 (A) (A) (A) (A) (A) (A) (A) (A) (A) (A) (A) (A)
                 (A) (A) (A) (A) (A) (A) (A) (A) (A) (A) (A) (A)
                 (A) (A) (A) (A) (A) (A) (A) (A) (A) (A) (A) (A)
                 (A) (A) (A) (A) (A) (A) (A) (A) (A) (A) (A) (A)
                 (A) (A) (A) (A) (A) (A) (A) (A) (A) (A) (A) (A)
                 (A) (A) (A) (A) (A) (A) (A) (A) (A) (A) (A) (A)
                 (A) (A) (A) (A) (A) (A) (A) (A) (A) (A) (A) (A)
                 (A) (A) (A) (A) (A) (A) (A) (A) (A) (A) (A) (A)
                 (A) (A) (A) (A) (A) (A) (A) (A) (A) (A) (A) (A)
                 (A) (A) (A) (A) (A) (A) (A) (A) (A) (A) (A) (A)
                 (A) (A) (A) (A) (A) (A) (A) (A) (A) (A) (A) (A)
                 (A) (A) (A) (A) (A) (A) (A) (A) (A) (A) (A) (A)
                 (A) (A) (A) (A) (A) (A) (A) (A) (A) (A) (A) (A)
                 (A) (A) (A) (A) (A) (A) (A) (A) (A) (A)
 The electronic state is 1-A.
 Alpha  occ. eigenvalues --  -24.80863 -24.80482 -19.17703 -14.39673 -10.33994
 Alpha  occ. eigenvalues --  -10.33937 -10.27404 -10.26950 -10.26620 -10.26208
 Alpha  occ. eigenvalues --  -10.26118 -10.25357 -10.25293 -10.23581 -10.23427
 Alpha  occ. eigenvalues --  -10.22162 -10.21472  -1.28103  -1.27716  -1.02414
 Alpha  occ. eigenvalues --   -0.95311  -0.90681  -0.83359  -0.80284  -0.78783
 Alpha  occ. eigenvalues --   -0.78522  -0.72190  -0.69040  -0.67508  -0.66206
 Alpha  occ. eigenvalues --   -0.64122  -0.62827  -0.59378  -0.58000  -0.56203
 Alpha  occ. eigenvalues --   -0.52163  -0.52123  -0.51838  -0.51230  -0.49792
 Alpha  occ. eigenvalues --   -0.49163  -0.48219  -0.47268  -0.47081  -0.46429
 Alpha  occ. eigenvalues --   -0.44912  -0.44209  -0.42990  -0.41724  -0.41575
 Alpha  occ. eigenvalues --   -0.40520  -0.39164  -0.38824  -0.38546  -0.38166
 Alpha  occ. eigenvalues --   -0.37711  -0.37141  -0.36237  -0.33800  -0.33287
 Alpha  occ. eigenvalues --   -0.32227  -0.27747  -0.26916  -0.26370  -0.25439
 Alpha virt. eigenvalues --   -0.02255  -0.01070   0.04889   0.05728   0.06990
 Alpha virt. eigenvalues --    0.07173   0.07911   0.10066   0.10387   0.10515
 Alpha virt. eigenvalues --    0.10986   0.11567   0.11887   0.13215   0.13485
 Alpha virt. eigenvalues --    0.13982   0.14506   0.14811   0.15486   0.16470
 Alpha virt. eigenvalues --    0.16766   0.17346   0.18152   0.19170   0.20477
 Alpha virt. eigenvalues --    0.21854   0.22893   0.23276   0.24243   0.24519
 Alpha virt. eigenvalues --    0.25536   0.25809   0.26751   0.28539   0.28815
 Alpha virt. eigenvalues --    0.31905   0.32654   0.33133   0.33730   0.34791
 Alpha virt. eigenvalues --    0.35480   0.36748   0.38238   0.39053   0.39223
 Alpha virt. eigenvalues --    0.39804   0.40791   0.41458   0.42031   0.42925
 Alpha virt. eigenvalues --    0.44570   0.44915   0.45631   0.46194   0.47090
 Alpha virt. eigenvalues --    0.47502   0.48236   0.49812   0.50981   0.51133
 Alpha virt. eigenvalues --    0.52276   0.53033   0.53697   0.54192   0.55002
 Alpha virt. eigenvalues --    0.56044   0.56582   0.57606   0.58208   0.59278
 Alpha virt. eigenvalues --    0.59898   0.60157   0.60591   0.61275   0.61946
 Alpha virt. eigenvalues --    0.62278   0.62809   0.63225   0.63773   0.64389
 Alpha virt. eigenvalues --    0.64780   0.65377   0.65682   0.66111   0.67340
 Alpha virt. eigenvalues --    0.68190   0.68563   0.70162   0.71071   0.71371
 Alpha virt. eigenvalues --    0.71678   0.73697   0.74528   0.74687   0.76355
 Alpha virt. eigenvalues --    0.78255   0.78695   0.81652   0.81919   0.84794
 Alpha virt. eigenvalues --    0.86579   0.90117   0.92079   0.92721   0.94704
 Alpha virt. eigenvalues --    0.95616   0.97814   0.98519   0.99611   1.01157
 Alpha virt. eigenvalues --    1.02176   1.03643   1.04893   1.06436   1.07359
 Alpha virt. eigenvalues --    1.08053   1.09621   1.11066   1.13890   1.14506
 Alpha virt. eigenvalues --    1.16496   1.18110   1.19637   1.20231   1.24641
 Alpha virt. eigenvalues --    1.25689   1.26053   1.28529   1.29363   1.32297
 Alpha virt. eigenvalues --    1.34712   1.36172   1.38441   1.39939   1.41082
 Alpha virt. eigenvalues --    1.44723   1.45514   1.48020   1.49979   1.50420
 Alpha virt. eigenvalues --    1.52062   1.52738   1.53108   1.54502   1.55749
 Alpha virt. eigenvalues --    1.57271   1.57919   1.58875   1.59960   1.61061
 Alpha virt. eigenvalues --    1.61670   1.63883   1.65582   1.66343   1.66992
 Alpha virt. eigenvalues --    1.68169   1.68904   1.70869   1.71291   1.73137
 Alpha virt. eigenvalues --    1.73742   1.76879   1.78757   1.81293   1.83249
 Alpha virt. eigenvalues --    1.84298   1.84552   1.84859   1.87603   1.88846
 Alpha virt. eigenvalues --    1.89407   1.89845   1.91529   1.93054   1.95225
 Alpha virt. eigenvalues --    1.95941   1.98289   1.99604   2.03032   2.04479
 Alpha virt. eigenvalues --    2.06254   2.12126   2.13393   2.18802   2.19138
 Alpha virt. eigenvalues --    2.20653   2.22698   2.25448   2.27345   2.29094
 Alpha virt. eigenvalues --    2.30918   2.33063   2.34418   2.38373   2.41509
 Alpha virt. eigenvalues --    2.42085   2.43759   2.44701   2.45544   2.47312
 Alpha virt. eigenvalues --    2.47805   2.50124   2.50390   2.52069   2.54381
 Alpha virt. eigenvalues --    2.55512   2.57504   2.59020   2.61232   2.63452
 Alpha virt. eigenvalues --    2.66447   2.67710   2.70468   2.72299   2.75494
 Alpha virt. eigenvalues --    2.78135   2.83598   2.85223   2.85946   2.86632
 Alpha virt. eigenvalues --    2.90000   2.92486   2.97135   3.01647   3.06283
 Alpha virt. eigenvalues --    3.06717   3.08173   3.09958   3.10991   3.12349
 Alpha virt. eigenvalues --    3.13089   3.15552   3.16961   3.21458   3.22699
 Alpha virt. eigenvalues --    3.24404   3.26369   3.27686   3.28537   3.29002
 Alpha virt. eigenvalues --    3.29498   3.30920   3.33656   3.37753   3.39752
 Alpha virt. eigenvalues --    3.47366   3.48415   3.51713   3.59555   3.64329
 Alpha virt. eigenvalues --    3.75138   3.79094   3.79547   3.79818   3.80452
 Alpha virt. eigenvalues --    3.86158   3.88128   3.95260   3.96274   3.99496
 Alpha virt. eigenvalues --    4.00210   4.07053   4.08092   4.10526   4.12576
 Alpha virt. eigenvalues --    4.18303   4.25782   4.48118   4.75254   4.76639
 Alpha virt. eigenvalues --    4.77690   4.80697   4.95490   5.08215   5.45892
 Alpha virt. eigenvalues --    6.12979   6.15144   6.31824   6.32280   6.56644
 Alpha virt. eigenvalues --    6.59509  23.30119  23.46705  23.58163  23.70504
 Alpha virt. eigenvalues --   23.72566  23.77967  23.81738  23.83942  23.86777
 Alpha virt. eigenvalues --   23.89779  24.08688  24.10933  24.19298  35.57807
 Alpha virt. eigenvalues --   50.00522  66.89084  66.89417
          Condensed to atoms (all electrons):
               1          2          3          4          5          6
     1  C    5.348492   0.300994  -0.071909   0.001267  -0.001581   0.000092
     2  C    0.300994   5.339003   0.326446  -0.070805  -0.001554  -0.002085
     3  C   -0.071909   0.326446   5.344714   0.292641  -0.070167  -0.000460
     4  C    0.001267  -0.070805   0.292641   5.473729   0.315879  -0.048252
     5  C   -0.001581  -0.001554  -0.070167   0.315879   5.092334   0.245363
     6  O    0.000092  -0.002085  -0.000460  -0.048252   0.245363   8.246932
     7  N    0.005954  -0.045297   0.207943  -0.064320   0.001255  -0.031409
     8  C   -0.000429   0.004423  -0.069668  -0.001545   0.000298   0.000857
     9  C    0.000000   0.000000  -0.000001   0.000000   0.000000   0.000000
    10  C    0.000000   0.000000   0.000016   0.000000   0.000000   0.000000
    11  C    0.000001   0.000043  -0.000205   0.000087  -0.000010   0.000031
    12  C    0.000009  -0.000418   0.012133  -0.000371   0.000052   0.000200
    13  C    0.000000  -0.000006  -0.000701  -0.000083   0.000003  -0.000152
    14  C    0.000000   0.000000   0.000009   0.000000   0.000000   0.000001
    15  H    0.000000   0.000000   0.000000   0.000000   0.000000   0.000000
    16  H    0.000000   0.000000  -0.000001   0.000000   0.000000   0.000000
    17  H    0.000000   0.000000   0.000000   0.000000   0.000000   0.000000
    18  F    0.000000  -0.000084  -0.000052  -0.000003   0.000000   0.000000
    19  F    0.000000   0.000000  -0.000051   0.000061  -0.000002  -0.000006
    20  H    0.387482  -0.036791  -0.009804   0.003196   0.000222  -0.000090
    21  H    0.389870  -0.035776   0.008139  -0.000116  -0.000086   0.000003
    22  H    0.387400  -0.044438  -0.002963  -0.001801   0.000253  -0.000004
    23  H   -0.036903   0.402671  -0.049090   0.009435  -0.000341  -0.000051
    24  H   -0.041130   0.391750  -0.035133  -0.013110   0.004065   0.000949
    25  H    0.001283  -0.009325  -0.048321   0.388535  -0.037242   0.004906
    26  H    0.000151  -0.000617   0.009570  -0.029650   0.388560  -0.034106
    27  H   -0.000671   0.005515  -0.016727  -0.043966   0.393384  -0.040280
    28  H   -0.000253   0.000267  -0.000202  -0.009096  -0.062019   0.259098
    29  H    0.000056  -0.000069  -0.001754   0.001942   0.000181   0.000229
    30  H   -0.000184   0.001085  -0.003619  -0.001359  -0.000021  -0.000134
    31  H   -0.004216  -0.039130   0.417418  -0.065337   0.006889  -0.000569
    32  C   -0.000341   0.008226  -0.091529   0.290874  -0.092592   0.001261
    33  H   -0.000025  -0.000057  -0.015673  -0.034130  -0.011009   0.019867
    34  H    0.000018  -0.000287   0.008177  -0.033260  -0.003868  -0.000809
    35  H   -0.000020   0.000245  -0.003059  -0.045310   0.008044   0.000039
    36  H    0.000913  -0.004639  -0.054641   0.005084   0.000557   0.001980
               7          8          9         10         11         12
     1  C    0.005954  -0.000429   0.000000   0.000000   0.000001   0.000009
     2  C   -0.045297   0.004423   0.000000   0.000000   0.000043  -0.000418
     3  C    0.207943  -0.069668  -0.000001   0.000016  -0.000205   0.012133
     4  C   -0.064320  -0.001545   0.000000   0.000000   0.000087  -0.000371
     5  C    0.001255   0.000298   0.000000   0.000000  -0.000010   0.000052
     6  O   -0.031409   0.000857   0.000000   0.000000   0.000031   0.000200
     7  N    7.074147   0.250822   0.000067  -0.000279  -0.004665  -0.073176
     8  C    0.250822   5.326086  -0.001138   0.009111  -0.082326   0.285564
     9  C    0.000067  -0.001138   5.051849   0.438265  -0.009569  -0.055706
    10  C   -0.000279   0.009111   0.438265   5.187926   0.483163  -0.036287
    11  C   -0.004665  -0.082326  -0.009569   0.483163   4.771827   0.248519
    12  C   -0.073176   0.285564  -0.055706  -0.036287   0.248519   5.750349
    13  C    0.011443  -0.073209  -0.006337  -0.066320   0.041547   0.280824
    14  C   -0.000134   0.009260   0.440929  -0.037773  -0.058842  -0.032676
    15  H    0.000000   0.000029   0.405032  -0.041546   0.006439  -0.002086
    16  H    0.000012  -0.000335  -0.040637   0.392205  -0.049728   0.012211
    17  H    0.000010  -0.000305  -0.040706   0.007078  -0.001310   0.012011
    18  F   -0.002084   0.003868   0.005557  -0.055412   0.314994  -0.083435
    19  F   -0.000296  -0.005129   0.005408  -0.000492   0.005009  -0.073208
    20  H   -0.000091  -0.000028   0.000000   0.000000   0.000000   0.000000
    21  H   -0.000204   0.000018   0.000000   0.000000   0.000000   0.000000
    22  H   -0.000042   0.000007   0.000000   0.000000   0.000000   0.000001
    23  H   -0.001819   0.000574   0.000000   0.000004   0.000131  -0.000268
    24  H   -0.001187   0.000003   0.000000  -0.000001  -0.000036   0.000097
    25  H    0.005537  -0.000274   0.000000   0.000000  -0.000001   0.000028
    26  H   -0.000689   0.000056   0.000000   0.000000   0.000000  -0.000004
    27  H   -0.000092  -0.000158   0.000000   0.000000   0.000003   0.000004
    28  H    0.062319  -0.004189   0.000007  -0.000042  -0.000646  -0.000644
    29  H   -0.035455   0.386569  -0.000231   0.000053   0.009010  -0.033416
    30  H   -0.047522   0.394935  -0.000108   0.000081  -0.019365  -0.040093
    31  H   -0.039503  -0.008705   0.000001  -0.000005  -0.000335   0.001095
    32  C   -0.000489  -0.001088   0.000000   0.000000  -0.000016   0.000000
    33  H    0.007082  -0.003311  -0.000016   0.000009  -0.000019  -0.000871
    34  H   -0.000447   0.000244   0.000000   0.000000   0.000001  -0.000007
    35  H    0.000209  -0.000378   0.000000   0.000000  -0.000001   0.000147
    36  H    0.329057  -0.039018  -0.000093   0.000378   0.006256  -0.017461
              13         14         15         16         17         18
     1  C    0.000000   0.000000   0.000000   0.000000   0.000000   0.000000
     2  C   -0.000006   0.000000   0.000000   0.000000   0.000000  -0.000084
     3  C   -0.000701   0.000009   0.000000  -0.000001   0.000000  -0.000052
     4  C   -0.000083   0.000000   0.000000   0.000000   0.000000  -0.000003
     5  C    0.000003   0.000000   0.000000   0.000000   0.000000   0.000000
     6  O   -0.000152   0.000001   0.000000   0.000000   0.000000   0.000000
     7  N    0.011443  -0.000134   0.000000   0.000012   0.000010  -0.002084
     8  C   -0.073209   0.009260   0.000029  -0.000335  -0.000305   0.003868
     9  C   -0.006337   0.440929   0.405032  -0.040637  -0.040706   0.005557
    10  C   -0.066320  -0.037773  -0.041546   0.392205   0.007078  -0.055412
    11  C    0.041547  -0.058842   0.006439  -0.049728  -0.001310   0.314994
    12  C    0.280824  -0.032676  -0.002086   0.012211   0.012011  -0.083435
    13  C    4.740069   0.480150   0.006306  -0.001282  -0.048262   0.004823
    14  C    0.480150   5.173280  -0.040818   0.007017   0.391355  -0.000589
    15  H    0.006306  -0.040818   0.445473  -0.006656  -0.006586  -0.000070
    16  H   -0.001282   0.007017  -0.006656   0.450126  -0.000175   0.001488
    17  H   -0.048262   0.391355  -0.006586  -0.000175   0.448963   0.000004
    18  F    0.004823  -0.000589  -0.000070   0.001488   0.000004   9.032821
    19  F    0.309783  -0.052797  -0.000074   0.000004   0.001447  -0.000001
    20  H    0.000000   0.000000   0.000000   0.000000   0.000000   0.000000
    21  H    0.000000   0.000000   0.000000   0.000000   0.000000   0.000000
    22  H    0.000000   0.000000   0.000000   0.000000   0.000000   0.000000
    23  H   -0.000017   0.000000   0.000000   0.000000   0.000000   0.000094
    24  H    0.000008   0.000000   0.000000   0.000000   0.000000  -0.000030
    25  H    0.000003   0.000000   0.000000   0.000000   0.000000   0.000000
    26  H   -0.000001   0.000000   0.000000   0.000000   0.000000   0.000000
    27  H   -0.000002   0.000000   0.000000   0.000000   0.000000   0.000000
    28  H    0.001846  -0.000064   0.000000   0.000002   0.000002  -0.000056
    29  H   -0.018666   0.001144   0.000004   0.000009  -0.000064   0.000141
    30  H    0.009345  -0.000124   0.000002  -0.000017   0.000014   0.005587
    31  H    0.000233   0.000000   0.000000   0.000000   0.000000  -0.000034
    32  C    0.000251  -0.000005   0.000000   0.000000   0.000001   0.000000
    33  H   -0.000250   0.000124   0.000000   0.000000   0.000003   0.000001
    34  H   -0.000004   0.000000   0.000000   0.000000   0.000000   0.000000
    35  H   -0.000011  -0.000004   0.000000   0.000000   0.000000   0.000000
    36  H   -0.001207   0.000081   0.000002   0.000001  -0.000002   0.009824
              19         20         21         22         23         24
     1  C    0.000000   0.387482   0.389870   0.387400  -0.036903  -0.041130
     2  C    0.000000  -0.036791  -0.035776  -0.044438   0.402671   0.391750
     3  C   -0.000051  -0.009804   0.008139  -0.002963  -0.049090  -0.035133
     4  C    0.000061   0.003196  -0.000116  -0.001801   0.009435  -0.013110
     5  C   -0.000002   0.000222  -0.000086   0.000253  -0.000341   0.004065
     6  O   -0.000006  -0.000090   0.000003  -0.000004  -0.000051   0.000949
     7  N   -0.000296  -0.000091  -0.000204  -0.000042  -0.001819  -0.001187
     8  C   -0.005129  -0.000028   0.000018   0.000007   0.000574   0.000003
     9  C    0.005408   0.000000   0.000000   0.000000   0.000000   0.000000
    10  C   -0.000492   0.000000   0.000000   0.000000   0.000004  -0.000001
    11  C    0.005009   0.000000   0.000000   0.000000   0.000131  -0.000036
    12  C   -0.073208   0.000000   0.000000   0.000001  -0.000268   0.000097
    13  C    0.309783   0.000000   0.000000   0.000000  -0.000017   0.000008
    14  C   -0.052797   0.000000   0.000000   0.000000   0.000000   0.000000
    15  H   -0.000074   0.000000   0.000000   0.000000   0.000000   0.000000
    16  H    0.000004   0.000000   0.000000   0.000000   0.000000   0.000000
    17  H    0.001447   0.000000   0.000000   0.000000   0.000000   0.000000
    18  F   -0.000001   0.000000   0.000000   0.000000   0.000094  -0.000030
    19  F    9.024771   0.000000   0.000000   0.000000   0.000000   0.000000
    20  H    0.000000   0.475885  -0.027427  -0.027701   0.007029  -0.007014
    21  H    0.000000  -0.027427   0.471332  -0.026441  -0.007025  -0.002988
    22  H    0.000000  -0.027701  -0.026441   0.481638  -0.004235   0.007341
    23  H    0.000000   0.007029  -0.007025  -0.004235   0.487799  -0.036421
    24  H    0.000000  -0.007014  -0.002988   0.007341  -0.036421   0.486471
    25  H    0.000000   0.000403   0.000411   0.000110  -0.000058   0.000013
    26  H    0.000000  -0.000301  -0.000003   0.000008   0.000008   0.000217
    27  H    0.000000   0.002988  -0.000035  -0.000097   0.000462  -0.002325
    28  H    0.000083   0.000040   0.000011   0.000001  -0.000214   0.001127
    29  H    0.011621  -0.000004  -0.000002  -0.000014   0.000181  -0.000080
    30  H    0.000127   0.000011   0.000011  -0.000005  -0.000157   0.000107
    31  H   -0.000021  -0.000225  -0.000110   0.005300  -0.008754   0.007629
    32  C   -0.001447   0.000573   0.000010  -0.000212  -0.000218  -0.000356
    33  H    0.008046   0.000021   0.000002  -0.000001   0.000018  -0.000058
    34  H   -0.000040   0.000012  -0.000002   0.000005   0.000019   0.000000
    35  H   -0.000214   0.000017  -0.000003   0.000013  -0.000031   0.000000
    36  H   -0.000012  -0.000045  -0.000121   0.000032   0.003221   0.001115
              25         26         27         28         29         30
     1  C    0.001283   0.000151  -0.000671  -0.000253   0.000056  -0.000184
     2  C   -0.009325  -0.000617   0.005515   0.000267  -0.000069   0.001085
     3  C   -0.048321   0.009570  -0.016727  -0.000202  -0.001754  -0.003619
     4  C    0.388535  -0.029650  -0.043966  -0.009096   0.001942  -0.001359
     5  C   -0.037242   0.388560   0.393384  -0.062019   0.000181  -0.000021
     6  O    0.004906  -0.034106  -0.040280   0.259098   0.000229  -0.000134
     7  N    0.005537  -0.000689  -0.000092   0.062319  -0.035455  -0.047522
     8  C   -0.000274   0.000056  -0.000158  -0.004189   0.386569   0.394935
     9  C    0.000000   0.000000   0.000000   0.000007  -0.000231  -0.000108
    10  C    0.000000   0.000000   0.000000  -0.000042   0.000053   0.000081
    11  C   -0.000001   0.000000   0.000003  -0.000646   0.009010  -0.019365
    12  C    0.000028  -0.000004   0.000004  -0.000644  -0.033416  -0.040093
    13  C    0.000003  -0.000001  -0.000002   0.001846  -0.018666   0.009345
    14  C    0.000000   0.000000   0.000000  -0.000064   0.001144  -0.000124
    15  H    0.000000   0.000000   0.000000   0.000000   0.000004   0.000002
    16  H    0.000000   0.000000   0.000000   0.000002   0.000009  -0.000017
    17  H    0.000000   0.000000   0.000000   0.000002  -0.000064   0.000014
    18  F    0.000000   0.000000   0.000000  -0.000056   0.000141   0.005587
    19  F    0.000000   0.000000   0.000000   0.000083   0.011621   0.000127
    20  H    0.000403  -0.000301   0.002988   0.000040  -0.000004   0.000011
    21  H    0.000411  -0.000003  -0.000035   0.000011  -0.000002   0.000011
    22  H    0.000110   0.000008  -0.000097   0.000001  -0.000014  -0.000005
    23  H   -0.000058   0.000008   0.000462  -0.000214   0.000181  -0.000157
    24  H    0.000013   0.000217  -0.002325   0.001127  -0.000080   0.000107
    25  H    0.506071  -0.004041  -0.000398  -0.000295  -0.000256   0.000089
    26  H   -0.004041   0.509439  -0.046946   0.004779   0.000053  -0.000006
    27  H   -0.000398  -0.046946   0.531066   0.000309  -0.000042  -0.000001
    28  H   -0.000295   0.004779   0.000309   0.338418  -0.001688   0.001349
    29  H   -0.000256   0.000053  -0.000042  -0.001688   0.450096  -0.040206
    30  H    0.000089  -0.000006  -0.000001   0.001349  -0.040206   0.501077
    31  H   -0.002740  -0.000263  -0.000258   0.001600  -0.004681   0.007414
    32  C   -0.038404  -0.012679   0.010215   0.001775  -0.000237   0.000360
    33  H    0.008657  -0.003133   0.001361  -0.000057  -0.003334   0.000355
    34  H   -0.006083   0.004953  -0.000245  -0.000136   0.000387  -0.000022
    35  H   -0.004192  -0.000159  -0.000246   0.000042   0.000379   0.000111
    36  H   -0.000349   0.000131  -0.000623  -0.003387   0.007291  -0.009202
              31         32         33         34         35         36
     1  C   -0.004216  -0.000341  -0.000025   0.000018  -0.000020   0.000913
     2  C   -0.039130   0.008226  -0.000057  -0.000287   0.000245  -0.004639
     3  C    0.417418  -0.091529  -0.015673   0.008177  -0.003059  -0.054641
     4  C   -0.065337   0.290874  -0.034130  -0.033260  -0.045310   0.005084
     5  C    0.006889  -0.092592  -0.011009  -0.003868   0.008044   0.000557
     6  O   -0.000569   0.001261   0.019867  -0.000809   0.000039   0.001980
     7  N   -0.039503  -0.000489   0.007082  -0.000447   0.000209   0.329057
     8  C   -0.008705  -0.001088  -0.003311   0.000244  -0.000378  -0.039018
     9  C    0.000001   0.000000  -0.000016   0.000000   0.000000  -0.000093
    10  C   -0.000005   0.000000   0.000009   0.000000   0.000000   0.000378
    11  C   -0.000335  -0.000016  -0.000019   0.000001  -0.000001   0.006256
    12  C    0.001095   0.000000  -0.000871  -0.000007   0.000147  -0.017461
    13  C    0.000233   0.000251  -0.000250  -0.000004  -0.000011  -0.001207
    14  C    0.000000  -0.000005   0.000124   0.000000  -0.000004   0.000081
    15  H    0.000000   0.000000   0.000000   0.000000   0.000000   0.000002
    16  H    0.000000   0.000000   0.000000   0.000000   0.000000   0.000001
    17  H    0.000000   0.000001   0.000003   0.000000   0.000000  -0.000002
    18  F   -0.000034   0.000000   0.000001   0.000000   0.000000   0.009824
    19  F   -0.000021  -0.001447   0.008046  -0.000040  -0.000214  -0.000012
    20  H   -0.000225   0.000573   0.000021   0.000012   0.000017  -0.000045
    21  H   -0.000110   0.000010   0.000002  -0.000002  -0.000003  -0.000121
    22  H    0.005300  -0.000212  -0.000001   0.000005   0.000013   0.000032
    23  H   -0.008754  -0.000218   0.000018   0.000019  -0.000031   0.003221
    24  H    0.007629  -0.000356  -0.000058   0.000000   0.000000   0.001115
    25  H   -0.002740  -0.038404   0.008657  -0.006083  -0.004192  -0.000349
    26  H   -0.000263  -0.012679  -0.003133   0.004953  -0.000159   0.000131
    27  H   -0.000258   0.010215   0.001361  -0.000245  -0.000246  -0.000623
    28  H    0.001600   0.001775  -0.000057  -0.000136   0.000042  -0.003387
    29  H   -0.004681  -0.000237  -0.003334   0.000387   0.000379   0.007291
    30  H    0.007414   0.000360   0.000355  -0.000022   0.000111  -0.009202
    31  H    0.495175  -0.005371  -0.000565  -0.000171   0.004862   0.003308
    32  C   -0.005371   5.446746   0.373351   0.387601   0.389496  -0.000626
    33  H   -0.000565   0.373351   0.474557  -0.027290  -0.027644  -0.000470
    34  H   -0.000171   0.387601  -0.027290   0.469349  -0.026567   0.000053
    35  H    0.004862   0.389496  -0.027644  -0.026567   0.482653  -0.000084
    36  H    0.003308  -0.000626  -0.000470   0.000053  -0.000084   0.408138
 Mulliken charges:
               1
     1  C   -0.666319
     2  C   -0.489292
     3  C   -0.081473
     4  C   -0.320218
     5  C   -0.176848
     6  O   -0.623402
     7  N   -0.606656
     8  C   -0.381491
     9  C   -0.192575
    10  C   -0.280131
    11  C    0.340015
    12  C   -0.153118
    13  C    0.329875
    14  C   -0.279524
    15  H    0.234549
    16  H    0.235753
    17  H    0.236521
    18  F   -0.237350
    19  F   -0.232569
    20  H    0.231639
    21  H    0.230532
    22  H    0.225843
    23  H    0.233957
    24  H    0.238979
    25  H    0.235933
    26  H    0.214671
    27  H    0.207805
    28  H    0.409916
    29  H    0.270856
    30  H    0.240088
    31  H    0.230071
    32  C   -0.665130
    33  H    0.234457
    34  H    0.228418
    35  H    0.221664
    36  H    0.354555
 Sum of Mulliken charges =   0.00000
 Mulliken charges with hydrogens summed into heavy atoms:
               1
     1  C    0.021695
     2  C   -0.016356
     3  C    0.148598
     4  C   -0.084285
     5  C    0.245628
     6  O   -0.213486
     7  N   -0.252101
     8  C    0.129452
     9  C    0.041975
    10  C   -0.044378
    11  C    0.340015
    12  C   -0.153118
    13  C    0.329875
    14  C   -0.043003
    18  F   -0.237350
    19  F   -0.232569
    32  C    0.019409
 Electronic spatial extent (au):  <R**2>=           4919.6889
 Charge=              0.0000 electrons
 Dipole moment (field-independent basis, Debye):
    X=              1.1785    Y=              2.8775    Z=             -2.2595  Tot=              3.8437
 Quadrupole moment (field-independent basis, Debye-Ang):
   XX=            -83.6957   YY=           -105.1565   ZZ=           -108.2662
   XY=             -3.7590   XZ=              7.8959   YZ=              5.0244
 Traceless Quadrupole moment (field-independent basis, Debye-Ang):
   XX=             15.3437   YY=             -6.1170   ZZ=             -9.2267
   XY=             -3.7590   XZ=              7.8959   YZ=              5.0244
 Octapole moment (field-independent basis, Debye-Ang**2):
  XXX=             68.0418  YYY=              6.0403  ZZZ=            -20.4395  XYY=              7.0611
  XXY=             -5.4693  XXZ=             24.5848  XZZ=              8.9799  YZZ=             15.7181
  YYZ=             -1.6905  XYZ=             -4.2634
 Hexadecapole moment (field-independent basis, Debye-Ang**3):
 XXXX=          -4193.0055 YYYY=          -1351.5860 ZZZZ=           -573.4290 XXXY=             13.7672
 XXXZ=             92.6095 YYYX=             -7.8744 YYYZ=             17.5834 ZZZX=              3.4585
 ZZZY=             34.1226 XXYY=           -925.2963 XXZZ=           -875.3085 YYZZ=           -333.2506
 XXYZ=             21.9338 YYXZ=             12.5759 ZZXY=             -7.7748
 N-N= 1.284395443392D+03 E-N=-4.526601371559D+03  KE= 8.333475833200D+02
 1\1\GINC-CPU-E-279\SP\RmPW1PW91\6-311G(d)\C13H19F2N1O1\AH809\04-Mar-20
 19\0\\# mPW1PW91/6-311g(d) nmr=giao scrf=(solvent=chloroform)\\AT3_1gi
 np005\\0,1\C,0,-3.121561,0.479589,1.590206\C,0,-1.851748,1.170993,1.11
 3133\C,0,-0.618784,0.915157,2.013936\C,0,-0.825574,1.367442,3.493086\C
 ,0,-1.064697,2.879876,3.652507\O,0,0.060991,3.651791,3.254603\N,0,0.54
 3369,1.601576,1.405945\C,0,1.685292,0.692448,1.228834\C,0,5.120226,2.8
 56352,-0.244074\C,0,4.079594,2.518508,-1.107604\C,0,2.977556,1.816044,
 -0.621856\C,0,2.885446,1.434477,0.717982\C,0,3.937118,1.783668,1.56606
 3\C,0,5.04723,2.486472,1.098139\H,0,5.981642,3.406909,-0.613323\H,0,4.
 115871,2.80036,-2.155631\H,0,5.846306,2.742024,1.787838\F,0,1.985748,1
 .507139,-1.470594\F,0,3.9006,1.433431,2.859746\H,0,-3.499064,0.92439,2
 .515257\H,0,-3.908011,0.580062,0.835025\H,0,-2.949688,-0.587937,1.7592
 51\H,0,-1.632261,0.799096,0.103081\H,0,-2.046154,2.244966,1.008126\H,0
 ,-1.716147,0.856837,3.879442\H,0,-1.275504,3.12134,4.699819\H,0,-1.928
 608,3.209606,3.068447\H,0,0.489585,3.154571,2.52355\H,0,1.938476,0.195
 279,2.171747\H,0,1.429118,-0.10455,0.518729\H,0,-0.458844,-0.172283,2.
 014139\C,0,0.337359,0.923044,4.392242\H,0,1.273111,1.433891,4.145696\H
 ,0,0.111461,1.139865,5.44215\H,0,0.502492,-0.156127,4.30717\H,0,0.2947
 72,1.940478,0.472329\\Version=ES64L-G09RevD.01\State=1-A\HF=-836.46442
 54\RMSD=7.091e-09\Dipole=0.1529425,-1.0188241,-1.1069837\Quadrupole=8.
 9680757,-6.3395491,-2.6285266,6.5586895,-3.4519407,-6.0389422\PG=C01 [
 X(C13H19F2N1O1)]\\@


 A COMPLEXITY IS MERELY A DISARRANGEMENT OF SIMPLICITIES.

                                    -- G. O. ABELL IN "EXPLORATION OF THE UNIVERSE"
 Job cpu time:       0 days  0 hours 17 minutes  5.9 seconds.
 File lengths (MBytes):  RWF=    180 Int=      0 D2E=      0 Chk=     10 Scr=      1
 Normal termination of Gaussian 09 at Mon Mar  4 11:29:01 2019.
