 Entering Gaussian System, Link 0=/usr/local/Cluster-Apps/gaussian/g09/g09
 Initial command:
 /usr/local/Cluster-Apps/gaussian/g09/l1.exe "/home/ah809/rds/hpc-work/04Mar1111AT3/Gau-102941.inp" -scrdir="/home/ah809/rds/hpc-work/04Mar1111AT3/"
 Entering Link 1 = /usr/local/Cluster-Apps/gaussian/g09/l1.exe PID=    102946.
  
 Copyright (c) 1988,1990,1992,1993,1995,1998,2003,2009,2013,
            Gaussian, Inc.  All Rights Reserved.
  
 This is part of the Gaussian(R) 09 program.  It is based on
 the Gaussian(R) 03 system (copyright 2003, Gaussian, Inc.),
 the Gaussian(R) 98 system (copyright 1998, Gaussian, Inc.),
 the Gaussian(R) 94 system (copyright 1995, Gaussian, Inc.),
 the Gaussian 92(TM) system (copyright 1992, Gaussian, Inc.),
 the Gaussian 90(TM) system (copyright 1990, Gaussian, Inc.),
 the Gaussian 88(TM) system (copyright 1988, Gaussian, Inc.),
 the Gaussian 86(TM) system (copyright 1986, Carnegie Mellon
 University), and the Gaussian 82(TM) system (copyright 1983,
 Carnegie Mellon University). Gaussian is a federally registered
 trademark of Gaussian, Inc.
  
 This software contains proprietary and confidential information,
 including trade secrets, belonging to Gaussian, Inc.
  
 This software is provided under written license and may be
 used, copied, transmitted, or stored only in accord with that
 written license.
  
 The following legend is applicable only to US Government
 contracts under FAR:
  
                    RESTRICTED RIGHTS LEGEND
  
 Use, reproduction and disclosure by the US Government is
 subject to restrictions as set forth in subparagraphs (a)
 and (c) of the Commercial Computer Software - Restricted
 Rights clause in FAR 52.227-19.
  
 Gaussian, Inc.
 340 Quinnipiac St., Bldg. 40, Wallingford CT 06492
  
  
 ---------------------------------------------------------------
 Warning -- This program may not be used in any manner that
 competes with the business of Gaussian, Inc. or will provide
 assistance to any competitor of Gaussian, Inc.  The licensee
 of this program is prohibited from giving any competitor of
 Gaussian, Inc. access to this program.  By using this program,
 the user acknowledges that Gaussian, Inc. is engaged in the
 business of creating and licensing software in the field of
 computational chemistry and represents and warrants to the
 licensee that it is not a competitor of Gaussian, Inc. and that
 it will not use this program in any manner prohibited above.
 ---------------------------------------------------------------
  

 Cite this work as:
 Gaussian 09, Revision D.01,
 M. J. Frisch, G. W. Trucks, H. B. Schlegel, G. E. Scuseria, 
 M. A. Robb, J. R. Cheeseman, G. Scalmani, V. Barone, B. Mennucci, 
 G. A. Petersson, H. Nakatsuji, M. Caricato, X. Li, H. P. Hratchian, 
 A. F. Izmaylov, J. Bloino, G. Zheng, J. L. Sonnenberg, M. Hada, 
 M. Ehara, K. Toyota, R. Fukuda, J. Hasegawa, M. Ishida, T. Nakajima, 
 Y. Honda, O. Kitao, H. Nakai, T. Vreven, J. A. Montgomery, Jr., 
 J. E. Peralta, F. Ogliaro, M. Bearpark, J. J. Heyd, E. Brothers, 
 K. N. Kudin, V. N. Staroverov, T. Keith, R. Kobayashi, J. Normand, 
 K. Raghavachari, A. Rendell, J. C. Burant, S. S. Iyengar, J. Tomasi, 
 M. Cossi, N. Rega, J. M. Millam, M. Klene, J. E. Knox, J. B. Cross, 
 V. Bakken, C. Adamo, J. Jaramillo, R. Gomperts, R. E. Stratmann, 
 O. Yazyev, A. J. Austin, R. Cammi, C. Pomelli, J. W. Ochterski, 
 R. L. Martin, K. Morokuma, V. G. Zakrzewski, G. A. Voth, 
 P. Salvador, J. J. Dannenberg, S. Dapprich, A. D. Daniels, 
 O. Farkas, J. B. Foresman, J. V. Ortiz, J. Cioslowski, 
 and D. J. Fox, Gaussian, Inc., Wallingford CT, 2013.
 
 ******************************************
 Gaussian 09:  ES64L-G09RevD.01 24-Apr-2013
                 4-Mar-2019 
 ******************************************
 %nprocshared=8
 Will use up to    8 processors via shared memory.
 %mem=6000MB
 %chk=AT3_1ginp008.chk
 -------------------------------------------------------
 # mPW1PW91/6-311g(d) nmr=giao scrf=(solvent=chloroform)
 -------------------------------------------------------
 1/38=1/1;
 2/12=2,17=6,18=5,40=1/2;
 3/5=4,6=6,7=1,11=2,16=1,25=1,30=1,70=2201,72=7,74=-7/1,2,8,3;
 4//1;
 5/5=2,38=5,53=7/2;
 8/6=1,10=90,11=11/1;
 10/13=100,45=16/2;
 6/7=2,8=2,9=2,10=2,28=1/1;
 99/9=1/99;
 ------------
 AT3_1ginp008
 ------------
 Symbolic Z-matrix:
 Charge =  0 Multiplicity = 1
 C                    -0.02007  -0.06464   0.07462 
 C                    -0.71473   0.36083   1.36334 
 C                     0.19515   1.16919   2.32275 
 C                    -0.47346   1.27809   3.73183 
 C                    -1.77039   2.10786   3.74686 
 O                    -1.53958   3.47139   3.4168 
 N                     0.48736   2.49808   1.75085 
 C                     1.89764   2.90205   1.86667 
 C                     4.54841   0.91052  -0.90594 
 C                     4.59824   0.60686   0.45348 
 C                     3.73963   1.25429   1.3414 
 C                     2.81882   2.20746   0.90369 
 C                     2.78781   2.49784  -0.46158 
 C                     3.63819   1.86097  -1.36445 
 H                     5.21504   0.40973  -1.60348 
 H                     5.30071  -0.13056   0.83085 
 H                     3.58274   2.11149  -2.41978 
 F                     3.8087    0.9388    2.64268 
 F                     1.91424   3.40071  -0.93012 
 H                     0.90224  -0.6141    0.28741 
 H                    -0.67762  -0.72199  -0.50363 
 H                     0.22296   0.79314  -0.55788 
 H                    -1.61296   0.93346   1.10349 
 H                    -1.05764  -0.54786   1.87363 
 H                    -0.74305   0.25874   4.0412 
 H                    -2.22533   2.08212   4.74283 
 H                    -2.50912   1.70701   3.04698 
 H                    -0.84756   3.46467   2.71986 
 H                     1.95225   3.97979   1.66692 
 H                     2.25705   2.79116   2.89479 
 H                     1.11535   0.58351   2.44161 
 C                     0.49933   1.80764   4.79311 
 H                     0.75087   2.86089   4.63738 
 H                     0.05584   1.72209   5.79134 
 H                     1.42778   1.2271    4.79476 
 H                     0.23666   2.53394   0.76081 
 
                          Input orientation:                          
 ---------------------------------------------------------------------
 Center     Atomic      Atomic             Coordinates (Angstroms)
 Number     Number       Type             X           Y           Z
 ---------------------------------------------------------------------
      1          6           0       -0.020074   -0.064641    0.074623
      2          6           0       -0.714733    0.360825    1.363338
      3          6           0        0.195147    1.169186    2.322752
      4          6           0       -0.473457    1.278089    3.731827
      5          6           0       -1.770388    2.107857    3.746857
      6          8           0       -1.539578    3.471385    3.416795
      7          7           0        0.487361    2.498078    1.750852
      8          6           0        1.897644    2.902048    1.866665
      9          6           0        4.548413    0.910516   -0.905941
     10          6           0        4.598238    0.606855    0.453479
     11          6           0        3.739630    1.254294    1.341401
     12          6           0        2.818823    2.207462    0.903690
     13          6           0        2.787812    2.497837   -0.461580
     14          6           0        3.638191    1.860971   -1.364450
     15          1           0        5.215040    0.409726   -1.603483
     16          1           0        5.300708   -0.130558    0.830849
     17          1           0        3.582740    2.111490   -2.419775
     18          9           0        3.808702    0.938800    2.642681
     19          9           0        1.914243    3.400708   -0.930117
     20          1           0        0.902241   -0.614100    0.287405
     21          1           0       -0.677617   -0.721985   -0.503633
     22          1           0        0.222958    0.793143   -0.557880
     23          1           0       -1.612964    0.933456    1.103489
     24          1           0       -1.057644   -0.547858    1.873629
     25          1           0       -0.743045    0.258743    4.041195
     26          1           0       -2.225328    2.082120    4.742830
     27          1           0       -2.509123    1.707011    3.046978
     28          1           0       -0.847557    3.464667    2.719863
     29          1           0        1.952251    3.979786    1.666915
     30          1           0        2.257050    2.791163    2.894788
     31          1           0        1.115354    0.583511    2.441605
     32          6           0        0.499334    1.807640    4.793107
     33          1           0        0.750868    2.860889    4.637383
     34          1           0        0.055837    1.722093    5.791343
     35          1           0        1.427779    1.227103    4.794765
     36          1           0        0.236657    2.533943    0.760813
 ---------------------------------------------------------------------
                    Distance matrix (angstroms):
                    1          2          3          4          5
     1  C    0.000000
     2  C    1.524585   0.000000
     3  C    2.573467   1.549776   0.000000
     4  C    3.922196   2.551338   1.563452   0.000000
     5  C    4.611795   3.138103   2.602404   1.539731   0.000000
     6  O    5.097302   3.817413   3.083232   2.458944   1.421767
     7  N    3.103991   2.482549   1.475945   2.517103   3.038707
     8  C    3.961098   3.679085   2.471704   3.426105   4.197656
     9  C    4.773208   5.757820   5.426075   6.845669   7.937846
    10  C    4.682226   5.395928   4.816390   6.076200   7.325213
    11  C    4.180872   4.543140   3.678811   4.844048   6.072486
    12  C    3.729496   4.013398   3.158390   4.438603   5.399479
    13  C    3.839014   4.490542   4.029855   5.450534   6.216125
    14  C    4.377421   5.351562   5.092011   6.573997   7.445746
    15  H    5.517924   6.630733   6.418055   7.847202   8.961361
    16  H    5.374658   6.058922   5.475570   6.613693   7.969567
    17  H    4.892631   5.987073   5.903837   7.415490   8.165987
    18  F    4.718193   4.736268   3.634998   4.431506   5.806216
    19  F    4.093865   4.627347   4.303038   5.651579   6.092787
    20  H    1.094462   2.173181   2.796914   4.163768   5.149738
    21  H    1.094917   2.158573   3.510940   4.688400   5.221956
    22  H    1.093123   2.181110   2.905206   4.372843   4.922668
    23  H    2.142910   1.096470   2.193499   2.885378   2.896790
    24  H    2.132246   1.097128   2.172426   2.669880   3.327132
    25  H    4.044868   2.679952   2.159203   1.098841   2.135718
    26  H    5.591412   4.082367   3.542446   2.176613   1.095260
    27  H    4.262512   2.804763   2.850760   2.190189   1.093726
    28  H    4.487543   3.389932   2.552286   2.438267   1.935786
    29  H    4.773138   4.505756   3.378906   4.176971   4.657072
    30  H    4.614568   4.133204   2.685047   3.231980   4.172911
    31  H    2.704053   2.135759   1.097234   2.161350   3.514942
    32  C    5.102873   3.915424   2.569593   1.533969   2.517222
    33  H    5.474656   4.372377   2.920308   2.196420   2.777917
    34  H    5.989914   4.696175   3.515144   2.172302   2.768363
    35  H    5.103393   4.137087   2.762894   2.178792   3.478809
    36  H    2.699890   2.447575   2.074593   3.302780   3.623015
                    6          7          8          9         10
     6  O    0.000000
     7  N    2.798424   0.000000
     8  C    3.813337   1.471565   0.000000
     9  C    7.893525   5.105981   4.322050   0.000000
    10  C    7.393210   4.707357   3.815523   1.393813   0.000000
    11  C    6.090385   3.505981   2.526640   2.413060   1.394557
    12  C    5.187375   2.497570   1.502778   2.819276   2.435354
    13  C    5.892019   3.191697   2.525175   2.411796   2.773227
    14  C    7.229317   4.476465   3.814898   1.393592   2.408187
    15  H    8.955546   6.161471   5.409132   1.087082   2.156478
    16  H    8.151725   5.560975   4.674447   2.160144   1.086117
    17  H    7.883718   5.208162   4.673125   2.160221   3.398640
    18  F    5.968026   3.775978   2.847575   3.625009   2.350779
    19  F    5.552434   3.168332   2.840938   3.624982   4.113852
    20  H    5.696205   3.464023   3.980978   4.128329   3.895986
    21  H    5.804919   4.099839   5.038243   5.489836   5.524176
    22  H    5.106619   2.882179   3.623599   4.341023   4.494511
    23  H    3.434800   2.697867   4.096604   6.480810   6.253656
    24  H    4.332198   3.417578   4.542645   6.425009   5.944677
    25  H    3.368295   3.431354   4.323064   7.273135   6.443772
    26  H    2.039284   4.060004   5.093477   8.897462   8.193656
    27  H    2.046900   3.359263   4.716020   8.128271   7.645336
    28  H    0.982167   1.911879   2.929269   6.984743   6.554408
    29  H    3.938708   2.085283   1.097452   4.772846   4.455372
    30  H    3.892246   2.127507   1.094763   4.820033   4.026457
    31  H    4.042212   2.130043   2.513593   4.806131   4.010445
    32  C    2.969755   3.119642   3.423020   7.048335   6.088947
    33  H    2.666211   2.921152   2.998944   6.996695   6.114571
    34  H    3.353185   4.136899   4.493066   8.105277   7.097179
    35  H    3.967469   3.430039   3.405875   6.506661   5.411403
    36  H    3.329872   1.021918   2.029110   4.899472   4.778233
                   11         12         13         14         15
    11  C    0.000000
    12  C    1.395710   0.000000
    13  C    2.388116   1.396152   0.000000
    14  C    2.774883   2.436366   1.394244   0.000000
    15  H    3.400363   3.906357   3.399351   2.156317   0.000000
    16  H    2.148358   3.410483   3.859207   3.398454   2.495039
    17  H    3.860809   3.411481   2.148419   1.086069   2.495343
    18  F    1.340760   2.369273   3.620670   4.115407   4.504177
    19  F    3.619244   2.367477   1.340830   2.351900   4.504959
    20  H    3.557047   3.466166   3.714904   4.042280   4.819119
    21  H    5.178986   4.773606   4.730562   5.102829   6.100315
    22  H    4.023296   3.297727   3.081190   3.668055   5.114800
    23  H    5.367476   4.615598   4.925805   5.875852   7.363670
    24  H    5.152170   4.853820   5.432954   6.191807   7.235595
    25  H    5.326761   5.131116   6.144548   7.140263   8.208774
    26  H    6.916339   6.340202   7.238113   8.469276   9.921273
    27  H    6.493139   5.764646   6.402570   7.567950   9.108920
    28  H    5.275243   4.280349   4.926687   6.274981   8.048544
    29  H    3.275514   2.115323   2.724853   4.064596   5.838375
    30  H    2.640648   2.149597   3.410712   4.573174   5.886883
    31  H    2.923563   2.811442   3.858788   4.741589   5.761976
    32  C    4.766548   4.546147   5.772802   6.911641   8.068978
    33  H    4.730470   4.317855   5.502760   6.734870   8.055150
    34  H    5.795787   5.635497   6.867642   8.003619   9.111703
    35  H    4.155853   4.246949   5.576165   6.574469   7.479908
    36  H    3.774308   2.606642   2.829124   4.066948   5.906479
                   16         17         18         19         20
    16  H    0.000000
    17  H    4.306362   0.000000
    18  F    2.579214   5.201415   0.000000
    19  F    5.199903   2.581675   4.734433   0.000000
    20  H    4.458212   4.684308   4.050474   4.315691   0.000000
    21  H    6.153942   5.463591   5.725780   4.888376   1.770122
    22  H    5.344655   4.061136   4.808572   3.130240   1.776588
    23  H    7.000380   6.387213   5.635921   4.760680   3.063850
    24  H    6.456793   6.858470   5.146155   5.681926   2.522230
    25  H    6.854548   7.993073   4.810064   6.453454   4.190437
    26  H    8.765886   9.221574   6.490557   7.145422   6.074710
    27  H    8.323542   8.195107   6.377187   6.184825   4.963890
    28  H    7.368526   6.919140   5.297802   4.577552   5.061125
    29  H    5.367131   4.780174   3.694066   2.661081   4.910128
    30  H    4.696824   5.519419   2.429492   3.888311   4.497752
    31  H    4.541103   5.661778   2.724112   4.465796   2.473917
    32  C    6.519915   7.850184   4.041179   6.106974   5.131131
    33  H    6.643756   7.640980   4.125968   5.713309   5.569629
    34  H    7.453019   8.945006   4.961010   7.172827   6.038835
    35  H    5.705739   7.581265   3.222325   6.142921   4.897194
    36  H    5.722681   4.635825   4.341130   2.534723   3.252275
                   21         22         23         24         25
    21  H    0.000000
    22  H    1.763403   0.000000
    23  H    2.489618   2.480009   0.000000
    24  H    2.413735   3.057852   1.759485   0.000000
    25  H    4.649900   4.729718   3.137214   2.334078   0.000000
    26  H    6.146852   5.979389   3.865129   4.063568   2.452378
    27  H    4.675604   4.614588   2.275662   2.927110   2.490980
    28  H    5.286574   4.361954   3.099281   4.106167   3.469119
    29  H    5.808109   4.253805   4.723170   5.440750   5.171846
    30  H    5.701206   4.477782   4.651541   4.814460   4.089984
    31  H    3.686935   3.136435   3.058878   2.514858   2.473421
    32  C    5.986624   5.453315   4.340424   4.061515   2.123196
    33  H    6.427099   5.616495   4.668095   4.746431   3.059147
    34  H    6.792510   6.418996   5.038137   4.662725   2.417152
    35  H    6.025335   5.503701   4.791437   4.226210   2.493605
    36  H    3.610511   2.183924   2.469835   3.522935   4.110627
                   26         27         28         29         30
    26  H    0.000000
    27  H    1.759875   0.000000
    28  H    2.811065   2.440729   0.000000
    29  H    5.523998   5.193644   3.035288   0.000000
    30  H    4.899971   4.890292   3.181633   1.735915   0.000000
    31  H    4.324537   3.842598   3.497357   3.582628   2.526375
    32  C    2.738914   3.479929   2.976272   4.074587   2.767760
    33  H    3.078204   3.806358   2.568344   3.393955   2.304362
    34  H    2.536279   3.756433   3.645089   5.069958   3.791870
    35  H    3.752192   4.334082   3.806450   4.199498   2.596899
    36  H    4.703400   3.667380   2.424798   2.419658   2.949915
                   31         32         33         34         35
    31  H    0.000000
    32  C    2.721679   0.000000
    33  H    3.184453   1.094008   0.000000
    34  H    3.693195   1.095666   1.763958   0.000000
    35  H    2.459508   1.095005   1.775453   1.766468   0.000000
    36  H    2.720543   4.105595   3.924169   5.098826   4.404472
                   36
    36  H    0.000000
 Stoichiometry    C13H19F2NO
 Framework group  C1[X(C13H19F2NO)]
 Deg. of freedom   102
 Full point group                 C1      NOp   1
 Largest Abelian subgroup         C1      NOp   1
 Largest concise Abelian subgroup C1      NOp   1
                         Standard orientation:                         
 ---------------------------------------------------------------------
 Center     Atomic      Atomic             Coordinates (Angstroms)
 Number     Number       Type             X           Y           Z
 ---------------------------------------------------------------------
      1          6           0       -0.078479   -1.679637    2.138742
      2          6           0       -1.457905   -1.184738    1.718479
      3          6           0       -1.416603   -0.039191    0.675493
      4          6           0       -2.827394    0.622728    0.549336
      5          6           0       -3.904490   -0.306665   -0.039616
      6          8           0       -3.621882   -0.672035   -1.384257
      7          7           0       -0.931982   -0.547664   -0.622587
      8          6           0        0.057230    0.324833   -1.275052
      9          6           0        4.002350    0.160869    0.482578
     10          6           0        3.210586    1.297039    0.640510
     11          6           0        1.938919    1.341873    0.069859
     12          6           0        1.428062    0.268733   -0.661852
     13          6           0        2.239082   -0.858075   -0.809474
     14          6           0        3.512957   -0.921402   -0.246313
     15          1           0        4.994655    0.119413    0.924573
     16          1           0        3.573814    2.151166    1.204586
     17          1           0        4.113493   -1.816331   -0.380487
     18          9           0        1.199460    2.447011    0.241641
     19          9           0        1.787987   -1.917060   -1.497144
     20          1           0        0.544132   -0.853556    2.496223
     21          1           0       -0.175024   -2.405142    2.953091
     22          1           0        0.441810   -2.178188    1.316754
     23          1           0       -2.034068   -2.036794    1.338634
     24          1           0       -1.974991   -0.831943    2.619505
     25          1           0       -3.153153    0.885249    1.565415
     26          1           0       -4.880215    0.190813   -0.031198
     27          1           0       -4.007035   -1.222638    0.549209
     28          1           0       -2.647755   -0.788436   -1.430939
     29          1           0        0.143201    0.005556   -2.321509
     30          1           0       -0.301344    1.357851   -1.327992
     31          1           0       -0.733913    0.719715    1.077884
     32          6           0       -2.780159    1.936472   -0.241174
     33          1           0       -2.567410    1.775418   -1.302142
     34          1           0       -3.743905    2.453652   -0.176350
     35          1           0       -2.017907    2.608917    0.166041
     36          1           0       -0.507414   -1.471389   -0.518711
 ---------------------------------------------------------------------
 Rotational constants (GHZ):      0.7527049      0.2917219      0.2687668
 Standard basis: 6-311G(d) (5D, 7F)
 There are   380 symmetry adapted cartesian basis functions of A   symmetry.
 There are   363 symmetry adapted basis functions of A   symmetry.
   363 basis functions,   639 primitive gaussians,   380 cartesian basis functions
    65 alpha electrons       65 beta electrons
       nuclear repulsion energy      1312.1981681063 Hartrees.
 NAtoms=   36 NActive=   36 NUniq=   36 SFac= 1.00D+00 NAtFMM=   60 NAOKFM=F Big=F
 Integral buffers will be    131072 words long.
 Raffenetti 2 integral format.
 Two-electron integral symmetry is turned on.
 ------------------------------------------------------------------------------
 Polarizable Continuum Model (PCM)
 =================================
 Model                : PCM (using non-symmetric T matrix).
 Atomic radii         : UFF (Universal Force Field).
 Polarization charges : Total charges.
 Charge compensation  : None.
 Solution method      : On-the-fly selection.
 Cavity type          : Scaled VdW (van der Waals Surface) (Alpha=1.100).
 Cavity algorithm     : GePol (No added spheres)
                        Default sphere list used, NSphG=   36.
                        Lebedev-Laikov grids with approx.  5.0 points / Ang**2.
                        Smoothing algorithm: Karplus/York (Gamma=1.0000).
                        Polarization charges: spherical gaussians, with
                                              point-specific exponents (IZeta= 3).
                        Self-potential: point-specific (ISelfS= 7).
                        Self-field    : sphere-specific E.n sum rule (ISelfD= 2).
 Solvent              : Chloroform, Eps=   4.711300 Eps(inf)=   2.090627
 ------------------------------------------------------------------------------
 One-electron integrals computed using PRISM.
 NBasis=   363 RedAO= T EigKep=  2.42D-04  NBF=   363
 NBsUse=   363 1.00D-06 EigRej= -1.00D+00 NBFU=   363
 ExpMin= 1.03D-01 ExpMax= 1.14D+04 ExpMxC= 1.72D+03 IAcc=1 IRadAn=         1 AccDes= 0.00D+00
 Harris functional with IExCor=  908 and IRadAn=       1 diagonalized for initial guess.
 HarFok:  IExCor=  908 AccDes= 0.00D+00 IRadAn=         1 IDoV= 1 UseB2=F ITyADJ=14
 ICtDFT=  3500011 ScaDFX=  1.000000  1.000000  1.000000  1.000000
 FoFCou: FMM=F IPFlag=           0 FMFlag=      100000 FMFlg1=           0
         NFxFlg=           0 DoJE=T BraDBF=F KetDBF=T FulRan=T
         wScrn=  0.000000 ICntrl=     500 IOpCl=  0 I1Cent=   200000004 NGrid=           0
         NMat0=    1 NMatS0=      1 NMatT0=    0 NMatD0=    1 NMtDS0=    0 NMtDT0=    0
 Petite list used in FoFCou.
 Requested convergence on RMS density matrix=1.00D-08 within 128 cycles.
 Requested convergence on MAX density matrix=1.00D-06.
 Requested convergence on             energy=1.00D-06.
 No special actions if energy rises.
 Inv3:  Mode=1 IEnd=    17831532.
 Iteration    1 A*A^-1 deviation from unit magnitude is 1.44D-14 for   2433.
 Iteration    1 A*A^-1 deviation from orthogonality  is 8.05D-15 for   2433    177.
 Iteration    1 A^-1*A deviation from unit magnitude is 1.44D-14 for   2433.
 Iteration    1 A^-1*A deviation from orthogonality  is 6.77D-13 for   2233   2218.
 Error on total polarization charges =  0.00905
 SCF Done:  E(RmPW1PW91) =  -836.464885874     A.U. after   12 cycles
            NFock= 12  Conv=0.68D-08     -V/T= 2.0037
 DoSCS=F DFT=T ScalE2(SS,OS)=  1.000000  1.000000
 Range of M.O.s used for correlation:     1   363
 NBasis=   363 NAE=    65 NBE=    65 NFC=     0 NFV=     0
 NROrb=    363 NOA=    65 NOB=    65 NVA=   298 NVB=   298

 **** Warning!!: The largest alpha MO coefficient is  0.11423813D+02

 NEqPCM:  Using equilibrium solvation (IEInf=0, Eps=   4.7113, EpsInf=   2.0906)
          Differentiating once with respect to magnetic field using GIAOs.
          Electric field/nuclear overlap derivatives assumed to be zero.
 FoFJK:  IHMeth= 1 ICntrl=    6127 DoSepK=F KAlg= 0 I1Cent=   0 FoldK=F
 IRaf=         1 NMat=   1 IRICut=       1 DoRegI=T DoRafI=F ISym2E= 0.
          There are     3 degrees of freedom in the 1st order CPHF.  IDoFFX=0 NUNeed=     3.
      3 vectors produced by pass  0 Test12= 6.46D-13 3.33D-08 XBig12= 3.72D+01 1.80D+00.
 AX will form     3 AO Fock derivatives at one time.
      3 vectors produced by pass  1 Test12= 6.46D-13 3.33D-08 XBig12= 1.18D-01 1.61D-01.
      3 vectors produced by pass  2 Test12= 6.46D-13 3.33D-08 XBig12= 5.73D-04 6.30D-03.
      3 vectors produced by pass  3 Test12= 6.46D-13 3.33D-08 XBig12= 1.36D-06 2.53D-04.
      3 vectors produced by pass  4 Test12= 6.46D-13 3.33D-08 XBig12= 3.48D-09 1.48D-05.
      3 vectors produced by pass  5 Test12= 6.46D-13 3.33D-08 XBig12= 1.55D-11 8.80D-07.
      2 vectors produced by pass  6 Test12= 6.46D-13 3.33D-08 XBig12= 3.98D-14 3.70D-08.
 InvSVY:  IOpt=1 It=  1 EMax= 2.66D-15
 Solved reduced A of dimension    20 with     3 vectors.
 Calculating GIAO nuclear magnetic shielding tensors.
 SCF GIAO Magnetic shielding tensor (ppm):
      1  C    Isotropic =   175.4612   Anisotropy =    20.0916
   XX=   186.6226   YX=    -2.1296   ZX=     8.9139
   XY=     1.7294   YY=   173.9015   ZY=    -6.5800
   XZ=     4.4297   YZ=    -5.7497   ZZ=   165.8596
   Eigenvalues:   161.1745   176.3536   188.8556
      2  C    Isotropic =   157.1887   Anisotropy =    27.4695
   XX=   150.1656   YX=    -6.4805   ZX=    -5.7308
   XY=    -5.5838   YY=   156.3533   ZY=   -16.9431
   XZ=   -11.9208   YZ=   -10.1256   ZZ=   165.0473
   Eigenvalues:   137.9413   158.1232   175.5017
      3  C    Isotropic =   122.5308   Anisotropy =     8.1148
   XX=   124.7950   YX=    -0.5736   ZX=    -3.2516
   XY=    -5.6317   YY=   117.2900   ZY=     3.0187
   XZ=     2.4034   YZ=     4.6386   ZZ=   125.5072
   Eigenvalues:   115.0049   124.6467   127.9406
      4  C    Isotropic =   144.6194   Anisotropy =    11.4960
   XX=   148.1083   YX=    -9.8293   ZX=     1.2090
   XY=    -6.0288   YY=   134.8553   ZY=    -7.6910
   XZ=    -3.8475   YZ=    -0.3551   ZZ=   150.8947
   Eigenvalues:   130.2904   151.2844   152.2834
      5  C    Isotropic =   121.1104   Anisotropy =    53.9435
   XX=   109.3443   YX=     1.2353   ZX=   -10.3293
   XY=     2.0863   YY=   106.5298   ZY=    17.3655
   XZ=    -8.2195   YZ=    23.0019   ZZ=   147.4573
   Eigenvalues:    96.1447   110.1138   157.0728
      6  O    Isotropic =   314.3812   Anisotropy =   101.3023
   XX=   380.2388   YX=    -3.5310   ZX=     5.5835
   XY=     4.6657   YY=   291.7362   ZY=    15.7827
   XZ=    21.4507   YZ=     0.5991   ZZ=   271.1685
   Eigenvalues:   266.8993   294.3282   381.9160
      7  N    Isotropic =   200.8609   Anisotropy =    41.3231
   XX=   182.5036   YX=    10.2402   ZX=    -0.5463
   XY=    10.6256   YY=   225.1140   ZY=    -3.4872
   XZ=   -17.6434   YZ=    -3.1972   ZZ=   194.9652
   Eigenvalues:   176.4323   197.7408   228.4097
      8  C    Isotropic =   145.9646   Anisotropy =    54.1179
   XX=   153.8850   YX=    19.6471   ZX=   -18.4412
   XY=    17.4336   YY=   137.0801   ZY=   -16.6463
   XZ=   -15.2378   YZ=   -18.4611   ZZ=   146.9286
   Eigenvalues:   122.4032   133.4473   182.0432
      9  C    Isotropic =    54.1618   Anisotropy =   186.5955
   XX=   -16.2743   YX=    24.9093   ZX=   -80.3037
   XY=    23.3485   YY=    57.9879   ZY=   -45.0511
   XZ=   -78.8919   YZ=   -44.2482   ZZ=   120.7720
   Eigenvalues:   -52.8924    36.8191   178.5589
     10  C    Isotropic =    70.8764   Anisotropy =   149.2961
   XX=    66.3823   YX=     5.5231   ZX=   -46.6854
   XY=    -2.1759   YY=    29.4469   ZY=   -66.8932
   XZ=   -50.8420   YZ=   -63.1956   ZZ=   116.8000
   Eigenvalues:   -12.1227    54.3448   170.4071
     11  C    Isotropic =    20.2838   Anisotropy =   101.3929
   XX=    16.2798   YX=    55.3276   ZX=    -7.6610
   XY=    52.7057   YY=   -23.5684   ZY=   -27.5957
   XZ=   -12.8771   YZ=   -28.7803   ZZ=    68.1401
   Eigenvalues:   -63.5699    36.5422    87.8791
     12  C    Isotropic =    66.5739   Anisotropy =   143.7345
   XX=    42.1573   YX=    26.6916   ZX=   -46.5008
   XY=    23.8468   YY=    44.2382   ZY=   -49.5499
   XZ=   -44.5647   YZ=   -51.1745   ZZ=   113.3263
   Eigenvalues:    17.2490    20.0758   162.3969
     13  C    Isotropic =    19.1451   Anisotropy =    99.2707
   XX=    34.6259   YX=   -21.6661   ZX=   -34.7715
   XY=   -15.2890   YY=   -22.3472   ZY=   -55.7783
   XZ=   -29.8199   YZ=   -56.7128   ZZ=    45.1565
   Eigenvalues:   -64.7589    36.8685    85.3256
     14  C    Isotropic =    70.0970   Anisotropy =   150.0425
   XX=    55.1747   YX=    42.6047   ZX=   -34.6085
   XY=    51.1695   YY=    21.9002   ZY=   -44.6496
   XZ=   -31.6781   YZ=   -47.1625   ZZ=   133.2160
   Eigenvalues:   -14.0463    54.2120   170.1254
     15  H    Isotropic =    24.5287   Anisotropy =     3.0206
   XX=    25.5727   YX=    -0.6429   ZX=     1.2826
   XY=    -0.7675   YY=    25.6893   ZY=     1.8620
   XZ=     1.2726   YZ=     1.8539   ZZ=    22.3242
   Eigenvalues:    21.0342    26.0095    26.5425
     16  H    Isotropic =    25.1533   Anisotropy =     4.9463
   XX=    27.7236   YX=    -0.3685   ZX=     2.2360
   XY=    -0.7137   YY=    25.2386   ZY=     1.2973
   XZ=     1.9174   YZ=     1.2808   ZZ=    22.4977
   Eigenvalues:    21.2808    25.7282    28.4509
     17  H    Isotropic =    25.1372   Anisotropy =     4.8775
   XX=    27.7326   YX=    -0.7892   ZX=     1.8034
   XY=    -0.3549   YY=    24.7044   ZY=     1.6777
   XZ=     1.9665   YZ=     1.5580   ZZ=    22.9746
   Eigenvalues:    21.4215    25.6013    28.3888
     18  F    Isotropic =   302.2205   Anisotropy =   121.2806
   XX=   270.7690   YX=    -2.3850   ZX=   -59.3450
   XY=    -8.8944   YY=   303.9568   ZY=   -41.0181
   XZ=   -52.9237   YZ=   -49.9316   ZZ=   331.9357
   Eigenvalues:   225.9405   297.6467   383.0742
     19  F    Isotropic =   304.3306   Anisotropy =   142.0500
   XX=   252.2922   YX=    20.6811   ZX=   -52.7994
   XY=    38.3141   YY=   285.0878   ZY=   -27.8715
   XZ=   -36.6916   YZ=   -19.1239   ZZ=   375.6118
   Eigenvalues:   229.0883   284.8730   399.0306
     20  H    Isotropic =    32.2772   Anisotropy =     6.4990
   XX=    33.8757   YX=     3.7885   ZX=     2.4004
   XY=     3.2654   YY=    30.6350   ZY=    -0.2975
   XZ=     1.2329   YZ=    -0.1974   ZZ=    32.3210
   Eigenvalues:    28.0255    32.1963    36.6099
     21  H    Isotropic =    31.2944   Anisotropy =    11.5555
   XX=    29.2682   YX=    -1.1797   ZX=     1.0893
   XY=    -0.5957   YY=    31.7646   ZY=    -6.6198
   XZ=     0.1137   YZ=    -6.4924   ZZ=    32.8504
   Eigenvalues:    25.7116    29.1736    38.9981
     22  H    Isotropic =    31.7581   Anisotropy =     6.2987
   XX=    32.4824   YX=    -2.6595   ZX=    -3.0372
   XY=    -2.8760   YY=    31.1684   ZY=    -0.0027
   XZ=    -3.4707   YZ=    -1.5342   ZZ=    31.6236
   Eigenvalues:    27.1968    32.1203    35.9573
     23  H    Isotropic =    30.5110   Anisotropy =     6.7772
   XX=    32.5735   YX=     2.4409   ZX=     2.0415
   XY=     3.0753   YY=    31.9313   ZY=    -1.6320
   XZ=     1.4800   YZ=    -2.3353   ZZ=    27.0283
   Eigenvalues:    25.3309    31.1730    35.0291
     24  H    Isotropic =    30.8940   Anisotropy =     8.6389
   XX=    31.0461   YX=    -3.1686   ZX=    -3.1312
   XY=    -2.1546   YY=    26.7790   ZY=    -1.0376
   XZ=    -3.1821   YZ=    -1.1435   ZZ=    34.8569
   Eigenvalues:    24.9013    31.1274    36.6533
     25  H    Isotropic =    30.8509   Anisotropy =     7.1591
   XX=    29.0232   YX=    -2.9182   ZX=    -2.8057
   XY=    -2.1591   YY=    29.6393   ZY=     0.3526
   XZ=    -2.4566   YZ=     1.3264   ZZ=    33.8902
   Eigenvalues:    26.4617    30.4674    35.6236
     26  H    Isotropic =    28.6050   Anisotropy =     8.5744
   XX=    33.6808   YX=    -0.6517   ZX=    -0.6869
   XY=    -0.9660   YY=    25.0308   ZY=     1.2647
   XZ=    -2.9576   YZ=     2.3331   ZZ=    27.1035
   Eigenvalues:    23.9860    27.5079    34.3213
     27  H    Isotropic =    27.8741   Anisotropy =     5.2853
   XX=    27.9644   YX=     2.8672   ZX=    -0.7616
   XY=     2.1784   YY=    26.6711   ZY=    -0.7304
   XZ=    -1.1977   YZ=    -2.7786   ZZ=    28.9869
   Eigenvalues:    24.5510    27.6738    31.3977
     28  H    Isotropic =    27.8110   Anisotropy =    24.9509
   XX=    44.2738   YX=    -1.9942   ZX=     2.2052
   XY=    -1.3962   YY=    16.4828   ZY=     4.4895
   XZ=     0.7240   YZ=     4.2029   ZZ=    22.6765
   Eigenvalues:    14.0857    24.9024    44.4450
     29  H    Isotropic =    28.2210   Anisotropy =     7.6716
   XX=    28.0450   YX=     0.0149   ZX=    -2.3494
   XY=    -0.3834   YY=    23.5032   ZY=    -0.5251
   XZ=     0.2905   YZ=     1.3441   ZZ=    33.1149
   Eigenvalues:    23.4814    27.8463    33.3354
     30  H    Isotropic =    28.2345   Anisotropy =     4.8673
   XX=    29.9259   YX=     0.5871   ZX=    -0.2226
   XY=    -1.3981   YY=    30.5941   ZY=    -1.3514
   XZ=     1.2626   YZ=    -3.0892   ZZ=    24.1835
   Eigenvalues:    23.4677    29.7565    31.4793
     31  H    Isotropic =    29.5817   Anisotropy =     3.9046
   XX=    31.6140   YX=     0.7121   ZX=     0.3400
   XY=     1.8591   YY=    29.0247   ZY=     0.3937
   XZ=    -0.7140   YZ=     2.5092   ZZ=    28.1063
   Eigenvalues:    26.8585    29.7018    32.1847
     32  C    Isotropic =   169.1055   Anisotropy =    26.0013
   XX=   174.3303   YX=    -1.4995   ZX=     6.8557
   XY=    -0.5698   YY=   180.6781   ZY=   -10.3852
   XZ=     5.6860   YZ=   -15.0167   ZZ=   152.3079
   Eigenvalues:   146.3656   174.5112   186.4396
     33  H    Isotropic =    30.0229   Anisotropy =     4.0195
   XX=    28.3852   YX=    -0.8673   ZX=    -0.2268
   XY=    -0.9643   YY=    29.7224   ZY=    -1.8836
   XZ=    -0.5227   YZ=    -1.0860   ZZ=    31.9612
   Eigenvalues:    27.6521    29.7141    32.7026
     34  H    Isotropic =    30.9786   Anisotropy =    11.4286
   XX=    33.7084   YX=    -5.1493   ZX=    -0.0175
   XY=    -5.3190   YY=    32.8901   ZY=    -1.0058
   XZ=     0.6780   YZ=    -0.5449   ZZ=    26.3373
   Eigenvalues:    26.2241    28.1140    38.5977
     35  H    Isotropic =    30.9350   Anisotropy =     7.4249
   XX=    31.9472   YX=     1.5432   ZX=     2.0625
   XY=     2.3720   YY=    34.5765   ZY=     1.1497
   XZ=     0.7507   YZ=     0.9451   ZZ=    26.2814
   Eigenvalues:    25.9101    31.0101    35.8849
     36  H    Isotropic =    30.9873   Anisotropy =     9.8026
   XX=    30.4618   YX=    -2.8261   ZX=    -3.6998
   XY=    -3.9561   YY=    35.6568   ZY=    -0.0950
   XZ=    -5.1617   YZ=    -1.4257   ZZ=    26.8434
   Eigenvalues:    23.3260    32.1136    37.5224
 End of Minotr F.D. properties file   721 does not exist.
 End of Minotr F.D. properties file   722 does not exist.
 End of Minotr F.D. properties file   788 does not exist.

 **********************************************************************

            Population analysis using the SCF density.

 **********************************************************************

 Orbital symmetries:
       Occupied  (A) (A) (A) (A) (A) (A) (A) (A) (A) (A) (A) (A)
                 (A) (A) (A) (A) (A) (A) (A) (A) (A) (A) (A) (A)
                 (A) (A) (A) (A) (A) (A) (A) (A) (A) (A) (A) (A)
                 (A) (A) (A) (A) (A) (A) (A) (A) (A) (A) (A) (A)
                 (A) (A) (A) (A) (A) (A) (A) (A) (A) (A) (A) (A)
                 (A) (A) (A) (A) (A)
       Virtual   (A) (A) (A) (A) (A) (A) (A) (A) (A) (A) (A) (A)
                 (A) (A) (A) (A) (A) (A) (A) (A) (A) (A) (A) (A)
                 (A) (A) (A) (A) (A) (A) (A) (A) (A) (A) (A) (A)
                 (A) (A) (A) (A) (A) (A) (A) (A) (A) (A) (A) (A)
                 (A) (A) (A) (A) (A) (A) (A) (A) (A) (A) (A) (A)
                 (A) (A) (A) (A) (A) (A) (A) (A) (A) (A) (A) (A)
                 (A) (A) (A) (A) (A) (A) (A) (A) (A) (A) (A) (A)
                 (A) (A) (A) (A) (A) (A) (A) (A) (A) (A) (A) (A)
                 (A) (A) (A) (A) (A) (A) (A) (A) (A) (A) (A) (A)
                 (A) (A) (A) (A) (A) (A) (A) (A) (A) (A) (A) (A)
                 (A) (A) (A) (A) (A) (A) (A) (A) (A) (A) (A) (A)
                 (A) (A) (A) (A) (A) (A) (A) (A) (A) (A) (A) (A)
                 (A) (A) (A) (A) (A) (A) (A) (A) (A) (A) (A) (A)
                 (A) (A) (A) (A) (A) (A) (A) (A) (A) (A) (A) (A)
                 (A) (A) (A) (A) (A) (A) (A) (A) (A) (A) (A) (A)
                 (A) (A) (A) (A) (A) (A) (A) (A) (A) (A) (A) (A)
                 (A) (A) (A) (A) (A) (A) (A) (A) (A) (A) (A) (A)
                 (A) (A) (A) (A) (A) (A) (A) (A) (A) (A) (A) (A)
                 (A) (A) (A) (A) (A) (A) (A) (A) (A) (A) (A) (A)
                 (A) (A) (A) (A) (A) (A) (A) (A) (A) (A) (A) (A)
                 (A) (A) (A) (A) (A) (A) (A) (A) (A) (A) (A) (A)
                 (A) (A) (A) (A) (A) (A) (A) (A) (A) (A) (A) (A)
                 (A) (A) (A) (A) (A) (A) (A) (A) (A) (A) (A) (A)
                 (A) (A) (A) (A) (A) (A) (A) (A) (A) (A) (A) (A)
                 (A) (A) (A) (A) (A) (A) (A) (A) (A) (A)
 The electronic state is 1-A.
 Alpha  occ. eigenvalues --  -24.81061 -24.80737 -19.17737 -14.39851 -10.34137
 Alpha  occ. eigenvalues --  -10.34079 -10.27463 -10.26842 -10.26643 -10.26269
 Alpha  occ. eigenvalues --  -10.26168 -10.25516 -10.25482 -10.23490 -10.23263
 Alpha  occ. eigenvalues --  -10.22186 -10.21445  -1.28305  -1.27992  -1.02461
 Alpha  occ. eigenvalues --   -0.95304  -0.90769  -0.83170  -0.80319  -0.78949
 Alpha  occ. eigenvalues --   -0.78696  -0.72163  -0.69217  -0.68128  -0.66373
 Alpha  occ. eigenvalues --   -0.64252  -0.61835  -0.59503  -0.58637  -0.55939
 Alpha  occ. eigenvalues --   -0.52977  -0.52308  -0.52238  -0.51012  -0.50140
 Alpha  occ. eigenvalues --   -0.49440  -0.47830  -0.47438  -0.46937  -0.46295
 Alpha  occ. eigenvalues --   -0.45486  -0.43605  -0.42336  -0.41940  -0.41738
 Alpha  occ. eigenvalues --   -0.40930  -0.40304  -0.39547  -0.38394  -0.38055
 Alpha  occ. eigenvalues --   -0.37650  -0.36587  -0.35764  -0.34030  -0.33089
 Alpha  occ. eigenvalues --   -0.32496  -0.28124  -0.27103  -0.26393  -0.25167
 Alpha virt. eigenvalues --   -0.02470  -0.01278   0.04794   0.05687   0.06800
 Alpha virt. eigenvalues --    0.07396   0.08132   0.09963   0.10169   0.10478
 Alpha virt. eigenvalues --    0.10723   0.11549   0.11740   0.13151   0.13716
 Alpha virt. eigenvalues --    0.13877   0.14639   0.15207   0.15632   0.15802
 Alpha virt. eigenvalues --    0.16876   0.17779   0.18409   0.19026   0.20325
 Alpha virt. eigenvalues --    0.20712   0.21253   0.23379   0.24638   0.25291
 Alpha virt. eigenvalues --    0.25716   0.26371   0.27333   0.28103   0.28819
 Alpha virt. eigenvalues --    0.31447   0.32097   0.32454   0.33293   0.34640
 Alpha virt. eigenvalues --    0.35097   0.36932   0.37561   0.38432   0.40138
 Alpha virt. eigenvalues --    0.40356   0.41250   0.41542   0.42105   0.43210
 Alpha virt. eigenvalues --    0.43833   0.44381   0.45785   0.46386   0.47448
 Alpha virt. eigenvalues --    0.48004   0.49998   0.50213   0.51492   0.51696
 Alpha virt. eigenvalues --    0.52433   0.53174   0.53458   0.54269   0.54830
 Alpha virt. eigenvalues --    0.56012   0.57721   0.58061   0.58778   0.59603
 Alpha virt. eigenvalues --    0.59823   0.59914   0.61019   0.61403   0.61752
 Alpha virt. eigenvalues --    0.62272   0.62811   0.63619   0.63760   0.64888
 Alpha virt. eigenvalues --    0.65179   0.65688   0.66052   0.66525   0.67397
 Alpha virt. eigenvalues --    0.68475   0.69794   0.70457   0.70523   0.72395
 Alpha virt. eigenvalues --    0.73470   0.74309   0.74955   0.76209   0.78035
 Alpha virt. eigenvalues --    0.78650   0.79383   0.82284   0.83466   0.83969
 Alpha virt. eigenvalues --    0.89070   0.89343   0.90787   0.92737   0.93806
 Alpha virt. eigenvalues --    0.94347   0.96872   0.98375   1.00064   1.01592
 Alpha virt. eigenvalues --    1.01939   1.03826   1.04509   1.06771   1.07322
 Alpha virt. eigenvalues --    1.08932   1.09160   1.11044   1.12929   1.14180
 Alpha virt. eigenvalues --    1.17518   1.18436   1.19839   1.21915   1.24061
 Alpha virt. eigenvalues --    1.26574   1.28042   1.28999   1.30420   1.33490
 Alpha virt. eigenvalues --    1.34348   1.36540   1.36639   1.40127   1.42233
 Alpha virt. eigenvalues --    1.45298   1.46831   1.47614   1.48803   1.50355
 Alpha virt. eigenvalues --    1.51742   1.52181   1.54048   1.54976   1.56078
 Alpha virt. eigenvalues --    1.56476   1.58467   1.58873   1.59453   1.62163
 Alpha virt. eigenvalues --    1.63194   1.64315   1.65515   1.66621   1.67177
 Alpha virt. eigenvalues --    1.68083   1.69708   1.70674   1.71825   1.72954
 Alpha virt. eigenvalues --    1.74034   1.74154   1.77511   1.80094   1.81831
 Alpha virt. eigenvalues --    1.83776   1.84592   1.86485   1.87402   1.89462
 Alpha virt. eigenvalues --    1.90631   1.91025   1.91151   1.95020   1.96037
 Alpha virt. eigenvalues --    1.97141   1.97785   1.99435   2.01911   2.03564
 Alpha virt. eigenvalues --    2.08012   2.13073   2.16718   2.18662   2.19329
 Alpha virt. eigenvalues --    2.22951   2.24319   2.25864   2.27569   2.28198
 Alpha virt. eigenvalues --    2.31351   2.32334   2.35172   2.39408   2.39745
 Alpha virt. eigenvalues --    2.41815   2.43480   2.44518   2.45340   2.46215
 Alpha virt. eigenvalues --    2.47887   2.48799   2.52319   2.53345   2.56811
 Alpha virt. eigenvalues --    2.57606   2.58696   2.59448   2.61480   2.65160
 Alpha virt. eigenvalues --    2.66725   2.69265   2.69841   2.72512   2.75901
 Alpha virt. eigenvalues --    2.76669   2.84454   2.85486   2.85916   2.86996
 Alpha virt. eigenvalues --    2.91914   2.92870   2.99554   3.00671   3.06607
 Alpha virt. eigenvalues --    3.07732   3.08704   3.10199   3.11765   3.12837
 Alpha virt. eigenvalues --    3.13227   3.15987   3.17042   3.20664   3.22439
 Alpha virt. eigenvalues --    3.24622   3.25357   3.27843   3.28869   3.29031
 Alpha virt. eigenvalues --    3.30275   3.32705   3.34082   3.38298   3.40741
 Alpha virt. eigenvalues --    3.46212   3.48542   3.51144   3.59663   3.65033
 Alpha virt. eigenvalues --    3.75126   3.79306   3.79566   3.79746   3.80739
 Alpha virt. eigenvalues --    3.86345   3.87712   3.96182   3.98391   3.99458
 Alpha virt. eigenvalues --    3.99889   4.05031   4.07305   4.09963   4.12308
 Alpha virt. eigenvalues --    4.17501   4.23684   4.46916   4.75229   4.76961
 Alpha virt. eigenvalues --    4.77800   4.80503   4.95339   5.08142   5.45729
 Alpha virt. eigenvalues --    6.13559   6.15836   6.31442   6.32382   6.56573
 Alpha virt. eigenvalues --    6.59400  23.29565  23.46425  23.59548  23.70266
 Alpha virt. eigenvalues --   23.73156  23.79464  23.82855  23.86095  23.86941
 Alpha virt. eigenvalues --   23.89890  24.08582  24.10692  24.19167  35.57355
 Alpha virt. eigenvalues --   50.00638  66.89766  66.89966
          Condensed to atoms (all electrons):
               1          2          3          4          5          6
     1  C    5.351244   0.305166  -0.078335   0.008792  -0.000099   0.000010
     2  C    0.305166   5.351916   0.319239  -0.081294  -0.004678  -0.001735
     3  C   -0.078335   0.319239   5.413295   0.321799  -0.068669  -0.000378
     4  C    0.008792  -0.081294   0.321799   5.424682   0.311627  -0.047476
     5  C   -0.000099  -0.004678  -0.068669   0.311627   5.103669   0.242103
     6  O    0.000010  -0.001735  -0.000378  -0.047476   0.242103   8.246366
     7  N    0.000468  -0.043178   0.181202  -0.061864   0.003802  -0.033498
     8  C   -0.000595   0.007012  -0.075550  -0.002692   0.000396   0.000831
     9  C   -0.000034   0.000006   0.000011   0.000000   0.000000   0.000000
    10  C   -0.000223   0.000013  -0.000085   0.000006   0.000000   0.000000
    11  C   -0.000109   0.000044   0.000345   0.000111  -0.000002   0.000001
    12  C   -0.001550   0.000089  -0.010843  -0.000134  -0.000027   0.000018
    13  C    0.000150   0.000501   0.000907  -0.000021  -0.000001  -0.000002
    14  C    0.000431   0.000052  -0.000076   0.000001   0.000000   0.000000
    15  H    0.000002   0.000000  -0.000001   0.000000   0.000000   0.000000
    16  H    0.000009  -0.000002   0.000005   0.000000   0.000000   0.000000
    17  H    0.000018  -0.000001  -0.000001   0.000000   0.000000   0.000000
    18  F   -0.000003   0.000038  -0.002094   0.000012  -0.000001   0.000000
    19  F   -0.000487  -0.000099   0.000033  -0.000002   0.000000   0.000000
    20  H    0.388045  -0.044723  -0.003400  -0.000362   0.000004   0.000000
    21  H    0.393518  -0.036941   0.007778  -0.000290   0.000012   0.000001
    22  H    0.382228  -0.039895  -0.006437   0.000294  -0.000038  -0.000009
    23  H   -0.044519   0.392062  -0.038678  -0.009740   0.002571   0.000601
    24  H   -0.039424   0.398576  -0.047447   0.000125  -0.000249  -0.000011
    25  H    0.000084  -0.005737  -0.055127   0.389133  -0.037740   0.005065
    26  H    0.000013  -0.000559   0.009703  -0.030581   0.387514  -0.032792
    27  H    0.000249   0.005452  -0.015957  -0.046124   0.396049  -0.039680
    28  H   -0.000084   0.000744  -0.000104  -0.008826  -0.060566   0.261823
    29  H    0.000029  -0.000401   0.007035  -0.000145   0.000028   0.000448
    30  H    0.000075  -0.000287  -0.005083   0.000286   0.000207  -0.000148
    31  H   -0.009286  -0.034625   0.406091  -0.059383   0.006467  -0.000415
    32  C   -0.000282   0.008837  -0.090760   0.296294  -0.089600  -0.001355
    33  H    0.000006   0.000052  -0.015046  -0.035768  -0.011778   0.021393
    34  H    0.000015  -0.000360   0.008668  -0.033507  -0.003727  -0.000770
    35  H   -0.000053   0.000309  -0.004349  -0.044259   0.007745   0.000039
    36  H    0.004246  -0.010846  -0.054225   0.004432   0.000470   0.001272
               7          8          9         10         11         12
     1  C    0.000468  -0.000595  -0.000034  -0.000223  -0.000109  -0.001550
     2  C   -0.043178   0.007012   0.000006   0.000013   0.000044   0.000089
     3  C    0.181202  -0.075550   0.000011  -0.000085   0.000345  -0.010843
     4  C   -0.061864  -0.002692   0.000000   0.000006   0.000111  -0.000134
     5  C    0.003802   0.000396   0.000000   0.000000  -0.000002  -0.000027
     6  O   -0.033498   0.000831   0.000000   0.000000   0.000001   0.000018
     7  N    7.059134   0.269553   0.000009  -0.000169   0.004670  -0.068635
     8  C    0.269553   5.345247  -0.001301   0.009265  -0.069670   0.259759
     9  C    0.000009  -0.001301   5.058757   0.433410  -0.001904  -0.058812
    10  C   -0.000169   0.009265   0.433410   5.187310   0.470175  -0.028798
    11  C    0.004670  -0.069670  -0.001904   0.470175   4.737648   0.289000
    12  C   -0.068635   0.259759  -0.058812  -0.028798   0.289000   5.817858
    13  C   -0.003692  -0.083230  -0.006140  -0.060332   0.047577   0.248060
    14  C    0.000284   0.008212   0.430647  -0.034044  -0.066459  -0.031850
    15  H   -0.000001   0.000027   0.405374  -0.040923   0.006275  -0.002092
    16  H    0.000014  -0.000258  -0.041341   0.392606  -0.049247   0.012233
    17  H    0.000031  -0.000312  -0.040762   0.007082  -0.001275   0.012425
    18  F   -0.000015  -0.007421   0.005599  -0.055074   0.302809  -0.073361
    19  F   -0.002774   0.007208   0.005684  -0.000609   0.004678  -0.086939
    20  H   -0.000591   0.000037   0.000313   0.000782   0.000851   0.000171
    21  H    0.000086   0.000037  -0.000013  -0.000008  -0.000001   0.000153
    22  H    0.004136  -0.001592   0.000170   0.000046  -0.000130  -0.002942
    23  H   -0.002027   0.000182   0.000001  -0.000003  -0.000019   0.000187
    24  H    0.005161  -0.000627  -0.000001   0.000002   0.000020   0.000070
    25  H    0.005972  -0.000227   0.000000  -0.000001   0.000015   0.000122
    26  H   -0.000683   0.000012   0.000000   0.000000   0.000000   0.000002
    27  H   -0.000014  -0.000076   0.000000   0.000000   0.000000  -0.000011
    28  H    0.053310  -0.002055   0.000000   0.000001  -0.000051   0.001227
    29  H   -0.034994   0.407679  -0.000097  -0.000109   0.004810  -0.056451
    30  H   -0.027586   0.396944  -0.000256   0.001441  -0.009521  -0.054604
    31  H   -0.045723  -0.004267  -0.000026  -0.000754  -0.002718  -0.002238
    32  C    0.001146  -0.001963   0.000000  -0.000003   0.000053   0.000155
    33  H    0.005663  -0.001729   0.000000  -0.000002   0.000037   0.000518
    34  H   -0.000484   0.000304   0.000000   0.000000  -0.000002  -0.000016
    35  H    0.000056  -0.000903  -0.000004   0.000041  -0.000241  -0.000029
    36  H    0.340878  -0.050430  -0.000158   0.000125  -0.000507  -0.011258
              13         14         15         16         17         18
     1  C    0.000150   0.000431   0.000002   0.000009   0.000018  -0.000003
     2  C    0.000501   0.000052   0.000000  -0.000002  -0.000001   0.000038
     3  C    0.000907  -0.000076  -0.000001   0.000005  -0.000001  -0.002094
     4  C   -0.000021   0.000001   0.000000   0.000000   0.000000   0.000012
     5  C   -0.000001   0.000000   0.000000   0.000000   0.000000  -0.000001
     6  O   -0.000002   0.000000   0.000000   0.000000   0.000000   0.000000
     7  N   -0.003692   0.000284  -0.000001   0.000014   0.000031  -0.000015
     8  C   -0.083230   0.008212   0.000027  -0.000258  -0.000312  -0.007421
     9  C   -0.006140   0.430647   0.405374  -0.041341  -0.040762   0.005599
    10  C   -0.060332  -0.034044  -0.040923   0.392606   0.007082  -0.055074
    11  C    0.047577  -0.066459   0.006275  -0.049247  -0.001275   0.302809
    12  C    0.248060  -0.031850  -0.002092   0.012233   0.012425  -0.073361
    13  C    4.770094   0.480986   0.006436  -0.001493  -0.050794   0.005201
    14  C    0.480986   5.188681  -0.041615   0.007323   0.393617  -0.000524
    15  H    0.006436  -0.041615   0.444806  -0.006609  -0.006668  -0.000071
    16  H   -0.001493   0.007323  -0.006609   0.449859  -0.000169   0.001234
    17  H   -0.050794   0.393617  -0.006668  -0.000169   0.449185   0.000004
    18  F    0.005201  -0.000524  -0.000071   0.001234   0.000004   9.035656
    19  F    0.310428  -0.054670  -0.000069   0.000004   0.001259  -0.000001
    20  H   -0.000646  -0.000233   0.000008   0.000022  -0.000002  -0.000259
    21  H    0.000069   0.000035   0.000000   0.000000   0.000000   0.000000
    22  H   -0.000363  -0.001103  -0.000005   0.000003   0.000087   0.000014
    23  H   -0.000004  -0.000001   0.000000   0.000000   0.000000  -0.000001
    24  H    0.000011   0.000000   0.000000   0.000000   0.000000  -0.000005
    25  H   -0.000002   0.000000   0.000000   0.000000   0.000000  -0.000025
    26  H    0.000000   0.000000   0.000000   0.000000   0.000000   0.000000
    27  H    0.000003   0.000000   0.000000   0.000000   0.000000   0.000000
    28  H   -0.000028  -0.000001   0.000000   0.000000   0.000000   0.000000
    29  H   -0.010171   0.000495   0.000001   0.000016  -0.000014   0.000122
    30  H    0.006015   0.000031   0.000004  -0.000050   0.000010   0.012044
    31  H    0.000603   0.000008   0.000003  -0.000060  -0.000005   0.009717
    32  C    0.000005   0.000000   0.000000   0.000000   0.000000  -0.000609
    33  H   -0.000001   0.000000   0.000000   0.000000   0.000000  -0.000262
    34  H    0.000000   0.000000   0.000000   0.000000   0.000000  -0.000007
    35  H    0.000001   0.000001   0.000000   0.000001   0.000000   0.002752
    36  H    0.002117   0.000666   0.000003   0.000000   0.000015  -0.000070
              19         20         21         22         23         24
     1  C   -0.000487   0.388045   0.393518   0.382228  -0.044519  -0.039424
     2  C   -0.000099  -0.044723  -0.036941  -0.039895   0.392062   0.398576
     3  C    0.000033  -0.003400   0.007778  -0.006437  -0.038678  -0.047447
     4  C   -0.000002  -0.000362  -0.000290   0.000294  -0.009740   0.000125
     5  C    0.000000   0.000004   0.000012  -0.000038   0.002571  -0.000249
     6  O    0.000000   0.000000   0.000001  -0.000009   0.000601  -0.000011
     7  N   -0.002774  -0.000591   0.000086   0.004136  -0.002027   0.005161
     8  C    0.007208   0.000037   0.000037  -0.001592   0.000182  -0.000627
     9  C    0.005684   0.000313  -0.000013   0.000170   0.000001  -0.000001
    10  C   -0.000609   0.000782  -0.000008   0.000046  -0.000003   0.000002
    11  C    0.004678   0.000851  -0.000001  -0.000130  -0.000019   0.000020
    12  C   -0.086939   0.000171   0.000153  -0.002942   0.000187   0.000070
    13  C    0.310428  -0.000646   0.000069  -0.000363  -0.000004   0.000011
    14  C   -0.054670  -0.000233   0.000035  -0.001103  -0.000001   0.000000
    15  H   -0.000069   0.000008   0.000000  -0.000005   0.000000   0.000000
    16  H    0.000004   0.000022   0.000000   0.000003   0.000000   0.000000
    17  H    0.001259  -0.000002   0.000000   0.000087   0.000000   0.000000
    18  F   -0.000001  -0.000259   0.000000   0.000014  -0.000001  -0.000005
    19  F    9.035310  -0.000035  -0.000014   0.003234  -0.000043  -0.000002
    20  H   -0.000035   0.479184  -0.027135  -0.028392   0.007617  -0.004555
    21  H   -0.000014  -0.027135   0.467496  -0.026918  -0.003706  -0.005804
    22  H    0.003234  -0.028392  -0.026918   0.489258  -0.007121   0.007532
    23  H   -0.000043   0.007617  -0.003706  -0.007121   0.486992  -0.029589
    24  H   -0.000002  -0.004555  -0.005804   0.007532  -0.029589   0.481186
    25  H    0.000000   0.000085  -0.000050  -0.000027   0.000489   0.002914
    26  H    0.000000   0.000003  -0.000001  -0.000003   0.000259  -0.000170
    27  H    0.000000  -0.000030   0.000002   0.000074  -0.001553   0.000882
    28  H   -0.000061   0.000005  -0.000002  -0.000091   0.001169  -0.000174
    29  H    0.004349   0.000006   0.000000   0.000044   0.000009   0.000025
    30  H    0.000127   0.000037   0.000002  -0.000051  -0.000017   0.000012
    31  H    0.000009   0.004978  -0.000152  -0.000590   0.007371  -0.003642
    32  C    0.000000  -0.000043   0.000012   0.000003  -0.000374   0.000379
    33  H    0.000001   0.000000   0.000000   0.000000  -0.000009   0.000002
    34  H    0.000000   0.000001  -0.000001   0.000000   0.000008  -0.000036
    35  H    0.000000  -0.000028   0.000001   0.000004  -0.000026   0.000048
    36  H    0.010160   0.000012  -0.000261   0.004916   0.000674   0.000678
              25         26         27         28         29         30
     1  C    0.000084   0.000013   0.000249  -0.000084   0.000029   0.000075
     2  C   -0.005737  -0.000559   0.005452   0.000744  -0.000401  -0.000287
     3  C   -0.055127   0.009703  -0.015957  -0.000104   0.007035  -0.005083
     4  C    0.389133  -0.030581  -0.046124  -0.008826  -0.000145   0.000286
     5  C   -0.037740   0.387514   0.396049  -0.060566   0.000028   0.000207
     6  O    0.005065  -0.032792  -0.039680   0.261823   0.000448  -0.000148
     7  N    0.005972  -0.000683  -0.000014   0.053310  -0.034994  -0.027586
     8  C   -0.000227   0.000012  -0.000076  -0.002055   0.407679   0.396944
     9  C    0.000000   0.000000   0.000000   0.000000  -0.000097  -0.000256
    10  C   -0.000001   0.000000   0.000000   0.000001  -0.000109   0.001441
    11  C    0.000015   0.000000   0.000000  -0.000051   0.004810  -0.009521
    12  C    0.000122   0.000002  -0.000011   0.001227  -0.056451  -0.054604
    13  C   -0.000002   0.000000   0.000003  -0.000028  -0.010171   0.006015
    14  C    0.000000   0.000000   0.000000  -0.000001   0.000495   0.000031
    15  H    0.000000   0.000000   0.000000   0.000000   0.000001   0.000004
    16  H    0.000000   0.000000   0.000000   0.000000   0.000016  -0.000050
    17  H    0.000000   0.000000   0.000000   0.000000  -0.000014   0.000010
    18  F   -0.000025   0.000000   0.000000   0.000000   0.000122   0.012044
    19  F    0.000000   0.000000   0.000000  -0.000061   0.004349   0.000127
    20  H    0.000085   0.000003  -0.000030   0.000005   0.000006   0.000037
    21  H   -0.000050  -0.000001   0.000002  -0.000002   0.000000   0.000002
    22  H   -0.000027  -0.000003   0.000074  -0.000091   0.000044  -0.000051
    23  H    0.000489   0.000259  -0.001553   0.001169   0.000009  -0.000017
    24  H    0.002914  -0.000170   0.000882  -0.000174   0.000025   0.000012
    25  H    0.518399  -0.003813   0.000175  -0.000502   0.000038  -0.000189
    26  H   -0.003813   0.507157  -0.046078   0.005263  -0.000003   0.000075
    27  H    0.000175  -0.046078   0.528392  -0.000800   0.000010  -0.000083
    28  H   -0.000502   0.005263  -0.000800   0.337575  -0.001313  -0.000586
    29  H    0.000038  -0.000003   0.000010  -0.001313   0.447799  -0.024030
    30  H   -0.000189   0.000075  -0.000083  -0.000586  -0.024030   0.422051
    31  H   -0.002502  -0.000227  -0.000234   0.001399   0.000004  -0.002592
    32  C   -0.038037  -0.012042   0.009802   0.001285   0.000070   0.000528
    33  H    0.008935  -0.003188   0.001447  -0.001027   0.000645  -0.002315
    34  H   -0.006949   0.004822  -0.000265  -0.000121  -0.000021   0.000491
    35  H   -0.004314  -0.000168  -0.000229   0.000052   0.000022   0.000346
    36  H   -0.000305   0.000110  -0.000572  -0.001424  -0.004776   0.006280
              31         32         33         34         35         36
     1  C   -0.009286  -0.000282   0.000006   0.000015  -0.000053   0.004246
     2  C   -0.034625   0.008837   0.000052  -0.000360   0.000309  -0.010846
     3  C    0.406091  -0.090760  -0.015046   0.008668  -0.004349  -0.054225
     4  C   -0.059383   0.296294  -0.035768  -0.033507  -0.044259   0.004432
     5  C    0.006467  -0.089600  -0.011778  -0.003727   0.007745   0.000470
     6  O   -0.000415  -0.001355   0.021393  -0.000770   0.000039   0.001272
     7  N   -0.045723   0.001146   0.005663  -0.000484   0.000056   0.340878
     8  C   -0.004267  -0.001963  -0.001729   0.000304  -0.000903  -0.050430
     9  C   -0.000026   0.000000   0.000000   0.000000  -0.000004  -0.000158
    10  C   -0.000754  -0.000003  -0.000002   0.000000   0.000041   0.000125
    11  C   -0.002718   0.000053   0.000037  -0.000002  -0.000241  -0.000507
    12  C   -0.002238   0.000155   0.000518  -0.000016  -0.000029  -0.011258
    13  C    0.000603   0.000005  -0.000001   0.000000   0.000001   0.002117
    14  C    0.000008   0.000000   0.000000   0.000000   0.000001   0.000666
    15  H    0.000003   0.000000   0.000000   0.000000   0.000000   0.000003
    16  H   -0.000060   0.000000   0.000000   0.000000   0.000001   0.000000
    17  H   -0.000005   0.000000   0.000000   0.000000   0.000000   0.000015
    18  F    0.009717  -0.000609  -0.000262  -0.000007   0.002752  -0.000070
    19  F    0.000009   0.000000   0.000001   0.000000   0.000000   0.010160
    20  H    0.004978  -0.000043   0.000000   0.000001  -0.000028   0.000012
    21  H   -0.000152   0.000012   0.000000  -0.000001   0.000001  -0.000261
    22  H   -0.000590   0.000003   0.000000   0.000000   0.000004   0.004916
    23  H    0.007371  -0.000374  -0.000009   0.000008  -0.000026   0.000674
    24  H   -0.003642   0.000379   0.000002  -0.000036   0.000048   0.000678
    25  H   -0.002502  -0.038037   0.008935  -0.006949  -0.004314  -0.000305
    26  H   -0.000227  -0.012042  -0.003188   0.004822  -0.000168   0.000110
    27  H   -0.000234   0.009802   0.001447  -0.000265  -0.000229  -0.000572
    28  H    0.001399   0.001285  -0.001027  -0.000121   0.000052  -0.001424
    29  H    0.000004   0.000070   0.000645  -0.000021   0.000022  -0.004776
    30  H   -0.002592   0.000528  -0.002315   0.000491   0.000346   0.006280
    31  H    0.487686  -0.006307  -0.000447  -0.000092   0.004982   0.002914
    32  C   -0.006307   5.438407   0.379790   0.386825   0.388913  -0.000591
    33  H   -0.000447   0.379790   0.480237  -0.027753  -0.028376  -0.000287
    34  H   -0.000092   0.386825  -0.027753   0.470512  -0.026243   0.000053
    35  H    0.004982   0.388913  -0.028376  -0.026243   0.478090  -0.000109
    36  H    0.002914  -0.000591  -0.000287   0.000053  -0.000109   0.405727
 Mulliken charges:
               1
     1  C   -0.659717
     2  C   -0.484749
     3  C   -0.103468
     4  C   -0.295126
     5  C   -0.185489
     6  O   -0.621701
     7  N   -0.609646
     8  C   -0.407809
     9  C   -0.189131
    10  C   -0.281168
    11  C    0.332736
    12  C   -0.151455
    13  C    0.337754
    14  C   -0.280892
    15  H    0.235112
    16  H    0.235900
    17  H    0.236270
    18  F   -0.235399
    19  F   -0.236677
    20  H    0.228274
    21  H    0.232096
    22  H    0.223660
    23  H    0.237237
    24  H    0.234110
    25  H    0.224120
    26  H    0.215375
    27  H    0.209170
    28  H    0.413962
    29  H    0.258838
    30  H    0.280392
    31  H    0.244052
    32  C   -0.670541
    33  H    0.229262
    34  H    0.228654
    35  H    0.225924
    36  H    0.350071
 Sum of Mulliken charges =   0.00000
 Mulliken charges with hydrogens summed into heavy atoms:
               1
     1  C    0.024312
     2  C   -0.013402
     3  C    0.140584
     4  C   -0.071006
     5  C    0.239056
     6  O   -0.207739
     7  N   -0.259575
     8  C    0.131421
     9  C    0.045981
    10  C   -0.045268
    11  C    0.332736
    12  C   -0.151455
    13  C    0.337754
    14  C   -0.044622
    18  F   -0.235399
    19  F   -0.236677
    32  C    0.013299
 Electronic spatial extent (au):  <R**2>=           4447.3130
 Charge=              0.0000 electrons
 Dipole moment (field-independent basis, Debye):
    X=              4.7807    Y=              0.2114    Z=              3.1976  Tot=              5.7554
 Quadrupole moment (field-independent basis, Debye-Ang):
   XX=           -103.3682   YY=           -102.6814   ZZ=           -104.3762
   XY=             -3.7684   XZ=             -7.3878   YZ=             -1.8502
 Traceless Quadrupole moment (field-independent basis, Debye-Ang):
   XX=              0.1071   YY=              0.7939   ZZ=             -0.9010
   XY=             -3.7684   XZ=             -7.3878   YZ=             -1.8502
 Octapole moment (field-independent basis, Debye-Ang**2):
  XXX=            115.5545  YYY=             -8.4715  ZZZ=             -7.4274  XYY=              6.3635
  XXY=             15.5116  XXZ=             57.1917  XZZ=             11.8788  YZZ=              5.7178
  YYZ=              1.7631  XYZ=             12.6083
 Hexadecapole moment (field-independent basis, Debye-Ang**3):
 XXXX=          -3805.1897 YYYY=          -1060.6581 ZZZZ=           -792.6286 XXXY=           -104.1628
 XXXZ=            -73.8694 YYYX=              9.7287 YYYZ=             29.1303 ZZZX=            -29.2863
 ZZZY=             21.6253 XXYY=           -809.5272 XXZZ=           -865.3806 YYZZ=           -307.8958
 XXYZ=             10.2007 YYXZ=              3.6443 ZZXY=              4.6064
 N-N= 1.312198168106D+03 E-N=-4.581898338229D+03  KE= 8.333443117960D+02
 1\1\GINC-CPU-E-330\SP\RmPW1PW91\6-311G(d)\C13H19F2N1O1\AH809\04-Mar-20
 19\0\\# mPW1PW91/6-311g(d) nmr=giao scrf=(solvent=chloroform)\\AT3_1gi
 np008\\0,1\C,0,-0.020074,-0.064641,0.074623\C,0,-0.714733,0.360825,1.3
 63338\C,0,0.195147,1.169186,2.322752\C,0,-0.473457,1.278089,3.731827\C
 ,0,-1.770388,2.107857,3.746857\O,0,-1.539578,3.471385,3.416795\N,0,0.4
 87361,2.498078,1.750852\C,0,1.897644,2.902048,1.866665\C,0,4.548413,0.
 910516,-0.905941\C,0,4.598238,0.606855,0.453479\C,0,3.73963,1.254294,1
 .341401\C,0,2.818823,2.207462,0.90369\C,0,2.787812,2.497837,-0.46158\C
 ,0,3.638191,1.860971,-1.36445\H,0,5.21504,0.409726,-1.603483\H,0,5.300
 708,-0.130558,0.830849\H,0,3.58274,2.11149,-2.419775\F,0,3.808702,0.93
 88,2.642681\F,0,1.914243,3.400708,-0.930117\H,0,0.902241,-0.6141,0.287
 405\H,0,-0.677617,-0.721985,-0.503633\H,0,0.222958,0.793143,-0.55788\H
 ,0,-1.612964,0.933456,1.103489\H,0,-1.057644,-0.547858,1.873629\H,0,-0
 .743045,0.258743,4.041195\H,0,-2.225328,2.08212,4.74283\H,0,-2.509123,
 1.707011,3.046978\H,0,-0.847557,3.464667,2.719863\H,0,1.952251,3.97978
 6,1.666915\H,0,2.25705,2.791163,2.894788\H,0,1.115354,0.583511,2.44160
 5\C,0,0.499334,1.80764,4.793107\H,0,0.750868,2.860889,4.637383\H,0,0.0
 55837,1.722093,5.791343\H,0,1.427779,1.227103,4.794765\H,0,0.236657,2.
 533943,0.760813\\Version=ES64L-G09RevD.01\State=1-A\HF=-836.4648859\RM
 SD=6.774e-09\Dipole=1.2887601,-1.3908231,-1.2377048\Quadrupole=-0.6213
 425,-2.0132663,2.6346088,5.2165475,-0.3046587,-2.7050392\PG=C01 [X(C13
 H19F2N1O1)]\\@


 YOU KNOW YOU'RE A TEACHER WHEN YOU SAY 2, WRITE 3, AND MEAN 4.
 -- RONALD ANSTROM, HIGH SCHOOL TEACHER, UNDERWOOD, N.D. 1974
 Job cpu time:       0 days  0 hours 18 minutes  4.2 seconds.
 File lengths (MBytes):  RWF=    177 Int=      0 D2E=      0 Chk=     10 Scr=      1
 Normal termination of Gaussian 09 at Mon Mar  4 11:30:02 2019.
