 Entering Gaussian System, Link 0=/usr/local/Cluster-Apps/gaussian/g09/g09
 Initial command:
 /usr/local/Cluster-Apps/gaussian/g09/l1.exe "/home/ah809/rds/hpc-work/04Mar1111AT3/Gau-282085.inp" -scrdir="/home/ah809/rds/hpc-work/04Mar1111AT3/"
 Entering Link 1 = /usr/local/Cluster-Apps/gaussian/g09/l1.exe PID=    282090.
  
 Copyright (c) 1988,1990,1992,1993,1995,1998,2003,2009,2013,
            Gaussian, Inc.  All Rights Reserved.
  
 This is part of the Gaussian(R) 09 program.  It is based on
 the Gaussian(R) 03 system (copyright 2003, Gaussian, Inc.),
 the Gaussian(R) 98 system (copyright 1998, Gaussian, Inc.),
 the Gaussian(R) 94 system (copyright 1995, Gaussian, Inc.),
 the Gaussian 92(TM) system (copyright 1992, Gaussian, Inc.),
 the Gaussian 90(TM) system (copyright 1990, Gaussian, Inc.),
 the Gaussian 88(TM) system (copyright 1988, Gaussian, Inc.),
 the Gaussian 86(TM) system (copyright 1986, Carnegie Mellon
 University), and the Gaussian 82(TM) system (copyright 1983,
 Carnegie Mellon University). Gaussian is a federally registered
 trademark of Gaussian, Inc.
  
 This software contains proprietary and confidential information,
 including trade secrets, belonging to Gaussian, Inc.
  
 This software is provided under written license and may be
 used, copied, transmitted, or stored only in accord with that
 written license.
  
 The following legend is applicable only to US Government
 contracts under FAR:
  
                    RESTRICTED RIGHTS LEGEND
  
 Use, reproduction and disclosure by the US Government is
 subject to restrictions as set forth in subparagraphs (a)
 and (c) of the Commercial Computer Software - Restricted
 Rights clause in FAR 52.227-19.
  
 Gaussian, Inc.
 340 Quinnipiac St., Bldg. 40, Wallingford CT 06492
  
  
 ---------------------------------------------------------------
 Warning -- This program may not be used in any manner that
 competes with the business of Gaussian, Inc. or will provide
 assistance to any competitor of Gaussian, Inc.  The licensee
 of this program is prohibited from giving any competitor of
 Gaussian, Inc. access to this program.  By using this program,
 the user acknowledges that Gaussian, Inc. is engaged in the
 business of creating and licensing software in the field of
 computational chemistry and represents and warrants to the
 licensee that it is not a competitor of Gaussian, Inc. and that
 it will not use this program in any manner prohibited above.
 ---------------------------------------------------------------
  

 Cite this work as:
 Gaussian 09, Revision D.01,
 M. J. Frisch, G. W. Trucks, H. B. Schlegel, G. E. Scuseria, 
 M. A. Robb, J. R. Cheeseman, G. Scalmani, V. Barone, B. Mennucci, 
 G. A. Petersson, H. Nakatsuji, M. Caricato, X. Li, H. P. Hratchian, 
 A. F. Izmaylov, J. Bloino, G. Zheng, J. L. Sonnenberg, M. Hada, 
 M. Ehara, K. Toyota, R. Fukuda, J. Hasegawa, M. Ishida, T. Nakajima, 
 Y. Honda, O. Kitao, H. Nakai, T. Vreven, J. A. Montgomery, Jr., 
 J. E. Peralta, F. Ogliaro, M. Bearpark, J. J. Heyd, E. Brothers, 
 K. N. Kudin, V. N. Staroverov, T. Keith, R. Kobayashi, J. Normand, 
 K. Raghavachari, A. Rendell, J. C. Burant, S. S. Iyengar, J. Tomasi, 
 M. Cossi, N. Rega, J. M. Millam, M. Klene, J. E. Knox, J. B. Cross, 
 V. Bakken, C. Adamo, J. Jaramillo, R. Gomperts, R. E. Stratmann, 
 O. Yazyev, A. J. Austin, R. Cammi, C. Pomelli, J. W. Ochterski, 
 R. L. Martin, K. Morokuma, V. G. Zakrzewski, G. A. Voth, 
 P. Salvador, J. J. Dannenberg, S. Dapprich, A. D. Daniels, 
 O. Farkas, J. B. Foresman, J. V. Ortiz, J. Cioslowski, 
 and D. J. Fox, Gaussian, Inc., Wallingford CT, 2013.
 
 ******************************************
 Gaussian 09:  ES64L-G09RevD.01 24-Apr-2013
                 4-Mar-2019 
 ******************************************
 %nprocshared=8
 Will use up to    8 processors via shared memory.
 %mem=6000MB
 %chk=AT3_2ginp005.chk
 -------------------------------------------------------
 # mPW1PW91/6-311g(d) nmr=giao scrf=(solvent=chloroform)
 -------------------------------------------------------
 1/38=1/1;
 2/12=2,17=6,18=5,40=1/2;
 3/5=4,6=6,7=1,11=2,16=1,25=1,30=1,70=2201,72=7,74=-7/1,2,8,3;
 4//1;
 5/5=2,38=5,53=7/2;
 8/6=1,10=90,11=11/1;
 10/13=100,45=16/2;
 6/7=2,8=2,9=2,10=2,28=1/1;
 99/9=1/99;
 ------------
 AT3_2ginp005
 ------------
 Symbolic Z-matrix:
 Charge =  0 Multiplicity = 1
 C                    -2.46342  -1.86768  -0.60579 
 C                    -2.04432  -0.89178   0.48491 
 C                    -2.76584  -1.10032   1.83772 
 C                    -2.10863  -0.22838   2.95547 
 C                    -2.72438  -0.51884   4.33747 
 O                    -4.04599  -0.00899   4.45303 
 N                    -4.20882  -0.80775   1.74824 
 C                    -5.02805  -2.02317   1.65879 
 C                    -9.22525  -1.02266   1.45395 
 C                    -8.68337  -1.53389   2.63231 
 C                    -7.32819  -1.8583    2.69074 
 C                    -6.48875  -1.68348   1.58999 
 C                    -7.05181  -1.17073   0.41954 
 C                    -8.40437  -0.84132   0.34225 
 H                    -10.28025  -0.76583   1.40379 
 H                    -9.30543  -1.68189   3.51024 
 H                    -8.80664  -0.44263  -0.58422 
 F                    -6.83925  -2.35879   3.83413 
 F                    -6.28102  -0.98344  -0.66223 
 H                    -1.82018  -1.7458   -1.48346 
 H                    -2.37541  -2.90363  -0.26431 
 H                    -3.49291  -1.68865  -0.92877 
 H                    -0.96373  -1.00228   0.64002 
 H                    -2.20515   0.12679   0.11232 
 H                    -1.05271  -0.52623   3.01635 
 H                    -2.12236  -0.05472   5.12567 
 H                    -2.75125  -1.5958    4.5343 
 H                    -4.48318  -0.20895   3.59722 
 H                    -4.76592  -2.62273   0.78029 
 H                    -4.84154  -2.65788   2.53378 
 H                    -2.6136   -2.14717   2.1359 
 C                    -2.14184   1.27846   2.6647 
 H                    -3.15991   1.64561   2.50153 
 H                    -1.71457   1.83969   3.50312 
 H                    -1.54663   1.5247    1.78029 
 H                    -4.39056  -0.23256   0.92236 
 
                          Input orientation:                          
 ---------------------------------------------------------------------
 Center     Atomic      Atomic             Coordinates (Angstroms)
 Number     Number       Type             X           Y           Z
 ---------------------------------------------------------------------
      1          6           0       -2.463418   -1.867677   -0.605788
      2          6           0       -2.044322   -0.891777    0.484912
      3          6           0       -2.765844   -1.100318    1.837723
      4          6           0       -2.108634   -0.228377    2.955473
      5          6           0       -2.724380   -0.518842    4.337466
      6          8           0       -4.045993   -0.008991    4.453025
      7          7           0       -4.208818   -0.807750    1.748242
      8          6           0       -5.028053   -2.023168    1.658787
      9          6           0       -9.225246   -1.022655    1.453950
     10          6           0       -8.683374   -1.533886    2.632312
     11          6           0       -7.328186   -1.858304    2.690735
     12          6           0       -6.488753   -1.683479    1.589994
     13          6           0       -7.051813   -1.170734    0.419541
     14          6           0       -8.404371   -0.841319    0.342251
     15          1           0      -10.280251   -0.765828    1.403789
     16          1           0       -9.305433   -1.681890    3.510243
     17          1           0       -8.806641   -0.442626   -0.584224
     18          9           0       -6.839246   -2.358788    3.834131
     19          9           0       -6.281021   -0.983443   -0.662227
     20          1           0       -1.820182   -1.745802   -1.483460
     21          1           0       -2.375407   -2.903629   -0.264307
     22          1           0       -3.492910   -1.688653   -0.928773
     23          1           0       -0.963731   -1.002281    0.640018
     24          1           0       -2.205148    0.126786    0.112322
     25          1           0       -1.052707   -0.526230    3.016352
     26          1           0       -2.122358   -0.054720    5.125672
     27          1           0       -2.751249   -1.595799    4.534296
     28          1           0       -4.483175   -0.208949    3.597218
     29          1           0       -4.765917   -2.622730    0.780293
     30          1           0       -4.841538   -2.657878    2.533776
     31          1           0       -2.613598   -2.147166    2.135897
     32          6           0       -2.141838    1.278462    2.664697
     33          1           0       -3.159914    1.645607    2.501533
     34          1           0       -1.714572    1.839686    3.503122
     35          1           0       -1.546627    1.524696    1.780293
     36          1           0       -4.390559   -0.232560    0.922356
 ---------------------------------------------------------------------
                    Distance matrix (angstroms):
                    1          2          3          4          5
     1  C    0.000000
     2  C    1.522383   0.000000
     3  C    2.578962   1.547314   0.000000
     4  C    3.936465   2.558888   1.562553   0.000000
     5  C    5.130616   3.929851   2.566817   1.540590   0.000000
     6  O    5.617014   4.531216   3.109595   2.458486   1.421254
     7  N    3.116300   2.507610   1.475051   2.490753   2.998517
     8  C    3.424884   3.400100   2.449747   3.664107   3.839951
     9  C    7.118911   7.247195   6.471259   7.316530   7.129499
    10  C    7.020296   7.007185   5.986361   6.710886   6.280722
    11  C    5.876489   5.806811   4.702886   5.474529   5.069607
    12  C    4.588977   4.647684   3.776440   4.813242   4.803695
    13  C    4.752936   5.015681   4.515056   5.635069   5.873821
    14  C    6.103041   6.361849   5.839221   6.844044   6.951837
    15  H    8.145879   8.287987   7.534354   8.334981   8.109171
    16  H    7.986826   7.905735   6.775085   7.363042   6.734036
    17  H    6.501362   6.861031   6.541377   7.578829   7.824496
    18  F    6.253155   6.029982   4.707653   5.262070   4.535512
    19  F    3.919075   4.390211   4.315076   5.573750   6.153249
    20  H    1.094949   2.157333   3.513002   4.699990   6.017157
    21  H    1.094327   2.172210   2.796945   4.194654   5.194738
    22  H    1.093720   2.175299   2.920319   4.374471   5.449071
    23  H    2.133074   1.097245   2.166038   2.696491   4.123678
    24  H    2.135478   1.096430   2.190245   2.866873   4.305610
    25  H    4.112114   2.743194   2.157216   1.098820   2.130701
    26  H    6.021027   4.716292   3.509695   2.177179   1.095038
    27  H    5.155311   4.170480   2.741755   2.185287   1.095126
    28  H    4.949349   4.012569   2.615260   2.459809   1.933225
    29  H    2.791564   3.238908   2.726938   4.186345   4.609523
    30  H    4.017055   3.891192   2.686818   3.680906   3.508722
    31  H    2.759983   2.150774   1.099080   2.146729   2.740551
    32  C    4.549470   3.077484   2.594584   1.534997   2.523453
    33  H    4.741700   3.427772   2.852374   2.196148   2.871442
    34  H    5.584662   4.084020   3.538693   2.175336   2.697869
    35  H    4.247597   2.786585   2.894907   2.184071   3.478834
    36  H    2.953422   2.476036   2.056842   3.056266   3.810654
                    6          7          8          9         10
     6  O    0.000000
     7  N    2.824956   0.000000
     8  C    3.581776   1.468465   0.000000
     9  C    6.070142   5.029646   4.319654   0.000000
    10  C    5.210144   4.618496   3.814252   1.394102   0.000000
    11  C    4.159136   3.423801   2.526402   2.413873   1.394702
    12  C    4.119215   2.447457   1.501255   2.818438   2.434166
    13  C    5.162712   3.159086   2.521503   2.411585   2.773126
    14  C    6.048693   4.424997   3.811766   1.393769   2.408707
    15  H    6.981161   6.081341   5.406617   1.086974   2.156200
    16  H    5.599030   5.462989   4.673365   2.160871   1.086106
    17  H    6.944472   5.168529   4.669790   2.160050   3.398845
    18  F    3.702275   3.698081   2.850471   3.625398   2.350668
    19  F    5.666631   3.183591   2.835148   3.626045   4.114398
    20  H    6.573629   4.126672   4.499009   7.999143   8.005491
    21  H    5.781264   3.435762   3.392644   7.308267   7.075100
    22  H    5.664884   2.907735   3.027215   6.243444   6.296523
    23  H    5.002598   3.434617   4.312634   8.301538   7.990290
    24  H    4.716868   2.750325   3.870743   7.238989   7.146719
    25  H    3.360257   3.412974   4.459505   8.335342   7.706487
    26  H    2.038361   4.040718   4.933269   8.054158   7.172985
    27  H    2.049616   3.241547   3.692565   7.192334   6.229886
    28  H    0.981589   1.962791   2.710313   5.267158   4.508678
    29  H    4.564962   2.131065   1.095418   4.785360   4.467888
    30  H    3.366454   2.107219   1.096928   4.801757   4.004094
    31  H    3.463038   2.118735   2.464265   6.741177   6.120843
    32  C    2.912294   3.076455   4.499206   7.545576   7.120537
    33  H    2.707610   2.772473   4.202389   6.708599   6.374550
    34  H    3.123371   4.038537   5.413166   8.294717   7.791245
    35  H    3.967685   3.539575   4.972165   8.096708   7.811147
    36  H    3.554481   1.022722   2.038383   4.927580   4.800589
                   11         12         13         14         15
    11  C    0.000000
    12  C    1.395293   0.000000
    13  C    2.389028   1.396390   0.000000
    14  C    2.776294   2.436327   1.394239   0.000000
    15  H    3.400650   3.905408   3.399339   2.156731   0.000000
    16  H    2.147608   3.408965   3.859083   3.399213   2.495313
    17  H    3.862037   3.411678   2.148745   1.085879   2.495633
    18  F    1.340485   2.369607   3.621613   4.116498   4.503843
    19  F    3.619985   2.367636   1.341425   2.353251   4.506619
    20  H    6.911922   5.589773   5.596613   6.892231   8.992737
    21  H    5.861314   4.674058   5.033820   6.400738   8.356991
    22  H    5.276264   3.913986   3.840831   5.143532   7.236052
    23  H    6.741254   5.647332   6.094401   7.448335   9.350765
    24  H    6.069128   4.879533   5.026739   6.278572   8.226295
    25  H    6.423557   5.737972   6.568720   7.829244   9.370450
    26  H    6.023494   5.849725   6.905989   7.934957   8.994960
    27  H    4.941253   4.758733   5.967138   7.078154   8.196023
    28  H    3.411183   3.197738   4.197685   5.135220   6.223129
    29  H    3.286238   2.122727   2.731987   4.074758   5.851898
    30  H    2.616749   2.133892   3.401015   4.560312   5.868247
    31  H    4.755904   3.940792   4.857679   6.201246   7.824426
    32  C    6.061203   5.368776   5.928502   7.007606   8.485445
    33  H    5.448640   4.795298   5.235776   6.192869   7.597319
    34  H    6.771098   6.234224   6.859828   7.869708   9.196019
    35  H    6.760179   5.895185   6.278858   7.395583   9.036838
    36  H    3.794715   2.636916   2.866229   4.100951   5.933348
                   16         17         18         19         20
    16  H    0.000000
    17  H    4.306882   0.000000
    18  F    2.577823   5.202325   0.000000
    19  F    5.200423   2.584052   4.735021   0.000000
    20  H    8.998341   7.163624   7.337815   4.599424   0.000000
    21  H    7.985307   6.893450   6.084398   4.370272   1.770642
    22  H    7.313709   5.468732   5.859377   2.888240   1.763225
    23  H    8.847828   7.957589   6.823793   5.474465   2.407383
    24  H    8.076585   6.662516   6.442422   4.294796   2.490242
    25  H    8.347872   8.549540   6.124628   6.409076   4.724900
    26  H    7.540150   8.799604   5.406093   7.187265   6.828740
    27  H    6.634261   8.012292   4.217120   6.311745   6.091205
    28  H    5.042945   6.019254   3.198282   4.687746   5.938580
    29  H    5.380057   4.789803   3.700579   2.657756   3.817189
    30  H    4.672515   5.509202   2.402335   3.884621   5.108685
    31  H    6.847333   6.975550   4.559044   4.757493   3.726976
    32  C    7.797161   7.611651   6.054982   5.772129   5.143621
    33  H    7.060959   6.765215   5.598971   5.163583   5.401547
    34  H    8.367958   8.497811   6.633177   6.795046   6.142709
    35  H    8.571697   7.884738   6.878337   5.888221   4.628507
    36  H    5.740532   4.670727   4.358365   2.578483   3.832061
                   21         22         23         24         25
    21  H    0.000000
    22  H    1.779465   0.000000
    23  H    2.534908   3.054334   0.000000
    24  H    3.058472   2.457240   1.759083   0.000000
    25  H    4.261958   4.782241   2.425181   3.191855   0.000000
    26  H    6.101819   6.419070   4.728782   5.017318   2.411577
    27  H    4.987812   5.513965   4.325839   4.776963   2.516580
    28  H    5.159008   4.863614   4.664857   4.176916   3.493735
    29  H    2.623858   2.326790   4.135475   3.816223   4.814894
    30  H    3.737842   3.840240   4.622197   4.535234   4.374019
    31  H    2.527835   3.221122   2.504092   3.071245   2.416405
    32  C    5.111116   4.852030   3.269411   2.800890   2.137003
    33  H    5.381530   4.795328   3.911492   2.987762   3.069566
    34  H    6.093378   5.937454   4.103401   3.830433   2.504510
    35  H    4.947457   4.631702   2.832950   2.273748   2.445015
    36  H    3.550157   2.520448   3.523540   2.358242   3.951242
                   26         27         28         29         30
    26  H    0.000000
    27  H    1.766396   0.000000
    28  H    2.816632   2.408534   0.000000
    29  H    5.697842   4.382467   3.720396   0.000000
    30  H    4.570372   3.082110   2.693805   1.755465   0.000000
    31  H    3.682173   2.464807   3.063897   2.587721   2.320097
    32  C    2.798955   3.482551   2.926405   5.065182   4.774965
    33  H    3.294501   3.847836   2.528028   4.874486   4.620485
    34  H    2.527396   3.733708   3.445420   6.052905   5.562880
    35  H    3.744006   4.332798   3.863943   5.344621   5.377555
    36  H    4.779564   4.194266   2.676569   2.423631   2.946561
                   31         32         33         34         35
    31  H    0.000000
    32  C    3.498159   0.000000
    33  H    3.849322   1.094485   0.000000
    34  H    4.309587   1.095667   1.769141   0.000000
    35  H    3.840241   1.094110   1.771299   1.759421   0.000000
    36  H    2.880276   3.221131   2.745141   4.256226   3.451370
                   36
    36  H    0.000000
 Stoichiometry    C13H19F2NO
 Framework group  C1[X(C13H19F2NO)]
 Deg. of freedom   102
 Full point group                 C1      NOp   1
 Largest Abelian subgroup         C1      NOp   1
 Largest concise Abelian subgroup C1      NOp   1
                         Standard orientation:                         
 ---------------------------------------------------------------------
 Center     Atomic      Atomic             Coordinates (Angstroms)
 Number     Number       Type             X           Y           Z
 ---------------------------------------------------------------------
      1          6           0        2.030734    2.890224   -0.951065
      2          6           0        2.747001    1.779385   -0.195653
      3          6           0        2.171397    0.365110   -0.446029
      4          6           0        3.105030   -0.728456    0.165539
      5          6           0        2.621745   -2.148458   -0.185812
      6          8           0        1.435960   -2.499463    0.514667
      7          7           0        0.803384    0.220223    0.086253
      8          6           0       -0.223300    0.311642   -0.959669
      9          6           0       -4.169110   -0.179077    0.728286
     10          6           0       -3.586222   -1.212915   -0.003111
     11          6           0       -2.313390   -1.046738   -0.548528
     12          6           0       -1.597719    0.139241   -0.380863
     13          6           0       -2.200057    1.162139    0.354510
     14          6           0       -3.471748    1.014428    0.906674
     15          1           0       -5.159817   -0.304255    1.157636
     16          1           0       -4.112210   -2.151269   -0.152954
     17          1           0       -3.907405    1.830958    1.474667
     18          9           0       -1.784568   -2.054682   -1.256551
     19          9           0       -1.546869    2.318486    0.543264
     20          1           0        2.572794    3.833886   -0.830287
     21          1           0        1.974644    2.667994   -2.021121
     22          1           0        1.017661    3.045039   -0.569048
     23          1           0        3.801542    1.790447   -0.498586
     24          1           0        2.725089    2.023655    0.872996
     25          1           0        4.090669   -0.609678   -0.305432
     26          1           0        3.388666   -2.885192    0.075271
     27          1           0        2.428458   -2.240441   -1.259814
     28          1           0        0.868601   -1.698727    0.493591
     29          1           0       -0.181542    1.272966   -1.483171
     30          1           0       -0.046531   -0.461555   -1.717409
     31          1           0        2.170782    0.195704   -1.531975
     32          6           0        3.304454   -0.594632    1.681632
     33          1           0        2.355530   -0.614096    2.226664
     34          1           0        3.924135   -1.415110    2.060179
     35          1           0        3.820872    0.336655    1.932818
     36          1           0        0.626733    0.951568    0.778993
 ---------------------------------------------------------------------
 Rotational constants (GHZ):      0.6530548      0.3051062      0.2383469
 Standard basis: 6-311G(d) (5D, 7F)
 There are   380 symmetry adapted cartesian basis functions of A   symmetry.
 There are   363 symmetry adapted basis functions of A   symmetry.
   363 basis functions,   639 primitive gaussians,   380 cartesian basis functions
    65 alpha electrons       65 beta electrons
       nuclear repulsion energy      1291.5434430090 Hartrees.
 NAtoms=   36 NActive=   36 NUniq=   36 SFac= 1.00D+00 NAtFMM=   60 NAOKFM=F Big=F
 Integral buffers will be    131072 words long.
 Raffenetti 2 integral format.
 Two-electron integral symmetry is turned on.
 ------------------------------------------------------------------------------
 Polarizable Continuum Model (PCM)
 =================================
 Model                : PCM (using non-symmetric T matrix).
 Atomic radii         : UFF (Universal Force Field).
 Polarization charges : Total charges.
 Charge compensation  : None.
 Solution method      : On-the-fly selection.
 Cavity type          : Scaled VdW (van der Waals Surface) (Alpha=1.100).
 Cavity algorithm     : GePol (No added spheres)
                        Default sphere list used, NSphG=   36.
                        Lebedev-Laikov grids with approx.  5.0 points / Ang**2.
                        Smoothing algorithm: Karplus/York (Gamma=1.0000).
                        Polarization charges: spherical gaussians, with
                                              point-specific exponents (IZeta= 3).
                        Self-potential: point-specific (ISelfS= 7).
                        Self-field    : sphere-specific E.n sum rule (ISelfD= 2).
 Solvent              : Chloroform, Eps=   4.711300 Eps(inf)=   2.090627
 ------------------------------------------------------------------------------
 One-electron integrals computed using PRISM.
 NBasis=   363 RedAO= T EigKep=  2.44D-04  NBF=   363
 NBsUse=   363 1.00D-06 EigRej= -1.00D+00 NBFU=   363
 ExpMin= 1.03D-01 ExpMax= 1.14D+04 ExpMxC= 1.72D+03 IAcc=1 IRadAn=         1 AccDes= 0.00D+00
 Harris functional with IExCor=  908 and IRadAn=       1 diagonalized for initial guess.
 HarFok:  IExCor=  908 AccDes= 0.00D+00 IRadAn=         1 IDoV= 1 UseB2=F ITyADJ=14
 ICtDFT=  3500011 ScaDFX=  1.000000  1.000000  1.000000  1.000000
 FoFCou: FMM=F IPFlag=           0 FMFlag=      100000 FMFlg1=           0
         NFxFlg=           0 DoJE=T BraDBF=F KetDBF=T FulRan=T
         wScrn=  0.000000 ICntrl=     500 IOpCl=  0 I1Cent=   200000004 NGrid=           0
         NMat0=    1 NMatS0=      1 NMatT0=    0 NMatD0=    1 NMtDS0=    0 NMtDT0=    0
 Petite list used in FoFCou.
 Requested convergence on RMS density matrix=1.00D-08 within 128 cycles.
 Requested convergence on MAX density matrix=1.00D-06.
 Requested convergence on             energy=1.00D-06.
 No special actions if energy rises.
 Inv3:  Mode=1 IEnd=    18302700.
 Iteration    1 A*A^-1 deviation from unit magnitude is 5.11D-15 for    612.
 Iteration    1 A*A^-1 deviation from orthogonality  is 2.43D-15 for   2223   1124.
 Iteration    1 A^-1*A deviation from unit magnitude is 5.00D-15 for   1230.
 Iteration    1 A^-1*A deviation from orthogonality  is 1.33D-13 for   2277   2236.
 Error on total polarization charges =  0.00967
 SCF Done:  E(RmPW1PW91) =  -836.464377412     A.U. after   12 cycles
            NFock= 12  Conv=0.70D-08     -V/T= 2.0037
 DoSCS=F DFT=T ScalE2(SS,OS)=  1.000000  1.000000
 Range of M.O.s used for correlation:     1   363
 NBasis=   363 NAE=    65 NBE=    65 NFC=     0 NFV=     0
 NROrb=    363 NOA=    65 NOB=    65 NVA=   298 NVB=   298

 **** Warning!!: The largest alpha MO coefficient is  0.10401016D+02

 NEqPCM:  Using equilibrium solvation (IEInf=0, Eps=   4.7113, EpsInf=   2.0906)
          Differentiating once with respect to magnetic field using GIAOs.
          Electric field/nuclear overlap derivatives assumed to be zero.
 FoFJK:  IHMeth= 1 ICntrl=    6127 DoSepK=F KAlg= 0 I1Cent=   0 FoldK=F
 IRaf=         1 NMat=   1 IRICut=       1 DoRegI=T DoRafI=F ISym2E= 0.
          There are     3 degrees of freedom in the 1st order CPHF.  IDoFFX=0 NUNeed=     3.
      3 vectors produced by pass  0 Test12= 6.46D-13 3.33D-08 XBig12= 4.61D+01 1.96D+00.
 AX will form     3 AO Fock derivatives at one time.
      3 vectors produced by pass  1 Test12= 6.46D-13 3.33D-08 XBig12= 1.22D-01 1.71D-01.
      3 vectors produced by pass  2 Test12= 6.46D-13 3.33D-08 XBig12= 6.30D-04 7.82D-03.
      3 vectors produced by pass  3 Test12= 6.46D-13 3.33D-08 XBig12= 1.42D-06 2.61D-04.
      3 vectors produced by pass  4 Test12= 6.46D-13 3.33D-08 XBig12= 3.19D-09 1.36D-05.
      3 vectors produced by pass  5 Test12= 6.46D-13 3.33D-08 XBig12= 1.33D-11 6.86D-07.
 InvSVY:  IOpt=1 It=  1 EMax= 2.66D-15
 Solved reduced A of dimension    18 with     3 vectors.
 Calculating GIAO nuclear magnetic shielding tensors.
 SCF GIAO Magnetic shielding tensor (ppm):
      1  C    Isotropic =   173.8409   Anisotropy =    18.2246
   XX=   166.5471   YX=    -5.2398   ZX=     8.2782
   XY=    -2.4731   YY=   180.2316   ZY=    -4.7468
   XZ=     8.1178   YZ=    -4.4759   ZZ=   174.7441
   Eigenvalues:   161.4367   174.0954   185.9907
      2  C    Isotropic =   154.0003   Anisotropy =    30.4300
   XX=   159.2442   YX=     7.7419   ZX=     0.5619
   XY=    15.7439   YY=   165.1190   ZY=    -1.9118
   XZ=    -1.5798   YZ=     2.2969   ZZ=   137.6378
   Eigenvalues:   137.6154   150.0986   174.2870
      3  C    Isotropic =   119.8239   Anisotropy =    14.9075
   XX=   129.6660   YX=    -1.2826   ZX=    -5.6858
   XY=    -1.0768   YY=   114.9626   ZY=    -7.3154
   XZ=     4.9602   YZ=    -5.8276   ZZ=   114.8430
   Eigenvalues:   108.2756   121.4338   129.7622
      4  C    Isotropic =   144.7471   Anisotropy =     9.3094
   XX=   145.6125   YX=    -4.8801   ZX=     0.6842
   XY=     0.1391   YY=   149.1710   ZY=     0.7773
   XZ=    -8.5888   YZ=    -9.2893   ZZ=   139.4579
   Eigenvalues:   135.7607   147.5273   150.9534
      5  C    Isotropic =   115.3813   Anisotropy =    38.8780
   XX=   127.1791   YX=    16.6217   ZX=   -13.5642
   XY=    11.0244   YY=   112.8218   ZY=     1.8122
   XZ=   -18.0227   YZ=    -3.2309   ZZ=   106.1429
   Eigenvalues:    95.1609   109.6829   141.2999
      6  O    Isotropic =   316.4143   Anisotropy =    82.7991
   XX=   307.4996   YX=   -19.6640   ZX=     0.3950
   XY=   -41.6507   YY=   356.8394   ZY=     3.6185
   XZ=    20.8587   YZ=     0.2968   ZZ=   284.9040
   Eigenvalues:   277.6481   299.9812   371.6137
      7  N    Isotropic =   203.7571   Anisotropy =    60.5117
   XX=   229.6969   YX=     2.1915   ZX=   -27.9846
   XY=    21.7319   YY=   170.4749   ZY=    26.0393
   XZ=   -15.4176   YZ=    18.7191   ZZ=   211.0996
   Eigenvalues:   155.0991   212.0741   244.0982
      8  C    Isotropic =   143.8971   Anisotropy =    54.2034
   XX=   165.3255   YX=     2.0121   ZX=    18.0697
   XY=    -5.8784   YY=   116.2011   ZY=    -4.2773
   XZ=    23.3720   YZ=    -3.3746   ZZ=   150.1647
   Eigenvalues:   115.7718   135.8868   180.0327
      9  C    Isotropic =    54.0322   Anisotropy =   186.5633
   XX=   -14.7000   YX=   -30.7078   ZX=    81.1814
   XY=   -30.3162   YY=    54.2216   ZY=   -38.7991
   XZ=    80.2125   YZ=   -38.4470   ZZ=   122.5750
   Eigenvalues:   -53.3650    37.0538   178.4077
     10  C    Isotropic =    70.1661   Anisotropy =   149.8642
   XX=    59.8432   YX=   -40.0199   ZX=    37.1153
   XY=   -47.7614   YY=    17.4190   ZY=   -42.7878
   XZ=    33.1832   YZ=   -46.9486   ZZ=   133.2361
   Eigenvalues:   -13.2835    53.7063   170.0756
     11  C    Isotropic =    20.2788   Anisotropy =    99.7857
   XX=    30.7372   YX=    24.6223   ZX=    39.8515
   XY=    17.5404   YY=   -16.3163   ZY=   -54.7021
   XZ=    32.7787   YZ=   -52.7428   ZZ=    46.4154
   Eigenvalues:   -61.9331    35.9668    86.8026
     12  C    Isotropic =    67.3169   Anisotropy =   138.9926
   XX=    45.7841   YX=   -19.9508   ZX=    50.3260
   XY=   -20.9498   YY=    39.6086   ZY=   -40.9414
   XZ=    49.1316   YZ=   -42.0473   ZZ=   116.5579
   Eigenvalues:    19.8267    22.1453   159.9786
     13  C    Isotropic =    19.1098   Anisotropy =    97.7034
   XX=    23.8162   YX=   -52.1983   ZX=     8.0466
   XY=   -44.6736   YY=   -32.9919   ZY=   -28.7296
   XZ=     8.7376   YZ=   -29.9203   ZZ=    66.5050
   Eigenvalues:   -64.3104    37.3943    84.2453
     14  C    Isotropic =    70.9086   Anisotropy =   148.3675
   XX=    66.2162   YX=    -1.9958   ZX=    49.9341
   XY=     5.5228   YY=    29.3846   ZY=   -63.5395
   XZ=    54.0798   YZ=   -60.4313   ZZ=   117.1250
   Eigenvalues:   -12.5104    55.4159   169.8203
     15  H    Isotropic =    24.5181   Anisotropy =     3.2082
   XX=    25.2426   YX=     0.7931   ZX=    -1.5455
   XY=     0.7453   YY=    25.8621   ZY=     1.7948
   XZ=    -1.6258   YZ=     1.8427   ZZ=    22.4495
   Eigenvalues:    20.9411    25.9562    26.6569
     16  H    Isotropic =    25.1747   Anisotropy =     4.9918
   XX=    27.5426   YX=     1.0148   ZX=    -2.2400
   XY=     0.5442   YY=    25.0563   ZY=     1.4853
   XZ=    -2.3597   YZ=     1.3759   ZZ=    22.9253
   Eigenvalues:    21.2797    25.7419    28.5026
     17  H    Isotropic =    25.1934   Anisotropy =     5.1996
   XX=    27.6782   YX=     0.8553   ZX=    -2.4405
   XY=     1.1287   YY=    25.2197   ZY=     1.1230
   XZ=    -2.1748   YZ=     1.2196   ZZ=    22.6825
   Eigenvalues:    21.2446    25.6759    28.6598
     18  F    Isotropic =   299.7988   Anisotropy =   128.4319
   XX=   260.8961   YX=   -43.1738   ZX=    41.5665
   XY=   -43.2813   YY=   282.1922   ZY=   -22.6958
   XZ=    39.8827   YZ=   -23.6841   ZZ=   356.3081
   Eigenvalues:   224.2011   289.7752   385.4201
     19  F    Isotropic =   306.3823   Anisotropy =   125.7707
   XX=   268.2969   YX=   -10.6913   ZX=    50.6205
   XY=     5.7330   YY=   309.7425   ZY=   -38.4365
   XZ=    50.2636   YZ=   -54.8582   ZZ=   341.1074
   Eigenvalues:   236.3949   292.5225   390.2294
     20  H    Isotropic =    30.8282   Anisotropy =    11.1818
   XX=    28.6602   YX=     2.7784   ZX=     0.7448
   XY=     3.4513   YY=    37.2338   ZY=    -0.9473
   XZ=     0.7668   YZ=    -0.9170   ZZ=    26.5905
   Eigenvalues:    25.9565    28.2453    38.2827
     21  H    Isotropic =    31.0272   Anisotropy =     7.6628
   XX=    27.5884   YX=     0.6821   ZX=     0.8075
   XY=     0.1428   YY=    29.9448   ZY=    -2.4001
   XZ=     0.0997   YZ=    -1.3724   ZZ=    35.5484
   Eigenvalues:    27.4336    29.5123    36.1357
     22  H    Isotropic =    30.5641   Anisotropy =     7.2656
   XX=    34.3481   YX=    -1.4073   ZX=    -2.5500
   XY=    -1.9214   YY=    31.3671   ZY=    -0.8371
   XZ=    -1.7753   YZ=    -0.6057   ZZ=    25.9770
   Eigenvalues:    25.2484    31.0360    35.4078
     23  H    Isotropic =    30.5775   Anisotropy =     8.5003
   XX=    35.5980   YX=     1.4209   ZX=    -1.2976
   XY=     1.4427   YY=    30.6845   ZY=    -2.4134
   XZ=    -0.7532   YZ=    -2.4017   ZZ=    25.4500
   Eigenvalues:    24.4934    30.9947    36.2443
     24  H    Isotropic =    30.5007   Anisotropy =     5.0917
   XX=    27.4145   YX=     0.0239   ZX=     3.3927
   XY=    -0.3692   YY=    31.8379   ZY=     0.0871
   XZ=     3.1343   YZ=    -0.0466   ZZ=    32.2496
   Eigenvalues:    25.7663    31.8406    33.8952
     25  H    Isotropic =    30.8182   Anisotropy =     7.6703
   XX=    34.6933   YX=    -0.3718   ZX=    -2.7904
   XY=    -0.8429   YY=    28.7118   ZY=    -0.2368
   XZ=    -2.9905   YZ=    -0.6563   ZZ=    29.0494
   Eigenvalues:    27.4852    29.0376    35.9317
     26  H    Isotropic =    28.4332   Anisotropy =     8.3894
   XX=    30.3928   YX=    -3.8143   ZX=    -1.2588
   XY=    -2.4163   YY=    30.9158   ZY=     0.6377
   XZ=    -1.8839   YZ=     0.7214   ZZ=    23.9909
   Eigenvalues:    23.6257    27.6477    34.0261
     27  H    Isotropic =    27.8520   Anisotropy =     5.8252
   XX=    27.2107   YX=     0.0892   ZX=    -3.5042
   XY=     0.5527   YY=    26.8311   ZY=     2.3433
   XZ=    -1.3181   YZ=     2.2749   ZZ=    29.5141
   Eigenvalues:    24.4800    27.3405    31.7354
     28  H    Isotropic =    28.3011   Anisotropy =    23.6650
   XX=    31.6022   YX=    -8.7661   ZX=    -0.9831
   XY=    -8.3499   YY=    37.9204   ZY=    -2.7552
   XZ=     0.3704   YZ=    -3.4018   ZZ=    15.3808
   Eigenvalues:    14.8168    26.0088    44.0778
     29  H    Isotropic =    28.0199   Anisotropy =     4.5231
   XX=    28.9002   YX=     0.0929   ZX=     2.3790
   XY=     1.7189   YY=    28.5023   ZY=    -2.3277
   XZ=    -0.1569   YZ=    -4.3299   ZZ=    26.6572
   Eigenvalues:    23.7285    29.2959    31.0353
     30  H    Isotropic =    28.3214   Anisotropy =     6.9722
   XX=    29.1609   YX=     2.2894   ZX=     2.0234
   XY=     2.2267   YY=    27.4122   ZY=     3.0090
   XZ=    -0.2001   YZ=     4.4877   ZZ=    28.3911
   Eigenvalues:    23.8656    28.1290    32.9695
     31  H    Isotropic =    29.2113   Anisotropy =     2.8102
   XX=    29.5719   YX=    -0.2340   ZX=    -2.1225
   XY=    -0.6745   YY=    27.9921   ZY=    -0.1212
   XZ=    -0.2531   YZ=     0.3944   ZZ=    30.0699
   Eigenvalues:    27.8500    28.6992    31.0848
     32  C    Isotropic =   176.3551   Anisotropy =    17.5600
   XX=   167.3503   YX=    -5.8022   ZX=     6.2884
   XY=    -4.6768   YY=   176.2954   ZY=    -0.4186
   XZ=     7.8396   YZ=     0.8740   ZZ=   185.4195
   Eigenvalues:   163.0019   178.0016   188.0617
     33  H    Isotropic =    30.8240   Anisotropy =     4.6709
   XX=    32.1011   YX=    -0.2996   ZX=    -1.2782
   XY=    -0.1464   YY=    27.1698   ZY=    -0.1005
   XZ=    -1.0436   YZ=    -0.4721   ZZ=    33.2010
   Eigenvalues:    27.1400    31.3941    33.9379
     34  H    Isotropic =    31.3232   Anisotropy =    11.2826
   XX=    31.2519   YX=    -3.9082   ZX=     4.3777
   XY=    -3.8591   YY=    31.5728   ZY=    -2.5364
   XZ=     4.5372   YZ=    -3.2709   ZZ=    31.1449
   Eigenvalues:    26.5623    28.5624    38.8449
     35  H    Isotropic =    31.2175   Anisotropy =     8.1672
   XX=    29.7458   YX=     2.2916   ZX=     4.2836
   XY=     2.6294   YY=    32.9324   ZY=     0.9323
   XZ=     4.5086   YZ=     1.6881   ZZ=    30.9744
   Eigenvalues:    25.7666    31.2238    36.6623
     36  H    Isotropic =    31.2841   Anisotropy =     9.1855
   XX=    34.8102   YX=    -2.2991   ZX=    -1.5393
   XY=    -3.2531   YY=    29.0675   ZY=     4.9324
   XZ=     1.1019   YZ=     7.2243   ZZ=    29.9748
   Eigenvalues:    23.1128    33.3318    37.4078
 End of Minotr F.D. properties file   721 does not exist.
 End of Minotr F.D. properties file   722 does not exist.
 End of Minotr F.D. properties file   788 does not exist.

 **********************************************************************

            Population analysis using the SCF density.

 **********************************************************************

 Orbital symmetries:
       Occupied  (A) (A) (A) (A) (A) (A) (A) (A) (A) (A) (A) (A)
                 (A) (A) (A) (A) (A) (A) (A) (A) (A) (A) (A) (A)
                 (A) (A) (A) (A) (A) (A) (A) (A) (A) (A) (A) (A)
                 (A) (A) (A) (A) (A) (A) (A) (A) (A) (A) (A) (A)
                 (A) (A) (A) (A) (A) (A) (A) (A) (A) (A) (A) (A)
                 (A) (A) (A) (A) (A)
       Virtual   (A) (A) (A) (A) (A) (A) (A) (A) (A) (A) (A) (A)
                 (A) (A) (A) (A) (A) (A) (A) (A) (A) (A) (A) (A)
                 (A) (A) (A) (A) (A) (A) (A) (A) (A) (A) (A) (A)
                 (A) (A) (A) (A) (A) (A) (A) (A) (A) (A) (A) (A)
                 (A) (A) (A) (A) (A) (A) (A) (A) (A) (A) (A) (A)
                 (A) (A) (A) (A) (A) (A) (A) (A) (A) (A) (A) (A)
                 (A) (A) (A) (A) (A) (A) (A) (A) (A) (A) (A) (A)
                 (A) (A) (A) (A) (A) (A) (A) (A) (A) (A) (A) (A)
                 (A) (A) (A) (A) (A) (A) (A) (A) (A) (A) (A) (A)
                 (A) (A) (A) (A) (A) (A) (A) (A) (A) (A) (A) (A)
                 (A) (A) (A) (A) (A) (A) (A) (A) (A) (A) (A) (A)
                 (A) (A) (A) (A) (A) (A) (A) (A) (A) (A) (A) (A)
                 (A) (A) (A) (A) (A) (A) (A) (A) (A) (A) (A) (A)
                 (A) (A) (A) (A) (A) (A) (A) (A) (A) (A) (A) (A)
                 (A) (A) (A) (A) (A) (A) (A) (A) (A) (A) (A) (A)
                 (A) (A) (A) (A) (A) (A) (A) (A) (A) (A) (A) (A)
                 (A) (A) (A) (A) (A) (A) (A) (A) (A) (A) (A) (A)
                 (A) (A) (A) (A) (A) (A) (A) (A) (A) (A) (A) (A)
                 (A) (A) (A) (A) (A) (A) (A) (A) (A) (A) (A) (A)
                 (A) (A) (A) (A) (A) (A) (A) (A) (A) (A) (A) (A)
                 (A) (A) (A) (A) (A) (A) (A) (A) (A) (A) (A) (A)
                 (A) (A) (A) (A) (A) (A) (A) (A) (A) (A) (A) (A)
                 (A) (A) (A) (A) (A) (A) (A) (A) (A) (A) (A) (A)
                 (A) (A) (A) (A) (A) (A) (A) (A) (A) (A) (A) (A)
                 (A) (A) (A) (A) (A) (A) (A) (A) (A) (A)
 The electronic state is 1-A.
 Alpha  occ. eigenvalues --  -24.81043 -24.80423 -19.17972 -14.39587 -10.34078
 Alpha  occ. eigenvalues --  -10.33978 -10.27432 -10.26804 -10.26698 -10.26183
 Alpha  occ. eigenvalues --  -10.26167 -10.25419 -10.25329 -10.23367 -10.23147
 Alpha  occ. eigenvalues --  -10.22114 -10.21372  -1.28253  -1.27694  -1.02618
 Alpha  occ. eigenvalues --   -0.95313  -0.90735  -0.83309  -0.80125  -0.78834
 Alpha  occ. eigenvalues --   -0.78425  -0.72036  -0.69440  -0.67912  -0.66277
 Alpha  occ. eigenvalues --   -0.64182  -0.62122  -0.59375  -0.58018  -0.56213
 Alpha  occ. eigenvalues --   -0.52453  -0.52179  -0.51698  -0.50802  -0.49938
 Alpha  occ. eigenvalues --   -0.49694  -0.48096  -0.47540  -0.47202  -0.46402
 Alpha  occ. eigenvalues --   -0.44651  -0.43994  -0.42721  -0.41766  -0.41709
 Alpha  occ. eigenvalues --   -0.41331  -0.39517  -0.38561  -0.38132  -0.37793
 Alpha  occ. eigenvalues --   -0.37679  -0.36846  -0.36045  -0.34427  -0.33308
 Alpha  occ. eigenvalues --   -0.32282  -0.27850  -0.26964  -0.26562  -0.24932
 Alpha virt. eigenvalues --   -0.02308  -0.01127   0.04839   0.05837   0.06549
 Alpha virt. eigenvalues --    0.07277   0.07955   0.10118   0.10263   0.10730
 Alpha virt. eigenvalues --    0.10941   0.11333   0.12107   0.13131   0.13469
 Alpha virt. eigenvalues --    0.13701   0.14705   0.15381   0.15699   0.16341
 Alpha virt. eigenvalues --    0.16499   0.17440   0.17913   0.19175   0.20092
 Alpha virt. eigenvalues --    0.20982   0.21963   0.23216   0.24437   0.25586
 Alpha virt. eigenvalues --    0.25716   0.26043   0.27126   0.27719   0.29411
 Alpha virt. eigenvalues --    0.30902   0.32633   0.32854   0.34265   0.34689
 Alpha virt. eigenvalues --    0.35945   0.37520   0.37782   0.38845   0.39156
 Alpha virt. eigenvalues --    0.40338   0.40843   0.41470   0.41910   0.42355
 Alpha virt. eigenvalues --    0.43170   0.43649   0.45398   0.45754   0.47130
 Alpha virt. eigenvalues --    0.48008   0.48342   0.49998   0.50901   0.51279
 Alpha virt. eigenvalues --    0.52884   0.53303   0.53632   0.54618   0.56118
 Alpha virt. eigenvalues --    0.56606   0.57539   0.58024   0.58448   0.59456
 Alpha virt. eigenvalues --    0.59957   0.60272   0.60468   0.61711   0.61897
 Alpha virt. eigenvalues --    0.62262   0.62830   0.62960   0.63483   0.63583
 Alpha virt. eigenvalues --    0.64814   0.65626   0.66040   0.66511   0.67479
 Alpha virt. eigenvalues --    0.67584   0.68242   0.68983   0.71138   0.72206
 Alpha virt. eigenvalues --    0.73232   0.73957   0.74835   0.75000   0.75250
 Alpha virt. eigenvalues --    0.78226   0.79496   0.79947   0.83286   0.83941
 Alpha virt. eigenvalues --    0.87162   0.89948   0.91584   0.94073   0.95093
 Alpha virt. eigenvalues --    0.95466   0.97078   0.97614   0.99569   1.00357
 Alpha virt. eigenvalues --    1.01997   1.04122   1.05032   1.06284   1.08259
 Alpha virt. eigenvalues --    1.09341   1.09532   1.10642   1.12665   1.15469
 Alpha virt. eigenvalues --    1.16302   1.16725   1.19913   1.20876   1.24297
 Alpha virt. eigenvalues --    1.25457   1.25680   1.28228   1.30700   1.31417
 Alpha virt. eigenvalues --    1.34696   1.35424   1.38139   1.39172   1.41724
 Alpha virt. eigenvalues --    1.43664   1.46140   1.47987   1.48203   1.50271
 Alpha virt. eigenvalues --    1.51341   1.52545   1.53676   1.54946   1.55551
 Alpha virt. eigenvalues --    1.57146   1.57707   1.58248   1.59023   1.60423
 Alpha virt. eigenvalues --    1.62536   1.64044   1.64992   1.65857   1.67212
 Alpha virt. eigenvalues --    1.67930   1.68623   1.70290   1.71592   1.73694
 Alpha virt. eigenvalues --    1.75488   1.76882   1.77306   1.79894   1.81559
 Alpha virt. eigenvalues --    1.83123   1.84954   1.85023   1.86677   1.88941
 Alpha virt. eigenvalues --    1.89504   1.89731   1.92397   1.94966   1.96161
 Alpha virt. eigenvalues --    1.98338   1.99385   2.00107   2.01163   2.04004
 Alpha virt. eigenvalues --    2.07860   2.09689   2.15618   2.18395   2.20640
 Alpha virt. eigenvalues --    2.22541   2.24315   2.25378   2.27327   2.29358
 Alpha virt. eigenvalues --    2.30879   2.32180   2.36386   2.38087   2.41133
 Alpha virt. eigenvalues --    2.42042   2.43571   2.44507   2.45280   2.47481
 Alpha virt. eigenvalues --    2.48200   2.49719   2.51643   2.53689   2.54760
 Alpha virt. eigenvalues --    2.55701   2.57685   2.59562   2.61053   2.65365
 Alpha virt. eigenvalues --    2.65506   2.67822   2.70062   2.72480   2.73827
 Alpha virt. eigenvalues --    2.76626   2.83824   2.84334   2.85565   2.86524
 Alpha virt. eigenvalues --    2.91254   2.93707   2.96988   3.00398   3.06003
 Alpha virt. eigenvalues --    3.07010   3.08184   3.09242   3.10537   3.12475
 Alpha virt. eigenvalues --    3.13333   3.15603   3.16602   3.21126   3.21704
 Alpha virt. eigenvalues --    3.24524   3.25993   3.26219   3.28374   3.28887
 Alpha virt. eigenvalues --    3.30089   3.31498   3.33731   3.38810   3.39061
 Alpha virt. eigenvalues --    3.47627   3.48609   3.51455   3.58814   3.64440
 Alpha virt. eigenvalues --    3.75648   3.78977   3.79411   3.79775   3.80592
 Alpha virt. eigenvalues --    3.86092   3.87925   3.96082   3.96643   3.99400
 Alpha virt. eigenvalues --    4.00289   4.07504   4.08146   4.10296   4.12633
 Alpha virt. eigenvalues --    4.18040   4.27787   4.47638   4.75292   4.77655
 Alpha virt. eigenvalues --    4.77971   4.80651   4.96191   5.08015   5.46145
 Alpha virt. eigenvalues --    6.12659   6.14608   6.30727   6.33118   6.56865
 Alpha virt. eigenvalues --    6.59666  23.30209  23.46149  23.60124  23.69736
 Alpha virt. eigenvalues --   23.72676  23.78288  23.81717  23.83123  23.86748
 Alpha virt. eigenvalues --   23.89771  24.08659  24.10835  24.19252  35.56996
 Alpha virt. eigenvalues --   50.00416  66.88990  66.89631
          Condensed to atoms (all electrons):
               1          2          3          4          5          6
     1  C    5.364519   0.303541  -0.073915   0.007968  -0.000246   0.000002
     2  C    0.303541   5.337417   0.326802  -0.081210   0.007344   0.000028
     3  C   -0.073915   0.326802   5.362347   0.327821  -0.077812  -0.004287
     4  C    0.007968  -0.081210   0.327821   5.434147   0.343062  -0.057722
     5  C   -0.000246   0.007344  -0.077812   0.343062   5.074573   0.248851
     6  O    0.000002   0.000028  -0.004287  -0.057722   0.248851   8.237094
     7  N   -0.000320  -0.046846   0.205598  -0.071067   0.002039  -0.028053
     8  C   -0.001195  -0.000360  -0.078463   0.005824   0.000201   0.004438
     9  C    0.000000   0.000000  -0.000001   0.000000   0.000000  -0.000001
    10  C    0.000000   0.000000   0.000010   0.000000   0.000002   0.000023
    11  C   -0.000006  -0.000001  -0.000352  -0.000056   0.000125   0.000660
    12  C   -0.000075  -0.000482   0.011472  -0.000449  -0.000058  -0.000951
    13  C    0.000093   0.000044  -0.000552   0.000098  -0.000015   0.000007
    14  C   -0.000009   0.000000   0.000015   0.000001   0.000000   0.000001
    15  H    0.000000   0.000000   0.000000   0.000000   0.000000   0.000000
    16  H    0.000000   0.000000   0.000000   0.000000   0.000000   0.000002
    17  H    0.000000   0.000000   0.000000   0.000000   0.000000   0.000000
    18  F    0.000000   0.000000  -0.000032   0.000008  -0.000094  -0.000109
    19  F   -0.001417  -0.000005  -0.000032  -0.000001   0.000000   0.000000
    20  H    0.394485  -0.036887   0.008019  -0.000366   0.000011   0.000000
    21  H    0.389673  -0.047108  -0.003446  -0.000246  -0.000037   0.000000
    22  H    0.377295  -0.036578  -0.008977   0.000318  -0.000003   0.000003
    23  H   -0.040039   0.394428  -0.051127   0.002737   0.000249   0.000033
    24  H   -0.045337   0.391866  -0.034265  -0.009694  -0.000262  -0.000023
    25  H   -0.000182  -0.003078  -0.050951   0.386612  -0.034201   0.004911
    26  H    0.000015  -0.000446   0.009274  -0.028938   0.386661  -0.033384
    27  H   -0.000065   0.000551  -0.010549  -0.057737   0.394325  -0.039366
    28  H   -0.000017   0.000786  -0.001331  -0.005713  -0.062506   0.259822
    29  H   -0.000941   0.001108   0.002834  -0.001733   0.000144  -0.000152
    30  H    0.000463  -0.000557  -0.005355   0.000831   0.000022   0.002586
    31  H   -0.007275  -0.035624   0.406014  -0.050550  -0.005295  -0.000950
    32  C   -0.000155  -0.004744  -0.085259   0.263952  -0.085193   0.007614
    33  H   -0.000160   0.001377  -0.013529  -0.037883  -0.007117   0.013198
    34  H    0.000011  -0.000089   0.008085  -0.034160  -0.004808  -0.000336
    35  H    0.000305   0.002644  -0.007440  -0.037831   0.006749   0.000195
    36  H    0.000745  -0.005577  -0.053625   0.000772   0.000102   0.000518
               7          8          9         10         11         12
     1  C   -0.000320  -0.001195   0.000000   0.000000  -0.000006  -0.000075
     2  C   -0.046846  -0.000360   0.000000   0.000000  -0.000001  -0.000482
     3  C    0.205598  -0.078463  -0.000001   0.000010  -0.000352   0.011472
     4  C   -0.071067   0.005824   0.000000   0.000000  -0.000056  -0.000449
     5  C    0.002039   0.000201   0.000000   0.000002   0.000125  -0.000058
     6  O   -0.028053   0.004438  -0.000001   0.000023   0.000660  -0.000951
     7  N    7.070158   0.243890   0.000073  -0.000278   0.008565  -0.064514
     8  C    0.243890   5.346559  -0.001386   0.011156  -0.066550   0.275957
     9  C    0.000073  -0.001386   5.055619   0.431699  -0.002783  -0.057297
    10  C   -0.000278   0.011156   0.431699   5.199537   0.467718  -0.029534
    11  C    0.008565  -0.066550  -0.002783   0.467718   4.726155   0.290701
    12  C   -0.064514   0.275957  -0.057297  -0.029534   0.290701   5.764975
    13  C   -0.003432  -0.086798  -0.006741  -0.065240   0.046391   0.232652
    14  C   -0.000224   0.008932   0.438153  -0.034429  -0.065562  -0.035787
    15  H    0.000000   0.000027   0.405150  -0.040946   0.006309  -0.002114
    16  H    0.000007  -0.000289  -0.041231   0.391781  -0.048187   0.012197
    17  H    0.000014  -0.000336  -0.040332   0.007012  -0.001261   0.012188
    18  F   -0.000291  -0.005356   0.005674  -0.055616   0.313634  -0.074562
    19  F   -0.002300   0.004447   0.005385  -0.000541   0.004438  -0.084227
    20  H   -0.000318   0.000220   0.000000   0.000000   0.000001   0.000000
    21  H   -0.000559  -0.000327   0.000000   0.000000   0.000009   0.000158
    22  H    0.007128  -0.001284  -0.000011   0.000005  -0.000114  -0.001112
    23  H    0.006442  -0.000311   0.000000   0.000000  -0.000002   0.000019
    24  H   -0.005034  -0.000187   0.000000   0.000000   0.000005   0.000147
    25  H    0.006336  -0.000299   0.000000   0.000000  -0.000001   0.000041
    26  H   -0.000535   0.000127   0.000000   0.000000   0.000007  -0.000019
    27  H    0.000270  -0.001067   0.000000  -0.000005  -0.000157   0.000309
    28  H    0.054557  -0.005426  -0.000013  -0.000140   0.002002  -0.005721
    29  H   -0.049253   0.380088   0.000066  -0.000411   0.009018  -0.036921
    30  H   -0.037080   0.399921  -0.000348   0.001845  -0.015206  -0.038169
    31  H   -0.036712  -0.011041   0.000001  -0.000005   0.000072   0.001252
    32  C   -0.003383  -0.000459   0.000000   0.000000  -0.000004   0.000070
    33  H    0.010415  -0.000530   0.000001  -0.000004  -0.000005   0.000363
    34  H   -0.000372   0.000024   0.000000   0.000000   0.000000  -0.000004
    35  H   -0.000021  -0.000075   0.000000   0.000000   0.000000  -0.000002
    36  H    0.335996  -0.041154  -0.000069   0.000088  -0.000106  -0.013507
              13         14         15         16         17         18
     1  C    0.000093  -0.000009   0.000000   0.000000   0.000000   0.000000
     2  C    0.000044   0.000000   0.000000   0.000000   0.000000   0.000000
     3  C   -0.000552   0.000015   0.000000   0.000000   0.000000  -0.000032
     4  C    0.000098   0.000001   0.000000   0.000000   0.000000   0.000008
     5  C   -0.000015   0.000000   0.000000   0.000000   0.000000  -0.000094
     6  O    0.000007   0.000001   0.000000   0.000002   0.000000  -0.000109
     7  N   -0.003432  -0.000224   0.000000   0.000007   0.000014  -0.000291
     8  C   -0.086798   0.008932   0.000027  -0.000289  -0.000336  -0.005356
     9  C   -0.006741   0.438153   0.405150  -0.041231  -0.040332   0.005674
    10  C   -0.065240  -0.034429  -0.040946   0.391781   0.007012  -0.055616
    11  C    0.046391  -0.065562   0.006309  -0.048187  -0.001261   0.313634
    12  C    0.232652  -0.035787  -0.002114   0.012197   0.012188  -0.074562
    13  C    4.789512   0.483301   0.006490  -0.001329  -0.050061   0.005376
    14  C    0.483301   5.182801  -0.041552   0.007084   0.392244  -0.000556
    15  H    0.006490  -0.041552   0.445085  -0.006566  -0.006654  -0.000070
    16  H   -0.001329   0.007084  -0.006566   0.448597  -0.000175   0.001311
    17  H   -0.050061   0.392244  -0.006654  -0.000175   0.449603   0.000004
    18  F    0.005376  -0.000556  -0.000070   0.001311   0.000004   9.028114
    19  F    0.313707  -0.054438  -0.000071   0.000004   0.001523  -0.000001
    20  H   -0.000009   0.000000   0.000000   0.000000   0.000000   0.000000
    21  H   -0.000033  -0.000001   0.000000   0.000000   0.000000   0.000000
    22  H    0.000479   0.000193   0.000000   0.000000   0.000001   0.000000
    23  H    0.000009   0.000000   0.000000   0.000000   0.000000   0.000000
    24  H   -0.000048  -0.000002   0.000000   0.000000   0.000000   0.000000
    25  H    0.000000   0.000000   0.000000   0.000000   0.000000   0.000000
    26  H    0.000000   0.000000   0.000000   0.000000   0.000000  -0.000003
    27  H    0.000014   0.000000   0.000000   0.000000   0.000000   0.000098
    28  H   -0.000639  -0.000015   0.000001  -0.000002   0.000000   0.003265
    29  H   -0.019191  -0.000751   0.000001   0.000016  -0.000034   0.000009
    30  H    0.007672   0.000203   0.000004  -0.000045   0.000009   0.012229
    31  H   -0.000134  -0.000002   0.000000   0.000000   0.000000  -0.000094
    32  C   -0.000011   0.000000   0.000000   0.000000   0.000000   0.000000
    33  H    0.000031  -0.000003   0.000000   0.000000   0.000000  -0.000003
    34  H    0.000000   0.000000   0.000000   0.000000   0.000000   0.000000
    35  H    0.000001   0.000000   0.000000   0.000000   0.000000   0.000000
    36  H    0.003253   0.000108   0.000001   0.000000   0.000014  -0.000030
              19         20         21         22         23         24
     1  C   -0.001417   0.394485   0.389673   0.377295  -0.040039  -0.045337
     2  C   -0.000005  -0.036887  -0.047108  -0.036578   0.394428   0.391866
     3  C   -0.000032   0.008019  -0.003446  -0.008977  -0.051127  -0.034265
     4  C   -0.000001  -0.000366  -0.000246   0.000318   0.002737  -0.009694
     5  C    0.000000   0.000011  -0.000037  -0.000003   0.000249  -0.000262
     6  O    0.000000   0.000000   0.000000   0.000003   0.000033  -0.000023
     7  N   -0.002300  -0.000318  -0.000559   0.007128   0.006442  -0.005034
     8  C    0.004447   0.000220  -0.000327  -0.001284  -0.000311  -0.000187
     9  C    0.005385   0.000000   0.000000  -0.000011   0.000000   0.000000
    10  C   -0.000541   0.000000   0.000000   0.000005   0.000000   0.000000
    11  C    0.004438   0.000001   0.000009  -0.000114  -0.000002   0.000005
    12  C   -0.084227   0.000000   0.000158  -0.001112   0.000019   0.000147
    13  C    0.313707  -0.000009  -0.000033   0.000479   0.000009  -0.000048
    14  C   -0.054438   0.000000  -0.000001   0.000193   0.000000  -0.000002
    15  H   -0.000071   0.000000   0.000000   0.000000   0.000000   0.000000
    16  H    0.000004   0.000000   0.000000   0.000000   0.000000   0.000000
    17  H    0.001523   0.000000   0.000000   0.000001   0.000000   0.000000
    18  F   -0.000001   0.000000   0.000000   0.000000   0.000000   0.000000
    19  F    9.028558  -0.000026  -0.000078   0.007532  -0.000002  -0.000094
    20  H   -0.000026   0.467137  -0.026656  -0.027853  -0.007087  -0.003356
    21  H   -0.000078  -0.026656   0.483281  -0.029098  -0.004389   0.007786
    22  H    0.007532  -0.027853  -0.029098   0.487587   0.008165  -0.007354
    23  H   -0.000002  -0.007087  -0.004389   0.008165   0.493203  -0.029677
    24  H   -0.000094  -0.003356   0.007786  -0.007354  -0.029677   0.491017
    25  H    0.000000  -0.000023   0.000032  -0.000031   0.002407  -0.000111
    26  H    0.000000   0.000000   0.000001   0.000000   0.000011   0.000009
    27  H    0.000000   0.000000  -0.000016   0.000003  -0.000003  -0.000026
    28  H    0.000002   0.000004  -0.000011  -0.000059  -0.000140  -0.000007
    29  H    0.003536   0.000501   0.000194  -0.005043  -0.000514   0.000174
    30  H    0.000208  -0.000026  -0.000067   0.000660   0.000160  -0.000057
    31  H   -0.000004  -0.000063   0.005496  -0.000678  -0.003859   0.006454
    32  C    0.000000   0.000025  -0.000003  -0.000048  -0.001471   0.002729
    33  H   -0.000014   0.000003   0.000004  -0.000048  -0.000139   0.000352
    34  H    0.000000  -0.000002   0.000003  -0.000001  -0.000121   0.000195
    35  H    0.000001   0.000005  -0.000030   0.000023   0.000256  -0.001113
    36  H    0.008281  -0.000180   0.000160   0.002788   0.000685   0.003356
              25         26         27         28         29         30
     1  C   -0.000182   0.000015  -0.000065  -0.000017  -0.000941   0.000463
     2  C   -0.003078  -0.000446   0.000551   0.000786   0.001108  -0.000557
     3  C   -0.050951   0.009274  -0.010549  -0.001331   0.002834  -0.005355
     4  C    0.386612  -0.028938  -0.057737  -0.005713  -0.001733   0.000831
     5  C   -0.034201   0.386661   0.394325  -0.062506   0.000144   0.000022
     6  O    0.004911  -0.033384  -0.039366   0.259822  -0.000152   0.002586
     7  N    0.006336  -0.000535   0.000270   0.054557  -0.049253  -0.037080
     8  C   -0.000299   0.000127  -0.001067  -0.005426   0.380088   0.399921
     9  C    0.000000   0.000000   0.000000  -0.000013   0.000066  -0.000348
    10  C    0.000000   0.000000  -0.000005  -0.000140  -0.000411   0.001845
    11  C   -0.000001   0.000007  -0.000157   0.002002   0.009018  -0.015206
    12  C    0.000041  -0.000019   0.000309  -0.005721  -0.036921  -0.038169
    13  C    0.000000   0.000000   0.000014  -0.000639  -0.019191   0.007672
    14  C    0.000000   0.000000   0.000000  -0.000015  -0.000751   0.000203
    15  H    0.000000   0.000000   0.000000   0.000001   0.000001   0.000004
    16  H    0.000000   0.000000   0.000000  -0.000002   0.000016  -0.000045
    17  H    0.000000   0.000000   0.000000   0.000000  -0.000034   0.000009
    18  F    0.000000  -0.000003   0.000098   0.003265   0.000009   0.012229
    19  F    0.000000   0.000000   0.000000   0.000002   0.003536   0.000208
    20  H   -0.000023   0.000000   0.000000   0.000004   0.000501  -0.000026
    21  H    0.000032   0.000001  -0.000016  -0.000011   0.000194  -0.000067
    22  H   -0.000031   0.000000   0.000003  -0.000059  -0.005043   0.000660
    23  H    0.002407   0.000011  -0.000003  -0.000140  -0.000514   0.000160
    24  H   -0.000111   0.000009  -0.000026  -0.000007   0.000174  -0.000057
    25  H    0.516609  -0.003864   0.000483  -0.000262   0.000082  -0.000136
    26  H   -0.003864   0.506447  -0.045790   0.004879  -0.000006   0.000142
    27  H    0.000483  -0.045790   0.541808   0.000710  -0.000057  -0.000821
    28  H   -0.000262   0.004879   0.000710   0.345371   0.002022  -0.003696
    29  H    0.000082  -0.000006  -0.000057   0.002022   0.511348  -0.041442
    30  H   -0.000136   0.000142  -0.000821  -0.003696  -0.041442   0.447580
    31  H   -0.003052  -0.000561   0.006281   0.000654   0.002191  -0.000929
    32  C   -0.040771  -0.013162   0.011585  -0.000186   0.000019  -0.000118
    33  H    0.008309  -0.001633   0.000799   0.000848   0.000080  -0.000134
    34  H   -0.004119   0.004180   0.000010  -0.000144  -0.000002   0.000007
    35  H   -0.005585  -0.000220  -0.000207   0.000025   0.000004  -0.000008
    36  H   -0.000221   0.000069  -0.000184  -0.001684  -0.005555   0.006062
              31         32         33         34         35         36
     1  C   -0.007275  -0.000155  -0.000160   0.000011   0.000305   0.000745
     2  C   -0.035624  -0.004744   0.001377  -0.000089   0.002644  -0.005577
     3  C    0.406014  -0.085259  -0.013529   0.008085  -0.007440  -0.053625
     4  C   -0.050550   0.263952  -0.037883  -0.034160  -0.037831   0.000772
     5  C   -0.005295  -0.085193  -0.007117  -0.004808   0.006749   0.000102
     6  O   -0.000950   0.007614   0.013198  -0.000336   0.000195   0.000518
     7  N   -0.036712  -0.003383   0.010415  -0.000372  -0.000021   0.335996
     8  C   -0.011041  -0.000459  -0.000530   0.000024  -0.000075  -0.041154
     9  C    0.000001   0.000000   0.000001   0.000000   0.000000  -0.000069
    10  C   -0.000005   0.000000  -0.000004   0.000000   0.000000   0.000088
    11  C    0.000072  -0.000004  -0.000005   0.000000   0.000000  -0.000106
    12  C    0.001252   0.000070   0.000363  -0.000004  -0.000002  -0.013507
    13  C   -0.000134  -0.000011   0.000031   0.000000   0.000001   0.003253
    14  C   -0.000002   0.000000  -0.000003   0.000000   0.000000   0.000108
    15  H    0.000000   0.000000   0.000000   0.000000   0.000000   0.000001
    16  H    0.000000   0.000000   0.000000   0.000000   0.000000   0.000000
    17  H    0.000000   0.000000   0.000000   0.000000   0.000000   0.000014
    18  F   -0.000094   0.000000  -0.000003   0.000000   0.000000  -0.000030
    19  F   -0.000004   0.000000  -0.000014   0.000000   0.000001   0.008281
    20  H   -0.000063   0.000025   0.000003  -0.000002   0.000005  -0.000180
    21  H    0.005496  -0.000003   0.000004   0.000003  -0.000030   0.000160
    22  H   -0.000678  -0.000048  -0.000048  -0.000001   0.000023   0.002788
    23  H   -0.003859  -0.001471  -0.000139  -0.000121   0.000256   0.000685
    24  H    0.006454   0.002729   0.000352   0.000195  -0.001113   0.003356
    25  H   -0.003052  -0.040771   0.008309  -0.004119  -0.005585  -0.000221
    26  H   -0.000561  -0.013162  -0.001633   0.004180  -0.000220   0.000069
    27  H    0.006281   0.011585   0.000799   0.000010  -0.000207  -0.000184
    28  H    0.000654  -0.000186   0.000848  -0.000144   0.000025  -0.001684
    29  H    0.002191   0.000019   0.000080  -0.000002   0.000004  -0.005555
    30  H   -0.000929  -0.000118  -0.000134   0.000007  -0.000008   0.006062
    31  H    0.475905   0.008187   0.000246  -0.000232  -0.000098   0.005959
    32  C    0.008187   5.437542   0.381053   0.387271   0.389525   0.000747
    33  H    0.000246   0.381053   0.472480  -0.026229  -0.027011  -0.000973
    34  H   -0.000232   0.387271  -0.026229   0.471944  -0.028632   0.000027
    35  H   -0.000098   0.389525  -0.027011  -0.028632   0.479352  -0.000230
    36  H    0.005959   0.000747  -0.000973   0.000027  -0.000230   0.402391
 Mulliken charges:
               1
     1  C   -0.667765
     2  C   -0.468344
     3  C   -0.106990
     4  C   -0.298795
     5  C   -0.186812
     6  O   -0.614653
     7  N   -0.600896
     8  C   -0.378918
     9  C   -0.191609
    10  C   -0.283727
    11  C    0.324545
    12  C   -0.156995
    13  C    0.345107
    14  C   -0.279707
    15  H    0.234906
    16  H    0.236825
    17  H    0.236239
    18  F   -0.232906
    19  F   -0.234370
    20  H    0.232440
    21  H    0.225308
    22  H    0.226112
    23  H    0.230078
    24  H    0.232556
    25  H    0.221065
    26  H    0.216739
    27  H    0.198802
    28  H    0.412766
    29  H    0.248570
    30  H    0.263589
    31  H    0.238444
    32  C   -0.655352
    33  H    0.225857
    34  H    0.227497
    35  H    0.229419
    36  H    0.350973
 Sum of Mulliken charges =   0.00000
 Mulliken charges with hydrogens summed into heavy atoms:
               1
     1  C    0.016094
     2  C   -0.005710
     3  C    0.131454
     4  C   -0.077730
     5  C    0.228729
     6  O   -0.201887
     7  N   -0.249923
     8  C    0.133241
     9  C    0.043297
    10  C   -0.046902
    11  C    0.324545
    12  C   -0.156995
    13  C    0.345107
    14  C   -0.043468
    18  F   -0.232906
    19  F   -0.234370
    32  C    0.027421
 Electronic spatial extent (au):  <R**2>=           4735.1642
 Charge=              0.0000 electrons
 Dipole moment (field-independent basis, Debye):
    X=             -1.1157    Y=              3.7008    Z=             -0.7525  Tot=              3.9379
 Quadrupole moment (field-independent basis, Debye-Ang):
   XX=            -83.8377   YY=           -112.3722   ZZ=           -102.0517
   XY=              5.2273   XZ=             -7.3016   YZ=              3.4945
 Traceless Quadrupole moment (field-independent basis, Debye-Ang):
   XX=             15.5828   YY=            -12.9517   ZZ=             -2.6312
   XY=              5.2273   XZ=             -7.3016   YZ=              3.4945
 Octapole moment (field-independent basis, Debye-Ang**2):
  XXX=            -59.3392  YYY=             21.3749  ZZZ=             -8.1034  XYY=            -12.0848
  XXY=            -10.3494  XXZ=             17.8827  XZZ=             -3.5967  YZZ=              5.0322
  YYZ=             -4.3125  XYZ=              1.1274
 Hexadecapole moment (field-independent basis, Debye-Ang**3):
 XXXX=          -3716.6659 YYYY=          -1686.2182 ZZZZ=           -531.6628 XXXY=             20.3519
 XXXZ=           -125.2554 YYYX=             35.7768 YYYZ=             49.9993 ZZZX=             -2.1957
 ZZZY=             33.8851 XXYY=           -888.6931 XXZZ=           -775.9199 YYZZ=           -361.4903
 XXYZ=             30.0575 YYXZ=            -14.7986 ZZXY=            -12.9655
 N-N= 1.291543443009D+03 E-N=-4.540924866356D+03  KE= 8.333560260218D+02
 1\1\GINC-CPU-E-904\SP\RmPW1PW91\6-311G(d)\C13H19F2N1O1\AH809\04-Mar-20
 19\0\\# mPW1PW91/6-311g(d) nmr=giao scrf=(solvent=chloroform)\\AT3_2gi
 np005\\0,1\C,0,-2.463418,-1.867677,-0.605788\C,0,-2.044322,-0.891777,0
 .484912\C,0,-2.765844,-1.100318,1.837723\C,0,-2.108634,-0.228377,2.955
 473\C,0,-2.72438,-0.518842,4.337466\O,0,-4.045993,-0.008991,4.453025\N
 ,0,-4.208818,-0.80775,1.748242\C,0,-5.028053,-2.023168,1.658787\C,0,-9
 .225246,-1.022655,1.45395\C,0,-8.683374,-1.533886,2.632312\C,0,-7.3281
 86,-1.858304,2.690735\C,0,-6.488753,-1.683479,1.589994\C,0,-7.051813,-
 1.170734,0.419541\C,0,-8.404371,-0.841319,0.342251\H,0,-10.280251,-0.7
 65828,1.403789\H,0,-9.305433,-1.68189,3.510243\H,0,-8.806641,-0.442626
 ,-0.584224\F,0,-6.839246,-2.358788,3.834131\F,0,-6.281021,-0.983443,-0
 .662227\H,0,-1.820182,-1.745802,-1.48346\H,0,-2.375407,-2.903629,-0.26
 4307\H,0,-3.49291,-1.688653,-0.928773\H,0,-0.963731,-1.002281,0.640018
 \H,0,-2.205148,0.126786,0.112322\H,0,-1.052707,-0.52623,3.016352\H,0,-
 2.122358,-0.05472,5.125672\H,0,-2.751249,-1.595799,4.534296\H,0,-4.483
 175,-0.208949,3.597218\H,0,-4.765917,-2.62273,0.780293\H,0,-4.841538,-
 2.657878,2.533776\H,0,-2.613598,-2.147166,2.135897\C,0,-2.141838,1.278
 462,2.664697\H,0,-3.159914,1.645607,2.501533\H,0,-1.714572,1.839686,3.
 503122\H,0,-1.546627,1.524696,1.780293\H,0,-4.390559,-0.23256,0.922356
 \\Version=ES64L-G09RevD.01\State=1-A\HF=-836.4643774\RMSD=7.047e-09\Di
 pole=-0.1742203,-0.5107475,-1.4522666\Quadrupole=13.4822027,-4.1256418
 ,-9.3565609,-2.4524793,0.1435068,-4.1840492\PG=C01 [X(C13H19F2N1O1)]\\
 @


 ERWIN WITH HIS PSI CAN DO
 CALCULATIONS QUITE A FEW.
 BUT ONE THING HAS NOT BEEN SEEN
 JUST WHAT DOES PSI REALLY MEAN.
 -- WALTER HUCKEL, TRANS. BY FELIX BLOCH
 Job cpu time:       0 days  0 hours 16 minutes 59.8 seconds.
 File lengths (MBytes):  RWF=    179 Int=      0 D2E=      0 Chk=     10 Scr=      1
 Normal termination of Gaussian 09 at Mon Mar  4 11:28:59 2019.
