 Entering Gaussian System, Link 0=/usr/local/Cluster-Apps/gaussian/g09/g09
 Initial command:
 /usr/local/Cluster-Apps/gaussian/g09/l1.exe "/home/ah809/rds/hpc-work/04Mar1111AT3/Gau-161534.inp" -scrdir="/home/ah809/rds/hpc-work/04Mar1111AT3/"
 Entering Link 1 = /usr/local/Cluster-Apps/gaussian/g09/l1.exe PID=    161554.
  
 Copyright (c) 1988,1990,1992,1993,1995,1998,2003,2009,2013,
            Gaussian, Inc.  All Rights Reserved.
  
 This is part of the Gaussian(R) 09 program.  It is based on
 the Gaussian(R) 03 system (copyright 2003, Gaussian, Inc.),
 the Gaussian(R) 98 system (copyright 1998, Gaussian, Inc.),
 the Gaussian(R) 94 system (copyright 1995, Gaussian, Inc.),
 the Gaussian 92(TM) system (copyright 1992, Gaussian, Inc.),
 the Gaussian 90(TM) system (copyright 1990, Gaussian, Inc.),
 the Gaussian 88(TM) system (copyright 1988, Gaussian, Inc.),
 the Gaussian 86(TM) system (copyright 1986, Carnegie Mellon
 University), and the Gaussian 82(TM) system (copyright 1983,
 Carnegie Mellon University). Gaussian is a federally registered
 trademark of Gaussian, Inc.
  
 This software contains proprietary and confidential information,
 including trade secrets, belonging to Gaussian, Inc.
  
 This software is provided under written license and may be
 used, copied, transmitted, or stored only in accord with that
 written license.
  
 The following legend is applicable only to US Government
 contracts under FAR:
  
                    RESTRICTED RIGHTS LEGEND
  
 Use, reproduction and disclosure by the US Government is
 subject to restrictions as set forth in subparagraphs (a)
 and (c) of the Commercial Computer Software - Restricted
 Rights clause in FAR 52.227-19.
  
 Gaussian, Inc.
 340 Quinnipiac St., Bldg. 40, Wallingford CT 06492
  
  
 ---------------------------------------------------------------
 Warning -- This program may not be used in any manner that
 competes with the business of Gaussian, Inc. or will provide
 assistance to any competitor of Gaussian, Inc.  The licensee
 of this program is prohibited from giving any competitor of
 Gaussian, Inc. access to this program.  By using this program,
 the user acknowledges that Gaussian, Inc. is engaged in the
 business of creating and licensing software in the field of
 computational chemistry and represents and warrants to the
 licensee that it is not a competitor of Gaussian, Inc. and that
 it will not use this program in any manner prohibited above.
 ---------------------------------------------------------------
  

 Cite this work as:
 Gaussian 09, Revision D.01,
 M. J. Frisch, G. W. Trucks, H. B. Schlegel, G. E. Scuseria, 
 M. A. Robb, J. R. Cheeseman, G. Scalmani, V. Barone, B. Mennucci, 
 G. A. Petersson, H. Nakatsuji, M. Caricato, X. Li, H. P. Hratchian, 
 A. F. Izmaylov, J. Bloino, G. Zheng, J. L. Sonnenberg, M. Hada, 
 M. Ehara, K. Toyota, R. Fukuda, J. Hasegawa, M. Ishida, T. Nakajima, 
 Y. Honda, O. Kitao, H. Nakai, T. Vreven, J. A. Montgomery, Jr., 
 J. E. Peralta, F. Ogliaro, M. Bearpark, J. J. Heyd, E. Brothers, 
 K. N. Kudin, V. N. Staroverov, T. Keith, R. Kobayashi, J. Normand, 
 K. Raghavachari, A. Rendell, J. C. Burant, S. S. Iyengar, J. Tomasi, 
 M. Cossi, N. Rega, J. M. Millam, M. Klene, J. E. Knox, J. B. Cross, 
 V. Bakken, C. Adamo, J. Jaramillo, R. Gomperts, R. E. Stratmann, 
 O. Yazyev, A. J. Austin, R. Cammi, C. Pomelli, J. W. Ochterski, 
 R. L. Martin, K. Morokuma, V. G. Zakrzewski, G. A. Voth, 
 P. Salvador, J. J. Dannenberg, S. Dapprich, A. D. Daniels, 
 O. Farkas, J. B. Foresman, J. V. Ortiz, J. Cioslowski, 
 and D. J. Fox, Gaussian, Inc., Wallingford CT, 2013.
 
 ******************************************
 Gaussian 09:  ES64L-G09RevD.01 24-Apr-2013
                 4-Mar-2019 
 ******************************************
 %nprocshared=8
 Will use up to    8 processors via shared memory.
 %mem=6000MB
 %chk=AT3_1ginp010.chk
 -------------------------------------------------------
 # mPW1PW91/6-311g(d) nmr=giao scrf=(solvent=chloroform)
 -------------------------------------------------------
 1/38=1/1;
 2/12=2,17=6,18=5,40=1/2;
 3/5=4,6=6,7=1,11=2,16=1,25=1,30=1,70=2201,72=7,74=-7/1,2,8,3;
 4//1;
 5/5=2,38=5,53=7/2;
 8/6=1,10=90,11=11/1;
 10/13=100,45=16/2;
 6/7=2,8=2,9=2,10=2,28=1/1;
 99/9=1/99;
 ------------
 AT3_1ginp010
 ------------
 Symbolic Z-matrix:
 Charge =  0 Multiplicity = 1
 C                    -0.49212  -1.03054   1.10102 
 C                    -0.98687   0.09541   2.00522 
 C                    -0.08768   1.35809   1.97708 
 C                    -0.44182   2.36377   3.11837 
 C                    -0.10038   1.82169   4.51534 
 O                     1.26863   1.44232   4.59569 
 N                    -0.19253   1.98905   0.64414 
 C                     0.8278    3.00225   0.3498 
 C                     4.85287   1.44835   0.1287 
 C                     4.43787   2.16118   1.25243 
 C                     3.13813   2.66231   1.31519 
 C                     2.23006   2.46951   0.27178 
 C                     2.66464   1.74806  -0.84137 
 C                     3.96074   1.24059  -0.9219 
 H                     5.86397   1.0528    0.07425 
 H                     5.11632   2.32604   2.08432 
 H                     4.26332   0.68365  -1.8038 
 F                     2.76176   3.32797   2.41778 
 F                     1.8239    1.5268   -1.86227 
 H                     0.54788  -1.28659   1.32672 
 H                    -1.10114  -1.92719   1.25654 
 H                    -0.56335  -0.76782   0.042 
 H                    -2.01563   0.34743   1.72039 
 H                    -1.03254  -0.30649   3.02257 
 H                     0.18908   3.25127   2.99114 
 H                    -0.71145   0.95505   4.78231 
 H                    -0.27722   2.58902   5.27725 
 H                     1.80101   2.20866   4.31393 
 H                     0.58024   3.44721  -0.62293 
 H                     0.76811   3.84461   1.04687 
 H                     0.93978   1.0073    2.1254 
 C                    -1.89826   2.8371    3.0849 
 H                    -2.59436   2.02183   3.30599 
 H                    -2.06214   3.6201    3.8336 
 H                    -2.15978   3.25828   2.10928 
 H                    -0.13994   1.27943  -0.08573 
 
                          Input orientation:                          
 ---------------------------------------------------------------------
 Center     Atomic      Atomic             Coordinates (Angstroms)
 Number     Number       Type             X           Y           Z
 ---------------------------------------------------------------------
      1          6           0       -0.492117   -1.030538    1.101023
      2          6           0       -0.986873    0.095411    2.005223
      3          6           0       -0.087677    1.358091    1.977084
      4          6           0       -0.441821    2.363772    3.118374
      5          6           0       -0.100376    1.821692    4.515343
      6          8           0        1.268627    1.442315    4.595685
      7          7           0       -0.192529    1.989053    0.644139
      8          6           0        0.827797    3.002250    0.349803
      9          6           0        4.852870    1.448353    0.128697
     10          6           0        4.437870    2.161182    1.252431
     11          6           0        3.138128    2.662309    1.315193
     12          6           0        2.230063    2.469513    0.271777
     13          6           0        2.664639    1.748061   -0.841367
     14          6           0        3.960744    1.240586   -0.921903
     15          1           0        5.863968    1.052804    0.074252
     16          1           0        5.116325    2.326044    2.084317
     17          1           0        4.263316    0.683649   -1.803795
     18          9           0        2.761756    3.327968    2.417778
     19          9           0        1.823902    1.526797   -1.862270
     20          1           0        0.547883   -1.286593    1.326722
     21          1           0       -1.101136   -1.927188    1.256544
     22          1           0       -0.563352   -0.767824    0.042003
     23          1           0       -2.015632    0.347428    1.720393
     24          1           0       -1.032540   -0.306487    3.022566
     25          1           0        0.189076    3.251268    2.991144
     26          1           0       -0.711446    0.955050    4.782310
     27          1           0       -0.277218    2.589019    5.277254
     28          1           0        1.801008    2.208664    4.313931
     29          1           0        0.580241    3.447214   -0.622932
     30          1           0        0.768113    3.844610    1.046871
     31          1           0        0.939777    1.007298    2.125399
     32          6           0       -1.898260    2.837097    3.084903
     33          1           0       -2.594358    2.021825    3.305992
     34          1           0       -2.062140    3.620097    3.833602
     35          1           0       -2.159784    3.258278    2.109281
     36          1           0       -0.139935    1.279434   -0.085726
 ---------------------------------------------------------------------
                    Distance matrix (angstroms):
                    1          2          3          4          5
     1  C    0.000000
     2  C    1.526474   0.000000
     3  C    2.576161   1.550389   0.000000
     4  C    3.948870   2.584888   1.561843   0.000000
     5  C    4.466123   3.172795   2.580280   1.536866   0.000000
     6  O    4.629026   3.689434   2.950208   2.440730   1.422867
     7  N    3.068620   2.463618   1.478462   2.514836   3.875916
     8  C    4.309279   3.805674   2.487849   3.112004   4.427973
     9  C    5.971533   6.281274   5.275764   6.148977   6.626967
    10  C    5.874927   5.853370   4.653026   5.228209   5.599779
    11  C    5.182824   4.907213   3.541878   4.019530   4.629849
    12  C    4.510906   4.357737   3.084680   3.905542   4.884513
    13  C    4.632343   4.916082   3.958660   5.070379   6.028687
    14  C    5.392421   5.861604   4.980727   6.080129   6.811316
    15  H    6.767155   7.181871   6.255881   7.123783   7.475820
    16  H    6.609700   6.498539   5.294343   5.653643   5.777389
    17  H    5.830141   6.512997   5.803538   7.013478   7.763276
    18  F    5.596258   4.967076   3.491976   3.418101   3.854925
    19  F    4.548078   4.990674   4.292230   5.535417   6.668115
    20  H    1.094579   2.173885   2.796652   4.185056   4.499887
    21  H    1.095022   2.159741   3.512739   4.723711   5.067089
    22  H    1.093442   2.186042   2.913815   4.391551   5.189481
    23  H    2.145579   1.096807   2.191881   2.914940   3.695051
    24  H    2.123355   1.094803   2.180967   2.736496   2.761604
    25  H    4.729740   3.509178   2.165417   1.096297   2.109657
    26  H    4.188381   2.920112   2.901865   2.196788   1.093502
    27  H    5.530667   4.174671   3.527355   2.176831   1.095706
    28  H    5.106234   4.191450   3.122733   2.546310   1.950788
    29  H    4.916527   4.538461   3.401563   4.026888   5.432074
    30  H    5.035691   4.249107   2.789346   2.819210   4.108134
    31  H    2.693036   2.134938   1.095771   2.175967   2.730749
    32  C    4.568547   3.084344   2.587070   1.531787   2.511890
    33  H    4.312566   2.826142   2.913759   2.187589   2.778944
    34  H    5.617861   4.113706   3.530132   2.171483   2.747280
    35  H    4.710800   3.374948   2.814572   2.183989   3.477654
    36  H    2.620759   2.547799   2.064970   3.396054   4.633082
                    6          7          8          9         10
     6  O    0.000000
     7  N    4.248366   0.000000
     8  C    4.544804   1.467742   0.000000
     9  C    5.727200   5.100401   4.320266   0.000000
    10  C    4.662426   4.673355   3.815070   1.393961   0.000000
    11  C    3.968003   3.463649   2.526889   2.412841   1.394416
    12  C    4.547051   2.497688   1.502081   2.818219   2.435398
    13  C    5.621731   3.229275   2.523066   2.412303   2.774708
    14  C    6.142635   4.501374   3.812618   1.393849   2.408916
    15  H    6.458501   6.154875   5.407336   1.087080   2.156470
    16  H    4.678966   5.511044   4.675175   2.159676   1.086055
    17  H    7.106130   5.248906   4.670834   2.160294   3.399131
    18  F    3.244750   3.696794   2.850054   3.625686   2.351336
    19  F    6.482334   3.249886   2.839446   3.625569   4.115414
    20  H    4.318857   3.426950   4.407595   5.239094   5.198526
    21  H    5.302753   4.066639   5.370505   6.936606   6.884430
    22  H    5.383018   2.846129   4.030322   5.852727   5.920847
    23  H    4.500271   2.678985   4.124522   7.135955   6.719850
    24  H    3.290651   3.410577   4.642441   6.789108   6.256849
    25  H    2.648073   2.692070   2.728856   5.761517   4.718438
    26  H    2.047668   4.296847   5.119318   7.270562   6.358479
    27  H    2.041838   4.672567   5.066714   7.357076   6.214041
    28  H    0.974734   4.182080   4.158272   5.235276   4.040802
    29  H    5.632713   2.080595   1.097948   4.776584   4.477965
    30  H    4.314582   2.127937   1.095005   4.823933   4.042685
    31  H    2.529762   2.107152   2.673035   4.415161   3.785522
    32  C    3.775851   3.096131   3.865156   7.499701   6.630336
    33  H    4.113611   3.585431   4.627249   8.116975   7.327262
    34  H    4.051853   4.040844   4.568405   8.140034   7.144299
    35  H    4.608029   2.761823   3.476630   7.508386   6.742911
    36  H    4.891440   1.019327   2.023434   5.000261   4.850200
                   11         12         13         14         15
    11  C    0.000000
    12  C    1.396592   0.000000
    13  C    2.389726   1.395865   0.000000
    14  C    2.775354   2.435239   1.394240   0.000000
    15  H    3.400095   3.905297   3.399624   2.156351   0.000000
    16  H    2.148927   3.411216   3.860629   3.398668   2.494087
    17  H    3.861247   3.410488   2.148257   1.086030   2.495080
    18  F    1.341809   2.371700   3.623198   4.116820   4.504687
    19  F    3.621167   2.368087   1.340910   2.352084   4.505210
    20  H    4.722640   4.248643   4.288402   4.805265   5.941567
    21  H    6.248062   5.603359   5.664781   6.356340   7.667519
    22  H    5.204592   4.282092   4.186878   5.042843   6.680282
    23  H    5.664283   4.962626   5.516278   6.595190   8.080559
    24  H    5.396605   5.090933   5.728899   6.548676   7.622470
    25  H    3.442759   3.488800   4.803768   5.794848   6.748770
    26  H    5.454801   5.593834   6.607008   7.378952   8.087734
    27  H    5.231433   5.599602   6.840998   7.629426   8.194227
    28  H    3.314531   4.073222   5.247391   5.745920   5.984859
    29  H    3.303815   2.116203   2.698064   4.048011   5.842691
    30  H    2.662105   2.151502   3.399672   4.566170   5.891342
    31  H    2.868491   2.690506   3.510780   4.297292   5.334504
    32  C    5.341126   5.009176   6.117323   7.275388   8.514688
    33  H    6.102040   5.716811   6.703177   7.839311   9.106395
    34  H    5.856836   5.695037   6.906685   8.034428   9.140399
    35  H    5.390142   4.823829   5.853387   7.121799   8.566566
    36  H    3.823691   2.676002   2.942149   4.185244   6.010308
                   16         17         18         19         20
    16  H    0.000000
    17  H    4.306100   0.000000
    18  F    2.580512   5.202767   0.000000
    19  F    5.201384   2.581677   4.737362   0.000000
    20  H    5.873309   5.242750   5.233145   4.439939   0.000000
    21  H    7.578391   6.705184   6.624731   5.496623   1.770466
    22  H    6.782462   5.367538   5.785859   3.819754   1.776082
    23  H    7.410275   7.208199   5.673923   5.382231   3.065389
    24  H    6.754189   7.233272   5.288829   5.948261   2.516790
    25  H    5.094719   6.795847   2.636914   5.403895   4.846775
    26  H    6.566712   8.258250   4.825441   7.134797   4.307199
    27  H    6.273301   8.624856   4.237689   7.517701   5.595343
    28  H    3.997034   6.768693   2.402348   6.213769   4.765560
    29  H    5.400211   4.753606   3.744215   2.602048   5.119680
    30  H    4.721153   5.507669   2.474049   3.866529   5.143546
    31  H    4.379992   5.156474   2.964895   4.117409   2.460366
    32  C    7.103995   8.154859   4.733050   6.328183   5.106822
    33  H    7.812789   8.656115   5.584164   6.817405   4.973612
    34  H    7.500995   8.967406   5.035858   7.205983   6.096907
    35  H    7.335629   7.949660   4.931692   5.885660   5.347870
    36  H    5.782106   4.763963   4.345553   2.659690   3.008753
                   21         22         23         24         25
    21  H    0.000000
    22  H    1.763079   0.000000
    23  H    2.495062   2.483928   0.000000
    24  H    2.397960   3.052331   1.757763   0.000000
    25  H    5.611585   5.041496   3.861066   3.761775   0.000000
    26  H    4.570578   5.045863   3.383111   2.188898   3.048251
    27  H    6.102547   6.225602   4.549514   3.746743   2.425346
    28  H    5.905534   5.718308   4.975679   4.002824   2.331333
    29  H    5.936637   4.417747   4.673158   5.475490   3.640460
    30  H    6.070561   4.904804   4.520304   4.937340   2.113655
    31  H    3.678511   3.122658   3.055143   2.533964   2.519617
    32  C    5.164951   4.902721   2.841499   3.261208   2.130094
    33  H    4.693043   4.749816   2.377531   2.817915   3.059112
    34  H    6.191698   5.989694   3.895918   4.139555   2.431819
    35  H    5.360686   4.799139   2.940249   3.848677   2.508959
    36  H    3.606663   2.094484   2.765672   3.601856   3.669265
                   26         27         28         29         30
    26  H    0.000000
    27  H    1.761641   0.000000
    28  H    2.846639   2.322000   0.000000
    29  H    6.090647   6.023614   5.234204   0.000000
    30  H    4.948955   4.534905   3.796956   1.726691   0.000000
    31  H    3.128649   3.730564   2.640960   3.692666   3.040235
    32  C    2.798539   2.737832   3.948420   4.501472   3.504027
    33  H    2.619710   3.094628   4.513324   5.248453   4.442115
    34  H    3.134788   2.516585   4.140866   5.183894   3.978267
    35  H    3.814135   3.745399   4.652961   3.874070   3.169398
    36  H    4.912191   5.522265   4.897725   2.346596   2.947449
                   31         32         33         34         35
    31  H    0.000000
    32  C    3.510451   0.000000
    33  H    3.861758   1.094578   0.000000
    34  H    4.330841   1.095671   1.765248   0.000000
    35  H    3.830724   1.094361   1.774764   1.764577   0.000000
    36  H    2.475664   3.945999   4.251951   4.953252   3.579619
                   36
    36  H    0.000000
 Stoichiometry    C13H19F2NO
 Framework group  C1[X(C13H19F2NO)]
 Deg. of freedom   102
 Full point group                 C1      NOp   1
 Largest Abelian subgroup         C1      NOp   1
 Largest concise Abelian subgroup C1      NOp   1
                         Standard orientation:                         
 ---------------------------------------------------------------------
 Center     Atomic      Atomic             Coordinates (Angstroms)
 Number     Number       Type             X           Y           Z
 ---------------------------------------------------------------------
      1          6           0        1.256426    2.452651    1.866737
      2          6           0        2.169768    1.598104    0.991705
      3          6           0        1.410265    0.562980    0.122581
      4          6           0        2.370023   -0.484421   -0.526397
      5          6           0        3.013249   -1.421968    0.507635
      6          8           0        2.021658   -2.076206    1.290751
      7          7           0        0.621676    1.284452   -0.898916
      8          6           0       -0.390865    0.478664   -1.591542
      9          6           0       -3.579990   -0.930465    0.959642
     10          6           0       -2.573378   -1.803223    0.549576
     11          6           0       -1.549029   -1.341831   -0.276391
     12          6           0       -1.502858   -0.015324   -0.710806
     13          6           0       -2.517537    0.842827   -0.283675
     14          6           0       -3.550118    0.398772    0.541247
     15          1           0       -4.380206   -1.282928    1.605526
     16          1           0       -2.575469   -2.840298    0.872046
     17          1           0       -4.322344    1.095511    0.853793
     18          9           0       -0.583883   -2.200570   -0.639039
     19          9           0       -2.507986    2.128375   -0.664877
     20          1           0        0.606413    1.825503    2.485020
     21          1           0        1.858981    3.075717    2.535906
     22          1           0        0.629550    3.123660    1.273112
     23          1           0        2.773733    2.262424    0.361712
     24          1           0        2.865678    1.082678    1.661510
     25          1           0        1.768874   -1.135623   -1.171707
     26          1           0        3.686976   -0.889450    1.184587
     27          1           0        3.604369   -2.196482    0.006359
     28          1           0        1.403067   -2.510455    0.675219
     29          1           0       -0.833728    1.107387   -2.375168
     30          1           0        0.065844   -0.348395   -2.145101
     31          1           0        0.724398    0.038880    0.797578
     32          6           0        3.455321    0.144405   -1.405645
     33          1           0        4.163644    0.734191   -0.815278
     34          1           0        4.027461   -0.634897   -1.921242
     35          1           0        3.022304    0.793377   -2.173081
     36          1           0        0.144637    2.080421   -0.477138
 ---------------------------------------------------------------------
 Rotational constants (GHZ):      0.6415649      0.3340643      0.2772788
 Standard basis: 6-311G(d) (5D, 7F)
 There are   380 symmetry adapted cartesian basis functions of A   symmetry.
 There are   363 symmetry adapted basis functions of A   symmetry.
   363 basis functions,   639 primitive gaussians,   380 cartesian basis functions
    65 alpha electrons       65 beta electrons
       nuclear repulsion energy      1312.8326060290 Hartrees.
 NAtoms=   36 NActive=   36 NUniq=   36 SFac= 1.00D+00 NAtFMM=   60 NAOKFM=F Big=F
 Integral buffers will be    131072 words long.
 Raffenetti 2 integral format.
 Two-electron integral symmetry is turned on.
 ------------------------------------------------------------------------------
 Polarizable Continuum Model (PCM)
 =================================
 Model                : PCM (using non-symmetric T matrix).
 Atomic radii         : UFF (Universal Force Field).
 Polarization charges : Total charges.
 Charge compensation  : None.
 Solution method      : On-the-fly selection.
 Cavity type          : Scaled VdW (van der Waals Surface) (Alpha=1.100).
 Cavity algorithm     : GePol (No added spheres)
                        Default sphere list used, NSphG=   36.
                        Lebedev-Laikov grids with approx.  5.0 points / Ang**2.
                        Smoothing algorithm: Karplus/York (Gamma=1.0000).
                        Polarization charges: spherical gaussians, with
                                              point-specific exponents (IZeta= 3).
                        Self-potential: point-specific (ISelfS= 7).
                        Self-field    : sphere-specific E.n sum rule (ISelfD= 2).
 Solvent              : Chloroform, Eps=   4.711300 Eps(inf)=   2.090627
 ------------------------------------------------------------------------------
 One-electron integrals computed using PRISM.
 NBasis=   363 RedAO= T EigKep=  2.41D-04  NBF=   363
 NBsUse=   363 1.00D-06 EigRej= -1.00D+00 NBFU=   363
 ExpMin= 1.03D-01 ExpMax= 1.14D+04 ExpMxC= 1.72D+03 IAcc=1 IRadAn=         1 AccDes= 0.00D+00
 Harris functional with IExCor=  908 and IRadAn=       1 diagonalized for initial guess.
 HarFok:  IExCor=  908 AccDes= 0.00D+00 IRadAn=         1 IDoV= 1 UseB2=F ITyADJ=14
 ICtDFT=  3500011 ScaDFX=  1.000000  1.000000  1.000000  1.000000
 FoFCou: FMM=F IPFlag=           0 FMFlag=      100000 FMFlg1=           0
         NFxFlg=           0 DoJE=T BraDBF=F KetDBF=T FulRan=T
         wScrn=  0.000000 ICntrl=     500 IOpCl=  0 I1Cent=   200000004 NGrid=           0
         NMat0=    1 NMatS0=      1 NMatT0=    0 NMatD0=    1 NMtDS0=    0 NMtDT0=    0
 Petite list used in FoFCou.
 Requested convergence on RMS density matrix=1.00D-08 within 128 cycles.
 Requested convergence on MAX density matrix=1.00D-06.
 Requested convergence on             energy=1.00D-06.
 No special actions if energy rises.
 Inv3:  Mode=1 IEnd=    17802288.
 Iteration    1 A*A^-1 deviation from unit magnitude is 5.22D-15 for    609.
 Iteration    1 A*A^-1 deviation from orthogonality  is 2.58D-15 for   1502    707.
 Iteration    1 A^-1*A deviation from unit magnitude is 4.22D-15 for   2425.
 Iteration    1 A^-1*A deviation from orthogonality  is 3.43D-12 for   2410   2405.
 Error on total polarization charges =  0.00936
 SCF Done:  E(RmPW1PW91) =  -836.459660365     A.U. after   12 cycles
            NFock= 12  Conv=0.71D-08     -V/T= 2.0038
 DoSCS=F DFT=T ScalE2(SS,OS)=  1.000000  1.000000
 Range of M.O.s used for correlation:     1   363
 NBasis=   363 NAE=    65 NBE=    65 NFC=     0 NFV=     0
 NROrb=    363 NOA=    65 NOB=    65 NVA=   298 NVB=   298
 NEqPCM:  Using equilibrium solvation (IEInf=0, Eps=   4.7113, EpsInf=   2.0906)
          Differentiating once with respect to magnetic field using GIAOs.
          Electric field/nuclear overlap derivatives assumed to be zero.
 FoFJK:  IHMeth= 1 ICntrl=    6127 DoSepK=F KAlg= 0 I1Cent=   0 FoldK=F
 IRaf=         1 NMat=   1 IRICut=       1 DoRegI=T DoRafI=F ISym2E= 0.
          There are     3 degrees of freedom in the 1st order CPHF.  IDoFFX=0 NUNeed=     3.
      3 vectors produced by pass  0 Test12= 6.46D-13 3.33D-08 XBig12= 4.07D+01 2.02D+00.
 AX will form     3 AO Fock derivatives at one time.
      3 vectors produced by pass  1 Test12= 6.46D-13 3.33D-08 XBig12= 1.28D-01 1.97D-01.
      3 vectors produced by pass  2 Test12= 6.46D-13 3.33D-08 XBig12= 6.19D-04 7.96D-03.
      3 vectors produced by pass  3 Test12= 6.46D-13 3.33D-08 XBig12= 1.31D-06 2.13D-04.
      3 vectors produced by pass  4 Test12= 6.46D-13 3.33D-08 XBig12= 3.22D-09 1.14D-05.
      3 vectors produced by pass  5 Test12= 6.46D-13 3.33D-08 XBig12= 1.36D-11 9.17D-07.
      2 vectors produced by pass  6 Test12= 6.46D-13 3.33D-08 XBig12= 3.90D-14 5.15D-08.
 InvSVY:  IOpt=1 It=  1 EMax= 1.78D-15
 Solved reduced A of dimension    20 with     3 vectors.
 Calculating GIAO nuclear magnetic shielding tensors.
 SCF GIAO Magnetic shielding tensor (ppm):
      1  C    Isotropic =   175.5664   Anisotropy =    21.6285
   XX=   177.0394   YX=    -1.5478   ZX=   -12.6752
   XY=     0.8645   YY=   175.4029   ZY=     9.3982
   XZ=    -9.8365   YZ=     8.6191   ZZ=   174.2570
   Eigenvalues:   161.0090   175.7049   189.9854
      2  C    Isotropic =   165.1377   Anisotropy =    17.7475
   XX=   166.9746   YX=     1.9134   ZX=     1.5778
   XY=     9.5613   YY=   162.9946   ZY=     8.2765
   XZ=     7.7891   YZ=     6.3133   ZZ=   165.4438
   Eigenvalues:   156.5562   161.8874   176.9694
      3  C    Isotropic =   131.3937   Anisotropy =    18.1807
   XX=   127.6644   YX=    -4.5725   ZX=     9.4770
   XY=    -8.9715   YY=   127.3348   ZY=     0.4642
   XZ=     7.0070   YZ=     8.1485   ZZ=   139.1819
   Eigenvalues:   117.1070   133.5600   143.5142
      4  C    Isotropic =   148.7770   Anisotropy =    19.0421
   XX=   145.2663   YX=    -7.5248   ZX=    -4.4315
   XY=     2.2793   YY=   151.1107   ZY=   -14.4251
   XZ=    -5.4473   YZ=    -7.1223   ZZ=   149.9541
   Eigenvalues:   136.4247   148.4346   161.4718
      5  C    Isotropic =   120.0848   Anisotropy =    64.3160
   XX=   126.4188   YX=    11.1679   ZX=   -17.7178
   XY=    15.4669   YY=   113.1860   ZY=   -27.5205
   XZ=   -26.2683   YZ=   -28.7324   ZZ=   120.6495
   Eigenvalues:    87.8151   109.4772   162.9621
      6  O    Isotropic =   294.7838   Anisotropy =   100.5199
   XX=   297.6668   YX=    33.5309   ZX=    38.3264
   XY=    35.2090   YY=   286.2172   ZY=     2.5214
   XZ=    60.7947   YZ=    16.9178   ZZ=   300.4675
   Eigenvalues:   240.7606   281.7938   361.7971
      7  N    Isotropic =   202.9439   Anisotropy =    50.2099
   XX=   188.7048   YX=    18.8524   ZX=     4.1547
   XY=     0.5116   YY=   230.2456   ZY=     9.6595
   XZ=    15.1306   YZ=    13.8185   ZZ=   189.8814
   Eigenvalues:   179.6071   192.8076   236.4172
      8  C    Isotropic =   150.6232   Anisotropy =    48.3674
   XX=   160.2215   YX=    27.2141   ZX=     9.7004
   XY=    25.0989   YY=   137.0970   ZY=     6.2117
   XZ=    11.9382   YZ=     6.7543   ZZ=   154.5511
   Eigenvalues:   120.0542   148.9473   182.8681
      9  C    Isotropic =    54.9386   Anisotropy =   185.3844
   XX=    31.0057   YX=    -2.9479   ZX=   100.8911
   XY=    -3.5025   YY=    36.8945   ZY=    45.3942
   XZ=   100.2307   YZ=    45.0107   ZZ=    96.9156
   Eigenvalues:   -52.0291    38.3167   178.5282
     10  C    Isotropic =    71.4721   Anisotropy =   147.9572
   XX=    89.9127   YX=    21.0130   ZX=    47.9844
   XY=    13.2413   YY=     1.6004   ZY=    43.2377
   XZ=    51.4285   YZ=    39.5199   ZZ=   122.9032
   Eigenvalues:   -11.2056    55.5117   170.1102
     11  C    Isotropic =    19.5899   Anisotropy =    98.7431
   XX=     0.0463   YX=    56.6643   ZX=    38.5777
   XY=    54.7663   YY=    -0.8408   ZY=    -7.9648
   XZ=    41.1437   YZ=    -6.0399   ZZ=    59.5643
   Eigenvalues:   -65.1964    38.5474    85.4187
     12  C    Isotropic =    65.4570   Anisotropy =   144.3631
   XX=    58.4446   YX=    23.5504   ZX=    62.9610
   XY=    23.1749   YY=    28.5386   ZY=    32.9171
   XZ=    56.2970   YZ=    35.7205   ZZ=   109.3878
   Eigenvalues:    15.5093    19.1626   161.6991
     13  C    Isotropic =    19.7101   Anisotropy =    98.1405
   XX=    51.9586   YX=     2.8890   ZX=    22.7762
   XY=    10.4080   YY=   -53.9908   ZY=    33.7271
   XZ=    19.7285   YZ=    33.3271   ZZ=    61.1626
   Eigenvalues:   -63.0480    37.0412    85.1371
     14  C    Isotropic =    69.9477   Anisotropy =   150.0034
   XX=    57.2467   YX=    43.1129   ZX=    63.2955
   XY=    51.2193   YY=    28.6872   ZY=     7.9405
   XZ=    62.3364   YZ=    12.7057   ZZ=   123.9092
   Eigenvalues:   -14.1782    54.0713   169.9500
     15  H    Isotropic =    24.5550   Anisotropy =     3.1659
   XX=    25.1247   YX=    -0.8422   ZX=    -2.0913
   XY=    -0.8599   YY=    26.1559   ZY=    -0.9255
   XZ=    -2.0736   YZ=    -0.8928   ZZ=    22.3843
   Eigenvalues:    20.9805    26.0189    26.6655
     16  H    Isotropic =    25.2611   Anisotropy =     5.3389
   XX=    26.9120   YX=     0.4391   ZX=    -3.0718
   XY=     0.1561   YY=    25.7109   ZY=    -1.1375
   XZ=    -2.9757   YZ=    -1.1821   ZZ=    23.1605
   Eigenvalues:    21.3030    25.6600    28.8204
     17  H    Isotropic =    25.1413   Anisotropy =     4.7822
   XX=    26.3885   YX=    -0.0123   ZX=    -2.7116
   XY=     0.3522   YY=    25.6685   ZY=    -1.6367
   XZ=    -2.7412   YZ=    -1.3483   ZZ=    23.3669
   Eigenvalues:    21.4123    25.6821    28.3294
     18  F    Isotropic =   306.1285   Anisotropy =   121.4680
   XX=   308.5210   YX=     0.2315   ZX=    60.4503
   XY=    -7.9458   YY=   272.0934   ZY=    40.0710
   XZ=    46.1388   YZ=    43.0049   ZZ=   337.7712
   Eigenvalues:   238.3425   292.9358   387.1072
     19  F    Isotropic =   304.3326   Anisotropy =   141.0794
   XX=   275.0622   YX=     0.8385   ZX=    78.7964
   XY=    22.4546   YY=   287.6707   ZY=    12.5750
   XZ=    71.8326   YZ=     3.7270   ZZ=   350.2650
   Eigenvalues:   227.9468   286.6655   398.3855
     20  H    Isotropic =    31.8205   Anisotropy =     7.4533
   XX=    31.6845   YX=     2.3874   ZX=    -3.9724
   XY=     1.3356   YY=    29.6931   ZY=     0.4706
   XZ=    -3.3117   YZ=     0.5288   ZZ=    34.0841
   Eigenvalues:    27.5205    31.1518    36.7894
     21  H    Isotropic =    31.0350   Anisotropy =    11.9808
   XX=    29.3686   YX=     1.5725   ZX=     1.6992
   XY=     2.3028   YY=    31.8128   ZY=     6.3219
   XZ=     2.5112   YZ=     6.2917   ZZ=    31.9235
   Eigenvalues:    25.5576    28.5253    39.0222
     22  H    Isotropic =    31.4214   Anisotropy =     7.3419
   XX=    30.6313   YX=    -3.4519   ZX=     2.1771
   XY=    -4.0371   YY=    33.8457   ZY=     0.9111
   XZ=     1.5672   YZ=     1.8523   ZZ=    29.7872
   Eigenvalues:    26.5137    31.4346    36.3160
     23  H    Isotropic =    30.8794   Anisotropy =     6.9580
   XX=    31.9434   YX=     3.3368   ZX=    -3.9366
   XY=     3.0103   YY=    31.8035   ZY=     1.1771
   XZ=    -2.9471   YZ=     1.4862   ZZ=    28.8914
   Eigenvalues:    25.3163    31.8039    35.5181
     24  H    Isotropic =    30.6347   Anisotropy =     7.5891
   XX=    31.0866   YX=    -3.4445   ZX=     4.2240
   XY=    -3.2599   YY=    29.8764   ZY=     2.1201
   XZ=     4.7561   YZ=     2.1549   ZZ=    30.9411
   Eigenvalues:    23.9571    32.2529    35.6941
     25  H    Isotropic =    29.9143   Anisotropy =     5.0080
   XX=    31.7259   YX=     1.1036   ZX=     0.0192
   XY=     1.3069   YY=    30.5913   ZY=     2.3102
   XZ=     1.7945   YZ=     2.2738   ZZ=    27.4258
   Eigenvalues:    26.2117    30.2783    33.2530
     26  H    Isotropic =    28.7221   Anisotropy =     5.0554
   XX=    31.0082   YX=     0.5931   ZX=     2.6422
   XY=     0.5798   YY=    27.7950   ZY=    -0.7124
   XZ=     1.8844   YZ=    -2.0029   ZZ=    27.3633
   Eigenvalues:    25.3767    28.6974    32.0924
     27  H    Isotropic =    28.1797   Anisotropy =     7.3453
   XX=    29.8901   YX=    -3.8314   ZX=    -3.7776
   XY=    -2.0194   YY=    29.2689   ZY=    -2.2621
   XZ=    -3.5456   YZ=    -0.5037   ZZ=    25.3803
   Eigenvalues:    22.2864    29.1761    33.0766
     28  H    Isotropic =    31.8808   Anisotropy =    15.2598
   XX=    34.9812   YX=     6.2398   ZX=     5.9055
   XY=     6.8658   YY=    30.7058   ZY=     1.3728
   XZ=     5.5505   YZ=     0.5621   ZZ=    29.9555
   Eigenvalues:    24.2616    29.3269    42.0541
     29  H    Isotropic =    28.1770   Anisotropy =     8.5454
   XX=    28.3847   YX=    -0.9243   ZX=     2.9294
   XY=    -0.4001   YY=    25.0381   ZY=    -2.3156
   XZ=     1.8341   YZ=    -4.8991   ZZ=    31.1082
   Eigenvalues:    23.3219    27.3352    33.8740
     30  H    Isotropic =    28.3066   Anisotropy =     4.8511
   XX=    27.6980   YX=     0.7572   ZX=     0.1290
   XY=    -0.0700   YY=    28.3819   ZY=     2.5870
   XZ=    -1.5695   YZ=     3.2077   ZZ=    28.8399
   Eigenvalues:    25.4577    27.9214    31.5407
     31  H    Isotropic =    29.4057   Anisotropy =     3.0854
   XX=    31.2321   YX=    -0.5486   ZX=    -0.3201
   XY=     1.9067   YY=    29.4585   ZY=    -1.3711
   XZ=     1.5310   YZ=    -2.0004   ZZ=    27.5266
   Eigenvalues:    26.3946    30.3600    31.4627
     32  C    Isotropic =   177.7890   Anisotropy =    20.8447
   XX=   180.1446   YX=     7.9546   ZX=   -11.4975
   XY=     4.0685   YY=   176.9938   ZY=    -3.3716
   XZ=    -8.3562   YZ=    -4.1726   ZZ=   176.2286
   Eigenvalues:   167.9451   173.7365   191.6855
     33  H    Isotropic =    31.6874   Anisotropy =     8.6735
   XX=    35.3593   YX=     4.0254   ZX=    -0.3044
   XY=     3.6259   YY=    30.3921   ZY=     2.2626
   XZ=    -0.5768   YZ=     1.4824   ZZ=    29.3109
   Eigenvalues:    26.8822    30.7103    37.4698
     34  H    Isotropic =    31.6614   Anisotropy =    10.7939
   XX=    32.4746   YX=    -2.9748   ZX=    -5.2885
   XY=    -2.2931   YY=    30.8395   ZY=     2.3208
   XZ=    -4.9011   YZ=     2.7753   ZZ=    31.6700
   Eigenvalues:    26.9589    29.1679    38.8573
     35  H    Isotropic =    30.7824   Anisotropy =     8.1628
   XX=    30.2185   YX=    -0.6821   ZX=    -2.1820
   XY=    -1.4518   YY=    28.8164   ZY=    -4.4230
   XZ=    -1.0373   YZ=    -4.6118   ZZ=    33.3124
   Eigenvalues:    25.3749    30.7481    36.2243
     36  H    Isotropic =    31.0079   Anisotropy =    11.6098
   XX=    31.9169   YX=    -2.9233   ZX=     4.3053
   XY=    -5.3957   YY=    35.2182   ZY=     5.0832
   XZ=     3.6063   YZ=     6.2256   ZZ=    25.8887
   Eigenvalues:    20.6286    33.6474    38.7478
 End of Minotr F.D. properties file   721 does not exist.
 End of Minotr F.D. properties file   722 does not exist.
 End of Minotr F.D. properties file   788 does not exist.

 **********************************************************************

            Population analysis using the SCF density.

 **********************************************************************

 Orbital symmetries:
       Occupied  (A) (A) (A) (A) (A) (A) (A) (A) (A) (A) (A) (A)
                 (A) (A) (A) (A) (A) (A) (A) (A) (A) (A) (A) (A)
                 (A) (A) (A) (A) (A) (A) (A) (A) (A) (A) (A) (A)
                 (A) (A) (A) (A) (A) (A) (A) (A) (A) (A) (A) (A)
                 (A) (A) (A) (A) (A) (A) (A) (A) (A) (A) (A) (A)
                 (A) (A) (A) (A) (A)
       Virtual   (A) (A) (A) (A) (A) (A) (A) (A) (A) (A) (A) (A)
                 (A) (A) (A) (A) (A) (A) (A) (A) (A) (A) (A) (A)
                 (A) (A) (A) (A) (A) (A) (A) (A) (A) (A) (A) (A)
                 (A) (A) (A) (A) (A) (A) (A) (A) (A) (A) (A) (A)
                 (A) (A) (A) (A) (A) (A) (A) (A) (A) (A) (A) (A)
                 (A) (A) (A) (A) (A) (A) (A) (A) (A) (A) (A) (A)
                 (A) (A) (A) (A) (A) (A) (A) (A) (A) (A) (A) (A)
                 (A) (A) (A) (A) (A) (A) (A) (A) (A) (A) (A) (A)
                 (A) (A) (A) (A) (A) (A) (A) (A) (A) (A) (A) (A)
                 (A) (A) (A) (A) (A) (A) (A) (A) (A) (A) (A) (A)
                 (A) (A) (A) (A) (A) (A) (A) (A) (A) (A) (A) (A)
                 (A) (A) (A) (A) (A) (A) (A) (A) (A) (A) (A) (A)
                 (A) (A) (A) (A) (A) (A) (A) (A) (A) (A) (A) (A)
                 (A) (A) (A) (A) (A) (A) (A) (A) (A) (A) (A) (A)
                 (A) (A) (A) (A) (A) (A) (A) (A) (A) (A) (A) (A)
                 (A) (A) (A) (A) (A) (A) (A) (A) (A) (A) (A) (A)
                 (A) (A) (A) (A) (A) (A) (A) (A) (A) (A) (A) (A)
                 (A) (A) (A) (A) (A) (A) (A) (A) (A) (A) (A) (A)
                 (A) (A) (A) (A) (A) (A) (A) (A) (A) (A) (A) (A)
                 (A) (A) (A) (A) (A) (A) (A) (A) (A) (A) (A) (A)
                 (A) (A) (A) (A) (A) (A) (A) (A) (A) (A) (A) (A)
                 (A) (A) (A) (A) (A) (A) (A) (A) (A) (A) (A) (A)
                 (A) (A) (A) (A) (A) (A) (A) (A) (A) (A) (A) (A)
                 (A) (A) (A) (A) (A) (A) (A) (A) (A) (A) (A) (A)
                 (A) (A) (A) (A) (A) (A) (A) (A) (A) (A)
 The electronic state is 1-A.
 Alpha  occ. eigenvalues --  -24.81101 -24.80649 -19.20360 -14.37863 -10.33887
 Alpha  occ. eigenvalues --  -10.33838 -10.27109 -10.26711 -10.26268 -10.26028
 Alpha  occ. eigenvalues --  -10.25789 -10.25310 -10.25304 -10.23530 -10.22547
 Alpha  occ. eigenvalues --  -10.21841 -10.21481  -1.28286  -1.27903  -1.04533
 Alpha  occ. eigenvalues --   -0.94012  -0.90405  -0.82800  -0.80123  -0.78774
 Alpha  occ. eigenvalues --   -0.78292  -0.71610  -0.69163  -0.67864  -0.66245
 Alpha  occ. eigenvalues --   -0.63861  -0.62799  -0.59472  -0.57037  -0.55893
 Alpha  occ. eigenvalues --   -0.52681  -0.52178  -0.51603  -0.50714  -0.50344
 Alpha  occ. eigenvalues --   -0.49853  -0.48478  -0.48164  -0.47225  -0.45748
 Alpha  occ. eigenvalues --   -0.44199  -0.43314  -0.42245  -0.41740  -0.41707
 Alpha  occ. eigenvalues --   -0.40840  -0.39850  -0.39031  -0.38158  -0.37956
 Alpha  occ. eigenvalues --   -0.37895  -0.36571  -0.35000  -0.33945  -0.33125
 Alpha  occ. eigenvalues --   -0.31867  -0.28244  -0.27685  -0.26945  -0.23789
 Alpha virt. eigenvalues --   -0.02117  -0.01109   0.05108   0.05982   0.06147
 Alpha virt. eigenvalues --    0.06927   0.07487   0.10083   0.10389   0.10475
 Alpha virt. eigenvalues --    0.11421   0.11889   0.12719   0.13102   0.13439
 Alpha virt. eigenvalues --    0.13580   0.14503   0.15035   0.16075   0.16648
 Alpha virt. eigenvalues --    0.17117   0.17489   0.18665   0.20344   0.20905
 Alpha virt. eigenvalues --    0.21494   0.22672   0.23643   0.24792   0.25040
 Alpha virt. eigenvalues --    0.25215   0.25918   0.26832   0.27610   0.28780
 Alpha virt. eigenvalues --    0.31525   0.32830   0.33870   0.34826   0.35916
 Alpha virt. eigenvalues --    0.36254   0.36717   0.37978   0.38431   0.39274
 Alpha virt. eigenvalues --    0.40342   0.40656   0.41211   0.41914   0.42529
 Alpha virt. eigenvalues --    0.43252   0.43881   0.45011   0.45671   0.46045
 Alpha virt. eigenvalues --    0.47227   0.47994   0.49613   0.50632   0.52109
 Alpha virt. eigenvalues --    0.52995   0.53627   0.54782   0.54816   0.55935
 Alpha virt. eigenvalues --    0.56858   0.57398   0.57832   0.58741   0.59420
 Alpha virt. eigenvalues --    0.59939   0.60110   0.61120   0.61796   0.62323
 Alpha virt. eigenvalues --    0.62853   0.63309   0.63851   0.63936   0.64689
 Alpha virt. eigenvalues --    0.65419   0.65629   0.66261   0.66963   0.67609
 Alpha virt. eigenvalues --    0.68533   0.69700   0.70362   0.71739   0.72220
 Alpha virt. eigenvalues --    0.72588   0.73512   0.75125   0.76210   0.77623
 Alpha virt. eigenvalues --    0.78411   0.79583   0.80770   0.82101   0.85843
 Alpha virt. eigenvalues --    0.88127   0.88948   0.91112   0.92009   0.93025
 Alpha virt. eigenvalues --    0.96241   0.96845   0.97579   0.98345   1.00357
 Alpha virt. eigenvalues --    1.01181   1.02769   1.04697   1.05681   1.07720
 Alpha virt. eigenvalues --    1.08890   1.10277   1.12002   1.12071   1.15094
 Alpha virt. eigenvalues --    1.16676   1.19482   1.20049   1.21677   1.24112
 Alpha virt. eigenvalues --    1.25099   1.27879   1.28250   1.29484   1.32708
 Alpha virt. eigenvalues --    1.33390   1.36672   1.37952   1.39245   1.43113
 Alpha virt. eigenvalues --    1.44700   1.46768   1.48327   1.49148   1.50059
 Alpha virt. eigenvalues --    1.51430   1.53220   1.53624   1.54153   1.55430
 Alpha virt. eigenvalues --    1.55844   1.56426   1.58867   1.59385   1.62118
 Alpha virt. eigenvalues --    1.63569   1.64367   1.64889   1.66900   1.67303
 Alpha virt. eigenvalues --    1.68433   1.69954   1.71187   1.73315   1.74017
 Alpha virt. eigenvalues --    1.74864   1.76365   1.78239   1.79698   1.81255
 Alpha virt. eigenvalues --    1.82533   1.83751   1.85403   1.88078   1.89353
 Alpha virt. eigenvalues --    1.89560   1.91047   1.91427   1.95220   1.96466
 Alpha virt. eigenvalues --    1.97686   1.99453   1.99545   2.00175   2.03578
 Alpha virt. eigenvalues --    2.06007   2.14291   2.16743   2.17511   2.19285
 Alpha virt. eigenvalues --    2.19499   2.23101   2.24946   2.26287   2.27798
 Alpha virt. eigenvalues --    2.30217   2.33480   2.34837   2.37352   2.40599
 Alpha virt. eigenvalues --    2.42433   2.43034   2.43812   2.44857   2.45217
 Alpha virt. eigenvalues --    2.49358   2.50762   2.51428   2.52323   2.53591
 Alpha virt. eigenvalues --    2.55495   2.56559   2.60002   2.63507   2.67023
 Alpha virt. eigenvalues --    2.67685   2.69620   2.71221   2.72545   2.75242
 Alpha virt. eigenvalues --    2.77532   2.83649   2.84861   2.86720   2.89406
 Alpha virt. eigenvalues --    2.92166   2.96331   2.99401   3.01085   3.04293
 Alpha virt. eigenvalues --    3.06574   3.07243   3.08296   3.10226   3.12608
 Alpha virt. eigenvalues --    3.14566   3.16743   3.18357   3.21031   3.21771
 Alpha virt. eigenvalues --    3.23135   3.24460   3.27737   3.28716   3.29408
 Alpha virt. eigenvalues --    3.30420   3.32159   3.35888   3.36781   3.41678
 Alpha virt. eigenvalues --    3.44417   3.47904   3.51234   3.59984   3.65487
 Alpha virt. eigenvalues --    3.73214   3.79119   3.79634   3.79699   3.80855
 Alpha virt. eigenvalues --    3.85292   3.88091   3.96262   3.96571   3.99319
 Alpha virt. eigenvalues --    3.99967   4.04536   4.07445   4.10210   4.12322
 Alpha virt. eigenvalues --    4.16819   4.18693   4.46151   4.75494   4.77489
 Alpha virt. eigenvalues --    4.79977   4.80975   4.96919   5.06028   5.41519
 Alpha virt. eigenvalues --    6.13897   6.17517   6.32198   6.32786   6.57182
 Alpha virt. eigenvalues --    6.60115  23.30185  23.46793  23.59051  23.69912
 Alpha virt. eigenvalues --   23.73607  23.79274  23.83467  23.84605  23.87009
 Alpha virt. eigenvalues --   23.90410  24.08795  24.11032  24.19390  35.59164
 Alpha virt. eigenvalues --   49.96843  66.89225  66.90114
          Condensed to atoms (all electrons):
               1          2          3          4          5          6
     1  C    5.349018   0.310933  -0.069325   0.008576  -0.000188  -0.000096
     2  C    0.310933   5.340328   0.310055  -0.055813  -0.005146   0.000092
     3  C   -0.069325   0.310055   5.393805   0.268190  -0.068871  -0.012981
     4  C    0.008576  -0.055813   0.268190   5.509699   0.344520  -0.045521
     5  C   -0.000188  -0.005146  -0.068871   0.344520   5.086089   0.231397
     6  O   -0.000096   0.000092  -0.012981  -0.045521   0.231397   8.186472
     7  N    0.000333  -0.055449   0.248327  -0.055014   0.003760   0.000253
     8  C   -0.000381   0.008797  -0.090875  -0.006170  -0.000054  -0.000160
     9  C   -0.000007   0.000002   0.000132  -0.000009   0.000002  -0.000008
    10  C   -0.000004   0.000003  -0.000750   0.000012  -0.000006  -0.000027
    11  C   -0.000031   0.000168  -0.000729   0.000176   0.000091   0.001240
    12  C    0.000300  -0.000543  -0.009125  -0.002629   0.000333   0.000064
    13  C    0.000136  -0.000085   0.000654   0.000051   0.000007  -0.000007
    14  C    0.000014  -0.000010  -0.000127   0.000017  -0.000001   0.000001
    15  H    0.000000   0.000000   0.000000   0.000000   0.000000   0.000000
    16  H    0.000001  -0.000001  -0.000025   0.000007  -0.000009   0.000050
    17  H    0.000005  -0.000001   0.000002   0.000000   0.000000   0.000000
    18  F    0.000000   0.000029   0.001588  -0.000803  -0.000882  -0.001338
    19  F   -0.000062  -0.000001  -0.000149   0.000000   0.000000   0.000000
    20  H    0.385357  -0.043148  -0.003045  -0.000001   0.000143  -0.000243
    21  H    0.394390  -0.037897   0.007942  -0.000147  -0.000019   0.000001
    22  H    0.385140  -0.038551  -0.006742  -0.000208  -0.000009  -0.000003
    23  H   -0.047031   0.391498  -0.042081  -0.009509   0.000722  -0.000068
    24  H   -0.041548   0.397229  -0.043988  -0.007965   0.001121   0.001266
    25  H   -0.000248   0.007872  -0.066692   0.408678  -0.048328   0.000810
    26  H    0.000035   0.004652  -0.014543  -0.032024   0.375609  -0.028553
    27  H    0.000011  -0.000357   0.010345  -0.049296   0.399380  -0.034636
    28  H    0.000004   0.000193  -0.001269   0.002919  -0.054373   0.259095
    29  H    0.000043  -0.000264   0.007672   0.000092   0.000014  -0.000003
    30  H    0.000012  -0.000262  -0.009618   0.001814  -0.000003  -0.000130
    31  H   -0.012396  -0.039654   0.395189  -0.075278  -0.008143   0.029795
    32  C   -0.000219  -0.009353  -0.067904   0.251531  -0.077345   0.006124
    33  H    0.000209   0.003890  -0.010223  -0.035010  -0.005622  -0.000044
    34  H    0.000010  -0.000238   0.009223  -0.039010  -0.003553  -0.000076
    35  H   -0.000202  -0.001468  -0.007706  -0.031689   0.006630  -0.000207
    36  H    0.006075  -0.013158  -0.057079   0.007874  -0.000322   0.000030
               7          8          9         10         11         12
     1  C    0.000333  -0.000381  -0.000007  -0.000004  -0.000031   0.000300
     2  C   -0.055449   0.008797   0.000002   0.000003   0.000168  -0.000543
     3  C    0.248327  -0.090875   0.000132  -0.000750  -0.000729  -0.009125
     4  C   -0.055014  -0.006170  -0.000009   0.000012   0.000176  -0.002629
     5  C    0.003760  -0.000054   0.000002  -0.000006   0.000091   0.000333
     6  O    0.000253  -0.000160  -0.000008  -0.000027   0.001240   0.000064
     7  N    6.925709   0.317744  -0.000070   0.000054  -0.000014  -0.090292
     8  C    0.317744   5.344409  -0.001383   0.008578  -0.064745   0.205302
     9  C   -0.000070  -0.001383   5.064281   0.430212   0.000239  -0.059060
    10  C    0.000054   0.008578   0.430212   5.193734   0.468888  -0.034113
    11  C   -0.000014  -0.064745   0.000239   0.468888   4.745537   0.308275
    12  C   -0.090292   0.205302  -0.059060  -0.034113   0.308275   5.874689
    13  C    0.000249  -0.076439  -0.003165  -0.059874   0.043970   0.253727
    14  C    0.000523   0.008982   0.429623  -0.033476  -0.066781  -0.031179
    15  H   -0.000001   0.000027   0.405975  -0.041445   0.006333  -0.002132
    16  H    0.000019  -0.000259  -0.040840   0.392691  -0.049349   0.011736
    17  H    0.000037  -0.000251  -0.041565   0.007495  -0.001553   0.012879
    18  F   -0.000121  -0.003666   0.005440  -0.052443   0.286846  -0.071359
    19  F   -0.002360   0.005739   0.005638  -0.000634   0.004887  -0.086537
    20  H   -0.000336  -0.000194   0.000013  -0.000002  -0.000018   0.000276
    21  H    0.000037   0.000027   0.000000   0.000000   0.000001  -0.000008
    22  H    0.000783  -0.000262   0.000000  -0.000001   0.000007   0.000322
    23  H    0.004661  -0.000157   0.000000  -0.000001  -0.000013   0.000245
    24  H    0.004847  -0.000438  -0.000001   0.000001   0.000016   0.000085
    25  H   -0.004488   0.002716  -0.000024   0.000258   0.000307  -0.002939
    26  H   -0.000055  -0.000026   0.000000   0.000000   0.000014   0.000003
    27  H   -0.000109  -0.000009   0.000000  -0.000001   0.000015  -0.000004
    28  H   -0.000160   0.000123   0.000045  -0.000216  -0.001461   0.000113
    29  H   -0.032737   0.413371  -0.000123  -0.000076   0.005127  -0.057939
    30  H   -0.029061   0.408882  -0.000197   0.000833  -0.010952  -0.062557
    31  H   -0.048894  -0.010301  -0.000155  -0.000329  -0.001962   0.008191
    32  C   -0.007108  -0.000229   0.000000   0.000001   0.000031   0.000019
    33  H   -0.000332   0.000018   0.000000   0.000000   0.000001  -0.000016
    34  H   -0.000225  -0.000044   0.000000   0.000000   0.000001  -0.000005
    35  H    0.018480  -0.000141   0.000000  -0.000001  -0.000026   0.000645
    36  H    0.344945  -0.051342  -0.000132   0.000196  -0.000973  -0.011235
              13         14         15         16         17         18
     1  C    0.000136   0.000014   0.000000   0.000001   0.000005   0.000000
     2  C   -0.000085  -0.000010   0.000000  -0.000001  -0.000001   0.000029
     3  C    0.000654  -0.000127   0.000000  -0.000025   0.000002   0.001588
     4  C    0.000051   0.000017   0.000000   0.000007   0.000000  -0.000803
     5  C    0.000007  -0.000001   0.000000  -0.000009   0.000000  -0.000882
     6  O   -0.000007   0.000001   0.000000   0.000050   0.000000  -0.001338
     7  N    0.000249   0.000523  -0.000001   0.000019   0.000037  -0.000121
     8  C   -0.076439   0.008982   0.000027  -0.000259  -0.000251  -0.003666
     9  C   -0.003165   0.429623   0.405975  -0.040840  -0.041565   0.005440
    10  C   -0.059874  -0.033476  -0.041445   0.392691   0.007495  -0.052443
    11  C    0.043970  -0.066781   0.006333  -0.049349  -0.001553   0.286846
    12  C    0.253727  -0.031179  -0.002132   0.011736   0.012879  -0.071359
    13  C    4.749010   0.474016   0.006467  -0.001443  -0.052407   0.004620
    14  C    0.474016   5.195890  -0.041764   0.007284   0.394123  -0.000430
    15  H    0.006467  -0.041764   0.446211  -0.006688  -0.006787  -0.000072
    16  H   -0.001443   0.007284  -0.006688   0.450202  -0.000161   0.000718
    17  H   -0.052407   0.394123  -0.006787  -0.000161   0.451450   0.000005
    18  F    0.004620  -0.000430  -0.000072   0.000718   0.000005   9.052194
    19  F    0.320088  -0.055480  -0.000070   0.000003   0.001549  -0.000001
    20  H    0.000201   0.000097   0.000000   0.000000   0.000002  -0.000005
    21  H    0.000006   0.000000   0.000000   0.000000   0.000000   0.000000
    22  H    0.000018  -0.000031   0.000000   0.000000   0.000005   0.000000
    23  H   -0.000012  -0.000001   0.000000   0.000000   0.000000   0.000000
    24  H   -0.000001   0.000000   0.000000   0.000000   0.000000  -0.000001
    25  H   -0.000033   0.000009   0.000000  -0.000007   0.000000   0.005828
    26  H    0.000000   0.000000   0.000000   0.000000   0.000000  -0.000022
    27  H    0.000000   0.000000   0.000000   0.000001   0.000000  -0.000074
    28  H   -0.000020   0.000004   0.000000   0.000109   0.000000   0.011215
    29  H   -0.010919   0.000648   0.000002   0.000015  -0.000023   0.000150
    30  H    0.006726   0.000146   0.000001  -0.000018   0.000015   0.005817
    31  H    0.000153  -0.000331   0.000002  -0.000009  -0.000010   0.001172
    32  C   -0.000004   0.000000   0.000000   0.000000   0.000000   0.000112
    33  H    0.000000   0.000000   0.000000   0.000000   0.000000  -0.000001
    34  H    0.000000   0.000000   0.000000   0.000000   0.000000  -0.000004
    35  H   -0.000007   0.000000   0.000000   0.000000   0.000000  -0.000009
    36  H    0.003404   0.000506   0.000002   0.000000  -0.000002  -0.000080
              19         20         21         22         23         24
     1  C   -0.000062   0.385357   0.394390   0.385140  -0.047031  -0.041548
     2  C   -0.000001  -0.043148  -0.037897  -0.038551   0.391498   0.397229
     3  C   -0.000149  -0.003045   0.007942  -0.006742  -0.042081  -0.043988
     4  C    0.000000  -0.000001  -0.000147  -0.000208  -0.009509  -0.007965
     5  C    0.000000   0.000143  -0.000019  -0.000009   0.000722   0.001121
     6  O    0.000000  -0.000243   0.000001  -0.000003  -0.000068   0.001266
     7  N   -0.002360  -0.000336   0.000037   0.000783   0.004661   0.004847
     8  C    0.005739  -0.000194   0.000027  -0.000262  -0.000157  -0.000438
     9  C    0.005638   0.000013   0.000000   0.000000   0.000000  -0.000001
    10  C   -0.000634  -0.000002   0.000000  -0.000001  -0.000001   0.000001
    11  C    0.004887  -0.000018   0.000001   0.000007  -0.000013   0.000016
    12  C   -0.086537   0.000276  -0.000008   0.000322   0.000245   0.000085
    13  C    0.320088   0.000201   0.000006   0.000018  -0.000012  -0.000001
    14  C   -0.055480   0.000097   0.000000  -0.000031  -0.000001   0.000000
    15  H   -0.000070   0.000000   0.000000   0.000000   0.000000   0.000000
    16  H    0.000003   0.000000   0.000000   0.000000   0.000000   0.000000
    17  H    0.001549   0.000002   0.000000   0.000005   0.000000   0.000000
    18  F   -0.000001  -0.000005   0.000000   0.000000   0.000000  -0.000001
    19  F    9.028287  -0.000031  -0.000001   0.000079  -0.000002   0.000000
    20  H   -0.000031   0.480468  -0.026710  -0.028652   0.007725  -0.004810
    21  H   -0.000001  -0.026710   0.471196  -0.027235  -0.004077  -0.006653
    22  H    0.000079  -0.028652  -0.027235   0.489458  -0.006239   0.007670
    23  H   -0.000002   0.007725  -0.004077  -0.006239   0.494416  -0.029685
    24  H    0.000000  -0.004810  -0.006653   0.007670  -0.029685   0.483665
    25  H   -0.000001  -0.000025   0.000020   0.000004  -0.000412   0.000100
    26  H    0.000000   0.000091   0.000033  -0.000009   0.000131   0.002330
    27  H    0.000000  -0.000013  -0.000001   0.000002  -0.000127   0.000490
    28  H    0.000000   0.000023   0.000000  -0.000002   0.000018  -0.000146
    29  H    0.005072   0.000015  -0.000002   0.000059  -0.000025   0.000017
    30  H    0.000177   0.000004   0.000003  -0.000034  -0.000055  -0.000026
    31  H    0.000066   0.004989  -0.000347  -0.000331   0.008476  -0.000172
    32  C    0.000000  -0.000023   0.000002  -0.000020   0.001980  -0.000104
    33  H    0.000000  -0.000021   0.000018   0.000008  -0.001739   0.000209
    34  H    0.000000   0.000001  -0.000001  -0.000002   0.000139  -0.000112
    35  H    0.000000   0.000009  -0.000010   0.000008   0.002010   0.000159
    36  H    0.008712  -0.000466  -0.000095   0.003699  -0.000602   0.000387
              25         26         27         28         29         30
     1  C   -0.000248   0.000035   0.000011   0.000004   0.000043   0.000012
     2  C    0.007872   0.004652  -0.000357   0.000193  -0.000264  -0.000262
     3  C   -0.066692  -0.014543   0.010345  -0.001269   0.007672  -0.009618
     4  C    0.408678  -0.032024  -0.049296   0.002919   0.000092   0.001814
     5  C   -0.048328   0.375609   0.399380  -0.054373   0.000014  -0.000003
     6  O    0.000810  -0.028553  -0.034636   0.259095  -0.000003  -0.000130
     7  N   -0.004488  -0.000055  -0.000109  -0.000160  -0.032737  -0.029061
     8  C    0.002716  -0.000026  -0.000009   0.000123   0.413371   0.408882
     9  C   -0.000024   0.000000   0.000000   0.000045  -0.000123  -0.000197
    10  C    0.000258   0.000000  -0.000001  -0.000216  -0.000076   0.000833
    11  C    0.000307   0.000014   0.000015  -0.001461   0.005127  -0.010952
    12  C   -0.002939   0.000003  -0.000004   0.000113  -0.057939  -0.062557
    13  C   -0.000033   0.000000   0.000000  -0.000020  -0.010919   0.006726
    14  C    0.000009   0.000000   0.000000   0.000004   0.000648   0.000146
    15  H    0.000000   0.000000   0.000000   0.000000   0.000002   0.000001
    16  H   -0.000007   0.000000   0.000001   0.000109   0.000015  -0.000018
    17  H    0.000000   0.000000   0.000000   0.000000  -0.000023   0.000015
    18  F    0.005828  -0.000022  -0.000074   0.011215   0.000150   0.005817
    19  F   -0.000001   0.000000   0.000000   0.000000   0.005072   0.000177
    20  H   -0.000025   0.000091  -0.000013   0.000023   0.000015   0.000004
    21  H    0.000020   0.000033  -0.000001   0.000000  -0.000002   0.000003
    22  H    0.000004  -0.000009   0.000002  -0.000002   0.000059  -0.000034
    23  H   -0.000412   0.000131  -0.000127   0.000018  -0.000025  -0.000055
    24  H    0.000100   0.002330   0.000490  -0.000146   0.000017  -0.000026
    25  H    0.517507   0.009057  -0.011897   0.007883   0.000427   0.000223
    26  H    0.009057   0.493869  -0.042021   0.007581   0.000002  -0.000050
    27  H   -0.011897  -0.042021   0.513312  -0.006614  -0.000003   0.000105
    28  H    0.007883   0.007581  -0.006614   0.380062  -0.000006  -0.000370
    29  H    0.000427   0.000002  -0.000003  -0.000006   0.449322  -0.026656
    30  H    0.000223  -0.000050   0.000105  -0.000370  -0.026656   0.443800
    31  H   -0.007357  -0.002423   0.001644  -0.003359  -0.000426  -0.000664
    32  C   -0.037147  -0.002053  -0.000323  -0.000817  -0.000083   0.000519
    33  H    0.007822   0.004508  -0.001028   0.000017   0.000011  -0.000068
    34  H   -0.008327  -0.001118   0.005818  -0.000107  -0.000007   0.000110
    35  H   -0.005992  -0.000293  -0.000256   0.000057  -0.000135  -0.000465
    36  H   -0.000455  -0.000028   0.000023  -0.000003  -0.008941   0.006779
              31         32         33         34         35         36
     1  C   -0.012396  -0.000219   0.000209   0.000010  -0.000202   0.006075
     2  C   -0.039654  -0.009353   0.003890  -0.000238  -0.001468  -0.013158
     3  C    0.395189  -0.067904  -0.010223   0.009223  -0.007706  -0.057079
     4  C   -0.075278   0.251531  -0.035010  -0.039010  -0.031689   0.007874
     5  C   -0.008143  -0.077345  -0.005622  -0.003553   0.006630  -0.000322
     6  O    0.029795   0.006124  -0.000044  -0.000076  -0.000207   0.000030
     7  N   -0.048894  -0.007108  -0.000332  -0.000225   0.018480   0.344945
     8  C   -0.010301  -0.000229   0.000018  -0.000044  -0.000141  -0.051342
     9  C   -0.000155   0.000000   0.000000   0.000000   0.000000  -0.000132
    10  C   -0.000329   0.000001   0.000000   0.000000  -0.000001   0.000196
    11  C   -0.001962   0.000031   0.000001   0.000001  -0.000026  -0.000973
    12  C    0.008191   0.000019  -0.000016  -0.000005   0.000645  -0.011235
    13  C    0.000153  -0.000004   0.000000   0.000000  -0.000007   0.003404
    14  C   -0.000331   0.000000   0.000000   0.000000   0.000000   0.000506
    15  H    0.000002   0.000000   0.000000   0.000000   0.000000   0.000002
    16  H   -0.000009   0.000000   0.000000   0.000000   0.000000   0.000000
    17  H   -0.000010   0.000000   0.000000   0.000000   0.000000  -0.000002
    18  F    0.001172   0.000112  -0.000001  -0.000004  -0.000009  -0.000080
    19  F    0.000066   0.000000   0.000000   0.000000   0.000000   0.008712
    20  H    0.004989  -0.000023  -0.000021   0.000001   0.000009  -0.000466
    21  H   -0.000347   0.000002   0.000018  -0.000001  -0.000010  -0.000095
    22  H   -0.000331  -0.000020   0.000008  -0.000002   0.000008   0.003699
    23  H    0.008476   0.001980  -0.001739   0.000139   0.002010  -0.000602
    24  H   -0.000172  -0.000104   0.000209  -0.000112   0.000159   0.000387
    25  H   -0.007357  -0.037147   0.007822  -0.008327  -0.005992  -0.000455
    26  H   -0.002423  -0.002053   0.004508  -0.001118  -0.000293  -0.000028
    27  H    0.001644  -0.000323  -0.001028   0.005818  -0.000256   0.000023
    28  H   -0.003359  -0.000817   0.000017  -0.000107   0.000057  -0.000003
    29  H   -0.000426  -0.000083   0.000011  -0.000007  -0.000135  -0.008941
    30  H   -0.000664   0.000519  -0.000068   0.000110  -0.000465   0.006779
    31  H    0.521471   0.009809  -0.000399  -0.000038   0.000797   0.001621
    32  C    0.009809   5.437495   0.386664   0.389163   0.376584  -0.000099
    33  H   -0.000399   0.386664   0.482181  -0.030602  -0.026086  -0.000073
    34  H   -0.000038   0.389163  -0.030602   0.483381  -0.026893   0.000046
    35  H    0.000797   0.376584  -0.026086  -0.026893   0.459907  -0.000254
    36  H    0.001621  -0.000099  -0.000073   0.000046  -0.000254   0.429388
 Mulliken charges:
               1
     1  C   -0.668864
     2  C   -0.474343
     3  C   -0.069277
     4  C   -0.358061
     5  C   -0.176946
     6  O   -0.592586
     7  N   -0.543935
     8  C   -0.417189
     9  C   -0.194863
    10  C   -0.279563
    11  C    0.326439
    12  C   -0.155534
    13  C    0.340916
    14  C   -0.282272
    15  H    0.233940
    16  H    0.235975
    17  H    0.235196
    18  F   -0.244422
    19  F   -0.234969
    20  H    0.228332
    21  H    0.229528
    22  H    0.221069
    23  H    0.229816
    24  H    0.236060
    25  H    0.224851
    26  H    0.225301
    27  H    0.215622
    28  H    0.399461
    29  H    0.256310
    30  H    0.265218
    31  H    0.229606
    32  C   -0.657201
    33  H    0.225708
    34  H    0.222470
    35  H    0.236554
    36  H    0.331654
 Sum of Mulliken charges =   0.00000
 Mulliken charges with hydrogens summed into heavy atoms:
               1
     1  C    0.010065
     2  C   -0.008467
     3  C    0.160329
     4  C   -0.133210
     5  C    0.263978
     6  O   -0.193126
     7  N   -0.212281
     8  C    0.104339
     9  C    0.039076
    10  C   -0.043588
    11  C    0.326439
    12  C   -0.155534
    13  C    0.340916
    14  C   -0.047077
    18  F   -0.244422
    19  F   -0.234969
    32  C    0.027531
 Electronic spatial extent (au):  <R**2>=           4312.4394
 Charge=              0.0000 electrons
 Dipole moment (field-independent basis, Debye):
    X=             -1.9816    Y=             -0.5282    Z=             -0.1537  Tot=              2.0566
 Quadrupole moment (field-independent basis, Debye-Ang):
   XX=            -93.1614   YY=           -101.7166   ZZ=           -105.4066
   XY=              3.6447   XZ=             -6.4126   YZ=              4.9436
 Traceless Quadrupole moment (field-independent basis, Debye-Ang):
   XX=              6.9335   YY=             -1.6218   ZZ=             -5.3117
   XY=              3.6447   XZ=             -6.4126   YZ=              4.9436
 Octapole moment (field-independent basis, Debye-Ang**2):
  XXX=            -36.2452  YYY=            -17.4214  ZZZ=            -15.4703  XYY=            -11.2795
  XXY=             -8.4861  XXZ=             23.7957  XZZ=            -14.6625  YZZ=              2.9712
  YYZ=             -0.6067  XYZ=             20.6750
 Hexadecapole moment (field-independent basis, Debye-Ang**3):
 XXXX=          -3263.7695 YYYY=          -1362.1381 ZZZZ=           -778.4553 XXXY=            -41.3993
 XXXZ=            -81.1892 YYYX=             -9.2923 YYYZ=             -2.6317 ZZZX=             20.6590
 ZZZY=              3.7432 XXYY=           -800.5542 XXZZ=           -701.4707 YYZZ=           -382.6085
 XXYZ=             11.8838 YYXZ=            -31.9667 ZZXY=              5.5826
 N-N= 1.312832606029D+03 E-N=-4.583579169092D+03  KE= 8.333148298866D+02
 1\1\GINC-CPU-E-279\SP\RmPW1PW91\6-311G(d)\C13H19F2N1O1\AH809\04-Mar-20
 19\0\\# mPW1PW91/6-311g(d) nmr=giao scrf=(solvent=chloroform)\\AT3_1gi
 np010\\0,1\C,0,-0.492117,-1.030538,1.101023\C,0,-0.986873,0.095411,2.0
 05223\C,0,-0.087677,1.358091,1.977084\C,0,-0.441821,2.363772,3.118374\
 C,0,-0.100376,1.821692,4.515343\O,0,1.268627,1.442315,4.595685\N,0,-0.
 192529,1.989053,0.644139\C,0,0.827797,3.00225,0.349803\C,0,4.85287,1.4
 48353,0.128697\C,0,4.43787,2.161182,1.252431\C,0,3.138128,2.662309,1.3
 15193\C,0,2.230063,2.469513,0.271777\C,0,2.664639,1.748061,-0.841367\C
 ,0,3.960744,1.240586,-0.921903\H,0,5.863968,1.052804,0.074252\H,0,5.11
 6325,2.326044,2.084317\H,0,4.263316,0.683649,-1.803795\F,0,2.761756,3.
 327968,2.417778\F,0,1.823902,1.526797,-1.86227\H,0,0.547883,-1.286593,
 1.326722\H,0,-1.101136,-1.927188,1.256544\H,0,-0.563352,-0.767824,0.04
 2003\H,0,-2.015632,0.347428,1.720393\H,0,-1.03254,-0.306487,3.022566\H
 ,0,0.189076,3.251268,2.991144\H,0,-0.711446,0.95505,4.78231\H,0,-0.277
 218,2.589019,5.277254\H,0,1.801008,2.208664,4.313931\H,0,0.580241,3.44
 7214,-0.622932\H,0,0.768113,3.84461,1.046871\H,0,0.939777,1.007298,2.1
 25399\C,0,-1.89826,2.837097,3.084903\H,0,-2.594358,2.021825,3.305992\H
 ,0,-2.06214,3.620097,3.833602\H,0,-2.159784,3.258278,2.109281\H,0,-0.1
 39935,1.279434,-0.085726\\Version=ES64L-G09RevD.01\State=1-A\HF=-836.4
 596604\RMSD=7.134e-09\Dipole=0.6993967,0.1746736,-0.367438\Quadrupole=
 5.6574418,-0.7497373,-4.9077044,0.0088787,-4.0589099,4.5377452\PG=C01 
 [X(C13H19F2N1O1)]\\@


 Everywhere is walking distance if you have the time.
                                    -- Steven Wright
 Job cpu time:       0 days  0 hours 17 minutes 56.1 seconds.
 File lengths (MBytes):  RWF=    177 Int=      0 D2E=      0 Chk=     10 Scr=      1
 Normal termination of Gaussian 09 at Mon Mar  4 11:29:52 2019.
