 Entering Gaussian System, Link 0=/usr/local/Cluster-Apps/gaussian/g09/g09
 Initial command:
 /usr/local/Cluster-Apps/gaussian/g09/l1.exe "/home/ah809/rds/hpc-work/04Mar1111AT3/Gau-282039.inp" -scrdir="/home/ah809/rds/hpc-work/04Mar1111AT3/"
 Entering Link 1 = /usr/local/Cluster-Apps/gaussian/g09/l1.exe PID=    282045.
  
 Copyright (c) 1988,1990,1992,1993,1995,1998,2003,2009,2013,
            Gaussian, Inc.  All Rights Reserved.
  
 This is part of the Gaussian(R) 09 program.  It is based on
 the Gaussian(R) 03 system (copyright 2003, Gaussian, Inc.),
 the Gaussian(R) 98 system (copyright 1998, Gaussian, Inc.),
 the Gaussian(R) 94 system (copyright 1995, Gaussian, Inc.),
 the Gaussian 92(TM) system (copyright 1992, Gaussian, Inc.),
 the Gaussian 90(TM) system (copyright 1990, Gaussian, Inc.),
 the Gaussian 88(TM) system (copyright 1988, Gaussian, Inc.),
 the Gaussian 86(TM) system (copyright 1986, Carnegie Mellon
 University), and the Gaussian 82(TM) system (copyright 1983,
 Carnegie Mellon University). Gaussian is a federally registered
 trademark of Gaussian, Inc.
  
 This software contains proprietary and confidential information,
 including trade secrets, belonging to Gaussian, Inc.
  
 This software is provided under written license and may be
 used, copied, transmitted, or stored only in accord with that
 written license.
  
 The following legend is applicable only to US Government
 contracts under FAR:
  
                    RESTRICTED RIGHTS LEGEND
  
 Use, reproduction and disclosure by the US Government is
 subject to restrictions as set forth in subparagraphs (a)
 and (c) of the Commercial Computer Software - Restricted
 Rights clause in FAR 52.227-19.
  
 Gaussian, Inc.
 340 Quinnipiac St., Bldg. 40, Wallingford CT 06492
  
  
 ---------------------------------------------------------------
 Warning -- This program may not be used in any manner that
 competes with the business of Gaussian, Inc. or will provide
 assistance to any competitor of Gaussian, Inc.  The licensee
 of this program is prohibited from giving any competitor of
 Gaussian, Inc. access to this program.  By using this program,
 the user acknowledges that Gaussian, Inc. is engaged in the
 business of creating and licensing software in the field of
 computational chemistry and represents and warrants to the
 licensee that it is not a competitor of Gaussian, Inc. and that
 it will not use this program in any manner prohibited above.
 ---------------------------------------------------------------
  

 Cite this work as:
 Gaussian 09, Revision D.01,
 M. J. Frisch, G. W. Trucks, H. B. Schlegel, G. E. Scuseria, 
 M. A. Robb, J. R. Cheeseman, G. Scalmani, V. Barone, B. Mennucci, 
 G. A. Petersson, H. Nakatsuji, M. Caricato, X. Li, H. P. Hratchian, 
 A. F. Izmaylov, J. Bloino, G. Zheng, J. L. Sonnenberg, M. Hada, 
 M. Ehara, K. Toyota, R. Fukuda, J. Hasegawa, M. Ishida, T. Nakajima, 
 Y. Honda, O. Kitao, H. Nakai, T. Vreven, J. A. Montgomery, Jr., 
 J. E. Peralta, F. Ogliaro, M. Bearpark, J. J. Heyd, E. Brothers, 
 K. N. Kudin, V. N. Staroverov, T. Keith, R. Kobayashi, J. Normand, 
 K. Raghavachari, A. Rendell, J. C. Burant, S. S. Iyengar, J. Tomasi, 
 M. Cossi, N. Rega, J. M. Millam, M. Klene, J. E. Knox, J. B. Cross, 
 V. Bakken, C. Adamo, J. Jaramillo, R. Gomperts, R. E. Stratmann, 
 O. Yazyev, A. J. Austin, R. Cammi, C. Pomelli, J. W. Ochterski, 
 R. L. Martin, K. Morokuma, V. G. Zakrzewski, G. A. Voth, 
 P. Salvador, J. J. Dannenberg, S. Dapprich, A. D. Daniels, 
 O. Farkas, J. B. Foresman, J. V. Ortiz, J. Cioslowski, 
 and D. J. Fox, Gaussian, Inc., Wallingford CT, 2013.
 
 ******************************************
 Gaussian 09:  ES64L-G09RevD.01 24-Apr-2013
                 4-Mar-2019 
 ******************************************
 %nprocshared=8
 Will use up to    8 processors via shared memory.
 %mem=6000MB
 %chk=AT3_2ginp007.chk
 -------------------------------------------------------
 # mPW1PW91/6-311g(d) nmr=giao scrf=(solvent=chloroform)
 -------------------------------------------------------
 1/38=1/1;
 2/12=2,17=6,18=5,40=1/2;
 3/5=4,6=6,7=1,11=2,16=1,25=1,30=1,70=2201,72=7,74=-7/1,2,8,3;
 4//1;
 5/5=2,38=5,53=7/2;
 8/6=1,10=90,11=11/1;
 10/13=100,45=16/2;
 6/7=2,8=2,9=2,10=2,28=1/1;
 99/9=1/99;
 ------------
 AT3_2ginp007
 ------------
 Symbolic Z-matrix:
 Charge =  0 Multiplicity = 1
 C                    -2.28476  -0.2173   -0.82375 
 C                    -2.19443   0.01273   0.68245 
 C                    -2.9961   -1.01713   1.51697 
 C                    -2.66608  -0.94172   3.03825 
 C                    -2.96725   0.43322   3.65429 
 O                    -2.81118   0.3872    5.07125 
 N                    -4.44036  -0.81154   1.29861 
 C                    -5.22822  -2.02456   1.54066 
 C                    -9.44571  -1.1608    1.20031 
 C                    -8.83239  -1.18022   2.45222 
 C                    -7.47076  -1.46436   2.55438 
 C                    -6.69705  -1.73762   1.42529 
 C                    -7.32887  -1.70735   0.18107 
 C                    -8.68899  -1.42527   0.05987 
 H                    -10.50607  -0.93774   1.11421 
 H                    -9.40373  -0.97367   3.35238 
 H                    -9.14705  -1.41063  -0.92459 
 F                    -6.90955  -1.48046   3.77246 
 F                    -6.62084  -1.95147  -0.9316 
 H                    -1.61503   0.4737   -1.34631 
 H                    -1.98423  -1.23745  -1.08273 
 H                    -3.29444  -0.04557  -1.20659 
 H                    -1.13407  -0.03454   0.95123 
 H                    -2.52947   1.0335    0.90311 
 H                    -3.28078  -1.68137   3.56734 
 H                    -3.99004   0.76095   3.44409 
 H                    -2.28195   1.19783   3.27577 
 H                    -3.51871  -0.18812   5.41096 
 H                    -4.9549   -2.80555   0.81955 
 H                    -5.02767  -2.44185   2.53324 
 H                    -2.71544  -2.01435   1.15091 
 C                    -1.21525  -1.35522   3.32876 
 H                    -0.49788  -0.59973   2.99454 
 H                    -1.0618   -1.49795   4.40403 
 H                    -0.97373  -2.30259   2.83563 
 H                    -4.61477  -0.52526   0.33571 
 
                          Input orientation:                          
 ---------------------------------------------------------------------
 Center     Atomic      Atomic             Coordinates (Angstroms)
 Number     Number       Type             X           Y           Z
 ---------------------------------------------------------------------
      1          6           0       -2.284759   -0.217302   -0.823752
      2          6           0       -2.194429    0.012725    0.682452
      3          6           0       -2.996101   -1.017128    1.516967
      4          6           0       -2.666077   -0.941716    3.038250
      5          6           0       -2.967254    0.433216    3.654285
      6          8           0       -2.811178    0.387201    5.071246
      7          7           0       -4.440361   -0.811539    1.298610
      8          6           0       -5.228216   -2.024558    1.540658
      9          6           0       -9.445710   -1.160802    1.200308
     10          6           0       -8.832394   -1.180223    2.452221
     11          6           0       -7.470757   -1.464362    2.554377
     12          6           0       -6.697053   -1.737622    1.425293
     13          6           0       -7.328874   -1.707351    0.181066
     14          6           0       -8.688985   -1.425266    0.059874
     15          1           0      -10.506069   -0.937735    1.114213
     16          1           0       -9.403733   -0.973668    3.352379
     17          1           0       -9.147053   -1.410629   -0.924587
     18          9           0       -6.909545   -1.480458    3.772463
     19          9           0       -6.620836   -1.951473   -0.931603
     20          1           0       -1.615033    0.473702   -1.346306
     21          1           0       -1.984225   -1.237449   -1.082734
     22          1           0       -3.294438   -0.045573   -1.206587
     23          1           0       -1.134066   -0.034543    0.951229
     24          1           0       -2.529472    1.033502    0.903110
     25          1           0       -3.280782   -1.681369    3.567335
     26          1           0       -3.990036    0.760949    3.444085
     27          1           0       -2.281954    1.197829    3.275769
     28          1           0       -3.518706   -0.188119    5.410964
     29          1           0       -4.954903   -2.805554    0.819550
     30          1           0       -5.027668   -2.441845    2.533235
     31          1           0       -2.715438   -2.014346    1.150906
     32          6           0       -1.215248   -1.355215    3.328762
     33          1           0       -0.497879   -0.599733    2.994535
     34          1           0       -1.061795   -1.497954    4.404026
     35          1           0       -0.973730   -2.302590    2.835634
     36          1           0       -4.614772   -0.525263    0.335708
 ---------------------------------------------------------------------
                    Distance matrix (angstroms):
                    1          2          3          4          5
     1  C    0.000000
     2  C    1.526343   0.000000
     3  C    2.573848   1.549093   0.000000
     4  C    3.947814   2.585187   1.558494   0.000000
     5  C    4.576220   3.099333   2.583110   1.536439   0.000000
     6  O    5.949247   4.447710   3.826125   2.433135   1.426273
     7  N    3.082881   2.470480   1.475071   2.488248   3.044448
     8  C    4.185755   3.753785   2.449043   3.159096   3.952217
     9  C    7.501082   7.363859   6.458976   7.027763   7.108677
    10  C    7.384493   6.972646   5.913004   6.198692   6.200646
    11  C    6.313596   5.790123   4.615061   4.857185   5.009205
    12  C    5.180532   4.887653   3.771546   4.414053   4.857195
    13  C    5.354718   5.438067   4.586280   5.521899   5.972353
    14  C    6.576784   6.680919   5.890554   6.736465   7.007992
    15  H    8.477303   8.376942   7.521179   8.072633   8.072497
    16  H    8.288061   7.750842   6.665461   6.745051   6.595357
    17  H    6.966009   7.276503   6.629498   7.610979   7.909219
    18  F    6.641491   5.831816   4.540593   4.340084   4.383808
    19  F    4.671247   5.104540   4.472941   5.693809   6.329753
    20  H    1.095026   2.159643   3.511162   4.725720   5.180352
    21  H    1.094574   2.173247   2.798371   4.187468   5.118283
    22  H    1.093392   2.186753   2.907004   4.383669   4.895341
    23  H    2.123218   1.094918   2.180070   2.743297   3.299377
    24  H    2.146264   1.096781   2.190810   2.911867   2.849730
    25  H    4.734680   3.517480   2.173998   1.097670   2.139470
    26  H    4.698870   3.377967   2.804148   2.194684   1.094384
    27  H    4.336897   2.852617   2.917092   2.186691   1.094323
    28  H    6.355719   4.914557   4.015418   2.631474   1.943213
    29  H    4.065607   3.947367   2.742583   3.692593   4.740897
    30  H    4.872525   4.180617   2.681396   2.842981   3.710530
    31  H    2.704464   2.144742   1.098734   2.171414   3.510111
    32  C    4.436448   3.135763   2.562878   1.536321   2.524673
    33  H    4.233026   2.932425   2.932327   2.195438   2.756822
    34  H    5.519545   4.173143   3.508254   2.179097   2.814659
    35  H    4.411160   3.389245   2.735193   2.181071   3.482666
    36  H    2.620715   2.503542   2.063347   3.357764   3.827003
                    6          7          8          9         10
     6  O    0.000000
     7  N    4.280654   0.000000
     8  C    4.911589   1.466533   0.000000
     9  C    7.835655   5.018482   4.318468   0.000000
    10  C    6.750641   4.555952   3.812342   1.394209   0.000000
    11  C    5.610222   3.344612   2.523972   2.413730   1.394714
    12  C    5.736538   2.442609   1.501041   2.817526   2.434123
    13  C    6.979297   3.224111   2.522276   2.412170   2.774271
    14  C    7.933946   4.467878   3.811666   1.393974   2.409136
    15  H    8.753566   6.069822   5.405439   1.086983   2.156445
    16  H    6.947536   5.373948   4.671364   2.160600   1.085992
    17  H    8.906487   5.239701   4.670292   2.160275   3.399254
    18  F    4.687387   3.558689   2.846729   3.626333   2.351708
    19  F    7.484456   3.320809   2.838451   3.626309   4.115347
    20  H    6.528646   4.077978   5.256516   8.395019   8.321933
    21  H    6.418318   3.447434   4.245610   7.803327   7.706919
    22  H    6.311261   2.859345   3.899132   6.698882   6.733741
    23  H    4.468234   3.414086   4.590169   8.391301   7.926526
    24  H    4.227342   2.685534   4.128125   7.262069   6.857634
    25  H    2.600242   2.692274   2.831554   6.624209   5.684630
    26  H    2.043782   2.697883   3.593769   6.204195   5.310402
    27  H    2.039837   3.550414   4.698388   7.822409   7.017238
    28  H    0.973138   4.260230   4.612396   7.335197   6.162281
    29  H    5.732902   2.114320   1.097566   4.797659   4.510239
    30  H    4.399753   2.127704   1.095243   4.789244   4.009263
    31  H    4.598441   2.108061   2.542846   6.784360   6.309226
    32  C    2.935857   3.849475   4.444013   8.503447   7.669411
    33  H    3.261613   4.296998   5.149755   9.143179   8.372288
    34  H    2.656940   4.639987   5.082839   8.981509   8.018273
    35  H    3.950842   4.074703   4.455886   8.703586   7.947661
    36  H    5.148870   1.019585   2.018936   4.948677   4.764130
                   11         12         13         14         15
    11  C    0.000000
    12  C    1.395751   0.000000
    13  C    2.389933   1.395785   0.000000
    14  C    2.776356   2.435103   1.394332   0.000000
    15  H    3.400666   3.904509   3.399653   2.156644   0.000000
    16  H    2.148019   3.409311   3.860124   3.399323   2.495160
    17  H    3.862130   3.410478   2.148555   1.085912   2.495448
    18  F    1.341250   2.370758   3.622906   4.117374   4.505089
    19  F    3.621008   2.367805   1.341248   2.353117   4.506447
    20  H    7.298008   6.196664   6.303795   7.458165   9.332568
    21  H    6.586509   5.362007   5.512102   6.804016   8.805579
    22  H    5.796504   4.622511   4.578620   5.710395   7.628217
    23  H    6.690898   5.837126   6.462746   7.733397   9.416834
    24  H    5.777742   5.031951   5.573857   6.685521   8.219272
    25  H    4.316140   4.032669   5.277740   6.451088   7.666523
    26  H    4.225992   4.200752   5.280875   6.189713   7.125484
    27  H    5.876338   5.615535   6.594593   7.633653   8.767498
    28  H    5.040594   5.328079   6.646599   7.542976   8.236943
    29  H    3.337356   2.131312   2.692480   4.052860   5.864386
    30  H    2.631464   2.123749   3.371606   4.533893   5.855668
    31  H    4.988514   4.000640   4.724259   6.100871   7.864755
    32  C    6.304203   5.815463   6.885377   8.157652   9.560223
    33  H    7.040053   6.495157   7.470269   8.740020  10.188902
    34  H    6.670616   6.378591   7.559995   8.777868  10.016538
    35  H    6.556912   5.921543   6.912951   8.246193   9.782209
    36  H    3.736449   2.644410   2.964388   4.181543   5.956810
                   16         17         18         19         20
    16  H    0.000000
    17  H    4.306885   0.000000
    18  F    2.579589   5.203229   0.000000
    19  F    5.201261   2.583473   4.736396   0.000000
    20  H    9.210666   7.775595   7.619212   5.577770   0.000000
    21  H    8.648058   7.166666   6.920316   4.693701   1.770257
    22  H    7.679129   6.016312   6.318135   3.843565   1.763397
    23  H    8.662267   8.343876   6.588337   6.109363   2.401730
    24  H    7.568561   7.287430   5.808461   5.386604   2.491876
    25  H    6.167461   7.393497   3.640105   5.609756   5.618089
    26  H    5.685545   7.099005   3.695304   5.781435   5.354530
    27  H    7.445872   8.460297   5.369779   6.815129   4.725751
    28  H    6.283980   8.562244   3.981534   7.277416   7.051431
    29  H    5.437198   4.749942   3.781032   2.563459   5.157440
    30  H    4.687908   5.476246   2.449778   3.844964   5.932734
    31  H    7.117779   6.785117   4.974749   4.426390   3.692877
    32  C    8.197403   9.000421   5.712930   6.908445   5.035973
    33  H    8.920881   9.530230   6.518459   7.398132   4.609034
    34  H    8.424296   9.683653   5.881782   7.718650   6.104082
    35  H    8.549737   9.040911   6.065266   6.797438   5.060404
    36  H    5.677633   4.786835   4.241423   2.768473   3.581276
                   21         22         23         24         25
    21  H    0.000000
    22  H    1.775547   0.000000
    23  H    2.511326   3.053440   0.000000
    24  H    3.065630   2.490060   1.757895   0.000000
    25  H    4.847811   5.046419   3.763567   3.877252   0.000000
    26  H    5.339378   4.771067   3.873461   2.943482   2.546203
    27  H    5.001577   4.760534   2.870518   2.391188   3.061446
    28  H    6.754542   6.622884   5.059578   4.774064   2.384402
    29  H    3.860384   3.805242   4.721720   4.541811   3.408342
    30  H    4.877330   4.767858   4.843344   4.579992   2.167786
    31  H    2.475356   3.125553   2.541698   3.063554   2.503920
    32  C    4.479564   5.158254   2.720924   3.649238   2.104691
    33  H    4.386346   5.077131   2.213430   3.341988   3.040162
    34  H    5.569854   6.210723   3.750814   4.562758   2.378570
    35  H    4.184404   5.178741   2.953088   4.157462   2.498758
    36  H    3.072290   2.086159   3.568611   2.664614   3.682326
                   26         27         28         29         30
    26  H    0.000000
    27  H    1.771084   0.000000
    28  H    2.234165   2.830100   0.000000
    29  H    4.532008   5.404141   5.476743   0.000000
    30  H    3.487724   4.619256   3.954437   1.753367   0.000000
    31  H    3.819101   3.875696   4.704087   2.398126   2.727636
    32  C    3.491547   2.767436   3.317167   4.731242   4.043288
    33  H    3.774747   2.548185   3.890238   5.427824   4.911737
    34  H    3.820828   3.166859   2.960744   5.451108   4.485414
    35  H    4.342072   3.762725   4.192877   4.490802   4.067585
    36  H    3.421497   4.129775   5.203196   2.355742   2.944978
                   31         32         33         34         35
    31  H    0.000000
    32  C    2.725451   0.000000
    33  H    3.212112   1.094111   0.000000
    34  H    3.685646   1.095498   1.763935   0.000000
    35  H    2.440275   1.095000   1.775220   1.764950   0.000000
    36  H    2.547427   4.604775   4.901399   5.488259   4.760852
                   36
    36  H    0.000000
 Stoichiometry    C13H19F2NO
 Framework group  C1[X(C13H19F2NO)]
 Deg. of freedom   102
 Full point group                 C1      NOp   1
 Largest Abelian subgroup         C1      NOp   1
 Largest concise Abelian subgroup C1      NOp   1
                         Standard orientation:                         
 ---------------------------------------------------------------------
 Center     Atomic      Atomic             Coordinates (Angstroms)
 Number     Number       Type             X           Y           Z
 ---------------------------------------------------------------------
      1          6           0       -2.139685    3.182704   -0.612144
      2          6           0       -2.630946    1.739030   -0.676883
      3          6           0       -1.889562    0.786786    0.294339
      4          6           0       -2.586489   -0.601531    0.419925
      5          6           0       -2.686614   -1.350415   -0.917906
      6          8           0       -3.171162   -2.675627   -0.709867
      7          7           0       -0.493612    0.617162   -0.151063
      8          6           0        0.409965    0.250606    0.944338
      9          6           0        4.368665   -0.546497   -0.586181
     10          6           0        3.483060   -1.597137   -0.350221
     11          6           0        2.207763   -1.332033    0.148341
     12          6           0        1.790309   -0.029281    0.425265
     13          6           0        2.689835    1.008605    0.176546
     14          6           0        3.968647    0.762381   -0.321626
     15          1           0        5.363063   -0.746729   -0.976838
     16          1           0        3.774405   -2.623499   -0.552897
     17          1           0        4.642045    1.594789   -0.502831
     18          9           0        1.379519   -2.363517    0.369714
     19          9           0        2.326035    2.277106    0.416341
     20          1           0       -2.772032    3.819216   -1.239895
     21          1           0       -2.186993    3.566829    0.411722
     22          1           0       -1.112824    3.284717   -0.973608
     23          1           0       -3.700102    1.753046   -0.441185
     24          1           0       -2.541514    1.383048   -1.710424
     25          1           0       -1.999815   -1.227558    1.104603
     26          1           0       -1.716134   -1.427155   -1.417863
     27          1           0       -3.381505   -0.853095   -1.601530
     28          1           0       -2.478448   -3.151828   -0.219583
     29          1           0        0.459239    1.060368    1.683601
     30          1           0        0.050194   -0.632739    1.482690
     31          1           0       -1.895915    1.267900    1.282117
     32          6           0       -3.970175   -0.488174    1.077836
     33          1           0       -4.704834   -0.024898    0.412455
     34          1           0       -4.352615   -1.478805    1.347101
     35          1           0       -3.916992    0.102784    1.998143
     36          1           0       -0.143281    1.485912   -0.553675
 ---------------------------------------------------------------------
 Rotational constants (GHZ):      0.6588593      0.2702885      0.2070461
 Standard basis: 6-311G(d) (5D, 7F)
 There are   380 symmetry adapted cartesian basis functions of A   symmetry.
 There are   363 symmetry adapted basis functions of A   symmetry.
   363 basis functions,   639 primitive gaussians,   380 cartesian basis functions
    65 alpha electrons       65 beta electrons
       nuclear repulsion energy      1261.1385004408 Hartrees.
 NAtoms=   36 NActive=   36 NUniq=   36 SFac= 1.00D+00 NAtFMM=   60 NAOKFM=F Big=F
 Integral buffers will be    131072 words long.
 Raffenetti 2 integral format.
 Two-electron integral symmetry is turned on.
 ------------------------------------------------------------------------------
 Polarizable Continuum Model (PCM)
 =================================
 Model                : PCM (using non-symmetric T matrix).
 Atomic radii         : UFF (Universal Force Field).
 Polarization charges : Total charges.
 Charge compensation  : None.
 Solution method      : On-the-fly selection.
 Cavity type          : Scaled VdW (van der Waals Surface) (Alpha=1.100).
 Cavity algorithm     : GePol (No added spheres)
                        Default sphere list used, NSphG=   36.
                        Lebedev-Laikov grids with approx.  5.0 points / Ang**2.
                        Smoothing algorithm: Karplus/York (Gamma=1.0000).
                        Polarization charges: spherical gaussians, with
                                              point-specific exponents (IZeta= 3).
                        Self-potential: point-specific (ISelfS= 7).
                        Self-field    : sphere-specific E.n sum rule (ISelfD= 2).
 Solvent              : Chloroform, Eps=   4.711300 Eps(inf)=   2.090627
 ------------------------------------------------------------------------------
 One-electron integrals computed using PRISM.
 NBasis=   363 RedAO= T EigKep=  2.47D-04  NBF=   363
 NBsUse=   363 1.00D-06 EigRej= -1.00D+00 NBFU=   363
 ExpMin= 1.03D-01 ExpMax= 1.14D+04 ExpMxC= 1.72D+03 IAcc=1 IRadAn=         1 AccDes= 0.00D+00
 Harris functional with IExCor=  908 and IRadAn=       1 diagonalized for initial guess.
 HarFok:  IExCor=  908 AccDes= 0.00D+00 IRadAn=         1 IDoV= 1 UseB2=F ITyADJ=14
 ICtDFT=  3500011 ScaDFX=  1.000000  1.000000  1.000000  1.000000
 FoFCou: FMM=F IPFlag=           0 FMFlag=      100000 FMFlg1=           0
         NFxFlg=           0 DoJE=T BraDBF=F KetDBF=T FulRan=T
         wScrn=  0.000000 ICntrl=     500 IOpCl=  0 I1Cent=   200000004 NGrid=           0
         NMat0=    1 NMatS0=      1 NMatT0=    0 NMatD0=    1 NMtDS0=    0 NMtDT0=    0
 Petite list used in FoFCou.
 Requested convergence on RMS density matrix=1.00D-08 within 128 cycles.
 Requested convergence on MAX density matrix=1.00D-06.
 Requested convergence on             energy=1.00D-06.
 No special actions if energy rises.
 Inv3:  Mode=1 IEnd=    20342448.
 Iteration    1 A*A^-1 deviation from unit magnitude is 4.44D-15 for   2585.
 Iteration    1 A*A^-1 deviation from orthogonality  is 2.92D-15 for   2204    653.
 Iteration    1 A^-1*A deviation from unit magnitude is 4.66D-15 for   2585.
 Iteration    1 A^-1*A deviation from orthogonality  is 6.39D-13 for   2408   2406.
 Error on total polarization charges =  0.00957
 SCF Done:  E(RmPW1PW91) =  -836.457845146     A.U. after   12 cycles
            NFock= 12  Conv=0.74D-08     -V/T= 2.0037
 DoSCS=F DFT=T ScalE2(SS,OS)=  1.000000  1.000000
 Range of M.O.s used for correlation:     1   363
 NBasis=   363 NAE=    65 NBE=    65 NFC=     0 NFV=     0
 NROrb=    363 NOA=    65 NOB=    65 NVA=   298 NVB=   298

 **** Warning!!: The largest alpha MO coefficient is  0.12293641D+02

 NEqPCM:  Using equilibrium solvation (IEInf=0, Eps=   4.7113, EpsInf=   2.0906)
          Differentiating once with respect to magnetic field using GIAOs.
          Electric field/nuclear overlap derivatives assumed to be zero.
 FoFJK:  IHMeth= 1 ICntrl=    6127 DoSepK=F KAlg= 0 I1Cent=   0 FoldK=F
 IRaf=         1 NMat=   1 IRICut=       1 DoRegI=T DoRafI=F ISym2E= 0.
          There are     3 degrees of freedom in the 1st order CPHF.  IDoFFX=0 NUNeed=     3.
      3 vectors produced by pass  0 Test12= 6.46D-13 3.33D-08 XBig12= 5.49D+01 2.51D+00.
 AX will form     3 AO Fock derivatives at one time.
      3 vectors produced by pass  1 Test12= 6.46D-13 3.33D-08 XBig12= 1.82D-01 2.48D-01.
      3 vectors produced by pass  2 Test12= 6.46D-13 3.33D-08 XBig12= 8.73D-04 9.86D-03.
      3 vectors produced by pass  3 Test12= 6.46D-13 3.33D-08 XBig12= 1.80D-06 2.61D-04.
      3 vectors produced by pass  4 Test12= 6.46D-13 3.33D-08 XBig12= 3.16D-09 1.46D-05.
      3 vectors produced by pass  5 Test12= 6.46D-13 3.33D-08 XBig12= 1.32D-11 5.88D-07.
 InvSVY:  IOpt=1 It=  1 EMax= 2.66D-15
 Solved reduced A of dimension    18 with     3 vectors.
 Calculating GIAO nuclear magnetic shielding tensors.
 SCF GIAO Magnetic shielding tensor (ppm):
      1  C    Isotropic =   174.7670   Anisotropy =    23.8119
   XX=   162.1760   YX=     8.5702   ZX=     3.1256
   XY=     3.8540   YY=   188.6647   ZY=     1.5219
   XZ=     5.2658   YZ=     3.0618   ZZ=   173.4602
   Eigenvalues:   159.8198   173.8396   190.6416
      2  C    Isotropic =   163.8104   Anisotropy =    16.4775
   XX=   163.1565   YX=     0.8251   ZX=     5.3424
   XY=    -7.6363   YY=   165.5908   ZY=    -6.0728
   XZ=    11.0285   YZ=    -3.5814   ZZ=   162.6839
   Eigenvalues:   154.5988   162.0370   174.7954
      3  C    Isotropic =   120.3316   Anisotropy =    21.3242
   XX=   131.4830   YX=    -9.1892   ZX=    -4.7635
   XY=     8.9308   YY=   119.2288   ZY=     3.6467
   XZ=   -11.6003   YZ=     7.8423   ZZ=   110.2828
   Eigenvalues:   105.3712   121.0758   134.5477
      4  C    Isotropic =   145.7004   Anisotropy =    30.7151
   XX=   132.6452   YX=     0.8180   ZX=    -4.3004
   XY=     5.7364   YY=   161.7841   ZY=     3.7746
   XZ=     2.1286   YZ=    15.9916   ZZ=   142.6720
   Eigenvalues:   131.6847   139.2394   166.1771
      5  C    Isotropic =   120.9248   Anisotropy =    51.8191
   XX=   100.2966   YX=    21.5346   ZX=    -4.5074
   XY=    14.8176   YY=   148.8740   ZY=     0.7471
   XZ=    -3.4862   YZ=    -8.1787   ZZ=   113.6037
   Eigenvalues:    93.8939   113.4096   155.4709
      6  O    Isotropic =   302.1279   Anisotropy =   116.0014
   XX=   298.2662   YX=   -51.6445   ZX=    52.7035
   XY=   -28.7811   YY=   304.5029   ZY=   -17.7262
   XZ=    42.4180   YZ=   -37.9548   ZZ=   303.6145
   Eigenvalues:   250.0395   276.8820   379.4621
      7  N    Isotropic =   200.7361   Anisotropy =    49.2429
   XX=   228.1083   YX=    -2.5850   ZX=   -18.9777
   XY=   -18.9204   YY=   172.0002   ZY=   -17.6908
   XZ=    -7.1129   YZ=   -27.0477   ZZ=   202.0999
   Eigenvalues:   156.6394   212.0043   233.5647
      8  C    Isotropic =   147.4822   Anisotropy =    52.0558
   XX=   156.4800   YX=   -13.5306   ZX=    17.5884
   XY=   -15.4539   YY=   123.2619   ZY=     0.3954
   XZ=    23.3422   YZ=    -2.7619   ZZ=   162.7048
   Eigenvalues:   116.8397   143.4209   182.1861
      9  C    Isotropic =    54.6059   Anisotropy =   185.5152
   XX=   -20.9646   YX=    11.3036   ZX=    75.8406
   XY=    11.0568   YY=    36.0205   ZY=   -16.9910
   XZ=    74.4769   YZ=   -17.1906   ZZ=   148.7618
   Eigenvalues:   -52.5622    38.0972   178.2827
     10  C    Isotropic =    70.6196   Anisotropy =   148.8351
   XX=    65.8492   YX=     6.6082   ZX=    39.8803
   XY=    15.5435   YY=    -6.7960   ZY=   -21.8883
   XZ=    40.6209   YZ=   -18.6792   ZZ=   152.8056
   Eigenvalues:   -12.9846    55.0004   169.8430
     11  C    Isotropic =    19.5196   Anisotropy =    98.9623
   XX=     6.0238   YX=   -53.0074   ZX=    26.3556
   XY=   -44.7900   YY=   -24.7840   ZY=     7.0464
   XZ=    21.8876   YZ=     6.0890   ZZ=    77.3191
   Eigenvalues:   -63.4120    36.4764    85.4945
     12  C    Isotropic =    66.1010   Anisotropy =   141.3959
   XX=    38.0292   YX=    -5.1666   ZX=    48.9092
   XY=    -3.8037   YY=    19.6866   ZY=   -11.2951
   XZ=    46.7588   YZ=    -9.7703   ZZ=   140.5872
   Eigenvalues:    18.5920    19.3461   160.3649
     13  C    Isotropic =    19.2331   Anisotropy =    98.7337
   XX=    37.1402   YX=    26.1829   ZX=    21.0874
   XY=    20.0798   YY=   -55.1550   ZY=   -19.7345
   XZ=    19.9549   YZ=   -16.9677   ZZ=    75.7142
   Eigenvalues:   -64.3306    36.9744    85.0556
     14  C    Isotropic =    71.0284   Anisotropy =   148.1699
   XX=    46.5425   YX=   -30.6483   ZX=    43.8334
   XY=   -39.2283   YY=    13.4458   ZY=     0.9865
   XZ=    43.7924   YZ=    -1.9805   ZZ=   153.0968
   Eigenvalues:   -12.2388    55.5156   169.8083
     15  H    Isotropic =    24.5412   Anisotropy =     3.2019
   XX=    25.4508   YX=     0.2732   ZX=    -1.5536
   XY=     0.2909   YY=    26.6108   ZY=     0.3755
   XZ=    -1.5624   YZ=     0.3216   ZZ=    21.5619
   Eigenvalues:    20.9829    25.9647    26.6758
     16  H    Isotropic =    25.1772   Anisotropy =     5.1335
   XX=    27.8069   YX=    -0.4331   ZX=    -2.3123
   XY=    -0.0259   YY=    25.6933   ZY=     0.2772
   XZ=    -2.1344   YZ=     0.3749   ZZ=    22.0313
   Eigenvalues:    21.2621    25.6699    28.5995
     17  H    Isotropic =    25.2045   Anisotropy =     4.9303
   XX=    27.6441   YX=    -0.3146   ZX=    -2.1425
   XY=    -0.6295   YY=    25.9029   ZY=     0.6834
   XZ=    -2.0149   YZ=     0.5117   ZZ=    22.0665
   Eigenvalues:    21.3382    25.7840    28.4914
     18  F    Isotropic =   301.5082   Anisotropy =   128.2386
   XX=   267.3304   YX=    21.7898   ZX=    45.1973
   XY=    29.4475   YY=   267.2245   ZY=   -22.2016
   XZ=    40.1054   YZ=   -24.9812   ZZ=   369.9697
   Eigenvalues:   226.1195   291.4045   387.0006
     19  F    Isotropic =   305.7296   Anisotropy =   127.6688
   XX=   252.4833   YX=   -10.6020   ZX=    49.6348
   XY=   -21.3321   YY=   289.4953   ZY=    -0.9074
   XZ=    42.9675   YZ=    18.9903   ZZ=   375.2103
   Eigenvalues:   231.3846   294.9621   390.8422
     20  H    Isotropic =    30.9214   Anisotropy =    11.3159
   XX=    29.0725   YX=    -2.2097   ZX=     2.4740
   XY=    -3.1084   YY=    34.8841   ZY=    -4.2350
   XZ=     3.2756   YZ=    -4.1027   ZZ=    28.8075
   Eigenvalues:    25.7979    28.5010    38.4653
     21  H    Isotropic =    31.4229   Anisotropy =     8.7500
   XX=    27.7253   YX=    -0.3361   ZX=     0.0002
   XY=    -0.4026   YY=    34.1261   ZY=     4.4570
   XZ=    -0.3824   YZ=     3.2909   ZZ=    32.4172
   Eigenvalues:    27.7036    29.3088    37.2562
     22  H    Isotropic =    31.2064   Anisotropy =     7.5644
   XX=    34.2416   YX=     0.9492   ZX=    -2.4760
   XY=     2.2337   YY=    32.5806   ZY=    -2.1276
   XZ=    -1.6647   YZ=    -2.9842   ZZ=    26.7971
   Eigenvalues:    25.5947    31.7753    36.2493
     23  H    Isotropic =    30.4929   Anisotropy =     7.1182
   XX=    35.2034   YX=     0.3929   ZX=    -0.5671
   XY=     0.0187   YY=    31.9668   ZY=    -2.7009
   XZ=     0.0533   YZ=    -2.9046   ZZ=    24.3084
   Eigenvalues:    23.3895    32.8508    35.2383
     24  H    Isotropic =    31.1042   Anisotropy =     5.9265
   XX=    26.7922   YX=     0.9262   ZX=     2.3692
   XY=     0.6489   YY=    32.3703   ZY=     0.5412
   XZ=     2.3536   YZ=     0.5593   ZZ=    34.1500
   Eigenvalues:    26.0419    32.2154    35.0552
     25  H    Isotropic =    30.1933   Anisotropy =     5.9089
   XX=    33.5789   YX=     0.1930   ZX=     1.3436
   XY=    -0.9537   YY=    29.9798   ZY=    -2.5083
   XZ=     1.6086   YZ=    -2.4961   ZZ=    27.0214
   Eigenvalues:    25.4434    31.0040    34.1326
     26  H    Isotropic =    27.7989   Anisotropy =     5.8594
   XX=    28.3919   YX=     2.4223   ZX=    -2.8867
   XY=     3.2255   YY=    29.2956   ZY=     1.5250
   XZ=    -2.0218   YZ=     2.8733   ZZ=    25.7093
   Eigenvalues:    22.5490    29.1426    31.7052
     27  H    Isotropic =    28.9255   Anisotropy =     4.4087
   XX=    25.3255   YX=     2.1947   ZX=     2.3282
   XY=     0.6264   YY=    31.5602   ZY=    -1.1078
   XZ=     3.5778   YZ=    -0.1827   ZZ=    29.8908
   Eigenvalues:    23.5746    31.3373    31.8646
     28  H    Isotropic =    32.3048   Anisotropy =    15.7557
   XX=    33.1753   YX=    -4.1445   ZX=     4.4671
   XY=    -4.9731   YY=    36.9497   ZY=    -4.5895
   XZ=     6.5035   YZ=    -4.0369   ZZ=    26.7893
   Eigenvalues:    23.4329    30.6727    42.8086
     29  H    Isotropic =    28.4881   Anisotropy =     6.8746
   XX=    28.5264   YX=     0.9865   ZX=     2.8939
   XY=     1.2115   YY=    27.1248   ZY=     2.1259
   XZ=     0.3614   YZ=     4.8833   ZZ=    29.8132
   Eigenvalues:    24.7154    27.6778    33.0712
     30  H    Isotropic =    28.4187   Anisotropy =     4.8378
   XX=    30.1007   YX=    -1.2722   ZX=     0.5567
   XY=    -0.9724   YY=    29.1391   ZY=    -2.6776
   XZ=    -1.5127   YZ=    -4.1013   ZZ=    26.0163
   Eigenvalues:    23.6861    29.9262    31.6439
     31  H    Isotropic =    29.5991   Anisotropy =     3.2528
   XX=    30.0260   YX=     0.2332   ZX=    -2.5303
   XY=    -0.0153   YY=    29.1901   ZY=     1.9579
   XZ=    -0.2395   YZ=     1.5558   ZZ=    29.5812
   Eigenvalues:    27.2247    29.8050    31.7676
     32  C    Isotropic =   171.1820   Anisotropy =    26.3353
   XX=   183.3745   YX=    -4.5614   ZX=    -8.3930
   XY=    -4.1725   YY=   157.3848   ZY=     3.9883
   XZ=    -7.5281   YZ=     4.5043   ZZ=   172.7867
   Eigenvalues:   156.0723   168.7349   188.7389
     33  H    Isotropic =    31.2851   Anisotropy =     8.1300
   XX=    35.8338   YX=    -1.8567   ZX=     1.7690
   XY=    -1.5938   YY=    29.5813   ZY=    -2.0862
   XZ=     1.0375   YZ=    -1.7937   ZZ=    28.4401
   Eigenvalues:    26.9875    30.1627    36.7050
     34  H    Isotropic =    30.3369   Anisotropy =     9.1721
   XX=    30.6203   YX=     3.4194   ZX=    -3.6159
   XY=     2.7716   YY=    32.3781   ZY=    -2.0023
   XZ=    -3.9573   YZ=    -1.6023   ZZ=    28.0123
   Eigenvalues:    25.2916    29.2674    36.4516
     35  H    Isotropic =    31.4268   Anisotropy =     8.9463
   XX=    30.5172   YX=    -0.2418   ZX=    -3.4999
   XY=     0.1431   YY=    28.7801   ZY=     2.6825
   XZ=    -2.8030   YZ=     3.0318   ZZ=    34.9830
   Eigenvalues:    27.1571    29.7322    37.3910
     36  H    Isotropic =    31.3074   Anisotropy =     9.6605
   XX=    36.3034   YX=     1.1788   ZX=     0.1884
   XY=     1.4808   YY=    32.7336   ZY=    -5.9758
   XZ=     1.5261   YZ=    -9.2875   ZZ=    24.8853
   Eigenvalues:    20.1026    36.0720    37.7478
 End of Minotr F.D. properties file   721 does not exist.
 End of Minotr F.D. properties file   722 does not exist.
 End of Minotr F.D. properties file   788 does not exist.

 **********************************************************************

            Population analysis using the SCF density.

 **********************************************************************

 Orbital symmetries:
       Occupied  (A) (A) (A) (A) (A) (A) (A) (A) (A) (A) (A) (A)
                 (A) (A) (A) (A) (A) (A) (A) (A) (A) (A) (A) (A)
                 (A) (A) (A) (A) (A) (A) (A) (A) (A) (A) (A) (A)
                 (A) (A) (A) (A) (A) (A) (A) (A) (A) (A) (A) (A)
                 (A) (A) (A) (A) (A) (A) (A) (A) (A) (A) (A) (A)
                 (A) (A) (A) (A) (A)
       Virtual   (A) (A) (A) (A) (A) (A) (A) (A) (A) (A) (A) (A)
                 (A) (A) (A) (A) (A) (A) (A) (A) (A) (A) (A) (A)
                 (A) (A) (A) (A) (A) (A) (A) (A) (A) (A) (A) (A)
                 (A) (A) (A) (A) (A) (A) (A) (A) (A) (A) (A) (A)
                 (A) (A) (A) (A) (A) (A) (A) (A) (A) (A) (A) (A)
                 (A) (A) (A) (A) (A) (A) (A) (A) (A) (A) (A) (A)
                 (A) (A) (A) (A) (A) (A) (A) (A) (A) (A) (A) (A)
                 (A) (A) (A) (A) (A) (A) (A) (A) (A) (A) (A) (A)
                 (A) (A) (A) (A) (A) (A) (A) (A) (A) (A) (A) (A)
                 (A) (A) (A) (A) (A) (A) (A) (A) (A) (A) (A) (A)
                 (A) (A) (A) (A) (A) (A) (A) (A) (A) (A) (A) (A)
                 (A) (A) (A) (A) (A) (A) (A) (A) (A) (A) (A) (A)
                 (A) (A) (A) (A) (A) (A) (A) (A) (A) (A) (A) (A)
                 (A) (A) (A) (A) (A) (A) (A) (A) (A) (A) (A) (A)
                 (A) (A) (A) (A) (A) (A) (A) (A) (A) (A) (A) (A)
                 (A) (A) (A) (A) (A) (A) (A) (A) (A) (A) (A) (A)
                 (A) (A) (A) (A) (A) (A) (A) (A) (A) (A) (A) (A)
                 (A) (A) (A) (A) (A) (A) (A) (A) (A) (A) (A) (A)
                 (A) (A) (A) (A) (A) (A) (A) (A) (A) (A) (A) (A)
                 (A) (A) (A) (A) (A) (A) (A) (A) (A) (A) (A) (A)
                 (A) (A) (A) (A) (A) (A) (A) (A) (A) (A) (A) (A)
                 (A) (A) (A) (A) (A) (A) (A) (A) (A) (A) (A) (A)
                 (A) (A) (A) (A) (A) (A) (A) (A) (A) (A) (A) (A)
                 (A) (A) (A) (A) (A) (A) (A) (A) (A) (A) (A) (A)
                 (A) (A) (A) (A) (A) (A) (A) (A) (A) (A)
 The electronic state is 1-A.
 Alpha  occ. eigenvalues --  -24.80572 -24.80361 -19.20150 -14.37936 -10.33798
 Alpha  occ. eigenvalues --  -10.33777 -10.26727 -10.26499 -10.26394 -10.26349
 Alpha  occ. eigenvalues --  -10.26006 -10.25228 -10.25197 -10.23429 -10.22984
 Alpha  occ. eigenvalues --  -10.22142 -10.21442  -1.27831  -1.27601  -1.04267
 Alpha  occ. eigenvalues --   -0.94328  -0.90459  -0.83095  -0.80007  -0.78652
 Alpha  occ. eigenvalues --   -0.78359  -0.71531  -0.69265  -0.67543  -0.66064
 Alpha  occ. eigenvalues --   -0.63814  -0.62684  -0.59080  -0.57395  -0.56018
 Alpha  occ. eigenvalues --   -0.52180  -0.52003  -0.51356  -0.50896  -0.49673
 Alpha  occ. eigenvalues --   -0.49330  -0.48854  -0.48104  -0.47033  -0.45964
 Alpha  occ. eigenvalues --   -0.45070  -0.43089  -0.42547  -0.41894  -0.41543
 Alpha  occ. eigenvalues --   -0.40802  -0.39039  -0.38825  -0.37923  -0.37822
 Alpha  occ. eigenvalues --   -0.37556  -0.36663  -0.35680  -0.34772  -0.32635
 Alpha  occ. eigenvalues --   -0.32210  -0.28085  -0.27535  -0.26799  -0.24068
 Alpha virt. eigenvalues --   -0.02050  -0.00935   0.04791   0.05610   0.06084
 Alpha virt. eigenvalues --    0.07438   0.07555   0.09324   0.10208   0.10724
 Alpha virt. eigenvalues --    0.11066   0.11611   0.12592   0.12758   0.13331
 Alpha virt. eigenvalues --    0.13903   0.14192   0.14907   0.15169   0.15864
 Alpha virt. eigenvalues --    0.16962   0.17929   0.19287   0.20038   0.20556
 Alpha virt. eigenvalues --    0.21460   0.22540   0.23499   0.24697   0.25508
 Alpha virt. eigenvalues --    0.25862   0.26030   0.26949   0.28164   0.30488
 Alpha virt. eigenvalues --    0.32115   0.32766   0.33720   0.33986   0.34848
 Alpha virt. eigenvalues --    0.35145   0.36863   0.37457   0.38720   0.39072
 Alpha virt. eigenvalues --    0.39798   0.40569   0.41377   0.41592   0.42144
 Alpha virt. eigenvalues --    0.42956   0.43743   0.44921   0.45655   0.45759
 Alpha virt. eigenvalues --    0.47471   0.47880   0.50000   0.51164   0.51996
 Alpha virt. eigenvalues --    0.52600   0.53106   0.54048   0.55134   0.55586
 Alpha virt. eigenvalues --    0.55834   0.57702   0.58130   0.58663   0.59029
 Alpha virt. eigenvalues --    0.60281   0.60385   0.61289   0.61817   0.61961
 Alpha virt. eigenvalues --    0.62525   0.62959   0.63982   0.64270   0.64375
 Alpha virt. eigenvalues --    0.65887   0.66088   0.66156   0.66417   0.66903
 Alpha virt. eigenvalues --    0.67993   0.69169   0.69928   0.70333   0.70642
 Alpha virt. eigenvalues --    0.71886   0.72976   0.74040   0.74789   0.75935
 Alpha virt. eigenvalues --    0.77545   0.78649   0.81191   0.83398   0.85892
 Alpha virt. eigenvalues --    0.88052   0.88407   0.88887   0.92406   0.93621
 Alpha virt. eigenvalues --    0.96421   0.97033   0.97586   0.98511   0.99438
 Alpha virt. eigenvalues --    0.99696   1.03182   1.04305   1.05623   1.06143
 Alpha virt. eigenvalues --    1.07942   1.09258   1.10797   1.12560   1.13941
 Alpha virt. eigenvalues --    1.15818   1.19981   1.20207   1.22533   1.24258
 Alpha virt. eigenvalues --    1.24767   1.27018   1.28042   1.29149   1.29660
 Alpha virt. eigenvalues --    1.33311   1.34993   1.37695   1.39978   1.42758
 Alpha virt. eigenvalues --    1.44565   1.46178   1.47794   1.49247   1.49984
 Alpha virt. eigenvalues --    1.50644   1.51820   1.51994   1.53975   1.54783
 Alpha virt. eigenvalues --    1.55377   1.56439   1.57561   1.58535   1.61498
 Alpha virt. eigenvalues --    1.63158   1.63772   1.64971   1.66190   1.66502
 Alpha virt. eigenvalues --    1.67219   1.68383   1.69118   1.72909   1.73447
 Alpha virt. eigenvalues --    1.75668   1.76260   1.77383   1.79836   1.82399
 Alpha virt. eigenvalues --    1.83029   1.84482   1.84937   1.88823   1.89604
 Alpha virt. eigenvalues --    1.89909   1.90577   1.92356   1.94060   1.94306
 Alpha virt. eigenvalues --    1.95774   1.99078   2.00112   2.00851   2.02589
 Alpha virt. eigenvalues --    2.06841   2.11502   2.14197   2.17170   2.19140
 Alpha virt. eigenvalues --    2.19660   2.21811   2.25253   2.25607   2.27536
 Alpha virt. eigenvalues --    2.30047   2.33176   2.35103   2.38706   2.39231
 Alpha virt. eigenvalues --    2.41175   2.42908   2.43093   2.43888   2.46911
 Alpha virt. eigenvalues --    2.49717   2.50978   2.51745   2.53073   2.53416
 Alpha virt. eigenvalues --    2.54813   2.56333   2.57683   2.60382   2.65644
 Alpha virt. eigenvalues --    2.66562   2.67685   2.71639   2.72068   2.74476
 Alpha virt. eigenvalues --    2.77369   2.82917   2.84164   2.86957   2.90520
 Alpha virt. eigenvalues --    2.90846   2.93825   2.97064   3.00784   3.05742
 Alpha virt. eigenvalues --    3.06675   3.07146   3.08439   3.09934   3.12801
 Alpha virt. eigenvalues --    3.14055   3.16096   3.17038   3.21202   3.21359
 Alpha virt. eigenvalues --    3.23482   3.25997   3.26349   3.27263   3.28399
 Alpha virt. eigenvalues --    3.28824   3.30421   3.31631   3.35484   3.39634
 Alpha virt. eigenvalues --    3.47356   3.48908   3.51927   3.61153   3.64537
 Alpha virt. eigenvalues --    3.73083   3.79201   3.79759   3.79956   3.80544
 Alpha virt. eigenvalues --    3.85661   3.86644   3.95891   3.96447   3.99692
 Alpha virt. eigenvalues --    4.00316   4.05597   4.07420   4.10860   4.12636
 Alpha virt. eigenvalues --    4.17875   4.21712   4.48998   4.75179   4.76684
 Alpha virt. eigenvalues --    4.79423   4.80814   4.94403   5.05357   5.39936
 Alpha virt. eigenvalues --    6.12637   6.14450   6.31167   6.31918   6.56258
 Alpha virt. eigenvalues --    6.59315  23.30322  23.46641  23.58884  23.70236
 Alpha virt. eigenvalues --   23.73592  23.78302  23.80973  23.84319  23.86870
 Alpha virt. eigenvalues --   23.89958  24.08766  24.11270  24.19395  35.59138
 Alpha virt. eigenvalues --   49.97032  66.89105  66.89615
          Condensed to atoms (all electrons):
               1          2          3          4          5          6
     1  C    5.347050   0.309465  -0.072453   0.008228  -0.000067   0.000000
     2  C    0.309465   5.358494   0.306673  -0.056038  -0.011117  -0.000069
     3  C   -0.072453   0.306673   5.314973   0.271106  -0.056657   0.005489
     4  C    0.008228  -0.056038   0.271106   5.471882   0.305926  -0.052732
     5  C   -0.000067  -0.011117  -0.056657   0.305926   5.154187   0.224636
     6  O    0.000000  -0.000069   0.005489  -0.052732   0.224636   8.198938
     7  N   -0.000121  -0.048312   0.258921  -0.067889  -0.008926   0.000011
     8  C    0.000774   0.006380  -0.075990  -0.007358   0.000665  -0.000009
     9  C    0.000000   0.000000  -0.000002   0.000000   0.000000   0.000000
    10  C    0.000000   0.000000   0.000015  -0.000004   0.000001   0.000000
    11  C   -0.000008   0.000023  -0.000814   0.000022  -0.000135   0.000002
    12  C   -0.000045  -0.000267   0.010287   0.000013   0.000142  -0.000005
    13  C    0.000043  -0.000084   0.000273   0.000056   0.000015   0.000000
    14  C    0.000000   0.000000   0.000024   0.000000   0.000000   0.000000
    15  H    0.000000   0.000000   0.000000   0.000000   0.000000   0.000000
    16  H    0.000000   0.000000  -0.000001   0.000000   0.000000   0.000000
    17  H    0.000000   0.000000  -0.000001   0.000000   0.000000   0.000000
    18  F    0.000000   0.000000  -0.000021  -0.000129  -0.000023  -0.000001
    19  F   -0.000025  -0.000004  -0.000085   0.000000   0.000000   0.000000
    20  H    0.393816  -0.037905   0.007808  -0.000157  -0.000005   0.000000
    21  H    0.385955  -0.043150  -0.004491  -0.000208   0.000009   0.000000
    22  H    0.385347  -0.038851  -0.005936   0.000052  -0.000027   0.000000
    23  H   -0.041584   0.400626  -0.045743  -0.003953  -0.000789  -0.000054
    24  H   -0.045692   0.390071  -0.038602  -0.010726   0.002630   0.000003
    25  H   -0.000173   0.007956  -0.037549   0.401851  -0.048646   0.004217
    26  H   -0.000229  -0.002266   0.000156  -0.058251   0.393448  -0.031961
    27  H    0.000216   0.005325  -0.006391  -0.032033   0.374165  -0.026231
    28  H    0.000001   0.000063  -0.000813   0.000377  -0.056043   0.260759
    29  H   -0.000753   0.001102  -0.005212  -0.001768  -0.000060   0.000001
    30  H    0.000078  -0.000195  -0.006518   0.005171   0.000365  -0.000214
    31  H   -0.013777  -0.042393   0.403553  -0.066388   0.007752  -0.000218
    32  C   -0.000287  -0.009513  -0.061899   0.288875  -0.080823  -0.004012
    33  H    0.000090   0.002169  -0.007198  -0.035494  -0.006008  -0.000302
    34  H    0.000022  -0.000154   0.009171  -0.034452  -0.010370   0.018474
    35  H   -0.000178  -0.000357  -0.004776  -0.041786   0.008056  -0.000294
    36  H    0.006207  -0.012725  -0.052982   0.006839   0.000099   0.000010
               7          8          9         10         11         12
     1  C   -0.000121   0.000774   0.000000   0.000000  -0.000008  -0.000045
     2  C   -0.048312   0.006380   0.000000   0.000000   0.000023  -0.000267
     3  C    0.258921  -0.075990  -0.000002   0.000015  -0.000814   0.010287
     4  C   -0.067889  -0.007358   0.000000  -0.000004   0.000022   0.000013
     5  C   -0.008926   0.000665   0.000000   0.000001  -0.000135   0.000142
     6  O    0.000011  -0.000009   0.000000   0.000000   0.000002  -0.000005
     7  N    6.975494   0.269525   0.000081  -0.000084   0.018246  -0.079145
     8  C    0.269525   5.333632  -0.001607   0.010348  -0.079466   0.284715
     9  C    0.000081  -0.001607   5.062934   0.432154  -0.002546  -0.059906
    10  C   -0.000084   0.010348   0.432154   5.197374   0.472792  -0.030005
    11  C    0.018246  -0.079466  -0.002546   0.472792   4.763934   0.256102
    12  C   -0.079145   0.284715  -0.059906  -0.030005   0.256102   5.774759
    13  C   -0.008160  -0.079638  -0.005191  -0.064279   0.030412   0.250382
    14  C   -0.000366   0.010511   0.434037  -0.035662  -0.068072  -0.036410
    15  H    0.000000   0.000032   0.404737  -0.040746   0.006123  -0.001971
    16  H    0.000011  -0.000299  -0.040978   0.392346  -0.049239   0.011993
    17  H    0.000013  -0.000340  -0.040783   0.007028  -0.001270   0.012148
    18  F   -0.000578  -0.001906   0.005665  -0.055629   0.317576  -0.076221
    19  F   -0.001379   0.002155   0.005609  -0.000597   0.005067  -0.080718
    20  H    0.000119   0.000038   0.000000   0.000000   0.000000  -0.000003
    21  H   -0.000323  -0.000054   0.000000   0.000000   0.000000  -0.000013
    22  H    0.001113   0.000101  -0.000001   0.000000  -0.000018   0.000108
    23  H    0.004757  -0.000472   0.000000   0.000000   0.000000   0.000024
    24  H    0.002551  -0.000423   0.000000   0.000000   0.000022   0.000031
    25  H   -0.002903   0.002352  -0.000001   0.000002   0.000271  -0.000470
    26  H    0.022541  -0.000682  -0.000002   0.000009   0.000897  -0.001046
    27  H    0.000060  -0.000029   0.000000   0.000000   0.000002  -0.000001
    28  H   -0.000015   0.000027   0.000000   0.000001  -0.000010  -0.000010
    29  H   -0.049086   0.384698  -0.000166   0.000020   0.012776  -0.037360
    30  H   -0.037081   0.378034  -0.000232   0.000865  -0.024084  -0.026102
    31  H   -0.049114  -0.009181   0.000001   0.000000   0.000270   0.000623
    32  C    0.004857   0.000091   0.000000   0.000000   0.000003  -0.000002
    33  H   -0.000108  -0.000027   0.000000   0.000000   0.000000   0.000000
    34  H   -0.000190  -0.000032   0.000000   0.000000   0.000000   0.000000
    35  H    0.000060   0.000052   0.000000   0.000000   0.000000  -0.000001
    36  H    0.338858  -0.048656  -0.000056   0.000014  -0.000599  -0.015962
              13         14         15         16         17         18
     1  C    0.000043   0.000000   0.000000   0.000000   0.000000   0.000000
     2  C   -0.000084   0.000000   0.000000   0.000000   0.000000   0.000000
     3  C    0.000273   0.000024   0.000000  -0.000001  -0.000001  -0.000021
     4  C    0.000056   0.000000   0.000000   0.000000   0.000000  -0.000129
     5  C    0.000015   0.000000   0.000000   0.000000   0.000000  -0.000023
     6  O    0.000000   0.000000   0.000000   0.000000   0.000000  -0.000001
     7  N   -0.008160  -0.000366   0.000000   0.000011   0.000013  -0.000578
     8  C   -0.079638   0.010511   0.000032  -0.000299  -0.000340  -0.001906
     9  C   -0.005191   0.434037   0.404737  -0.040978  -0.040783   0.005665
    10  C   -0.064279  -0.035662  -0.040746   0.392346   0.007028  -0.055629
    11  C    0.030412  -0.068072   0.006123  -0.049239  -0.001270   0.317576
    12  C    0.250382  -0.036410  -0.001971   0.011993   0.012148  -0.076221
    13  C    4.798110   0.476495   0.006253  -0.001363  -0.049300   0.005228
    14  C    0.476495   5.202818  -0.040951   0.007156   0.391891  -0.000574
    15  H    0.006253  -0.040951   0.446416  -0.006623  -0.006631  -0.000072
    16  H   -0.001363   0.007156  -0.006623   0.451385  -0.000178   0.001444
    17  H   -0.049300   0.391891  -0.006631  -0.000178   0.451388   0.000004
    18  F    0.005228  -0.000574  -0.000072   0.001444   0.000004   9.029288
    19  F    0.316339  -0.056577  -0.000071   0.000004   0.001509  -0.000001
    20  H    0.000002   0.000000   0.000000   0.000000   0.000000   0.000000
    21  H    0.000007   0.000000   0.000000   0.000000   0.000000   0.000000
    22  H    0.000061   0.000007   0.000000   0.000000   0.000001   0.000000
    23  H    0.000000   0.000000   0.000000   0.000000   0.000000   0.000000
    24  H   -0.000037  -0.000001   0.000000   0.000000   0.000000  -0.000001
    25  H   -0.000072   0.000002   0.000000   0.000001   0.000000   0.000188
    26  H   -0.000124  -0.000002   0.000000   0.000002   0.000000   0.001006
    27  H   -0.000001   0.000000   0.000000   0.000000   0.000000   0.000000
    28  H    0.000000   0.000000   0.000000   0.000000   0.000000   0.000200
    29  H   -0.027680  -0.000001   0.000003   0.000014  -0.000022   0.000113
    30  H    0.011029   0.000068   0.000004  -0.000063   0.000010   0.011883
    31  H   -0.000513  -0.000012   0.000000   0.000000   0.000000  -0.000008
    32  C   -0.000001   0.000000   0.000000   0.000000   0.000000   0.000000
    33  H    0.000000   0.000000   0.000000   0.000000   0.000000   0.000000
    34  H    0.000000   0.000000   0.000000   0.000000   0.000000   0.000000
    35  H    0.000000   0.000000   0.000000   0.000000   0.000000   0.000000
    36  H    0.006279   0.000042   0.000001   0.000000   0.000003  -0.000018
              19         20         21         22         23         24
     1  C   -0.000025   0.393816   0.385955   0.385347  -0.041584  -0.045692
     2  C   -0.000004  -0.037905  -0.043150  -0.038851   0.400626   0.390071
     3  C   -0.000085   0.007808  -0.004491  -0.005936  -0.045743  -0.038602
     4  C    0.000000  -0.000157  -0.000208   0.000052  -0.003953  -0.010726
     5  C    0.000000  -0.000005   0.000009  -0.000027  -0.000789   0.002630
     6  O    0.000000   0.000000   0.000000   0.000000  -0.000054   0.000003
     7  N   -0.001379   0.000119  -0.000323   0.001113   0.004757   0.002551
     8  C    0.002155   0.000038  -0.000054   0.000101  -0.000472  -0.000423
     9  C    0.005609   0.000000   0.000000  -0.000001   0.000000   0.000000
    10  C   -0.000597   0.000000   0.000000   0.000000   0.000000   0.000000
    11  C    0.005067   0.000000   0.000000  -0.000018   0.000000   0.000022
    12  C   -0.080718  -0.000003  -0.000013   0.000108   0.000024   0.000031
    13  C    0.316339   0.000002   0.000007   0.000061   0.000000  -0.000037
    14  C   -0.056577   0.000000   0.000000   0.000007   0.000000  -0.000001
    15  H   -0.000071   0.000000   0.000000   0.000000   0.000000   0.000000
    16  H    0.000004   0.000000   0.000000   0.000000   0.000000   0.000000
    17  H    0.001509   0.000000   0.000000   0.000001   0.000000   0.000000
    18  F   -0.000001   0.000000   0.000000   0.000000   0.000000  -0.000001
    19  F    9.032508  -0.000001   0.000004   0.000248   0.000000  -0.000003
    20  H   -0.000001   0.468761  -0.026915  -0.026328  -0.006196  -0.004131
    21  H    0.000004  -0.026915   0.482624  -0.028412  -0.004643   0.007589
    22  H    0.000248  -0.026328  -0.028412   0.485692   0.007432  -0.006702
    23  H    0.000000  -0.006196  -0.004643   0.007432   0.475077  -0.028935
    24  H   -0.000003  -0.004131   0.007589  -0.006702  -0.028935   0.488283
    25  H    0.000000   0.000017  -0.000037   0.000001   0.000193  -0.000402
    26  H    0.000000  -0.000012   0.000007  -0.000043  -0.000042   0.002138
    27  H    0.000000   0.000003  -0.000017   0.000011   0.000353  -0.000994
    28  H    0.000000   0.000000   0.000000   0.000000   0.000004  -0.000014
    29  H    0.007368  -0.000040   0.000094  -0.000124   0.000044   0.000213
    30  H    0.000135   0.000005   0.000004   0.000014  -0.000003  -0.000110
    31  H   -0.000077  -0.000344   0.006256  -0.001026  -0.002232   0.008740
    32  C    0.000000  -0.000010   0.000047  -0.000034   0.000777   0.001152
    33  H    0.000000   0.000024   0.000046  -0.000017   0.001683   0.000210
    34  H    0.000000  -0.000001  -0.000007   0.000002   0.000156  -0.000072
    35  H    0.000000   0.000004   0.000001   0.000005   0.000231   0.000036
    36  H    0.005906  -0.000148  -0.000434   0.005933   0.000610  -0.000563
              25         26         27         28         29         30
     1  C   -0.000173  -0.000229   0.000216   0.000001  -0.000753   0.000078
     2  C    0.007956  -0.002266   0.005325   0.000063   0.001102  -0.000195
     3  C   -0.037549   0.000156  -0.006391  -0.000813  -0.005212  -0.006518
     4  C    0.401851  -0.058251  -0.032033   0.000377  -0.001768   0.005171
     5  C   -0.048646   0.393448   0.374165  -0.056043  -0.000060   0.000365
     6  O    0.004217  -0.031961  -0.026231   0.260759   0.000001  -0.000214
     7  N   -0.002903   0.022541   0.000060  -0.000015  -0.049086  -0.037081
     8  C    0.002352  -0.000682  -0.000029   0.000027   0.384698   0.378034
     9  C   -0.000001  -0.000002   0.000000   0.000000  -0.000166  -0.000232
    10  C    0.000002   0.000009   0.000000   0.000001   0.000020   0.000865
    11  C    0.000271   0.000897   0.000002  -0.000010   0.012776  -0.024084
    12  C   -0.000470  -0.001046  -0.000001  -0.000010  -0.037360  -0.026102
    13  C   -0.000072  -0.000124  -0.000001   0.000000  -0.027680   0.011029
    14  C    0.000002  -0.000002   0.000000   0.000000  -0.000001   0.000068
    15  H    0.000000   0.000000   0.000000   0.000000   0.000003   0.000004
    16  H    0.000001   0.000002   0.000000   0.000000   0.000014  -0.000063
    17  H    0.000000   0.000000   0.000000   0.000000  -0.000022   0.000010
    18  F    0.000188   0.001006   0.000000   0.000200   0.000113   0.011883
    19  F    0.000000   0.000000   0.000000   0.000000   0.007368   0.000135
    20  H    0.000017  -0.000012   0.000003   0.000000  -0.000040   0.000005
    21  H   -0.000037   0.000007  -0.000017   0.000000   0.000094   0.000004
    22  H    0.000001  -0.000043   0.000011   0.000000  -0.000124   0.000014
    23  H    0.000193  -0.000042   0.000353   0.000004   0.000044  -0.000003
    24  H   -0.000402   0.002138  -0.000994  -0.000014   0.000213  -0.000110
    25  H    0.516471  -0.006694   0.007971   0.008632   0.000571   0.001282
    26  H   -0.006694   0.488911  -0.034949  -0.006274   0.000411  -0.001093
    27  H    0.007971  -0.034949   0.490393   0.007707   0.000004  -0.000052
    28  H    0.008632  -0.006274   0.007707   0.386489   0.000000  -0.000093
    29  H    0.000571   0.000411   0.000004   0.000000   0.526021  -0.046053
    30  H    0.001282  -0.001093  -0.000052  -0.000093  -0.046053   0.474283
    31  H   -0.008598   0.001241  -0.000573  -0.000015   0.012416  -0.003734
    32  C   -0.057321   0.009207  -0.009048  -0.000370   0.000150  -0.000166
    33  H    0.008163  -0.000083   0.004405   0.000063   0.000010  -0.000032
    34  H   -0.007670   0.000642  -0.001072  -0.000908  -0.000014   0.000057
    35  H   -0.003978  -0.000218  -0.000086  -0.000027   0.000043   0.000018
    36  H   -0.000347  -0.000232  -0.000063  -0.000009  -0.004966   0.006965
              31         32         33         34         35         36
     1  C   -0.013777  -0.000287   0.000090   0.000022  -0.000178   0.006207
     2  C   -0.042393  -0.009513   0.002169  -0.000154  -0.000357  -0.012725
     3  C    0.403553  -0.061899  -0.007198   0.009171  -0.004776  -0.052982
     4  C   -0.066388   0.288875  -0.035494  -0.034452  -0.041786   0.006839
     5  C    0.007752  -0.080823  -0.006008  -0.010370   0.008056   0.000099
     6  O   -0.000218  -0.004012  -0.000302   0.018474  -0.000294   0.000010
     7  N   -0.049114   0.004857  -0.000108  -0.000190   0.000060   0.338858
     8  C   -0.009181   0.000091  -0.000027  -0.000032   0.000052  -0.048656
     9  C    0.000001   0.000000   0.000000   0.000000   0.000000  -0.000056
    10  C    0.000000   0.000000   0.000000   0.000000   0.000000   0.000014
    11  C    0.000270   0.000003   0.000000   0.000000   0.000000  -0.000599
    12  C    0.000623  -0.000002   0.000000   0.000000  -0.000001  -0.015962
    13  C   -0.000513  -0.000001   0.000000   0.000000   0.000000   0.006279
    14  C   -0.000012   0.000000   0.000000   0.000000   0.000000   0.000042
    15  H    0.000000   0.000000   0.000000   0.000000   0.000000   0.000001
    16  H    0.000000   0.000000   0.000000   0.000000   0.000000   0.000000
    17  H    0.000000   0.000000   0.000000   0.000000   0.000000   0.000003
    18  F   -0.000008   0.000000   0.000000   0.000000   0.000000  -0.000018
    19  F   -0.000077   0.000000   0.000000   0.000000   0.000000   0.005906
    20  H   -0.000344  -0.000010   0.000024  -0.000001   0.000004  -0.000148
    21  H    0.006256   0.000047   0.000046  -0.000007   0.000001  -0.000434
    22  H   -0.001026  -0.000034  -0.000017   0.000002   0.000005   0.005933
    23  H   -0.002232   0.000777   0.001683   0.000156   0.000231   0.000610
    24  H    0.008740   0.001152   0.000210  -0.000072   0.000036  -0.000563
    25  H   -0.008598  -0.057321   0.008163  -0.007670  -0.003978  -0.000347
    26  H    0.001241   0.009207  -0.000083   0.000642  -0.000218  -0.000232
    27  H   -0.000573  -0.009048   0.004405  -0.001072  -0.000086  -0.000063
    28  H   -0.000015  -0.000370   0.000063  -0.000908  -0.000027  -0.000009
    29  H    0.012416   0.000150   0.000010  -0.000014   0.000043  -0.004966
    30  H   -0.003734  -0.000166  -0.000032   0.000057   0.000018   0.006965
    31  H    0.537340   0.001730  -0.000335  -0.000397   0.005389   0.002183
    32  C    0.001730   5.412326   0.382950   0.383646   0.389376  -0.000307
    33  H   -0.000335   0.382950   0.483110  -0.027482  -0.027899  -0.000011
    34  H   -0.000397   0.383646  -0.027482   0.465809  -0.027491   0.000027
    35  H    0.005389   0.389376  -0.027899  -0.027491   0.480216  -0.000023
    36  H    0.002183  -0.000307  -0.000011   0.000027  -0.000023   0.426591
 Mulliken charges:
               1
     1  C   -0.661900
     2  C   -0.484945
     3  C   -0.104315
     4  C   -0.291032
     5  C   -0.192400
     6  O   -0.596437
     7  N   -0.543434
     8  C   -0.377960
     9  C   -0.193749
    10  C   -0.285964
    11  C    0.341723
    12  C   -0.155664
    13  C    0.335460
    14  C   -0.284424
    15  H    0.233496
    16  H    0.234387
    17  H    0.234531
    18  F   -0.237413
    19  F   -0.237313
    20  H    0.231599
    21  H    0.226061
    22  H    0.221393
    23  H    0.242681
    24  H    0.233742
    25  H    0.214720
    26  H    0.223588
    27  H    0.220925
    28  H    0.400279
    29  H    0.227231
    30  H    0.255555
    31  H    0.211440
    32  C   -0.651396
    33  H    0.222075
    34  H    0.232304
    35  H    0.223627
    36  H    0.331531
 Sum of Mulliken charges =   0.00000
 Mulliken charges with hydrogens summed into heavy atoms:
               1
     1  C    0.017153
     2  C   -0.008523
     3  C    0.107126
     4  C   -0.076312
     5  C    0.252114
     6  O   -0.196158
     7  N   -0.211904
     8  C    0.104826
     9  C    0.039747
    10  C   -0.051577
    11  C    0.341723
    12  C   -0.155664
    13  C    0.335460
    14  C   -0.049894
    18  F   -0.237413
    19  F   -0.237313
    32  C    0.026610
 Electronic spatial extent (au):  <R**2>=           5235.3101
 Charge=              0.0000 electrons
 Dipole moment (field-independent basis, Debye):
    X=              2.9448    Y=              1.5332    Z=              0.7608  Tot=              3.4061
 Quadrupole moment (field-independent basis, Debye-Ang):
   XX=            -97.8661   YY=           -103.0091   ZZ=           -103.1401
   XY=            -11.2191   XZ=             -6.8193   YZ=             -3.9827
 Traceless Quadrupole moment (field-independent basis, Debye-Ang):
   XX=              3.4723   YY=             -1.6707   ZZ=             -1.8017
   XY=            -11.2191   XZ=             -6.8193   YZ=             -3.9827
 Octapole moment (field-independent basis, Debye-Ang**2):
  XXX=            122.2800  YYY=            -15.9038  ZZZ=              6.0102  XYY=             23.9643
  XXY=             29.1083  XXZ=            -15.8366  XZZ=             -1.3796  YZZ=              1.7925
  YYZ=              5.2851  XYZ=             16.2263
 Hexadecapole moment (field-independent basis, Debye-Ang**3):
 XXXX=          -4537.7317 YYYY=          -1677.6183 ZZZZ=           -400.2837 XXXY=           -147.1995
 XXXZ=           -120.1314 YYYX=            -27.4345 YYYZ=            -27.2213 ZZZX=             26.5417
 ZZZY=              3.4211 XXYY=          -1118.0886 XXZZ=           -884.8166 YYZZ=           -353.4557
 XXYZ=            -35.2899 YYXZ=            -49.1428 ZZXY=              2.0641
 N-N= 1.261138500441D+03 E-N=-4.480233212643D+03  KE= 8.333379891411D+02
 1\1\GINC-CPU-E-904\SP\RmPW1PW91\6-311G(d)\C13H19F2N1O1\AH809\04-Mar-20
 19\0\\# mPW1PW91/6-311g(d) nmr=giao scrf=(solvent=chloroform)\\AT3_2gi
 np007\\0,1\C,0,-2.284759,-0.217302,-0.823752\C,0,-2.194429,0.012725,0.
 682452\C,0,-2.996101,-1.017128,1.516967\C,0,-2.666077,-0.941716,3.0382
 5\C,0,-2.967254,0.433216,3.654285\O,0,-2.811178,0.387201,5.071246\N,0,
 -4.440361,-0.811539,1.29861\C,0,-5.228216,-2.024558,1.540658\C,0,-9.44
 571,-1.160802,1.200308\C,0,-8.832394,-1.180223,2.452221\C,0,-7.470757,
 -1.464362,2.554377\C,0,-6.697053,-1.737622,1.425293\C,0,-7.328874,-1.7
 07351,0.181066\C,0,-8.688985,-1.425266,0.059874\H,0,-10.506069,-0.9377
 35,1.114213\H,0,-9.403733,-0.973668,3.352379\H,0,-9.147053,-1.410629,-
 0.924587\F,0,-6.909545,-1.480458,3.772463\F,0,-6.620836,-1.951473,-0.9
 31603\H,0,-1.615033,0.473702,-1.346306\H,0,-1.984225,-1.237449,-1.0827
 34\H,0,-3.294438,-0.045573,-1.206587\H,0,-1.134066,-0.034543,0.951229\
 H,0,-2.529472,1.033502,0.90311\H,0,-3.280782,-1.681369,3.567335\H,0,-3
 .990036,0.760949,3.444085\H,0,-2.281954,1.197829,3.275769\H,0,-3.51870
 6,-0.188119,5.410964\H,0,-4.954903,-2.805554,0.81955\H,0,-5.027668,-2.
 441845,2.533235\H,0,-2.715438,-2.014346,1.150906\C,0,-1.215248,-1.3552
 15,3.328762\H,0,-0.497879,-0.599733,2.994535\H,0,-1.061795,-1.497954,4
 .404026\H,0,-0.97373,-2.30259,2.835634\H,0,-4.614772,-0.525263,0.33570
 8\\Version=ES64L-G09RevD.01\State=1-A\HF=-836.4578451\RMSD=7.433e-09\D
 ipole=-0.9059059,-0.5290244,-0.8337916\Quadrupole=7.5607928,-3.4395334
 ,-4.1212594,-3.2863081,-5.2572856,-5.2552928\PG=C01 [X(C13H19F2N1O1)]\
 \@


     "IF I COULD JUST GET IT ON PAPER"
 LIFE AND INK, THEY RUN OUT AT THE SAME TIME,
 OR SO SAID MY OLD FRIEND THE SQUID.
     -- JIMMY BUFFETT, 1981
 Job cpu time:       0 days  0 hours 16 minutes 28.4 seconds.
 File lengths (MBytes):  RWF=    191 Int=      0 D2E=      0 Chk=     10 Scr=      1
 Normal termination of Gaussian 09 at Mon Mar  4 11:28:29 2019.
