 Entering Gaussian System, Link 0=/usr/local/Cluster-Apps/gaussian/g09/g09
 Initial command:
 /usr/local/Cluster-Apps/gaussian/g09/l1.exe "/home/ah809/rds/hpc-work/04Mar1111AT3/Gau-102909.inp" -scrdir="/home/ah809/rds/hpc-work/04Mar1111AT3/"
 Entering Link 1 = /usr/local/Cluster-Apps/gaussian/g09/l1.exe PID=    102929.
  
 Copyright (c) 1988,1990,1992,1993,1995,1998,2003,2009,2013,
            Gaussian, Inc.  All Rights Reserved.
  
 This is part of the Gaussian(R) 09 program.  It is based on
 the Gaussian(R) 03 system (copyright 2003, Gaussian, Inc.),
 the Gaussian(R) 98 system (copyright 1998, Gaussian, Inc.),
 the Gaussian(R) 94 system (copyright 1995, Gaussian, Inc.),
 the Gaussian 92(TM) system (copyright 1992, Gaussian, Inc.),
 the Gaussian 90(TM) system (copyright 1990, Gaussian, Inc.),
 the Gaussian 88(TM) system (copyright 1988, Gaussian, Inc.),
 the Gaussian 86(TM) system (copyright 1986, Carnegie Mellon
 University), and the Gaussian 82(TM) system (copyright 1983,
 Carnegie Mellon University). Gaussian is a federally registered
 trademark of Gaussian, Inc.
  
 This software contains proprietary and confidential information,
 including trade secrets, belonging to Gaussian, Inc.
  
 This software is provided under written license and may be
 used, copied, transmitted, or stored only in accord with that
 written license.
  
 The following legend is applicable only to US Government
 contracts under FAR:
  
                    RESTRICTED RIGHTS LEGEND
  
 Use, reproduction and disclosure by the US Government is
 subject to restrictions as set forth in subparagraphs (a)
 and (c) of the Commercial Computer Software - Restricted
 Rights clause in FAR 52.227-19.
  
 Gaussian, Inc.
 340 Quinnipiac St., Bldg. 40, Wallingford CT 06492
  
  
 ---------------------------------------------------------------
 Warning -- This program may not be used in any manner that
 competes with the business of Gaussian, Inc. or will provide
 assistance to any competitor of Gaussian, Inc.  The licensee
 of this program is prohibited from giving any competitor of
 Gaussian, Inc. access to this program.  By using this program,
 the user acknowledges that Gaussian, Inc. is engaged in the
 business of creating and licensing software in the field of
 computational chemistry and represents and warrants to the
 licensee that it is not a competitor of Gaussian, Inc. and that
 it will not use this program in any manner prohibited above.
 ---------------------------------------------------------------
  

 Cite this work as:
 Gaussian 09, Revision D.01,
 M. J. Frisch, G. W. Trucks, H. B. Schlegel, G. E. Scuseria, 
 M. A. Robb, J. R. Cheeseman, G. Scalmani, V. Barone, B. Mennucci, 
 G. A. Petersson, H. Nakatsuji, M. Caricato, X. Li, H. P. Hratchian, 
 A. F. Izmaylov, J. Bloino, G. Zheng, J. L. Sonnenberg, M. Hada, 
 M. Ehara, K. Toyota, R. Fukuda, J. Hasegawa, M. Ishida, T. Nakajima, 
 Y. Honda, O. Kitao, H. Nakai, T. Vreven, J. A. Montgomery, Jr., 
 J. E. Peralta, F. Ogliaro, M. Bearpark, J. J. Heyd, E. Brothers, 
 K. N. Kudin, V. N. Staroverov, T. Keith, R. Kobayashi, J. Normand, 
 K. Raghavachari, A. Rendell, J. C. Burant, S. S. Iyengar, J. Tomasi, 
 M. Cossi, N. Rega, J. M. Millam, M. Klene, J. E. Knox, J. B. Cross, 
 V. Bakken, C. Adamo, J. Jaramillo, R. Gomperts, R. E. Stratmann, 
 O. Yazyev, A. J. Austin, R. Cammi, C. Pomelli, J. W. Ochterski, 
 R. L. Martin, K. Morokuma, V. G. Zakrzewski, G. A. Voth, 
 P. Salvador, J. J. Dannenberg, S. Dapprich, A. D. Daniels, 
 O. Farkas, J. B. Foresman, J. V. Ortiz, J. Cioslowski, 
 and D. J. Fox, Gaussian, Inc., Wallingford CT, 2013.
 
 ******************************************
 Gaussian 09:  ES64L-G09RevD.01 24-Apr-2013
                 4-Mar-2019 
 ******************************************
 %nprocshared=8
 Will use up to    8 processors via shared memory.
 %mem=6000MB
 %chk=AT3_1ginp020.chk
 -------------------------------------------------------
 # mPW1PW91/6-311g(d) nmr=giao scrf=(solvent=chloroform)
 -------------------------------------------------------
 1/38=1/1;
 2/12=2,17=6,18=5,40=1/2;
 3/5=4,6=6,7=1,11=2,16=1,25=1,30=1,70=2201,72=7,74=-7/1,2,8,3;
 4//1;
 5/5=2,38=5,53=7/2;
 8/6=1,10=90,11=11/1;
 10/13=100,45=16/2;
 6/7=2,8=2,9=2,10=2,28=1/1;
 99/9=1/99;
 ------------
 AT3_1ginp020
 ------------
 Symbolic Z-matrix:
 Charge =  0 Multiplicity = 1
 C                    -0.19992  -1.19524   2.4742 
 C                    -0.95285   0.13081   2.39868 
 C                    -0.0331    1.36597   2.55207 
 C                    -0.82922   2.70855   2.63959 
 C                    -1.77263   2.76858   3.85289 
 O                    -1.05418   2.50902   5.05013 
 N                     0.94192   1.33506   1.44538 
 C                     2.07459   2.23827   1.63886 
 C                     5.01641   1.66556  -1.47404 
 C                     5.23022   1.13671  -0.20202 
 C                     4.27843   1.32729   0.80009 
 C                     3.1046    2.04345   0.56281 
 C                     2.90895   2.56311  -0.71861 
 C                     3.84944   2.38237  -1.73224 
 H                     5.75385   1.51816  -2.25868 
 H                     6.13217   0.57419   0.0201 
 H                     3.66223   2.8006   -2.71658 
 F                     4.52026   0.81358   2.01477 
 F                     1.79275   3.25451  -0.99431 
 H                    -0.90786  -2.02964   2.43782 
 H                     0.49539  -1.31463   1.63781 
 H                     0.36483  -1.27196   3.40877 
 H                    -1.49809   0.16924   1.44816 
 H                    -1.70339   0.12187   3.19568 
 H                    -0.09459   3.50965   2.79393 
 H                    -2.59334   2.04978   3.76938 
 H                    -2.21247   3.76869   3.93694 
 H                    -1.68716   2.57611   5.78584 
 H                     1.75582   3.28683   1.62173 
 H                     2.53462   2.06701   2.61959 
 H                     0.52083   1.23317   3.49094 
 C                    -1.62077   3.04889   1.37177 
 H                    -0.96951   3.12626   0.4964 
 H                    -2.39266   2.30182   1.16316 
 H                    -2.12195   4.0171    1.48262 
 H                     0.48551   1.54477   0.55971 
 
                          Input orientation:                          
 ---------------------------------------------------------------------
 Center     Atomic      Atomic             Coordinates (Angstroms)
 Number     Number       Type             X           Y           Z
 ---------------------------------------------------------------------
      1          6           0       -0.199915   -1.195241    2.474200
      2          6           0       -0.952846    0.130805    2.398676
      3          6           0       -0.033098    1.365965    2.552069
      4          6           0       -0.829216    2.708549    2.639592
      5          6           0       -1.772632    2.768577    3.852891
      6          8           0       -1.054180    2.509022    5.050128
      7          7           0        0.941920    1.335056    1.445375
      8          6           0        2.074587    2.238271    1.638858
      9          6           0        5.016412    1.665561   -1.474040
     10          6           0        5.230217    1.136709   -0.202019
     11          6           0        4.278435    1.327292    0.800093
     12          6           0        3.104596    2.043452    0.562812
     13          6           0        2.908950    2.563105   -0.718613
     14          6           0        3.849441    2.382366   -1.732240
     15          1           0        5.753845    1.518161   -2.258677
     16          1           0        6.132174    0.574185    0.020103
     17          1           0        3.662231    2.800599   -2.716583
     18          9           0        4.520259    0.813583    2.014767
     19          9           0        1.792746    3.254508   -0.994314
     20          1           0       -0.907859   -2.029642    2.437817
     21          1           0        0.495391   -1.314632    1.637805
     22          1           0        0.364833   -1.271962    3.408765
     23          1           0       -1.498085    0.169241    1.448159
     24          1           0       -1.703387    0.121871    3.195682
     25          1           0       -0.094593    3.509654    2.793934
     26          1           0       -2.593343    2.049783    3.769381
     27          1           0       -2.212472    3.768694    3.936938
     28          1           0       -1.687157    2.576107    5.785842
     29          1           0        1.755815    3.286835    1.621733
     30          1           0        2.534616    2.067014    2.619588
     31          1           0        0.520829    1.233167    3.490936
     32          6           0       -1.620769    3.048890    1.371765
     33          1           0       -0.969508    3.126263    0.496397
     34          1           0       -2.392657    2.301818    1.163157
     35          1           0       -2.121952    4.017104    1.482616
     36          1           0        0.485505    1.544773    0.559705
 ---------------------------------------------------------------------
                    Distance matrix (angstroms):
                    1          2          3          4          5
     1  C    0.000000
     2  C    1.526764   0.000000
     3  C    2.567814   1.547607   0.000000
     4  C    3.957645   2.591928   1.563328   0.000000
     5  C    4.481750   3.121639   2.585621   1.538093   0.000000
     6  O    4.592030   3.563198   2.930783   2.429219   1.420183
     7  N    2.960519   2.439086   1.475258   2.539598   3.901270
     8  C    4.202399   3.766177   2.457073   3.107202   4.470376
     9  C    7.140228   7.279110   6.465049   7.223653   8.699653
    10  C    6.487409   6.782752   5.944749   6.874748   8.255010
    11  C    5.405685   5.599406   4.654055   5.601761   6.929090
    12  C    5.006229   4.846798   3.776408   4.497805   5.927713
    13  C    5.829602   5.526938   4.559183   5.027184   6.546608
    14  C    6.847678   6.722794   5.870476   6.411641   7.934138
    15  H    8.075267   8.282234   7.526962   8.291366   9.775616
    16  H    7.017750   7.486769   6.711806   7.738099   9.054920
    17  H    7.604416   7.388681   6.593355   6.990721   8.526239
    18  F    5.150388   5.528874   4.618103   5.709482   6.841139
    19  F    5.983440   5.367325   4.413291   4.514203   6.036841
    20  H    1.094867   2.161270   3.508334   4.743137   5.076729
    21  H    1.094194   2.183026   2.881107   4.352487   5.169442
    22  H    1.094641   2.173548   2.801952   4.226328   4.592598
    23  H    2.144718   1.096470   2.190195   2.883571   3.551712
    24  H    2.125029   1.094811   2.179879   2.786452   2.727961
    25  H    4.716923   3.508482   2.158167   1.097844   2.118112
    26  H    4.235112   2.872723   2.916215   2.196028   1.094169
    27  H    5.552534   4.145738   3.527129   2.172651   1.095791
    28  H    5.234685   4.241652   3.828530   3.263816   1.944389
    29  H    4.963928   4.230959   2.784866   2.837752   4.206732
    30  H    4.259238   3.995009   2.662552   3.424519   4.534932
    31  H    2.729540   2.140082   1.098154   2.173513   2.783605
    32  C    4.609429   3.164789   2.597317   1.532897   2.501524
    33  H    4.814496   3.548480   2.863791   2.188025   3.469726
    34  H    4.330863   2.883203   2.893513   2.188524   2.799458
    35  H    5.643227   4.160444   3.540562   2.173034   2.701675
    36  H    3.412150   2.729464   2.066503   2.721910   4.176356
                    6          7          8          9         10
     6  O    0.000000
     7  N    4.284490   0.000000
     8  C    4.636729   1.461563   0.000000
     9  C    8.951440   5.023316   4.321165   0.000000
    10  C    8.304332   4.598123   3.815792   1.394071   0.000000
    11  C    6.920698   3.398350   2.527915   2.414688   1.395148
    12  C    6.135811   2.440883   1.502248   2.818973   2.434217
    13  C    6.999121   3.171775   2.521775   2.411981   2.773041
    14  C    8.370308   4.432581   3.812502   1.393664   2.408273
    15  H   10.037412   6.075208   5.407983   1.086825   2.156278
    16  H    8.982674   5.435905   4.674779   2.160669   1.085955
    17  H    9.091279   5.183609   4.669764   2.160100   3.398550
    18  F    6.569802   3.660690   2.855233   3.625439   2.350019
    19  F    6.722798   3.218739   2.836506   3.625867   4.114488
    20  H    5.238802   3.965831   5.267675   8.003383   7.393950
    21  H    5.354012   2.693931   3.888056   6.245379   5.640266
    22  H    4.359302   3.314283   4.286906   7.355815   6.520078
    23  H    4.318079   2.704211   4.132945   7.294991   6.994936
    24  H    3.091752   3.396033   4.601732   8.327363   7.787755
    25  H    2.648109   2.760769   2.766940   6.909316   6.554403
    26  H    2.054321   4.290679   5.134611   9.249295   8.821214
    27  H    2.041471   4.699007   5.099239   9.271387   8.913581
    28  H    0.972849   5.224166   5.609129   9.923347   9.261555
    29  H    4.500551   2.122020   1.096082   4.779522   4.474437
    30  H    4.356874   2.109791   1.096716   4.803984   4.011633
    31  H    2.557252   2.090937   2.618127   6.711797   5.985445
    32  C    3.760696   3.083832   3.792637   7.352848   7.284864
    33  H    4.596153   2.786133   3.370499   6.468965   6.548488
    34  H    4.116187   3.483343   4.492950   7.890116   7.831308
    35  H    4.017660   4.072110   4.560658   8.076374   8.073974
    36  H    4.843997   1.018188   2.042227   4.967879   4.822762
                   11         12         13         14         15
    11  C    0.000000
    12  C    1.395380   0.000000
    13  C    2.389391   1.396555   0.000000
    14  C    2.776676   2.436580   1.394500   0.000000
    15  H    3.401373   3.905797   3.399578   2.156558   0.000000
    16  H    2.147534   3.408740   3.858844   3.398690   2.495408
    17  H    3.862299   3.411548   2.148423   1.085770   2.495831
    18  F    1.340824   2.371677   3.623329   4.117176   4.503386
    19  F    3.621147   2.369018   1.341626   2.352692   4.505976
    20  H    6.391306   6.017103   6.754584   7.712788   8.889447
    21  H    4.689664   4.386375   5.139535   6.022844   7.131523
    22  H    5.373786   5.157298   6.181870   7.206007   8.303381
    23  H    5.926994   5.047889   5.463281   6.603703   8.255344
    24  H    6.555462   5.808716   6.523418   7.760680   9.343980
    25  H    5.278397   4.166829   4.717543   6.108390   7.981175
    26  H    7.520638   6.538244   7.119046   8.478674  10.309978
    27  H    7.611315   6.529349   7.025423   8.414765  10.339862
    28  H    7.874358   7.108070   7.964440   9.338791  11.009180
    29  H    3.298259   2.118142   2.707531   4.055918   5.845514
    30  H    2.626529   2.134423   3.395559   4.557041   5.870447
    31  H    4.622672   3.988273   5.019179   6.299356   7.779700
    32  C    6.171816   4.898406   5.012387   6.324737   8.361111
    33  H    5.556027   4.216066   4.103149   5.361201   7.441767
    34  H    6.751665   5.535969   5.631729   6.881395   8.870657
    35  H    6.976093   5.661991   5.680625   6.976045   9.070290
    36  H    3.806757   2.666145   2.923043   4.155796   5.974897
                   16         17         18         19         20
    16  H    0.000000
    17  H    4.306621   0.000000
    18  F    2.575707   5.202895   0.000000
    19  F    5.200366   2.582096   4.738355   0.000000
    20  H    7.885894   8.413370   6.142261   6.855292   0.000000
    21  H    6.160999   6.776776   4.568475   5.430306   1.766457
    22  H    6.939273   8.060923   4.853895   6.474177   1.771035
    23  H    7.773299   7.134282   6.079201   5.129729   2.482514
    24  H    8.466694   8.421420   6.372346   6.292251   2.415830
    25  H    7.421842   6.706883   5.401181   4.240044   5.609993
    26  H    9.610886   9.042326   7.430356   6.586496   4.610383
    27  H    9.756003   8.928532   7.599808   6.373649   6.129444
    28  H    9.919343  10.047765   7.473922   7.651174   5.747130
    29  H    5.392236   4.763595   3.730094   2.616507   6.002173
    30  H    4.682765   5.503125   2.424804   3.875668   5.354089
    31  H    6.630847   7.131517   4.283756   5.081443   3.714314
    32  C    8.249805   6.684783   6.566755   4.158448   5.237957
    33  H    7.561339   5.646442   6.147477   3.141451   5.509652
    34  H    8.772915   7.208525   7.122394   4.804154   4.752992
    35  H    9.062187   7.250512   7.393558   4.694848   6.240959
    36  H    5.754831   4.733154   4.350987   2.654628   4.271441
                   21         22         23         24         25
    21  H    0.000000
    22  H    1.776279   0.000000
    23  H    2.492347   3.064556   0.000000
    24  H    3.053710   2.503140   1.760179   0.000000
    25  H    4.995843   4.842824   3.865134   3.771829   0.000000
    26  H    5.040157   4.462605   3.181839   2.199545   3.053927
    27  H    6.201511   5.685920   4.434009   3.756055   2.420531
    28  H    6.091599   4.966769   4.964297   3.568258   3.515577
    29  H    4.770998   5.090279   4.509699   4.945745   2.201752
    30  H    4.069136   4.059497   4.608304   4.698525   3.004055
    31  H    3.150559   2.511326   3.062824   2.503855   2.459055
    32  C    4.856875   5.173176   2.883273   3.449774   2.136371
    33  H    4.813553   5.441207   3.151067   4.105008   2.488200
    34  H    4.652400   5.041667   2.330101   3.059153   3.065844
    35  H    5.941547   6.153728   3.898262   4.275819   2.467234
    36  H    3.055911   4.008204   2.572172   3.710023   3.031345
                   26         27         28         29         30
    26  H    0.000000
    27  H    1.768557   0.000000
    28  H    2.272511   2.262005   0.000000
    29  H    5.005783   4.619487   5.449678   0.000000
    30  H    5.255310   5.212098   5.301670   1.757899   0.000000
    31  H    3.231480   3.754830   3.456195   3.039188   2.347315
    32  C    2.773568   2.729165   4.439821   3.394175   4.448412
    33  H    3.808947   3.714162   5.366183   2.952888   4.231883
    34  H    2.626062   3.142937   4.684248   4.288400   5.143379
    35  H    3.053171   2.468521   4.558868   3.948382   5.174861
    36  H    4.476199   4.861132   5.752966   2.403408   2.952069
                   31         32         33         34         35
    31  H    0.000000
    32  C    3.517695   0.000000
    33  H    3.843459   1.093799   0.000000
    34  H    3.879300   1.094278   1.774720   0.000000
    35  H    4.332199   1.095861   1.759077   1.765656   0.000000
    36  H    2.947959   2.712600   2.149926   3.036624   3.709854
                   36
    36  H    0.000000
 Stoichiometry    C13H19F2NO
 Framework group  C1[X(C13H19F2NO)]
 Deg. of freedom   102
 Full point group                 C1      NOp   1
 Largest Abelian subgroup         C1      NOp   1
 Largest concise Abelian subgroup C1      NOp   1
                         Standard orientation:                         
 ---------------------------------------------------------------------
 Center     Atomic      Atomic             Coordinates (Angstroms)
 Number     Number       Type             X           Y           Z
 ---------------------------------------------------------------------
      1          6           0        1.933294   -2.221130    1.988483
      2          6           0        2.524981   -0.905529    1.488377
      3          6           0        1.870360   -0.398325    0.180974
      4          6           0        2.590512    0.856440   -0.411429
      5          6           0        4.057255    0.584968   -0.786527
      6          8           0        4.144536   -0.529016   -1.663077
      7          7           0        0.438618   -0.174855    0.457676
      8          6           0       -0.372165   -0.017549   -0.748166
      9          6           0       -4.568925    0.172336    0.263572
     10          6           0       -4.027265   -0.999619   -0.262319
     11          6           0       -2.672261   -1.054329   -0.590054
     12          6           0       -1.833607    0.045645   -0.406200
     13          6           0       -2.395657    1.209147    0.123640
     14          6           0       -3.747812    1.281709    0.456869
     15          1           0       -5.623438    0.219410    0.522369
     16          1           0       -4.649173   -1.875789   -0.419975
     17          1           0       -4.148973    2.203374    0.867357
     18          9           0       -2.186090   -2.193835   -1.102862
     19          9           0       -1.626544    2.290318    0.322370
     20          1           0        2.484998   -2.568694    2.868004
     21          1           0        0.884305   -2.109200    2.278922
     22          1           0        1.999672   -2.997449    1.219613
     23          1           0        2.433039   -0.156460    2.283793
     24          1           0        3.595483   -1.072153    1.330662
     25          1           0        2.083588    1.104651   -1.353066
     26          1           0        4.676230    0.391592    0.094768
     27          1           0        4.478451    1.453045   -1.305944
     28          1           0        5.084382   -0.648155   -1.884283
     29          1           0       -0.107516    0.897788   -1.289934
     30          1           0       -0.194517   -0.851733   -1.437633
     31          1           0        1.947427   -1.215203   -0.548897
     32          6           0        2.524128    2.096665    0.487019
     33          1           0        1.491487    2.394115    0.690911
     34          1           0        3.031456    1.932472    1.442584
     35          1           0        3.010644    2.948635   -0.001203
     36          1           0        0.312527    0.634954    1.061842
 ---------------------------------------------------------------------
 Rotational constants (GHZ):      0.7596271      0.2344689      0.2111010
 Standard basis: 6-311G(d) (5D, 7F)
 There are   380 symmetry adapted cartesian basis functions of A   symmetry.
 There are   363 symmetry adapted basis functions of A   symmetry.
   363 basis functions,   639 primitive gaussians,   380 cartesian basis functions
    65 alpha electrons       65 beta electrons
       nuclear repulsion energy      1258.7379802033 Hartrees.
 NAtoms=   36 NActive=   36 NUniq=   36 SFac= 1.00D+00 NAtFMM=   60 NAOKFM=F Big=F
 Integral buffers will be    131072 words long.
 Raffenetti 2 integral format.
 Two-electron integral symmetry is turned on.
 ------------------------------------------------------------------------------
 Polarizable Continuum Model (PCM)
 =================================
 Model                : PCM (using non-symmetric T matrix).
 Atomic radii         : UFF (Universal Force Field).
 Polarization charges : Total charges.
 Charge compensation  : None.
 Solution method      : On-the-fly selection.
 Cavity type          : Scaled VdW (van der Waals Surface) (Alpha=1.100).
 Cavity algorithm     : GePol (No added spheres)
                        Default sphere list used, NSphG=   36.
                        Lebedev-Laikov grids with approx.  5.0 points / Ang**2.
                        Smoothing algorithm: Karplus/York (Gamma=1.0000).
                        Polarization charges: spherical gaussians, with
                                              point-specific exponents (IZeta= 3).
                        Self-potential: point-specific (ISelfS= 7).
                        Self-field    : sphere-specific E.n sum rule (ISelfD= 2).
 Solvent              : Chloroform, Eps=   4.711300 Eps(inf)=   2.090627
 ------------------------------------------------------------------------------
 One-electron integrals computed using PRISM.
 NBasis=   363 RedAO= T EigKep=  2.47D-04  NBF=   363
 NBsUse=   363 1.00D-06 EigRej= -1.00D+00 NBFU=   363
 ExpMin= 1.03D-01 ExpMax= 1.14D+04 ExpMxC= 1.72D+03 IAcc=1 IRadAn=         1 AccDes= 0.00D+00
 Harris functional with IExCor=  908 and IRadAn=       1 diagonalized for initial guess.
 HarFok:  IExCor=  908 AccDes= 0.00D+00 IRadAn=         1 IDoV= 1 UseB2=F ITyADJ=14
 ICtDFT=  3500011 ScaDFX=  1.000000  1.000000  1.000000  1.000000
 FoFCou: FMM=F IPFlag=           0 FMFlag=      100000 FMFlg1=           0
         NFxFlg=           0 DoJE=T BraDBF=F KetDBF=T FulRan=T
         wScrn=  0.000000 ICntrl=     500 IOpCl=  0 I1Cent=   200000004 NGrid=           0
         NMat0=    1 NMatS0=      1 NMatT0=    0 NMatD0=    1 NMtDS0=    0 NMtDT0=    0
 Petite list used in FoFCou.
 Requested convergence on RMS density matrix=1.00D-08 within 128 cycles.
 Requested convergence on MAX density matrix=1.00D-06.
 Requested convergence on             energy=1.00D-06.
 No special actions if energy rises.
 Inv3:  Mode=1 IEnd=    19263468.
 Iteration    1 A*A^-1 deviation from unit magnitude is 4.55D-15 for    946.
 Iteration    1 A*A^-1 deviation from orthogonality  is 2.04D-15 for   1886   1720.
 Iteration    1 A^-1*A deviation from unit magnitude is 6.88D-15 for    309.
 Iteration    1 A^-1*A deviation from orthogonality  is 3.20D-12 for   2470   2465.
 Error on total polarization charges =  0.00950
 SCF Done:  E(RmPW1PW91) =  -836.457842976     A.U. after   12 cycles
            NFock= 12  Conv=0.63D-08     -V/T= 2.0037
 DoSCS=F DFT=T ScalE2(SS,OS)=  1.000000  1.000000
 Range of M.O.s used for correlation:     1   363
 NBasis=   363 NAE=    65 NBE=    65 NFC=     0 NFV=     0
 NROrb=    363 NOA=    65 NOB=    65 NVA=   298 NVB=   298

 **** Warning!!: The largest alpha MO coefficient is  0.10431102D+02

 NEqPCM:  Using equilibrium solvation (IEInf=0, Eps=   4.7113, EpsInf=   2.0906)
          Differentiating once with respect to magnetic field using GIAOs.
          Electric field/nuclear overlap derivatives assumed to be zero.
 FoFJK:  IHMeth= 1 ICntrl=    6127 DoSepK=F KAlg= 0 I1Cent=   0 FoldK=F
 IRaf=         1 NMat=   1 IRICut=       1 DoRegI=T DoRafI=F ISym2E= 0.
          There are     3 degrees of freedom in the 1st order CPHF.  IDoFFX=0 NUNeed=     3.
      3 vectors produced by pass  0 Test12= 6.46D-13 3.33D-08 XBig12= 4.77D+01 2.15D+00.
 AX will form     3 AO Fock derivatives at one time.
      3 vectors produced by pass  1 Test12= 6.46D-13 3.33D-08 XBig12= 1.42D-01 1.91D-01.
      3 vectors produced by pass  2 Test12= 6.46D-13 3.33D-08 XBig12= 6.79D-04 8.14D-03.
      3 vectors produced by pass  3 Test12= 6.46D-13 3.33D-08 XBig12= 1.62D-06 2.77D-04.
      3 vectors produced by pass  4 Test12= 6.46D-13 3.33D-08 XBig12= 3.60D-09 1.56D-05.
      3 vectors produced by pass  5 Test12= 6.46D-13 3.33D-08 XBig12= 1.33D-11 8.45D-07.
      2 vectors produced by pass  6 Test12= 6.46D-13 3.33D-08 XBig12= 3.13D-14 3.83D-08.
 InvSVY:  IOpt=1 It=  1 EMax= 1.78D-15
 Solved reduced A of dimension    20 with     3 vectors.
 Calculating GIAO nuclear magnetic shielding tensors.
 SCF GIAO Magnetic shielding tensor (ppm):
      1  C    Isotropic =   174.2417   Anisotropy =    22.4424
   XX=   164.2632   YX=     7.5755   ZX=    -0.6202
   XY=     5.9278   YY=   186.1638   ZY=    -5.4470
   XZ=     2.2733   YZ=    -4.0450   ZZ=   172.2980
   Eigenvalues:   161.8979   171.6238   189.2033
      2  C    Isotropic =   164.3445   Anisotropy =    15.8298
   XX=   165.9599   YX=     0.0366   ZX=     4.0578
   XY=    -1.6728   YY=   161.9387   ZY=    -5.4873
   XZ=    12.3196   YZ=    -3.8069   ZZ=   165.1348
   Eigenvalues:   155.8580   162.2778   174.8977
      3  C    Isotropic =   125.2716   Anisotropy =    29.0545
   XX=   141.2954   YX=   -11.6543   ZX=     4.9901
   XY=    -3.3610   YY=   120.2771   ZY=    -6.3723
   XZ=     1.5622   YZ=    -7.5217   ZZ=   114.2424
   Eigenvalues:   109.6164   121.5572   144.6413
      4  C    Isotropic =   152.8051   Anisotropy =    20.4891
   XX=   153.7664   YX=    -4.0599   ZX=   -11.7694
   XY=     0.3201   YY=   157.6350   ZY=     1.8190
   XZ=   -12.4094   YZ=    11.1042   ZZ=   147.0139
   Eigenvalues:   137.0110   154.9398   166.4645
      5  C    Isotropic =   119.6401   Anisotropy =    61.5522
   XX=   110.3044   YX=   -11.8029   ZX=   -12.2971
   XY=    -4.3227   YY=   133.5267   ZY=    33.0187
   XZ=    -7.9017   YZ=    30.8712   ZZ=   115.0893
   Eigenvalues:    90.4657   107.7798   160.6749
      6  O    Isotropic =   308.3811   Anisotropy =   126.3121
   XX=   376.2071   YX=   -38.2765   ZX=   -42.9703
   XY=   -19.0375   YY=   267.3351   ZY=     7.1032
   XZ=   -19.0172   YZ=     9.8870   ZZ=   281.6012
   Eigenvalues:   260.2023   272.3519   392.5892
      7  N    Isotropic =   210.8665   Anisotropy =    42.6301
   XX=   232.5241   YX=   -23.3036   ZX=    -4.5373
   XY=   -18.3901   YY=   173.8317   ZY=    28.8176
   XZ=    19.0490   YZ=    20.9201   ZZ=   226.2438
   Eigenvalues:   157.4332   235.8798   239.2866
      8  C    Isotropic =   148.1584   Anisotropy =    49.6120
   XX=   152.4971   YX=    -4.3022   ZX=    18.7284
   XY=   -10.3941   YY=   125.8657   ZY=    -1.6671
   XZ=    22.0333   YZ=     0.1558   ZZ=   166.1122
   Eigenvalues:   123.3410   139.9011   181.2330
      9  C    Isotropic =    55.0383   Anisotropy =   184.8419
   XX=   -40.5649   YX=    -5.7081   ZX=    48.6382
   XY=    -5.2908   YY=    52.5081   ZY=   -41.7798
   XZ=    47.3942   YZ=   -41.3377   ZZ=   153.1715
   Eigenvalues:   -51.9887    38.8373   178.2662
     10  C    Isotropic =    70.4583   Anisotropy =   148.9662
   XX=    40.5232   YX=   -33.6421   ZX=    18.6289
   XY=   -42.1877   YY=    19.7488   ZY=   -41.6847
   XZ=    15.2009   YZ=   -43.9993   ZZ=   151.1028
   Eigenvalues:   -13.0742    54.6800   169.7691
     11  C    Isotropic =    19.7354   Anisotropy =   100.2292
   XX=    26.5303   YX=    29.6355   ZX=    25.0427
   XY=    23.8879   YY=   -33.4959   ZY=   -47.7735
   XZ=    20.2298   YZ=   -43.9890   ZZ=    66.1717
   Eigenvalues:   -63.7051    36.3564    86.5548
     12  C    Isotropic =    65.1409   Anisotropy =   142.4365
   XX=    26.5732   YX=    -8.9625   ZX=    31.1319
   XY=   -10.2057   YY=    30.9719   ZY=   -41.6110
   XZ=    29.1313   YZ=   -43.0738   ZZ=   137.8775
   Eigenvalues:    16.0089    19.3152   160.0985
     13  C    Isotropic =    19.4654   Anisotropy =    97.3904
   XX=     9.4193   YX=   -52.3261   ZX=     0.1889
   XY=   -46.5827   YY=   -24.9539   ZY=   -26.9546
   XZ=     0.0208   YZ=   -29.5693   ZZ=    73.9307
   Eigenvalues:   -64.0186    38.0224    84.3923
     14  C    Isotropic =    71.2176   Anisotropy =   147.5903
   XX=    54.4372   YX=     7.4655   ZX=    29.3168
   XY=    15.4649   YY=    16.1025   ZY=   -56.3557
   XZ=    32.8908   YZ=   -54.8616   ZZ=   143.1133
   Eigenvalues:   -12.2483    56.2901   169.6112
     15  H    Isotropic =    24.5503   Anisotropy =     3.1832
   XX=    25.8313   YX=     0.4727   ZX=    -0.8266
   XY=     0.4079   YY=    26.0748   ZY=     1.6516
   XZ=    -0.8547   YZ=     1.6786   ZZ=    21.7448
   Eigenvalues:    20.9965    25.9819    26.6724
     16  H    Isotropic =    25.1524   Anisotropy =     4.8747
   XX=    28.1142   YX=     0.2489   ZX=    -1.2815
   XY=    -0.2067   YY=    25.2885   ZY=     1.5057
   XZ=    -1.2935   YZ=     1.4004   ZZ=    22.0547
   Eigenvalues:    21.2821    25.7730    28.4022
     17  H    Isotropic =    25.2205   Anisotropy =     5.1727
   XX=    28.4397   YX=     0.1425   ZX=    -1.3480
   XY=     0.3921   YY=    25.3176   ZY=     1.2008
   XZ=    -1.1392   YZ=     1.2158   ZZ=    21.9043
   Eigenvalues:    21.2954    25.6972    28.6690
     18  F    Isotropic =   300.5391   Anisotropy =   126.0621
   XX=   239.5984   YX=   -29.2417   ZX=    22.0394
   XY=   -31.5753   YY=   289.0925   ZY=   -24.9395
   XZ=    19.3286   YZ=   -22.0811   ZZ=   372.9264
   Eigenvalues:   224.6011   292.4357   384.5805
     19  F    Isotropic =   307.3219   Anisotropy =   126.8079
   XX=   257.4572   YX=     9.5971   ZX=    32.5473
   XY=    23.9926   YY=   300.1885   ZY=   -37.1566
   XZ=    26.6617   YZ=   -57.0247   ZZ=   364.3198
   Eigenvalues:   234.9027   295.2024   391.8605
     20  H    Isotropic =    31.1887   Anisotropy =    11.1569
   XX=    28.6169   YX=    -0.6060   ZX=     2.7348
   XY=    -1.2324   YY=    31.2749   ZY=    -5.1068
   XZ=     3.7074   YZ=    -4.9708   ZZ=    33.6741
   Eigenvalues:    26.2379    28.7014    38.6266
     21  H    Isotropic =    30.6463   Anisotropy =     6.7280
   XX=    34.0248   YX=    -0.2435   ZX=    -2.3570
   XY=     0.5342   YY=    29.1568   ZY=    -3.1075
   XZ=    -1.7712   YZ=    -4.1063   ZZ=    28.7574
   Eigenvalues:    25.1168    31.6905    35.1317
     22  H    Isotropic =    31.3655   Anisotropy =     8.8420
   XX=    27.5725   YX=    -0.1397   ZX=     0.0833
   XY=    -0.3050   YY=    36.7851   ZY=     2.4517
   XZ=     0.0251   YZ=     1.3108   ZZ=    29.7388
   Eigenvalues:    27.5616    29.2747    37.2602
     23  H    Isotropic =    31.1166   Anisotropy =     5.6339
   XX=    26.6555   YX=     1.4855   ZX=     1.7401
   XY=     0.9887   YY=    33.2184   ZY=     0.9692
   XZ=     1.8545   YZ=     0.9171   ZZ=    33.4759
   Eigenvalues:    26.0744    32.4029    34.8726
     24  H    Isotropic =    30.5153   Anisotropy =     7.7241
   XX=    35.5939   YX=    -0.7277   ZX=    -0.1879
   XY=    -0.4447   YY=    28.5009   ZY=    -4.0715
   XZ=     0.2314   YZ=    -4.2871   ZZ=    27.4512
   Eigenvalues:    23.7523    32.1290    35.6648
     25  H    Isotropic =    29.4023   Anisotropy =     4.5127
   XX=    29.9220   YX=     1.0603   ZX=     1.1660
   XY=     0.0583   YY=    27.0429   ZY=    -2.3288
   XZ=     1.1007   YZ=    -1.8803   ZZ=    31.2419
   Eigenvalues:    25.9363    29.8598    32.4107
     26  H    Isotropic =    28.4087   Anisotropy =     3.5809
   XX=    30.2326   YX=    -0.2879   ZX=     0.4758
   XY=     0.1047   YY=    26.6609   ZY=     3.0317
   XZ=     1.4396   YZ=     0.9902   ZZ=    28.3328
   Eigenvalues:    25.2431    29.1871    30.7960
     27  H    Isotropic =    28.2378   Anisotropy =     6.3346
   XX=    27.6145   YX=     2.0910   ZX=    -3.6775
   XY=     2.6008   YY=    30.9243   ZY=    -0.5597
   XZ=    -4.0043   YZ=     1.9975   ZZ=    26.1748
   Eigenvalues:    22.4756    29.7771    32.4609
     28  H    Isotropic =    31.4668   Anisotropy =    20.6600
   XX=    41.5919   YX=    -2.9607   ZX=    -5.8242
   XY=    -4.6356   YY=    26.3188   ZY=     4.4188
   XZ=    -6.7861   YZ=     4.1359   ZZ=    26.4896
   Eigenvalues:    21.9167    27.2436    45.2401
     29  H    Isotropic =    28.0242   Anisotropy =     4.7572
   XX=    29.7137   YX=    -0.3682   ZX=     2.3317
   XY=     0.7416   YY=    26.9767   ZY=    -3.0527
   XZ=    -0.7647   YZ=    -4.6975   ZZ=    27.3823
   Eigenvalues:    23.2286    29.6484    31.1957
     30  H    Isotropic =    28.7141   Anisotropy =     7.7759
   XX=    30.3103   YX=     1.8913   ZX=     1.6968
   XY=     2.0525   YY=    27.2745   ZY=     3.7855
   XZ=     0.2970   YZ=     5.7114   ZZ=    28.5574
   Eigenvalues:    23.0242    29.2200    33.8980
     31  H    Isotropic =    28.9194   Anisotropy =     3.7732
   XX=    29.8464   YX=    -0.0807   ZX=    -2.8461
   XY=    -0.0214   YY=    29.3450   ZY=     2.0165
   XZ=    -0.8371   YZ=     1.6698   ZZ=    27.5669
   Eigenvalues:    25.7961    29.5273    31.4349
     32  C    Isotropic =   178.5427   Anisotropy =    19.0067
   XX=   170.9328   YX=     1.9650   ZX=    -0.2794
   XY=    -3.1326   YY=   184.3250   ZY=     8.7826
   XZ=    -3.4109   YZ=     8.2417   ZZ=   180.3702
   Eigenvalues:   170.4390   173.9753   191.2138
     33  H    Isotropic =    31.0538   Anisotropy =     8.7770
   XX=    34.8738   YX=    -1.6549   ZX=    -1.3893
   XY=    -2.8124   YY=    32.4450   ZY=     2.5039
   XZ=    -1.8533   YZ=     2.7793   ZZ=    25.8425
   Eigenvalues:    24.8479    31.4083    36.9051
     34  H    Isotropic =    31.6617   Anisotropy =     8.1679
   XX=    29.1472   YX=     1.3560   ZX=     3.3989
   XY=     0.9891   YY=    31.1747   ZY=     1.9710
   XZ=     3.8288   YZ=     1.2652   ZZ=    34.6633
   Eigenvalues:    27.3267    30.5515    37.1070
     35  H    Isotropic =    31.4995   Anisotropy =    10.5886
   XX=    29.0550   YX=     3.0562   ZX=    -1.6405
   XY=     2.9720   YY=    37.1988   ZY=    -1.8621
   XZ=    -1.5752   YZ=    -1.1453   ZZ=    28.2446
   Eigenvalues:    26.9287    29.0112    38.5585
     36  H    Isotropic =    31.6900   Anisotropy =     8.6564
   XX=    33.9847   YX=    -3.4006   ZX=     0.0201
   XY=    -2.6412   YY=    31.1852   ZY=     4.5320
   XZ=     1.6216   YZ=     7.2665   ZZ=    29.9001
   Eigenvalues:    23.9071    33.7020    37.4609
 End of Minotr F.D. properties file   721 does not exist.
 End of Minotr F.D. properties file   722 does not exist.
 End of Minotr F.D. properties file   788 does not exist.

 **********************************************************************

            Population analysis using the SCF density.

 **********************************************************************

 Orbital symmetries:
       Occupied  (A) (A) (A) (A) (A) (A) (A) (A) (A) (A) (A) (A)
                 (A) (A) (A) (A) (A) (A) (A) (A) (A) (A) (A) (A)
                 (A) (A) (A) (A) (A) (A) (A) (A) (A) (A) (A) (A)
                 (A) (A) (A) (A) (A) (A) (A) (A) (A) (A) (A) (A)
                 (A) (A) (A) (A) (A) (A) (A) (A) (A) (A) (A) (A)
                 (A) (A) (A) (A) (A)
       Virtual   (A) (A) (A) (A) (A) (A) (A) (A) (A) (A) (A) (A)
                 (A) (A) (A) (A) (A) (A) (A) (A) (A) (A) (A) (A)
                 (A) (A) (A) (A) (A) (A) (A) (A) (A) (A) (A) (A)
                 (A) (A) (A) (A) (A) (A) (A) (A) (A) (A) (A) (A)
                 (A) (A) (A) (A) (A) (A) (A) (A) (A) (A) (A) (A)
                 (A) (A) (A) (A) (A) (A) (A) (A) (A) (A) (A) (A)
                 (A) (A) (A) (A) (A) (A) (A) (A) (A) (A) (A) (A)
                 (A) (A) (A) (A) (A) (A) (A) (A) (A) (A) (A) (A)
                 (A) (A) (A) (A) (A) (A) (A) (A) (A) (A) (A) (A)
                 (A) (A) (A) (A) (A) (A) (A) (A) (A) (A) (A) (A)
                 (A) (A) (A) (A) (A) (A) (A) (A) (A) (A) (A) (A)
                 (A) (A) (A) (A) (A) (A) (A) (A) (A) (A) (A) (A)
                 (A) (A) (A) (A) (A) (A) (A) (A) (A) (A) (A) (A)
                 (A) (A) (A) (A) (A) (A) (A) (A) (A) (A) (A) (A)
                 (A) (A) (A) (A) (A) (A) (A) (A) (A) (A) (A) (A)
                 (A) (A) (A) (A) (A) (A) (A) (A) (A) (A) (A) (A)
                 (A) (A) (A) (A) (A) (A) (A) (A) (A) (A) (A) (A)
                 (A) (A) (A) (A) (A) (A) (A) (A) (A) (A) (A) (A)
                 (A) (A) (A) (A) (A) (A) (A) (A) (A) (A) (A) (A)
                 (A) (A) (A) (A) (A) (A) (A) (A) (A) (A) (A) (A)
                 (A) (A) (A) (A) (A) (A) (A) (A) (A) (A) (A) (A)
                 (A) (A) (A) (A) (A) (A) (A) (A) (A) (A) (A) (A)
                 (A) (A) (A) (A) (A) (A) (A) (A) (A) (A) (A) (A)
                 (A) (A) (A) (A) (A) (A) (A) (A) (A) (A) (A) (A)
                 (A) (A) (A) (A) (A) (A) (A) (A) (A) (A)
 The electronic state is 1-A.
 Alpha  occ. eigenvalues --  -24.80530 -24.80008 -19.20546 -14.37446 -10.33608
 Alpha  occ. eigenvalues --  -10.33533 -10.27155 -10.26380 -10.26165 -10.25805
 Alpha  occ. eigenvalues --  -10.25686 -10.25061 -10.24994 -10.23546 -10.22152
 Alpha  occ. eigenvalues --  -10.22058 -10.20806  -1.27750  -1.27285  -1.04788
 Alpha  occ. eigenvalues --   -0.93880  -0.90222  -0.82820  -0.79955  -0.78444
 Alpha  occ. eigenvalues --   -0.77877  -0.71165  -0.69699  -0.67062  -0.65832
 Alpha  occ. eigenvalues --   -0.63592  -0.61877  -0.58879  -0.57333  -0.55387
 Alpha  occ. eigenvalues --   -0.52747  -0.51881  -0.51795  -0.51106  -0.49774
 Alpha  occ. eigenvalues --   -0.49390  -0.48753  -0.47024  -0.46709  -0.46256
 Alpha  occ. eigenvalues --   -0.43981  -0.42828  -0.42234  -0.41564  -0.41279
 Alpha  occ. eigenvalues --   -0.40925  -0.39012  -0.38602  -0.37787  -0.37691
 Alpha  occ. eigenvalues --   -0.37366  -0.36186  -0.34604  -0.34058  -0.33651
 Alpha  occ. eigenvalues --   -0.31999  -0.28348  -0.27256  -0.26595  -0.23335
 Alpha virt. eigenvalues --   -0.01792  -0.00749   0.04916   0.05267   0.06284
 Alpha virt. eigenvalues --    0.07420   0.07867   0.09487   0.10357   0.10689
 Alpha virt. eigenvalues --    0.11737   0.12059   0.12246   0.13312   0.13550
 Alpha virt. eigenvalues --    0.13930   0.14555   0.15158   0.15567   0.16878
 Alpha virt. eigenvalues --    0.17650   0.18124   0.18763   0.19568   0.20534
 Alpha virt. eigenvalues --    0.21667   0.22858   0.23235   0.24452   0.25305
 Alpha virt. eigenvalues --    0.25628   0.26156   0.27506   0.27812   0.29748
 Alpha virt. eigenvalues --    0.32014   0.32982   0.33873   0.34382   0.35043
 Alpha virt. eigenvalues --    0.35566   0.36979   0.38153   0.38693   0.39271
 Alpha virt. eigenvalues --    0.39939   0.40609   0.41310   0.41749   0.42275
 Alpha virt. eigenvalues --    0.43500   0.44416   0.44894   0.45851   0.45957
 Alpha virt. eigenvalues --    0.46336   0.48594   0.49949   0.50680   0.51923
 Alpha virt. eigenvalues --    0.53219   0.54078   0.54527   0.55395   0.55911
 Alpha virt. eigenvalues --    0.56844   0.57431   0.58204   0.58295   0.59403
 Alpha virt. eigenvalues --    0.59589   0.60472   0.61040   0.61799   0.62064
 Alpha virt. eigenvalues --    0.62943   0.63308   0.63833   0.64132   0.64537
 Alpha virt. eigenvalues --    0.64852   0.65826   0.66269   0.66838   0.67088
 Alpha virt. eigenvalues --    0.68064   0.68837   0.69340   0.70587   0.71641
 Alpha virt. eigenvalues --    0.73134   0.73855   0.74485   0.75976   0.77829
 Alpha virt. eigenvalues --    0.78427   0.78931   0.82271   0.82987   0.85517
 Alpha virt. eigenvalues --    0.86263   0.89249   0.90388   0.91348   0.93467
 Alpha virt. eigenvalues --    0.94045   0.96617   0.98029   0.98895   0.99696
 Alpha virt. eigenvalues --    1.00562   1.04392   1.04933   1.06044   1.07793
 Alpha virt. eigenvalues --    1.08775   1.10449   1.11058   1.13860   1.14191
 Alpha virt. eigenvalues --    1.16841   1.20251   1.20545   1.22606   1.24727
 Alpha virt. eigenvalues --    1.25848   1.27056   1.28529   1.28931   1.30236
 Alpha virt. eigenvalues --    1.32318   1.34371   1.38145   1.41193   1.42525
 Alpha virt. eigenvalues --    1.45669   1.46504   1.47468   1.49691   1.50072
 Alpha virt. eigenvalues --    1.51142   1.52022   1.53336   1.54603   1.55205
 Alpha virt. eigenvalues --    1.55809   1.55990   1.57206   1.59583   1.61185
 Alpha virt. eigenvalues --    1.63033   1.63861   1.64481   1.66897   1.67109
 Alpha virt. eigenvalues --    1.67754   1.69554   1.70292   1.71647   1.73742
 Alpha virt. eigenvalues --    1.75488   1.76282   1.77727   1.80138   1.82442
 Alpha virt. eigenvalues --    1.82596   1.84610   1.84999   1.88761   1.89717
 Alpha virt. eigenvalues --    1.89930   1.90404   1.92374   1.94095   1.95931
 Alpha virt. eigenvalues --    1.96323   1.98158   2.00192   2.01459   2.04910
 Alpha virt. eigenvalues --    2.06269   2.09295   2.14120   2.17748   2.18790
 Alpha virt. eigenvalues --    2.19719   2.21029   2.26089   2.27652   2.28212
 Alpha virt. eigenvalues --    2.30235   2.31322   2.36120   2.39161   2.41789
 Alpha virt. eigenvalues --    2.42885   2.43169   2.44044   2.44607   2.47010
 Alpha virt. eigenvalues --    2.48603   2.50728   2.51298   2.52878   2.54087
 Alpha virt. eigenvalues --    2.54806   2.55562   2.59548   2.61470   2.66035
 Alpha virt. eigenvalues --    2.66917   2.68351   2.71064   2.73428   2.73844
 Alpha virt. eigenvalues --    2.78055   2.83270   2.84387   2.86613   2.88203
 Alpha virt. eigenvalues --    2.91066   2.95060   2.99215   3.01427   3.04686
 Alpha virt. eigenvalues --    3.06635   3.07577   3.08227   3.10076   3.11464
 Alpha virt. eigenvalues --    3.14279   3.16862   3.17715   3.19303   3.22057
 Alpha virt. eigenvalues --    3.23622   3.24220   3.25785   3.28190   3.28949
 Alpha virt. eigenvalues --    3.30321   3.30599   3.32207   3.36556   3.41142
 Alpha virt. eigenvalues --    3.47433   3.48620   3.51634   3.61297   3.64651
 Alpha virt. eigenvalues --    3.73809   3.79404   3.79849   3.80113   3.80852
 Alpha virt. eigenvalues --    3.85637   3.87391   3.96377   3.97219   3.99811
 Alpha virt. eigenvalues --    4.00604   4.04759   4.07068   4.11241   4.12899
 Alpha virt. eigenvalues --    4.18747   4.19585   4.50009   4.75646   4.77758
 Alpha virt. eigenvalues --    4.80601   4.81347   4.91538   5.12911   5.40642
 Alpha virt. eigenvalues --    6.12804   6.14812   6.30955   6.32848   6.56801
 Alpha virt. eigenvalues --    6.59731  23.30535  23.47326  23.59392  23.69004
 Alpha virt. eigenvalues --   23.73710  23.79444  23.81199  23.84514  23.87111
 Alpha virt. eigenvalues --   23.90056  24.08914  24.11375  24.19587  35.59208
 Alpha virt. eigenvalues --   49.96817  66.89215  66.89647
          Condensed to atoms (all electrons):
               1          2          3          4          5          6
     1  C    5.329752   0.310359  -0.070744   0.009457  -0.000336  -0.000175
     2  C    0.310359   5.352142   0.311139  -0.086711  -0.000190  -0.000696
     3  C   -0.070744   0.311139   5.306700   0.304293  -0.066597   0.001031
     4  C    0.009457  -0.086711   0.304293   5.519504   0.281095  -0.060228
     5  C   -0.000336  -0.000190  -0.066597   0.281095   5.124558   0.228289
     6  O   -0.000175  -0.000696   0.001031  -0.060228   0.228289   8.225060
     7  N   -0.005132  -0.080898   0.291807  -0.070038   0.005676   0.000047
     8  C   -0.000303   0.010317  -0.084971  -0.007016   0.000152  -0.000122
     9  C    0.000000   0.000000  -0.000001   0.000000   0.000000   0.000000
    10  C    0.000001   0.000000   0.000004   0.000000   0.000000   0.000000
    11  C   -0.000005  -0.000070  -0.000494   0.000076  -0.000001   0.000000
    12  C   -0.000078  -0.000270   0.009456   0.000198   0.000001  -0.000001
    13  C    0.000001   0.000066   0.000071  -0.000231   0.000003   0.000000
    14  C    0.000000   0.000000   0.000026  -0.000003   0.000000   0.000000
    15  H    0.000000   0.000000   0.000000   0.000000   0.000000   0.000000
    16  H    0.000000   0.000000   0.000000   0.000000   0.000000   0.000000
    17  H    0.000000   0.000000  -0.000001   0.000000   0.000000   0.000000
    18  F    0.000001  -0.000001  -0.000049   0.000002   0.000000   0.000000
    19  F    0.000000  -0.000001   0.000096  -0.000120   0.000000   0.000000
    20  H    0.391694  -0.041619   0.008306  -0.000232  -0.000001  -0.000007
    21  H    0.383833  -0.040284  -0.009469   0.000924  -0.000073  -0.000003
    22  H    0.386906  -0.043057  -0.003976  -0.000052   0.000020  -0.000009
    23  H   -0.044541   0.391413  -0.036930  -0.007761   0.000005   0.000123
    24  H   -0.040611   0.395784  -0.040595  -0.005472  -0.001780   0.003415
    25  H   -0.000224   0.007726  -0.063048   0.399876  -0.043597   0.008803
    26  H    0.000114   0.005291  -0.017551  -0.046219   0.387325  -0.042022
    27  H    0.000015  -0.000622   0.010085  -0.041303   0.394581  -0.035516
    28  H    0.000001  -0.000030  -0.000146   0.011774  -0.048270   0.258966
    29  H    0.000046  -0.001379  -0.002559   0.006637  -0.000504  -0.000105
    30  H   -0.000081   0.001008  -0.003539  -0.002138   0.000089  -0.000120
    31  H   -0.008084  -0.032380   0.401459  -0.060919  -0.005514   0.020126
    32  C   -0.000421  -0.003886  -0.069566   0.269921  -0.072866   0.003444
    33  H   -0.000104   0.000783  -0.004211  -0.040938   0.008260  -0.000129
    34  H    0.000087   0.003930  -0.009490  -0.035006  -0.005486  -0.000131
    35  H    0.000012  -0.000365   0.008471  -0.033453  -0.005331  -0.000123
    36  H    0.000377  -0.006022  -0.045331  -0.004623  -0.000353  -0.000015
               7          8          9         10         11         12
     1  C   -0.005132  -0.000303   0.000000   0.000001  -0.000005  -0.000078
     2  C   -0.080898   0.010317   0.000000   0.000000  -0.000070  -0.000270
     3  C    0.291807  -0.084971  -0.000001   0.000004  -0.000494   0.009456
     4  C   -0.070038  -0.007016   0.000000   0.000000   0.000076   0.000198
     5  C    0.005676   0.000152   0.000000   0.000000  -0.000001   0.000001
     6  O    0.000047  -0.000122   0.000000   0.000000   0.000000  -0.000001
     7  N    6.939698   0.286044   0.000063  -0.000123   0.014717  -0.073009
     8  C    0.286044   5.293937  -0.001401   0.010386  -0.071690   0.289877
     9  C    0.000063  -0.001401   5.062615   0.431241  -0.002736  -0.058192
    10  C   -0.000123   0.010386   0.431241   5.204574   0.469588  -0.031492
    11  C    0.014717  -0.071690  -0.002736   0.469588   4.746512   0.274756
    12  C   -0.073009   0.289877  -0.058192  -0.031492   0.274756   5.767177
    13  C   -0.008260  -0.083351  -0.007213  -0.063322   0.032993   0.239110
    14  C   -0.000346   0.009735   0.436749  -0.035831  -0.067078  -0.039962
    15  H    0.000000   0.000029   0.404976  -0.040771   0.006082  -0.002005
    16  H    0.000010  -0.000301  -0.041342   0.391729  -0.048553   0.012114
    17  H    0.000014  -0.000327  -0.040829   0.007066  -0.001268   0.012248
    18  F   -0.000364  -0.003215   0.005715  -0.055627   0.320818  -0.076288
    19  F   -0.001620   0.003034   0.005539  -0.000584   0.004699  -0.083760
    20  H    0.000127   0.000030   0.000000   0.000000   0.000000  -0.000003
    21  H    0.021786  -0.000908  -0.000001  -0.000002   0.000419  -0.000061
    22  H    0.000085  -0.000065   0.000000   0.000000   0.000012  -0.000021
    23  H   -0.004259  -0.000319   0.000000   0.000000   0.000001   0.000066
    24  H    0.005249  -0.000382   0.000000   0.000000   0.000002   0.000016
    25  H   -0.003150   0.002685   0.000000   0.000000  -0.000044   0.000215
    26  H    0.000034  -0.000053   0.000000   0.000000   0.000000   0.000000
    27  H   -0.000225  -0.000031   0.000000   0.000000   0.000000  -0.000001
    28  H    0.000013   0.000006   0.000000   0.000000   0.000000   0.000000
    29  H   -0.053894   0.378026  -0.000091  -0.000160   0.013293  -0.042798
    30  H   -0.036342   0.387184  -0.000288   0.001294  -0.021135  -0.028983
    31  H   -0.036094  -0.007930   0.000000  -0.000004  -0.000024   0.000007
    32  C    0.000255  -0.000681   0.000000   0.000000  -0.000002  -0.000050
    33  H    0.005740   0.002475  -0.000005   0.000002  -0.000076  -0.000802
    34  H    0.000188   0.000085   0.000000   0.000000   0.000000   0.000004
    35  H    0.000006  -0.000086   0.000000   0.000000   0.000000   0.000003
    36  H    0.333063  -0.047637  -0.000011  -0.000012   0.000018  -0.013419
              13         14         15         16         17         18
     1  C    0.000001   0.000000   0.000000   0.000000   0.000000   0.000001
     2  C    0.000066   0.000000   0.000000   0.000000   0.000000  -0.000001
     3  C    0.000071   0.000026   0.000000   0.000000  -0.000001  -0.000049
     4  C   -0.000231  -0.000003   0.000000   0.000000   0.000000   0.000002
     5  C    0.000003   0.000000   0.000000   0.000000   0.000000   0.000000
     6  O    0.000000   0.000000   0.000000   0.000000   0.000000   0.000000
     7  N   -0.008260  -0.000346   0.000000   0.000010   0.000014  -0.000364
     8  C   -0.083351   0.009735   0.000029  -0.000301  -0.000327  -0.003215
     9  C   -0.007213   0.436749   0.404976  -0.041342  -0.040829   0.005715
    10  C   -0.063322  -0.035831  -0.040771   0.391729   0.007066  -0.055627
    11  C    0.032993  -0.067078   0.006082  -0.048553  -0.001268   0.320818
    12  C    0.239110  -0.039962  -0.002005   0.012114   0.012248  -0.076288
    13  C    4.801677   0.482190   0.006322  -0.001306  -0.049909   0.005191
    14  C    0.482190   5.198377  -0.041282   0.007116   0.392009  -0.000555
    15  H    0.006322  -0.041282   0.447678  -0.006615  -0.006689  -0.000072
    16  H   -0.001306   0.007116  -0.006615   0.452256  -0.000181   0.001445
    17  H   -0.049909   0.392009  -0.006689  -0.000181   0.452759   0.000004
    18  F    0.005191  -0.000555  -0.000072   0.001445   0.000004   9.024545
    19  F    0.317661  -0.056563  -0.000072   0.000004   0.001593  -0.000001
    20  H    0.000000   0.000000   0.000000   0.000000   0.000000   0.000000
    21  H   -0.000134  -0.000006   0.000000   0.000000   0.000000   0.000016
    22  H   -0.000003   0.000000   0.000000   0.000000   0.000000   0.000015
    23  H   -0.000009   0.000000   0.000000   0.000000   0.000000   0.000000
    24  H   -0.000002   0.000000   0.000000   0.000000   0.000000   0.000000
    25  H    0.000125   0.000000   0.000000   0.000000   0.000000   0.000000
    26  H    0.000000   0.000000   0.000000   0.000000   0.000000   0.000000
    27  H   -0.000001   0.000000   0.000000   0.000000   0.000000   0.000000
    28  H    0.000000   0.000000   0.000000   0.000000   0.000000   0.000000
    29  H   -0.028955  -0.000641   0.000003   0.000018  -0.000026  -0.000001
    30  H    0.009925   0.000133   0.000004  -0.000054   0.000008   0.012927
    31  H    0.000031   0.000002   0.000000   0.000000   0.000000  -0.000165
    32  C   -0.000048  -0.000004   0.000000   0.000000   0.000000   0.000000
    33  H    0.000487   0.000107   0.000000   0.000000   0.000002   0.000000
    34  H    0.000009   0.000000   0.000000   0.000000   0.000000   0.000000
    35  H   -0.000001   0.000000   0.000000   0.000000   0.000000   0.000000
    36  H    0.004701  -0.000127   0.000000   0.000000   0.000006  -0.000023
              19         20         21         22         23         24
     1  C    0.000000   0.391694   0.383833   0.386906  -0.044541  -0.040611
     2  C   -0.000001  -0.041619  -0.040284  -0.043057   0.391413   0.395784
     3  C    0.000096   0.008306  -0.009469  -0.003976  -0.036930  -0.040595
     4  C   -0.000120  -0.000232   0.000924  -0.000052  -0.007761  -0.005472
     5  C    0.000000  -0.000001  -0.000073   0.000020   0.000005  -0.001780
     6  O    0.000000  -0.000007  -0.000003  -0.000009   0.000123   0.003415
     7  N   -0.001620   0.000127   0.021786   0.000085  -0.004259   0.005249
     8  C    0.003034   0.000030  -0.000908  -0.000065  -0.000319  -0.000382
     9  C    0.005539   0.000000  -0.000001   0.000000   0.000000   0.000000
    10  C   -0.000584   0.000000  -0.000002   0.000000   0.000000   0.000000
    11  C    0.004699   0.000000   0.000419   0.000012   0.000001   0.000002
    12  C   -0.083760  -0.000003  -0.000061  -0.000021   0.000066   0.000016
    13  C    0.317661   0.000000  -0.000134  -0.000003  -0.000009  -0.000002
    14  C   -0.056563   0.000000  -0.000006   0.000000   0.000000   0.000000
    15  H   -0.000072   0.000000   0.000000   0.000000   0.000000   0.000000
    16  H    0.000004   0.000000   0.000000   0.000000   0.000000   0.000000
    17  H    0.001593   0.000000   0.000000   0.000000   0.000000   0.000000
    18  F   -0.000001   0.000000   0.000016   0.000015   0.000000   0.000000
    19  F    9.031216   0.000000  -0.000002   0.000000  -0.000015   0.000000
    20  H    0.000000   0.495879  -0.029013  -0.029459  -0.004455  -0.005644
    21  H   -0.000002  -0.029013   0.474697  -0.027119  -0.006243   0.007968
    22  H    0.000000  -0.029459  -0.027119   0.493470   0.007951  -0.004588
    23  H   -0.000015  -0.004455  -0.006243   0.007951   0.507848  -0.031409
    24  H    0.000000  -0.005644   0.007968  -0.004588  -0.031409   0.492549
    25  H   -0.000144   0.000022  -0.000013  -0.000062  -0.000419  -0.000331
    26  H    0.000000   0.000046  -0.000014  -0.000055  -0.000521  -0.002725
    27  H    0.000000  -0.000002   0.000006  -0.000006  -0.000125   0.001090
    28  H    0.000000  -0.000001  -0.000001   0.000011   0.000008  -0.000087
    29  H    0.006838   0.000002   0.000300   0.000020   0.000013   0.000087
    30  H    0.000175  -0.000006  -0.000316  -0.000027   0.000002  -0.000056
    31  H   -0.000004  -0.000166  -0.001022   0.004550   0.006620  -0.002919
    32  C   -0.000518   0.000006  -0.000113  -0.000008   0.002639  -0.000214
    33  H    0.004393   0.000001  -0.000111   0.000003   0.000084  -0.000157
    34  H   -0.000007   0.000021  -0.000014  -0.000019   0.000147  -0.000119
    35  H   -0.000020  -0.000002   0.000000   0.000002   0.000203  -0.000037
    36  H    0.005019  -0.000081   0.000039   0.000037   0.002936   0.000020
              25         26         27         28         29         30
     1  C   -0.000224   0.000114   0.000015   0.000001   0.000046  -0.000081
     2  C    0.007726   0.005291  -0.000622  -0.000030  -0.001379   0.001008
     3  C   -0.063048  -0.017551   0.010085  -0.000146  -0.002559  -0.003539
     4  C    0.399876  -0.046219  -0.041303   0.011774   0.006637  -0.002138
     5  C   -0.043597   0.387325   0.394581  -0.048270  -0.000504   0.000089
     6  O    0.008803  -0.042022  -0.035516   0.258966  -0.000105  -0.000120
     7  N   -0.003150   0.000034  -0.000225   0.000013  -0.053894  -0.036342
     8  C    0.002685  -0.000053  -0.000031   0.000006   0.378026   0.387184
     9  C    0.000000   0.000000   0.000000   0.000000  -0.000091  -0.000288
    10  C    0.000000   0.000000   0.000000   0.000000  -0.000160   0.001294
    11  C   -0.000044   0.000000   0.000000   0.000000   0.013293  -0.021135
    12  C    0.000215   0.000000  -0.000001   0.000000  -0.042798  -0.028983
    13  C    0.000125   0.000000  -0.000001   0.000000  -0.028955   0.009925
    14  C    0.000000   0.000000   0.000000   0.000000  -0.000641   0.000133
    15  H    0.000000   0.000000   0.000000   0.000000   0.000003   0.000004
    16  H    0.000000   0.000000   0.000000   0.000000   0.000018  -0.000054
    17  H    0.000000   0.000000   0.000000   0.000000  -0.000026   0.000008
    18  F    0.000000   0.000000   0.000000   0.000000  -0.000001   0.012927
    19  F   -0.000144   0.000000   0.000000   0.000000   0.006838   0.000175
    20  H    0.000022   0.000046  -0.000002  -0.000001   0.000002  -0.000006
    21  H   -0.000013  -0.000014   0.000006  -0.000001   0.000300  -0.000316
    22  H   -0.000062  -0.000055  -0.000006   0.000011   0.000020  -0.000027
    23  H   -0.000419  -0.000521  -0.000125   0.000008   0.000013   0.000002
    24  H   -0.000331  -0.002725   0.001090  -0.000087   0.000087  -0.000056
    25  H    0.514403   0.011272  -0.012803  -0.000637  -0.002388   0.000642
    26  H    0.011272   0.545235  -0.048706  -0.004557  -0.000076   0.000010
    27  H   -0.012803  -0.048706   0.523135  -0.003425   0.000198  -0.000035
    28  H   -0.000637  -0.004557  -0.003425   0.378443   0.000002   0.000003
    29  H   -0.002388  -0.000076   0.000198   0.000002   0.553591  -0.045214
    30  H    0.000642   0.000010  -0.000035   0.000003  -0.045214   0.464373
    31  H   -0.004857   0.000182   0.000799  -0.000900  -0.001568   0.004771
    32  C   -0.040005   0.001480  -0.002668  -0.000737   0.000137   0.000160
    33  H   -0.005243  -0.000159  -0.000508   0.000032  -0.003100   0.000257
    34  H    0.007763   0.004985  -0.001186  -0.000008  -0.000134   0.000004
    35  H   -0.007515  -0.001832   0.006241  -0.000025   0.000099  -0.000002
    36  H   -0.000506  -0.000022   0.000007   0.000002  -0.004268   0.006318
              31         32         33         34         35         36
     1  C   -0.008084  -0.000421  -0.000104   0.000087   0.000012   0.000377
     2  C   -0.032380  -0.003886   0.000783   0.003930  -0.000365  -0.006022
     3  C    0.401459  -0.069566  -0.004211  -0.009490   0.008471  -0.045331
     4  C   -0.060919   0.269921  -0.040938  -0.035006  -0.033453  -0.004623
     5  C   -0.005514  -0.072866   0.008260  -0.005486  -0.005331  -0.000353
     6  O    0.020126   0.003444  -0.000129  -0.000131  -0.000123  -0.000015
     7  N   -0.036094   0.000255   0.005740   0.000188   0.000006   0.333063
     8  C   -0.007930  -0.000681   0.002475   0.000085  -0.000086  -0.047637
     9  C    0.000000   0.000000  -0.000005   0.000000   0.000000  -0.000011
    10  C   -0.000004   0.000000   0.000002   0.000000   0.000000  -0.000012
    11  C   -0.000024  -0.000002  -0.000076   0.000000   0.000000   0.000018
    12  C    0.000007  -0.000050  -0.000802   0.000004   0.000003  -0.013419
    13  C    0.000031  -0.000048   0.000487   0.000009  -0.000001   0.004701
    14  C    0.000002  -0.000004   0.000107   0.000000   0.000000  -0.000127
    15  H    0.000000   0.000000   0.000000   0.000000   0.000000   0.000000
    16  H    0.000000   0.000000   0.000000   0.000000   0.000000   0.000000
    17  H    0.000000   0.000000   0.000002   0.000000   0.000000   0.000006
    18  F   -0.000165   0.000000   0.000000   0.000000   0.000000  -0.000023
    19  F   -0.000004  -0.000518   0.004393  -0.000007  -0.000020   0.005019
    20  H   -0.000166   0.000006   0.000001   0.000021  -0.000002  -0.000081
    21  H   -0.001022  -0.000113  -0.000111  -0.000014   0.000000   0.000039
    22  H    0.004550  -0.000008   0.000003  -0.000019   0.000002   0.000037
    23  H    0.006620   0.002639   0.000084   0.000147   0.000203   0.002936
    24  H   -0.002919  -0.000214  -0.000157  -0.000119  -0.000037   0.000020
    25  H   -0.004857  -0.040005  -0.005243   0.007763  -0.007515  -0.000506
    26  H    0.000182   0.001480  -0.000159   0.004985  -0.001832  -0.000022
    27  H    0.000799  -0.002668  -0.000508  -0.001186   0.006241   0.000007
    28  H   -0.000900  -0.000737   0.000032  -0.000008  -0.000025   0.000002
    29  H   -0.001568   0.000137  -0.003100  -0.000134   0.000099  -0.004268
    30  H    0.004771   0.000160   0.000257   0.000004  -0.000002   0.006318
    31  H    0.465505   0.007874   0.000055  -0.000228  -0.000083   0.006464
    32  C    0.007874   5.428512   0.380762   0.382660   0.388696   0.005729
    33  H    0.000055   0.380762   0.472229  -0.025407  -0.025680   0.003906
    34  H   -0.000228   0.382660  -0.025407   0.475774  -0.029089  -0.000422
    35  H   -0.000083   0.388696  -0.025680  -0.029089   0.467354   0.000071
    36  H    0.006464   0.005729   0.003906  -0.000422   0.000071   0.427268
 Mulliken charges:
               1
     1  C   -0.641817
     2  C   -0.451478
     3  C   -0.123677
     4  C   -0.301295
     5  C   -0.179154
     6  O   -0.609901
     7  N   -0.530868
     8  C   -0.363212
     9  C   -0.194788
    10  C   -0.287958
    11  C    0.329189
    12  C   -0.154052
    13  C    0.342182
    14  C   -0.284045
    15  H    0.232412
    16  H    0.233660
    17  H    0.233521
    18  F   -0.234317
    19  F   -0.236834
    20  H    0.214558
    21  H    0.224933
    22  H    0.215442
    23  H    0.216945
    24  H    0.230951
    25  H    0.231451
    26  H    0.208537
    27  H    0.211007
    28  H    0.409563
    29  H    0.228551
    30  H    0.249049
    31  H    0.244416
    32  C   -0.680487
    33  H    0.227053
    34  H    0.231089
    35  H    0.232485
    36  H    0.326891
 Sum of Mulliken charges =   0.00000
 Mulliken charges with hydrogens summed into heavy atoms:
               1
     1  C    0.013116
     2  C   -0.003583
     3  C    0.120739
     4  C   -0.069844
     5  C    0.240391
     6  O   -0.200339
     7  N   -0.203977
     8  C    0.114387
     9  C    0.037623
    10  C   -0.054298
    11  C    0.329189
    12  C   -0.154052
    13  C    0.342182
    14  C   -0.050524
    18  F   -0.234317
    19  F   -0.236834
    32  C    0.010140
 Electronic spatial extent (au):  <R**2>=           5349.5753
 Charge=              0.0000 electrons
 Dipole moment (field-independent basis, Debye):
    X=              0.8037    Y=              2.0173    Z=              0.2449  Tot=              2.1853
 Quadrupole moment (field-independent basis, Debye-Ang):
   XX=            -71.0538   YY=           -104.9979   ZZ=           -104.3425
   XY=              1.6075   XZ=             -4.1917   YZ=              0.8698
 Traceless Quadrupole moment (field-independent basis, Debye-Ang):
   XX=             22.4110   YY=            -11.5332   ZZ=            -10.8777
   XY=              1.6075   XZ=             -4.1917   YZ=              0.8698
 Octapole moment (field-independent basis, Debye-Ang**2):
  XXX=             27.5938  YYY=              3.0182  ZZZ=            -10.6427  XYY=             -2.7574
  XXY=              2.6571  XXZ=            -13.4634  XZZ=             10.9031  YZZ=              4.9490
  YYZ=             -4.8589  XYZ=             -6.4124
 Hexadecapole moment (field-independent basis, Debye-Ang**3):
 XXXX=          -3922.4092 YYYY=          -1200.2063 ZZZZ=           -684.2996 XXXY=            -16.2457
 XXXZ=           -284.1215 YYYX=             -0.4646 YYYZ=             32.7041 ZZZX=            -23.2659
 ZZZY=             32.7793 XXYY=           -998.6559 XXZZ=           -949.2728 YYZZ=           -314.0735
 XXYZ=             39.8508 YYXZ=            -29.4673 ZZXY=             -5.3543
 N-N= 1.258737980203D+03 E-N=-4.476105652995D+03  KE= 8.333381181935D+02
 1\1\GINC-CPU-E-330\SP\RmPW1PW91\6-311G(d)\C13H19F2N1O1\AH809\04-Mar-20
 19\0\\# mPW1PW91/6-311g(d) nmr=giao scrf=(solvent=chloroform)\\AT3_1gi
 np020\\0,1\C,0,-0.199915,-1.195241,2.4742\C,0,-0.952846,0.130805,2.398
 676\C,0,-0.033098,1.365965,2.552069\C,0,-0.829216,2.708549,2.639592\C,
 0,-1.772632,2.768577,3.852891\O,0,-1.05418,2.509022,5.050128\N,0,0.941
 92,1.335056,1.445375\C,0,2.074587,2.238271,1.638858\C,0,5.016412,1.665
 561,-1.47404\C,0,5.230217,1.136709,-0.202019\C,0,4.278435,1.327292,0.8
 00093\C,0,3.104596,2.043452,0.562812\C,0,2.90895,2.563105,-0.718613\C,
 0,3.849441,2.382366,-1.73224\H,0,5.753845,1.518161,-2.258677\H,0,6.132
 174,0.574185,0.020103\H,0,3.662231,2.800599,-2.716583\F,0,4.520259,0.8
 13583,2.014767\F,0,1.792746,3.254508,-0.994314\H,0,-0.907859,-2.029642
 ,2.437817\H,0,0.495391,-1.314632,1.637805\H,0,0.364833,-1.271962,3.408
 765\H,0,-1.498085,0.169241,1.448159\H,0,-1.703387,0.121871,3.195682\H,
 0,-0.094593,3.509654,2.793934\H,0,-2.593343,2.049783,3.769381\H,0,-2.2
 12472,3.768694,3.936938\H,0,-1.687157,2.576107,5.785842\H,0,1.755815,3
 .286835,1.621733\H,0,2.534616,2.067014,2.619588\H,0,0.520829,1.233167,
 3.490936\C,0,-1.620769,3.04889,1.371765\H,0,-0.969508,3.126263,0.49639
 7\H,0,-2.392657,2.301818,1.163157\H,0,-2.121952,4.017104,1.482616\H,0,
 0.485505,1.544773,0.559705\\Version=ES64L-G09RevD.01\State=1-A\HF=-836
 .457843\RMSD=6.262e-09\Dipole=-0.5936087,0.5372779,-0.3132886\Quadrupo
 le=7.2853735,-8.931673,1.6462995,-2.574708,-11.8933295,1.9933015\PG=C0
 1 [X(C13H19F2N1O1)]\\@


 IT IS NOT EASY TO DESCRIBE
     THE SEA WITH THE MOUTH

                   -- KOKYU
 Job cpu time:       0 days  0 hours 16 minutes 47.3 seconds.
 File lengths (MBytes):  RWF=    185 Int=      0 D2E=      0 Chk=     10 Scr=      1
 Normal termination of Gaussian 09 at Mon Mar  4 11:28:45 2019.
