 Entering Gaussian System, Link 0=/usr/local/Cluster-Apps/gaussian/g09/g09
 Initial command:
 /usr/local/Cluster-Apps/gaussian/g09/l1.exe "/home/ah809/rds/hpc-work/04Mar1111AT3/Gau-146020.inp" -scrdir="/home/ah809/rds/hpc-work/04Mar1111AT3/"
 Entering Link 1 = /usr/local/Cluster-Apps/gaussian/g09/l1.exe PID=    146028.
  
 Copyright (c) 1988,1990,1992,1993,1995,1998,2003,2009,2013,
            Gaussian, Inc.  All Rights Reserved.
  
 This is part of the Gaussian(R) 09 program.  It is based on
 the Gaussian(R) 03 system (copyright 2003, Gaussian, Inc.),
 the Gaussian(R) 98 system (copyright 1998, Gaussian, Inc.),
 the Gaussian(R) 94 system (copyright 1995, Gaussian, Inc.),
 the Gaussian 92(TM) system (copyright 1992, Gaussian, Inc.),
 the Gaussian 90(TM) system (copyright 1990, Gaussian, Inc.),
 the Gaussian 88(TM) system (copyright 1988, Gaussian, Inc.),
 the Gaussian 86(TM) system (copyright 1986, Carnegie Mellon
 University), and the Gaussian 82(TM) system (copyright 1983,
 Carnegie Mellon University). Gaussian is a federally registered
 trademark of Gaussian, Inc.
  
 This software contains proprietary and confidential information,
 including trade secrets, belonging to Gaussian, Inc.
  
 This software is provided under written license and may be
 used, copied, transmitted, or stored only in accord with that
 written license.
  
 The following legend is applicable only to US Government
 contracts under FAR:
  
                    RESTRICTED RIGHTS LEGEND
  
 Use, reproduction and disclosure by the US Government is
 subject to restrictions as set forth in subparagraphs (a)
 and (c) of the Commercial Computer Software - Restricted
 Rights clause in FAR 52.227-19.
  
 Gaussian, Inc.
 340 Quinnipiac St., Bldg. 40, Wallingford CT 06492
  
  
 ---------------------------------------------------------------
 Warning -- This program may not be used in any manner that
 competes with the business of Gaussian, Inc. or will provide
 assistance to any competitor of Gaussian, Inc.  The licensee
 of this program is prohibited from giving any competitor of
 Gaussian, Inc. access to this program.  By using this program,
 the user acknowledges that Gaussian, Inc. is engaged in the
 business of creating and licensing software in the field of
 computational chemistry and represents and warrants to the
 licensee that it is not a competitor of Gaussian, Inc. and that
 it will not use this program in any manner prohibited above.
 ---------------------------------------------------------------
  

 Cite this work as:
 Gaussian 09, Revision D.01,
 M. J. Frisch, G. W. Trucks, H. B. Schlegel, G. E. Scuseria, 
 M. A. Robb, J. R. Cheeseman, G. Scalmani, V. Barone, B. Mennucci, 
 G. A. Petersson, H. Nakatsuji, M. Caricato, X. Li, H. P. Hratchian, 
 A. F. Izmaylov, J. Bloino, G. Zheng, J. L. Sonnenberg, M. Hada, 
 M. Ehara, K. Toyota, R. Fukuda, J. Hasegawa, M. Ishida, T. Nakajima, 
 Y. Honda, O. Kitao, H. Nakai, T. Vreven, J. A. Montgomery, Jr., 
 J. E. Peralta, F. Ogliaro, M. Bearpark, J. J. Heyd, E. Brothers, 
 K. N. Kudin, V. N. Staroverov, T. Keith, R. Kobayashi, J. Normand, 
 K. Raghavachari, A. Rendell, J. C. Burant, S. S. Iyengar, J. Tomasi, 
 M. Cossi, N. Rega, J. M. Millam, M. Klene, J. E. Knox, J. B. Cross, 
 V. Bakken, C. Adamo, J. Jaramillo, R. Gomperts, R. E. Stratmann, 
 O. Yazyev, A. J. Austin, R. Cammi, C. Pomelli, J. W. Ochterski, 
 R. L. Martin, K. Morokuma, V. G. Zakrzewski, G. A. Voth, 
 P. Salvador, J. J. Dannenberg, S. Dapprich, A. D. Daniels, 
 O. Farkas, J. B. Foresman, J. V. Ortiz, J. Cioslowski, 
 and D. J. Fox, Gaussian, Inc., Wallingford CT, 2013.
 
 ******************************************
 Gaussian 09:  ES64L-G09RevD.01 24-Apr-2013
                 4-Mar-2019 
 ******************************************
 %nprocshared=8
 Will use up to    8 processors via shared memory.
 %mem=6000MB
 %chk=AT3_1ginp011.chk
 -------------------------------------------------------
 # mPW1PW91/6-311g(d) nmr=giao scrf=(solvent=chloroform)
 -------------------------------------------------------
 1/38=1/1;
 2/12=2,17=6,18=5,40=1/2;
 3/5=4,6=6,7=1,11=2,16=1,25=1,30=1,70=2201,72=7,74=-7/1,2,8,3;
 4//1;
 5/5=2,38=5,53=7/2;
 8/6=1,10=90,11=11/1;
 10/13=100,45=16/2;
 6/7=2,8=2,9=2,10=2,28=1/1;
 99/9=1/99;
 ------------
 AT3_1ginp011
 ------------
 Symbolic Z-matrix:
 Charge =  0 Multiplicity = 1
 C                     0.07073  -1.55321   2.6618 
 C                    -0.86415  -0.38357   2.36846 
 C                    -0.33756   0.98212   2.87211 
 C                    -1.34395   2.16237   2.6531 
 C                    -0.87518   3.45043   3.36265 
 O                     0.32228   3.9655    2.79941 
 N                     1.01676   1.31745   2.37542 
 C                     1.15958   1.3063    0.91017 
 C                     5.13031   2.55134  -0.26232 
 C                     4.942     1.34456   0.40869 
 C                     3.65663   0.95284   0.78092 
 C                     2.53916   1.74313   0.50147 
 C                     2.74958   2.94379  -0.17798 
 C                     4.02821   3.3522   -0.5576 
 H                     6.12882   2.86621  -0.55426 
 H                     5.78691   0.7055    0.64695 
 H                     4.15238   4.2951   -1.08213 
 F                     3.50151  -0.21426   1.42438 
 F                     1.70956   3.7276   -0.49528 
 H                     1.00744  -1.4805    2.10259 
 H                     0.30796  -1.60564   3.72914 
 H                    -0.40952  -2.49498   2.37661 
 H                    -1.081    -0.34406   1.29482 
 H                    -1.81144  -0.61461   2.86809 
 H                    -1.41694   2.37091   1.57877 
 H                    -0.70393   3.27122   4.42975 
 H                    -1.63228   4.23665   3.27556 
 H                     0.91847   3.19366   2.68798 
 H                     0.99019   0.30552   0.49748 
 H                     0.41867   1.96586   0.44761 
 H                    -0.2257    0.88069   3.96105 
 C                    -2.7562    1.83033   3.15245 
 H                    -2.74083   1.50019   4.19648 
 H                    -3.41113   2.70609   3.0849 
 H                    -3.21967   1.04649   2.54582 
 H                     1.67911   0.63276   2.75038 
 
                          Input orientation:                          
 ---------------------------------------------------------------------
 Center     Atomic      Atomic             Coordinates (Angstroms)
 Number     Number       Type             X           Y           Z
 ---------------------------------------------------------------------
      1          6           0        0.070726   -1.553214    2.661797
      2          6           0       -0.864151   -0.383566    2.368462
      3          6           0       -0.337561    0.982116    2.872110
      4          6           0       -1.343950    2.162372    2.653095
      5          6           0       -0.875176    3.450431    3.362653
      6          8           0        0.322284    3.965501    2.799408
      7          7           0        1.016761    1.317448    2.375424
      8          6           0        1.159584    1.306301    0.910174
      9          6           0        5.130306    2.551343   -0.262316
     10          6           0        4.942001    1.344562    0.408692
     11          6           0        3.656629    0.952836    0.780917
     12          6           0        2.539162    1.743133    0.501472
     13          6           0        2.749582    2.943790   -0.177978
     14          6           0        4.028210    3.352204   -0.557595
     15          1           0        6.128816    2.866208   -0.554258
     16          1           0        5.786909    0.705496    0.646948
     17          1           0        4.152384    4.295100   -1.082134
     18          9           0        3.501509   -0.214259    1.424381
     19          9           0        1.709562    3.727595   -0.495283
     20          1           0        1.007435   -1.480504    2.102586
     21          1           0        0.307955   -1.605637    3.729139
     22          1           0       -0.409520   -2.494982    2.376611
     23          1           0       -1.081000   -0.344060    1.294824
     24          1           0       -1.811441   -0.614613    2.868086
     25          1           0       -1.416935    2.370913    1.578769
     26          1           0       -0.703931    3.271222    4.429754
     27          1           0       -1.632276    4.236645    3.275558
     28          1           0        0.918472    3.193659    2.687984
     29          1           0        0.990185    0.305522    0.497482
     30          1           0        0.418669    1.965862    0.447611
     31          1           0       -0.225703    0.880686    3.961045
     32          6           0       -2.756201    1.830325    3.152445
     33          1           0       -2.740829    1.500191    4.196482
     34          1           0       -3.411131    2.706093    3.084900
     35          1           0       -3.219673    1.046495    2.545820
     36          1           0        1.679109    0.632756    2.750375
 ---------------------------------------------------------------------
                    Distance matrix (angstroms):
                    1          2          3          4          5
     1  C    0.000000
     2  C    1.525817   0.000000
     3  C    2.576592   1.547917   0.000000
     4  C    3.975797   2.606343   1.566458   0.000000
     5  C    5.140272   3.960817   2.573372   1.543476   0.000000
     6  O    5.526159   4.528546   3.056349   2.459475   1.420018
     7  N    3.036065   2.536006   1.480990   2.522688   3.017228
     8  C    3.525709   3.012932   2.489123   3.168330   3.840859
     9  C    7.141231   7.174134   6.494973   7.111041   7.072098
    10  C    6.099419   6.366987   5.837257   6.724533   6.855663
    11  C    4.762006   4.974306   4.508603   5.474835   5.782785
    12  C    4.650385   4.426177   3.804551   4.459126   4.770632
    13  C    5.955135   5.533057   4.762526   5.038114   5.092310
    14  C    7.077379   6.815643   6.036568   6.370583   6.278629
    15  H    8.159335   8.246509   7.556708   8.162397   8.046081
    16  H    6.468086   6.956024   6.522039   7.549587   7.700201
    17  H    8.054795   7.678682   6.838970   6.979266   6.763576
    18  F    3.885135   4.469781   4.273838   5.535033   6.028451
    19  F    6.367094   5.632644   4.802885   4.656838   4.652028
    20  H    1.093356   2.185589   2.909584   4.370654   5.426427
    21  H    1.094644   2.172264   2.801367   4.252594   5.205568
    22  H    1.094940   2.159823   3.512963   4.758209   6.044588
    23  H    2.158041   1.096030   2.190725   2.862908   4.326250
    24  H    2.113310   1.095612   2.172989   2.824255   4.200687
    25  H    4.334150   2.918277   2.183240   1.096810   2.154322
    26  H    5.196244   4.199056   2.792935   2.189906   1.095511
    27  H    6.066250   4.770659   3.525765   2.184766   1.094951
    28  H    4.822050   4.009536   2.549989   2.486629   1.933464
    29  H    2.997426   2.722861   2.803488   3.680047   4.645345
    30  H    4.172239   3.294709   2.723570   2.830124   3.517876
    31  H    2.774849   2.131260   1.099354   2.145677   2.717256
    32  C    4.436281   3.015924   2.578346   1.534294   2.491422
    33  H    4.425311   3.226781   2.792501   2.184445   2.824778
    34  H    5.517612   4.067725   3.530469   2.180671   2.657490
    35  H    4.195076   2.761343   2.901238   2.185183   3.455834
    36  H    2.715365   2.765310   2.050324   3.389406   3.852084
                    6          7          8          9         10
     6  O    0.000000
     7  N    2.770243   0.000000
     8  C    3.367732   1.472236   0.000000
     9  C    5.872910   5.039982   4.323366   0.000000
    10  C    5.824657   4.390476   3.815708   1.393568   0.000000
    11  C    4.926288   3.105527   2.525248   2.411490   1.394339
    12  C    3.890241   2.451654   1.503694   2.819681   2.437438
    13  C    3.974984   3.488197   2.528545   2.414327   2.776403
    14  C    5.037806   4.670295   3.816946   1.393981   2.408184
    15  H    6.794949   6.092192   5.410281   1.086919   2.156666
    16  H    6.717354   5.110423   4.673584   2.159870   1.085836
    17  H    5.463028   5.536538   4.675368   2.160815   3.398784
    18  F    5.428496   3.069948   2.839212   3.625808   2.352990
    19  F    3.582754   3.811790   2.853147   3.624822   4.116391
    20  H    5.532989   2.811239   3.035009   6.232705   5.131382
    21  H    5.648202   3.298390   4.141403   7.514470   6.418989
    22  H    6.515530   4.070492   4.366037   7.944747   6.874124
    23  H    4.775489   2.885984   2.809246   7.027686   6.317691
    24  H    5.053211   3.460390   4.043553   8.246851   7.449561
    25  H    2.656606   2.768993   2.866857   6.803566   6.546644
    26  H    2.047723   3.316366   4.440838   7.521441   7.194269
    27  H    2.029912   4.043433   4.687904   7.815965   7.733316
    28  H    0.981629   1.904606   2.604009   5.182315   4.980273
    29  H    4.374974   2.133393   1.095705   4.770913   4.087094
    30  H    3.088494   2.120051   1.094505   4.800657   4.565968
    31  H    3.341523   2.061231   3.377570   7.022443   6.288049
    32  C    3.763068   3.886135   4.542659   8.624236   8.186969
    33  H    4.172796   4.179609   5.103982   9.107171   8.567231
    34  H    3.950443   4.694456   5.251694   9.175181   8.876411
    35  H    4.596777   4.248508   4.681958   8.937133   8.442102
    36  H    3.598690   1.023766   2.027291   4.966693   4.078800
                   11         12         13         14         15
    11  C    0.000000
    12  C    1.396922   0.000000
    13  C    2.388747   1.395531   0.000000
    14  C    2.772481   2.434748   1.394920   0.000000
    15  H    3.399322   3.906594   3.401004   2.156096   0.000000
    16  H    2.148771   3.412582   3.862100   3.398383   2.495691
    17  H    3.858427   3.409227   2.147415   1.086100   2.495329
    18  F    1.341722   2.368387   3.620252   4.114037   4.506332
    19  F    3.622022   2.370621   1.340401   2.349666   4.502807
    20  H    3.832255   3.911725   5.273559   6.289413   7.223660
    21  H    5.143094   5.158525   6.474905   7.536350   8.498665
    22  H    5.564823   5.492949   6.788674   7.905226   8.948865
    23  H    4.938742   4.253393   5.258561   6.572507   8.105947
    24  H    6.059122   5.485214   6.537864   7.846812   9.320742
    25  H    5.328092   4.147937   4.557874   5.930985   7.857066
    26  H    6.140310   5.318281   5.767596   6.875563   8.467045
    27  H    6.706650   5.595896   5.727047   6.893214   8.762428
    28  H    4.019415   3.084071   3.410152   4.497709   6.145490
    29  H    2.758491   2.113308   3.242250   4.430017   5.836848
    30  H    3.409061   2.132838   2.604008   3.995143   5.866868
    31  H    5.019056   4.511866   5.499112   6.679991   8.044263
    32  C    6.893368   5.922510   6.530327   7.880910   9.682780
    33  H    7.272768   6.449064   7.166902   8.476502  10.154119
    34  H    7.637767   6.558001   6.975475   8.308371  10.211743
    35  H    7.099802   6.150516   6.830140   8.214578  10.015792
    36  H    2.809235   2.651451   3.880985   4.884295   5.975684
                   16         17         18         19         20
    16  H    0.000000
    17  H    4.306583   0.000000
    18  F    2.583293   5.200055   0.000000
    19  F    5.202166   2.575623   4.736496   0.000000
    20  H    5.453517   7.306897   2.878149   5.862269   0.000000
    21  H    6.697774   8.529166   4.176916   6.946482   1.774994
    22  H    7.185438   8.881391   4.626509   7.173475   1.764091
    23  H    6.977785   7.386477   4.586177   5.250723   2.511084
    24  H    8.025650   8.676216   5.520145   6.524146   3.046608
    25  H    7.452333   6.465309   5.558601   3.989644   4.580979
    26  H    7.938739   7.417077   6.234306   5.503564   5.560880
    27  H    8.626871   7.242595   7.042240   5.064213   6.405445
    28  H    5.835963   5.087745   4.459000   3.323266   4.711518
    29  H    4.815691   5.330237   2.726914   3.635061   2.401363
    30  H    5.517813   4.658980   3.900117   2.378898   3.868207
    31  H    6.867709   7.500635   4.639577   5.631075   3.248033
    32  C    8.973711   8.469671   6.806281   6.070304   5.121401
    33  H    9.271087   9.120948   7.042064   6.839588   5.226703
    34  H    9.723679   8.780426   7.685725   6.331088   6.165733
    35  H    9.210891   8.835310   6.929748   6.382316   4.944757
    36  H    4.615595   5.849613   2.407662   4.484780   2.310118
                   21         22         23         24         25
    21  H    0.000000
    22  H    1.770604   0.000000
    23  H    3.073542   2.499523   0.000000
    24  H    2.493066   2.396397   1.755533   0.000000
    25  H    4.838624   5.032730   2.750374   3.275872   0.000000
    26  H    5.029764   6.127902   4.800024   4.331870   3.073605
    27  H    6.172722   6.900583   5.020963   4.871636   2.531091
    28  H    4.948735   5.849885   4.295840   4.689115   2.713189
    29  H    3.815963   3.651455   2.312470   3.783586   3.351007
    30  H    4.851421   4.930118   2.881409   4.182217   2.193861
    31  H    2.553502   3.733544   3.056186   2.438246   3.052057
    32  C    4.639770   4.981678   3.314363   2.636504   2.135960
    33  H    4.377175   4.970748   3.817841   2.664731   3.059947
    34  H    5.730415   6.046695   4.235247   3.692303   2.521427
    35  H    4.569268   4.524119   2.841224   2.201421   2.437034
    36  H    2.801508   3.779526   3.269709   3.708601   3.738895
                   26         27         28         29         30
    26  H    0.000000
    27  H    1.768060   0.000000
    28  H    2.381590   2.817690   0.000000
    29  H    5.208471   5.481673   3.625573   0.000000
    30  H    4.338394   4.166547   2.603183   1.756658   0.000000
    31  H    2.482550   3.702810   2.877441   3.715571   3.733235
    32  C    2.814163   2.658710   3.946850   4.838312   4.173044
    33  H    2.709229   3.092761   4.305100   5.387977   4.924765
    34  H    3.075213   2.354414   4.375011   5.641725   4.708567
    35  H    3.850659   3.637225   4.664201   4.740004   4.299448
    36  H    3.932009   4.922307   2.672206   2.378492   2.944249
                   31         32         33         34         35
    31  H    0.000000
    32  C    2.821182   0.000000
    33  H    2.600976   1.095097   0.000000
    34  H    3.774479   1.095657   1.771756   0.000000
    35  H    3.315752   1.094162   1.777587   1.755428   0.000000
    36  H    2.270573   4.611703   4.730700   5.506467   4.920476
                   36
    36  H    0.000000
 Stoichiometry    C13H19F2NO
 Framework group  C1[X(C13H19F2NO)]
 Deg. of freedom   102
 Full point group                 C1      NOp   1
 Largest Abelian subgroup         C1      NOp   1
 Largest concise Abelian subgroup C1      NOp   1
                         Standard orientation:                         
 ---------------------------------------------------------------------
 Center     Atomic      Atomic             Coordinates (Angstroms)
 Number     Number       Type             X           Y           Z
 ---------------------------------------------------------------------
      1          6           0       -2.019220    3.032777    0.222186
      2          6           0       -2.545382    1.670710    0.664956
      3          6           0       -2.155200    0.509522   -0.281324
      4          6           0       -2.777665   -0.868838    0.126661
      5          6           0       -2.545710   -1.942470   -0.957695
      6          8           0       -1.170525   -2.263740   -1.106370
      7          7           0       -0.697915    0.402754   -0.522681
      8          6           0        0.123329    0.272498    0.692257
      9          6           0        4.293688   -0.262098   -0.314620
     10          6           0        3.657964    0.950324   -0.575232
     11          6           0        2.312883    1.111536   -0.245157
     12          6           0        1.573441    0.082466    0.342748
     13          6           0        2.231658   -1.120464    0.602010
     14          6           0        3.576498   -1.300133    0.278088
     15          1           0        5.341242   -0.397921   -0.570699
     16          1           0        4.198963    1.771894   -1.034997
     17          1           0        4.053361   -2.252160    0.492236
     18          9           0        1.724160    2.288968   -0.504535
     19          9           0        1.576824   -2.131790    1.189450
     20          1           0       -0.928560    3.088620    0.274808
     21          1           0       -2.328164    3.256275   -0.803898
     22          1           0       -2.419790    3.816804    0.873138
     23          1           0       -2.217334    1.463201    1.689948
     24          1           0       -3.636799    1.759674    0.700443
     25          1           0       -2.302825   -1.211309    1.054148
     26          1           0       -2.927923   -1.609260   -1.928792
     27          1           0       -3.063820   -2.871542   -0.698260
     28          1           0       -0.695981   -1.404607   -1.123484
     29          1           0        0.046541    1.162614    1.326580
     30          1           0       -0.217699   -0.573800    1.296757
     31          1           0       -2.589687    0.757531   -1.260248
     32          6           0       -4.286206   -0.776797    0.391033
     33          1           0       -4.812057   -0.331443   -0.460071
     34          1           0       -4.713459   -1.769751    0.569815
     35          1           0       -4.499071   -0.180206    1.283197
     36          1           0       -0.386651    1.247234   -1.010600
 ---------------------------------------------------------------------
 Rotational constants (GHZ):      0.6959058      0.2977963      0.2303239
 Standard basis: 6-311G(d) (5D, 7F)
 There are   380 symmetry adapted cartesian basis functions of A   symmetry.
 There are   363 symmetry adapted basis functions of A   symmetry.
   363 basis functions,   639 primitive gaussians,   380 cartesian basis functions
    65 alpha electrons       65 beta electrons
       nuclear repulsion energy      1290.4729739990 Hartrees.
 NAtoms=   36 NActive=   36 NUniq=   36 SFac= 1.00D+00 NAtFMM=   60 NAOKFM=F Big=F
 Integral buffers will be    131072 words long.
 Raffenetti 2 integral format.
 Two-electron integral symmetry is turned on.
 ------------------------------------------------------------------------------
 Polarizable Continuum Model (PCM)
 =================================
 Model                : PCM (using non-symmetric T matrix).
 Atomic radii         : UFF (Universal Force Field).
 Polarization charges : Total charges.
 Charge compensation  : None.
 Solution method      : On-the-fly selection.
 Cavity type          : Scaled VdW (van der Waals Surface) (Alpha=1.100).
 Cavity algorithm     : GePol (No added spheres)
                        Default sphere list used, NSphG=   36.
                        Lebedev-Laikov grids with approx.  5.0 points / Ang**2.
                        Smoothing algorithm: Karplus/York (Gamma=1.0000).
                        Polarization charges: spherical gaussians, with
                                              point-specific exponents (IZeta= 3).
                        Self-potential: point-specific (ISelfS= 7).
                        Self-field    : sphere-specific E.n sum rule (ISelfD= 2).
 Solvent              : Chloroform, Eps=   4.711300 Eps(inf)=   2.090627
 ------------------------------------------------------------------------------
 One-electron integrals computed using PRISM.
 NBasis=   363 RedAO= T EigKep=  2.43D-04  NBF=   363
 NBsUse=   363 1.00D-06 EigRej= -1.00D+00 NBFU=   363
 ExpMin= 1.03D-01 ExpMax= 1.14D+04 ExpMxC= 1.72D+03 IAcc=1 IRadAn=         1 AccDes= 0.00D+00
 Harris functional with IExCor=  908 and IRadAn=       1 diagonalized for initial guess.
 HarFok:  IExCor=  908 AccDes= 0.00D+00 IRadAn=         1 IDoV= 1 UseB2=F ITyADJ=14
 ICtDFT=  3500011 ScaDFX=  1.000000  1.000000  1.000000  1.000000
 FoFCou: FMM=F IPFlag=           0 FMFlag=      100000 FMFlg1=           0
         NFxFlg=           0 DoJE=T BraDBF=F KetDBF=T FulRan=T
         wScrn=  0.000000 ICntrl=     500 IOpCl=  0 I1Cent=   200000004 NGrid=           0
         NMat0=    1 NMatS0=      1 NMatT0=    0 NMatD0=    1 NMtDS0=    0 NMtDT0=    0
 Petite list used in FoFCou.
 Requested convergence on RMS density matrix=1.00D-08 within 128 cycles.
 Requested convergence on MAX density matrix=1.00D-06.
 Requested convergence on             energy=1.00D-06.
 No special actions if energy rises.
 Inv3:  Mode=1 IEnd=    18228675.
 Iteration    1 A*A^-1 deviation from unit magnitude is 4.22D-15 for   1541.
 Iteration    1 A*A^-1 deviation from orthogonality  is 5.43D-15 for   2434   2337.
 Iteration    1 A^-1*A deviation from unit magnitude is 4.33D-15 for   2446.
 Iteration    1 A^-1*A deviation from orthogonality  is 2.96D-12 for   1835   1638.
 Error on total polarization charges =  0.00967
 SCF Done:  E(RmPW1PW91) =  -836.464957643     A.U. after   12 cycles
            NFock= 12  Conv=0.68D-08     -V/T= 2.0038
 DoSCS=F DFT=T ScalE2(SS,OS)=  1.000000  1.000000
 Range of M.O.s used for correlation:     1   363
 NBasis=   363 NAE=    65 NBE=    65 NFC=     0 NFV=     0
 NROrb=    363 NOA=    65 NOB=    65 NVA=   298 NVB=   298

 **** Warning!!: The largest alpha MO coefficient is  0.10931090D+02

 NEqPCM:  Using equilibrium solvation (IEInf=0, Eps=   4.7113, EpsInf=   2.0906)
          Differentiating once with respect to magnetic field using GIAOs.
          Electric field/nuclear overlap derivatives assumed to be zero.
 FoFJK:  IHMeth= 1 ICntrl=    6127 DoSepK=F KAlg= 0 I1Cent=   0 FoldK=F
 IRaf=         1 NMat=   1 IRICut=       1 DoRegI=T DoRafI=F ISym2E= 0.
          There are     3 degrees of freedom in the 1st order CPHF.  IDoFFX=0 NUNeed=     3.
      3 vectors produced by pass  0 Test12= 6.46D-13 3.33D-08 XBig12= 4.74D+01 2.05D+00.
 AX will form     3 AO Fock derivatives at one time.
      3 vectors produced by pass  1 Test12= 6.46D-13 3.33D-08 XBig12= 1.26D-01 1.76D-01.
      3 vectors produced by pass  2 Test12= 6.46D-13 3.33D-08 XBig12= 6.52D-04 8.31D-03.
      3 vectors produced by pass  3 Test12= 6.46D-13 3.33D-08 XBig12= 1.53D-06 2.54D-04.
      3 vectors produced by pass  4 Test12= 6.46D-13 3.33D-08 XBig12= 2.99D-09 1.54D-05.
      3 vectors produced by pass  5 Test12= 6.46D-13 3.33D-08 XBig12= 1.17D-11 5.96D-07.
 InvSVY:  IOpt=1 It=  1 EMax= 8.88D-16
 Solved reduced A of dimension    18 with     3 vectors.
 Calculating GIAO nuclear magnetic shielding tensors.
 SCF GIAO Magnetic shielding tensor (ppm):
      1  C    Isotropic =   176.4512   Anisotropy =    19.8466
   XX=   166.1604   YX=     6.3694   ZX=     0.7942
   XY=     3.9796   YY=   186.6159   ZY=    -4.4859
   XZ=    -0.0182   YZ=    -5.7355   ZZ=   176.5772
   Eigenvalues:   164.7007   174.9706   189.6822
      2  C    Isotropic =   163.2349   Anisotropy =    20.7513
   XX=   154.4347   YX=     3.2016   ZX=    -4.7802
   XY=     7.5918   YY=   175.4772   ZY=     4.2623
   XZ=   -11.3903   YZ=     3.7843   ZZ=   159.7929
   Eigenvalues:   147.0051   165.6305   177.0691
      3  C    Isotropic =   119.5009   Anisotropy =    20.9719
   XX=   127.4823   YX=     1.1313   ZX=     3.5698
   XY=    10.2070   YY=   127.4253   ZY=     1.7772
   XZ=     1.0882   YZ=     2.8317   ZZ=   103.5952
   Eigenvalues:   103.2361   121.7846   133.4822
      4  C    Isotropic =   149.6938   Anisotropy =    23.5299
   XX=   149.1973   YX=    -1.0734   ZX=    -1.4523
   XY=   -15.1817   YY=   157.9858   ZY=    13.9712
   XZ=     3.4205   YZ=     4.6345   ZZ=   141.8982
   Eigenvalues:   136.0277   147.6732   165.3804
      5  C    Isotropic =   113.6271   Anisotropy =    55.1137
   XX=   140.2794   YX=   -15.0693   ZX=    -8.2091
   XY=   -13.7062   YY=   103.0692   ZY=    14.5754
   XZ=   -15.3416   YZ=    16.5628   ZZ=    97.5328
   Eigenvalues:    84.4867   106.0251   150.3696
      6  O    Isotropic =   295.7322   Anisotropy =    69.2449
   XX=   283.7578   YX=     1.2098   ZX=   -10.4879
   XY=    16.2696   YY=   329.8675   ZY=    24.4129
   XZ=    -8.3312   YZ=    31.9221   ZZ=   273.5714
   Eigenvalues:   256.5293   288.7718   341.8955
      7  N    Isotropic =   211.5180   Anisotropy =    36.1708
   XX=   234.0112   YX=     9.2177   ZX=   -14.0275
   XY=    -2.7362   YY=   179.2065   ZY=   -22.7798
   XZ=    10.3436   YZ=   -19.2270   ZZ=   221.3362
   Eigenvalues:   170.4418   228.4803   235.6318
      8  C    Isotropic =   154.6281   Anisotropy =    36.7548
   XX=   160.0069   YX=    -4.3778   ZX=    15.0510
   XY=    -1.2551   YY=   135.9037   ZY=     2.9273
   XZ=    14.1198   YZ=    -1.0404   ZZ=   167.9738
   Eigenvalues:   135.3004   149.4526   179.1314
      9  C    Isotropic =    54.2463   Anisotropy =   186.2502
   XX=   -36.7842   YX=    23.6017   ZX=    54.2448
   XY=    23.4626   YY=    51.2045   ZY=    39.7798
   XZ=    53.6500   YZ=    39.3124   ZZ=   148.3186
   Eigenvalues:   -52.9772    37.3030   178.4131
     10  C    Isotropic =    70.8515   Anisotropy =   147.9321
   XX=    49.8630   YX=   -10.2393   ZX=    38.7674
   XY=   -18.0623   YY=    26.1702   ZY=    57.7510
   XZ=    42.4664   YZ=    56.0415   ZZ=   136.5213
   Eigenvalues:   -12.6242    55.7058   169.4729
     11  C    Isotropic =    18.8352   Anisotropy =    96.2945
   XX=    24.6379   YX=    45.0921   ZX=     1.8830
   XY=    39.2351   YY=   -37.7274   ZY=    31.8834
   XZ=     2.9845   YZ=    34.0094   ZZ=    69.5950
   Eigenvalues:   -65.0612    38.5352    83.0315
     12  C    Isotropic =    67.0042   Anisotropy =   138.5720
   XX=    31.3784   YX=    10.6932   ZX=    35.5153
   XY=    12.5150   YY=    35.8343   ZY=    40.2552
   XZ=    35.7370   YZ=    40.9121   ZZ=   133.8000
   Eigenvalues:    19.6298    21.9972   159.3855
     13  C    Isotropic =    20.4902   Anisotropy =    99.2629
   XX=    18.4998   YX=   -34.0187   ZX=    34.7160
   XY=   -28.4903   YY=   -16.7396   ZY=    48.7971
   XZ=    28.6653   YZ=    46.2533   ZZ=    59.7106
   Eigenvalues:   -61.7862    36.5914    86.6655
     14  C    Isotropic =    70.0950   Anisotropy =   149.6263
   XX=    51.1082   YX=    30.7302   ZX=    24.0035
   XY=    38.7422   YY=    13.8847   ZY=    46.4409
   XZ=    20.3486   YZ=    49.6904   ZZ=   145.2922
   Eigenvalues:   -13.4460    53.8852   169.8459
     15  H    Isotropic =    24.5224   Anisotropy =     3.1747
   XX=    25.7185   YX=    -0.4272   ZX=    -1.0667
   XY=    -0.3756   YY=    25.9710   ZY=    -1.7754
   XZ=    -1.1249   YZ=    -1.7908   ZZ=    21.8778
   Eigenvalues:    20.9258    26.0026    26.6389
     16  H    Isotropic =    25.2009   Anisotropy =     5.2635
   XX=    28.3007   YX=    -0.6456   ZX=    -1.5679
   XY=    -0.9440   YY=    25.2952   ZY=    -1.1987
   XZ=    -1.3634   YZ=    -1.1952   ZZ=    22.0069
   Eigenvalues:    21.2357    25.6571    28.7099
     17  H    Isotropic =    25.1767   Anisotropy =     5.0638
   XX=    28.1942   YX=    -0.7455   ZX=    -1.4131
   XY=    -0.3372   YY=    25.1594   ZY=    -1.4434
   XZ=    -1.5465   YZ=    -1.3702   ZZ=    22.1766
   Eigenvalues:    21.2600    25.7176    28.5526
     18  F    Isotropic =   305.0567   Anisotropy =   125.9903
   XX=   252.1085   YX=     3.8503   ZX=    34.0977
   XY=   -12.0644   YY=   305.3411   ZY=    36.4008
   XZ=    36.6264   YZ=    51.8707   ZZ=   357.7203
   Eigenvalues:   236.3644   289.7554   389.0502
     19  F    Isotropic =   298.7466   Anisotropy =   126.2650
   XX=   252.4575   YX=    42.3770   ZX=    23.0176
   XY=    40.8089   YY=   281.2581   ZY=    24.4355
   XZ=    27.9476   YZ=    33.1642   ZZ=   362.5242
   Eigenvalues:   222.7092   290.6074   382.9233
     20  H    Isotropic =    30.8350   Anisotropy =     7.9103
   XX=    35.6246   YX=     1.1193   ZX=    -0.2590
   XY=     1.6047   YY=    32.1313   ZY=    -0.1603
   XZ=    -0.5365   YZ=    -0.1225   ZZ=    24.7491
   Eigenvalues:    24.7334    31.6631    36.1086
     21  H    Isotropic =    31.3895   Anisotropy =     9.4598
   XX=    28.4035   YX=    -1.4083   ZX=     1.5776
   XY=    -0.9460   YY=    32.3756   ZY=    -4.5236
   XZ=     2.4242   YZ=    -3.9234   ZZ=    33.3894
   Eigenvalues:    27.6516    28.8209    37.6960
     22  H    Isotropic =    30.8548   Anisotropy =    11.1043
   XX=    27.6586   YX=    -1.4190   ZX=    -1.7573
   XY=    -2.1117   YY=    36.3437   ZY=     3.7792
   XZ=    -2.1619   YZ=     3.3447   ZZ=    28.5622
   Eigenvalues:    25.9948    28.3120    38.2577
     23  H    Isotropic =    30.3900   Anisotropy =     4.6264
   XX=    27.9251   YX=    -0.2721   ZX=    -0.8282
   XY=    -0.2845   YY=    29.8171   ZY=     0.3350
   XZ=    -0.0233   YZ=     0.0722   ZZ=    33.4277
   Eigenvalues:    27.8572    29.8384    33.4742
     24  H    Isotropic =    30.5349   Anisotropy =     7.8734
   XX=    34.9698   YX=     0.3418   ZX=    -2.4768
   XY=     1.3794   YY=    32.7029   ZY=     0.8603
   XZ=    -3.0864   YZ=     0.5045   ZZ=    23.9322
   Eigenvalues:    23.1922    32.6287    35.7839
     25  H    Isotropic =    30.0015   Anisotropy =     3.8040
   XX=    31.6540   YX=     0.3090   ZX=     0.3976
   XY=     0.4914   YY=    28.9539   ZY=    -2.8555
   XZ=     1.8873   YZ=    -2.9376   ZZ=    29.3968
   Eigenvalues:    26.0635    31.4036    32.5375
     26  H    Isotropic =    28.2921   Anisotropy =     6.0768
   XX=    30.6928   YX=    -1.1217   ZX=     3.1733
   XY=    -0.6764   YY=    25.0499   ZY=     1.7463
   XZ=     1.3647   YZ=     2.2932   ZZ=    29.1337
   Eigenvalues:    23.7728    28.7603    32.3433
     27  H    Isotropic =    28.4766   Anisotropy =     6.6022
   XX=    30.5078   YX=     2.5720   ZX=    -1.7450
   XY=     1.1997   YY=    31.3086   ZY=     1.8861
   XZ=    -0.5227   YZ=     1.4687   ZZ=    23.6133
   Eigenvalues:    22.9554    29.5963    32.8780
     28  H    Isotropic =    27.8163   Anisotropy =    23.1454
   XX=    28.7653   YX=     8.0443   ZX=    -1.2503
   XY=     7.5852   YY=    38.4100   ZY=     3.8314
   XZ=     0.6499   YZ=     4.6659   ZZ=    16.2736
   Eigenvalues:    15.2203    24.9821    43.2465
     29  H    Isotropic =    28.5475   Anisotropy =     4.7449
   XX=    29.6613   YX=    -0.6200   ZX=     2.1941
   XY=    -1.9007   YY=    27.9111   ZY=     2.7683
   XZ=    -0.1245   YZ=     4.6465   ZZ=    28.0700
   Eigenvalues:    23.8296    30.1021    31.7107
     30  H    Isotropic =    28.3403   Anisotropy =     6.5655
   XX=    30.3480   YX=    -1.0597   ZX=     1.3647
   XY=    -1.0804   YY=    28.1093   ZY=    -3.8323
   XZ=     0.0077   YZ=    -5.4599   ZZ=    26.5636
   Eigenvalues:    22.6228    29.6809    32.7173
     31  H    Isotropic =    29.4847   Anisotropy =     4.8085
   XX=    30.7636   YX=    -0.4197   ZX=     2.6505
   XY=    -0.3987   YY=    28.0348   ZY=    -0.2782
   XZ=     2.0885   YZ=    -0.2012   ZZ=    29.6556
   Eigenvalues:    27.7572    28.0064    32.6903
     32  C    Isotropic =   172.0244   Anisotropy =    24.8471
   XX=   187.9065   YX=    -0.2058   ZX=    -7.5983
   XY=     1.6445   YY=   170.4507   ZY=     1.0773
   XZ=    -1.4344   YZ=     0.1452   ZZ=   157.7159
   Eigenvalues:   157.0173   170.4667   188.5891
     33  H    Isotropic =    31.7030   Anisotropy =     8.8079
   XX=    35.6900   YX=    -1.2989   ZX=     3.5372
   XY=    -1.0934   YY=    29.3569   ZY=    -1.5001
   XZ=     3.0623   YZ=    -1.5090   ZZ=    30.0620
   Eigenvalues:    27.8896    29.6445    37.5749
     34  H    Isotropic =    31.3570   Anisotropy =    10.4750
   XX=    33.1934   YX=     4.8187   ZX=    -2.5943
   XY=     3.7921   YY=    33.6195   ZY=    -1.4823
   XZ=    -1.9256   YZ=    -1.4580   ZZ=    27.2580
   Eigenvalues:    26.4954    29.2352    38.3403
     35  H    Isotropic =    31.0288   Anisotropy =     8.2413
   XX=    32.1294   YX=    -0.2261   ZX=    -4.9566
   XY=     0.5686   YY=    29.9168   ZY=     3.3875
   XZ=    -3.6907   YZ=     2.6428   ZZ=    31.0403
   Eigenvalues:    25.7521    30.8114    36.5230
     36  H    Isotropic =    29.8764   Anisotropy =    11.7714
   XX=    32.4995   YX=     3.7342   ZX=    -1.7249
   XY=     2.6135   YY=    30.2783   ZY=    -5.8424
   XZ=    -0.7861   YZ=    -7.9064   ZZ=    26.8513
   Eigenvalues:    21.3902    30.5149    37.7240
 End of Minotr F.D. properties file   721 does not exist.
 End of Minotr F.D. properties file   722 does not exist.
 End of Minotr F.D. properties file   788 does not exist.

 **********************************************************************

            Population analysis using the SCF density.

 **********************************************************************

 Orbital symmetries:
       Occupied  (A) (A) (A) (A) (A) (A) (A) (A) (A) (A) (A) (A)
                 (A) (A) (A) (A) (A) (A) (A) (A) (A) (A) (A) (A)
                 (A) (A) (A) (A) (A) (A) (A) (A) (A) (A) (A) (A)
                 (A) (A) (A) (A) (A) (A) (A) (A) (A) (A) (A) (A)
                 (A) (A) (A) (A) (A) (A) (A) (A) (A) (A) (A) (A)
                 (A) (A) (A) (A) (A)
       Virtual   (A) (A) (A) (A) (A) (A) (A) (A) (A) (A) (A) (A)
                 (A) (A) (A) (A) (A) (A) (A) (A) (A) (A) (A) (A)
                 (A) (A) (A) (A) (A) (A) (A) (A) (A) (A) (A) (A)
                 (A) (A) (A) (A) (A) (A) (A) (A) (A) (A) (A) (A)
                 (A) (A) (A) (A) (A) (A) (A) (A) (A) (A) (A) (A)
                 (A) (A) (A) (A) (A) (A) (A) (A) (A) (A) (A) (A)
                 (A) (A) (A) (A) (A) (A) (A) (A) (A) (A) (A) (A)
                 (A) (A) (A) (A) (A) (A) (A) (A) (A) (A) (A) (A)
                 (A) (A) (A) (A) (A) (A) (A) (A) (A) (A) (A) (A)
                 (A) (A) (A) (A) (A) (A) (A) (A) (A) (A) (A) (A)
                 (A) (A) (A) (A) (A) (A) (A) (A) (A) (A) (A) (A)
                 (A) (A) (A) (A) (A) (A) (A) (A) (A) (A) (A) (A)
                 (A) (A) (A) (A) (A) (A) (A) (A) (A) (A) (A) (A)
                 (A) (A) (A) (A) (A) (A) (A) (A) (A) (A) (A) (A)
                 (A) (A) (A) (A) (A) (A) (A) (A) (A) (A) (A) (A)
                 (A) (A) (A) (A) (A) (A) (A) (A) (A) (A) (A) (A)
                 (A) (A) (A) (A) (A) (A) (A) (A) (A) (A) (A) (A)
                 (A) (A) (A) (A) (A) (A) (A) (A) (A) (A) (A) (A)
                 (A) (A) (A) (A) (A) (A) (A) (A) (A) (A) (A) (A)
                 (A) (A) (A) (A) (A) (A) (A) (A) (A) (A) (A) (A)
                 (A) (A) (A) (A) (A) (A) (A) (A) (A) (A) (A) (A)
                 (A) (A) (A) (A) (A) (A) (A) (A) (A) (A) (A) (A)
                 (A) (A) (A) (A) (A) (A) (A) (A) (A) (A) (A) (A)
                 (A) (A) (A) (A) (A) (A) (A) (A) (A) (A) (A) (A)
                 (A) (A) (A) (A) (A) (A) (A) (A) (A) (A)
 The electronic state is 1-A.
 Alpha  occ. eigenvalues --  -24.81108 -24.80274 -19.17746 -14.39807 -10.34036
 Alpha  occ. eigenvalues --  -10.33906 -10.27373 -10.27060 -10.26736 -10.26327
 Alpha  occ. eigenvalues --  -10.26092 -10.25376 -10.25268 -10.23894 -10.22966
 Alpha  occ. eigenvalues --  -10.22237 -10.22159  -1.28311  -1.27557  -1.02535
 Alpha  occ. eigenvalues --   -0.95155  -0.90670  -0.83315  -0.80502  -0.78777
 Alpha  occ. eigenvalues --   -0.78578  -0.72434  -0.68576  -0.68234  -0.66206
 Alpha  occ. eigenvalues --   -0.64424  -0.62203  -0.59405  -0.57778  -0.56165
 Alpha  occ. eigenvalues --   -0.53303  -0.52127  -0.51630  -0.51011  -0.50354
 Alpha  occ. eigenvalues --   -0.49638  -0.48671  -0.47270  -0.46934  -0.45950
 Alpha  occ. eigenvalues --   -0.44436  -0.43472  -0.42966  -0.42310  -0.41681
 Alpha  occ. eigenvalues --   -0.40482  -0.39854  -0.39383  -0.38598  -0.38032
 Alpha  occ. eigenvalues --   -0.37401  -0.36666  -0.35655  -0.35028  -0.33398
 Alpha  occ. eigenvalues --   -0.32618  -0.27733  -0.26903  -0.26439  -0.25289
 Alpha virt. eigenvalues --   -0.02189  -0.01074   0.04749   0.06029   0.06408
 Alpha virt. eigenvalues --    0.06855   0.08447   0.10019   0.10207   0.10839
 Alpha virt. eigenvalues --    0.11393   0.11719   0.12069   0.13177   0.13460
 Alpha virt. eigenvalues --    0.13634   0.14766   0.14911   0.15411   0.16542
 Alpha virt. eigenvalues --    0.17029   0.17725   0.18755   0.19140   0.20846
 Alpha virt. eigenvalues --    0.21331   0.22094   0.22655   0.23192   0.24644
 Alpha virt. eigenvalues --    0.24981   0.25803   0.26441   0.27904   0.28809
 Alpha virt. eigenvalues --    0.32227   0.32598   0.34248   0.34804   0.35204
 Alpha virt. eigenvalues --    0.36131   0.37029   0.37354   0.38143   0.39236
 Alpha virt. eigenvalues --    0.39918   0.40497   0.41309   0.41639   0.42355
 Alpha virt. eigenvalues --    0.42576   0.43505   0.45359   0.46042   0.46200
 Alpha virt. eigenvalues --    0.47529   0.48230   0.49902   0.50613   0.51606
 Alpha virt. eigenvalues --    0.52442   0.53455   0.54223   0.55138   0.56396
 Alpha virt. eigenvalues --    0.56578   0.57168   0.57639   0.58709   0.59232
 Alpha virt. eigenvalues --    0.59622   0.60634   0.60894   0.61207   0.61716
 Alpha virt. eigenvalues --    0.61788   0.62295   0.63310   0.64066   0.64371
 Alpha virt. eigenvalues --    0.64609   0.65666   0.65811   0.66372   0.67351
 Alpha virt. eigenvalues --    0.67896   0.69019   0.69616   0.70573   0.70894
 Alpha virt. eigenvalues --    0.71722   0.72558   0.74453   0.75741   0.77443
 Alpha virt. eigenvalues --    0.78581   0.79164   0.82384   0.83348   0.83759
 Alpha virt. eigenvalues --    0.88166   0.90175   0.91867   0.92655   0.96166
 Alpha virt. eigenvalues --    0.97297   0.97719   0.99399   1.00109   1.00910
 Alpha virt. eigenvalues --    1.04134   1.04511   1.04839   1.06509   1.07843
 Alpha virt. eigenvalues --    1.08725   1.09849   1.11098   1.12304   1.14499
 Alpha virt. eigenvalues --    1.15811   1.17768   1.20059   1.22133   1.23169
 Alpha virt. eigenvalues --    1.24575   1.26354   1.28109   1.28946   1.30046
 Alpha virt. eigenvalues --    1.34132   1.35226   1.37478   1.39010   1.42934
 Alpha virt. eigenvalues --    1.44472   1.45556   1.47672   1.49487   1.51014
 Alpha virt. eigenvalues --    1.51644   1.52553   1.53291   1.53690   1.55522
 Alpha virt. eigenvalues --    1.55596   1.56835   1.57973   1.58885   1.61590
 Alpha virt. eigenvalues --    1.61677   1.62322   1.64788   1.65654   1.66710
 Alpha virt. eigenvalues --    1.67955   1.68347   1.69615   1.71805   1.72250
 Alpha virt. eigenvalues --    1.73913   1.77388   1.78014   1.80581   1.82052
 Alpha virt. eigenvalues --    1.82210   1.83347   1.84862   1.88658   1.89234
 Alpha virt. eigenvalues --    1.89401   1.90111   1.91683   1.93289   1.94117
 Alpha virt. eigenvalues --    1.95410   1.97791   1.99731   2.02087   2.03190
 Alpha virt. eigenvalues --    2.06116   2.09736   2.14561   2.18678   2.18985
 Alpha virt. eigenvalues --    2.22179   2.24843   2.25915   2.27322   2.28327
 Alpha virt. eigenvalues --    2.31655   2.33539   2.37979   2.39841   2.40558
 Alpha virt. eigenvalues --    2.42589   2.43624   2.44199   2.45512   2.47684
 Alpha virt. eigenvalues --    2.48551   2.51245   2.52598   2.52917   2.54666
 Alpha virt. eigenvalues --    2.54969   2.56262   2.59971   2.60650   2.63427
 Alpha virt. eigenvalues --    2.66578   2.66895   2.69115   2.70380   2.73726
 Alpha virt. eigenvalues --    2.77716   2.82123   2.84518   2.85946   2.89198
 Alpha virt. eigenvalues --    2.91676   2.93158   2.97828   3.00356   3.03400
 Alpha virt. eigenvalues --    3.06089   3.07900   3.08443   3.09892   3.12658
 Alpha virt. eigenvalues --    3.13680   3.15105   3.16123   3.20088   3.21523
 Alpha virt. eigenvalues --    3.24203   3.25295   3.25895   3.28485   3.29068
 Alpha virt. eigenvalues --    3.30766   3.31703   3.33072   3.38642   3.39386
 Alpha virt. eigenvalues --    3.46548   3.47683   3.49866   3.62162   3.64584
 Alpha virt. eigenvalues --    3.74458   3.78921   3.79339   3.79875   3.80622
 Alpha virt. eigenvalues --    3.86318   3.88426   3.93535   3.96582   3.99348
 Alpha virt. eigenvalues --    4.00396   4.07292   4.09943   4.11964   4.13062
 Alpha virt. eigenvalues --    4.18250   4.25428   4.44022   4.75302   4.77804
 Alpha virt. eigenvalues --    4.78326   4.80659   4.96311   5.07979   5.46385
 Alpha virt. eigenvalues --    6.12869   6.14762   6.30790   6.32772   6.56984
 Alpha virt. eigenvalues --    6.59692  23.29802  23.47988  23.59909  23.68843
 Alpha virt. eigenvalues --   23.72988  23.78890  23.79508  23.81978  23.86762
 Alpha virt. eigenvalues --   23.89666  24.08662  24.10536  24.19281  35.56990
 Alpha virt. eigenvalues --   50.00811  66.88825  66.89544
          Condensed to atoms (all electrons):
               1          2          3          4          5          6
     1  C    5.372499   0.291536  -0.074983   0.007544  -0.000259   0.000009
     2  C    0.291536   5.431463   0.314082  -0.081170   0.006371  -0.000155
     3  C   -0.074983   0.314082   5.287744   0.315322  -0.076016   0.000328
     4  C    0.007544  -0.081170   0.315322   5.388530   0.346714  -0.046315
     5  C   -0.000259   0.006371  -0.076016   0.346714   5.045655   0.251244
     6  O    0.000009  -0.000155   0.000328  -0.046315   0.251244   8.244011
     7  N    0.006268  -0.074896   0.266401  -0.056755   0.006008  -0.034509
     8  C   -0.001792  -0.016217  -0.085769  -0.006671  -0.000949   0.008900
     9  C    0.000000   0.000000   0.000000   0.000000   0.000000  -0.000002
    10  C   -0.000007  -0.000002   0.000009   0.000001   0.000000   0.000002
    11  C    0.000317  -0.000271   0.000052  -0.000027   0.000016  -0.000037
    12  C   -0.000541   0.000210   0.011532  -0.000740   0.000361  -0.002650
    13  C   -0.000023   0.000067  -0.000467   0.000111  -0.000096   0.001730
    14  C    0.000000   0.000000   0.000004   0.000001  -0.000001   0.000047
    15  H    0.000000   0.000000   0.000000   0.000000   0.000000   0.000000
    16  H    0.000000   0.000000  -0.000001   0.000000   0.000000   0.000000
    17  H    0.000000   0.000000   0.000000   0.000000   0.000000   0.000003
    18  F   -0.001262  -0.000055   0.000052  -0.000003   0.000000   0.000000
    19  F    0.000000   0.000002   0.000017  -0.000089   0.000015  -0.000126
    20  H    0.381546  -0.043305  -0.005571  -0.000162  -0.000017   0.000005
    21  H    0.386411  -0.045078  -0.002402   0.000122  -0.000014   0.000001
    22  H    0.392951  -0.035749   0.007091  -0.000214   0.000010   0.000000
    23  H   -0.042849   0.392650  -0.041840  -0.001484   0.000063  -0.000048
    24  H   -0.039517   0.388831  -0.033550  -0.006894  -0.000049   0.000019
    25  H   -0.000337  -0.003746  -0.059111   0.390519  -0.044638   0.006450
    26  H   -0.000047   0.000155  -0.017089  -0.045250   0.376687  -0.042468
    27  H    0.000013  -0.000329   0.009041  -0.037510   0.391633  -0.028798
    28  H   -0.000136   0.002381   0.003951  -0.006159  -0.057149   0.254484
    29  H   -0.001264   0.009679  -0.006993  -0.000740  -0.000065  -0.000074
    30  H    0.000552  -0.003419  -0.003265   0.003773  -0.000351   0.004104
    31  H   -0.004063  -0.053041   0.399720  -0.038602  -0.004682   0.000118
    32  C    0.000172  -0.004049  -0.071403   0.286790  -0.076536   0.005626
    33  H   -0.000219  -0.001646  -0.006552  -0.041712  -0.003859  -0.000107
    34  H    0.000015   0.000223   0.008039  -0.038022  -0.005871   0.000111
    35  H    0.000310   0.000361  -0.005705  -0.028667   0.006162  -0.000231
    36  H    0.005039  -0.001804  -0.045624   0.006478  -0.000002   0.000512
               7          8          9         10         11         12
     1  C    0.006268  -0.001792   0.000000  -0.000007   0.000317  -0.000541
     2  C   -0.074896  -0.016217   0.000000  -0.000002  -0.000271   0.000210
     3  C    0.266401  -0.085769   0.000000   0.000009   0.000052   0.011532
     4  C   -0.056755  -0.006671   0.000000   0.000001  -0.000027  -0.000740
     5  C    0.006008  -0.000949   0.000000   0.000000   0.000016   0.000361
     6  O   -0.034509   0.008900  -0.000002   0.000002  -0.000037  -0.002650
     7  N    7.044477   0.219321   0.000066  -0.000262  -0.002784  -0.058120
     8  C    0.219321   5.419601  -0.001383   0.008752  -0.092210   0.269253
     9  C    0.000066  -0.001383   5.055340   0.438295  -0.006051  -0.057634
    10  C   -0.000262   0.008752   0.438295   5.178969   0.481922  -0.032659
    11  C   -0.002784  -0.092210  -0.006051   0.481922   4.789053   0.220933
    12  C   -0.058120   0.269253  -0.057634  -0.032659   0.220933   5.750319
    13  C    0.004906  -0.059127  -0.003565  -0.064822   0.056687   0.303932
    14  C   -0.000300   0.011918   0.433613  -0.034489  -0.066514  -0.028894
    15  H    0.000000   0.000023   0.405357  -0.041951   0.006596  -0.002173
    16  H    0.000013  -0.000331  -0.040391   0.392015  -0.050027   0.012285
    17  H    0.000007  -0.000293  -0.041475   0.007112  -0.001342   0.012351
    18  F   -0.003305   0.005002   0.005387  -0.053614   0.314605  -0.085935
    19  F   -0.000102  -0.008495   0.005677  -0.000547   0.005502  -0.072923
    20  H    0.004466   0.003224  -0.000011   0.000166   0.000101  -0.001187
    21  H   -0.000624   0.000378   0.000000  -0.000001  -0.000011   0.000053
    22  H    0.000255  -0.000108   0.000000   0.000000   0.000003   0.000005
    23  H   -0.004296   0.003961   0.000000  -0.000001  -0.000018   0.000617
    24  H    0.005321   0.000344   0.000000   0.000000   0.000003   0.000009
    25  H   -0.002383   0.005943   0.000000   0.000001  -0.000115  -0.000635
    26  H    0.001206   0.000457   0.000000   0.000000  -0.000014  -0.000100
    27  H   -0.000503  -0.000130   0.000000   0.000000   0.000001   0.000028
    28  H    0.062363  -0.016312   0.000013  -0.000058  -0.000019  -0.001557
    29  H   -0.044545   0.378808   0.000064  -0.000605  -0.013758  -0.044130
    30  H   -0.033554   0.394980  -0.000391   0.000166   0.006445  -0.043458
    31  H   -0.036029   0.008648   0.000000   0.000000  -0.000045  -0.000195
    32  C    0.004651   0.000056   0.000000   0.000000   0.000000  -0.000017
    33  H    0.000041   0.000020   0.000000   0.000000   0.000000   0.000000
    34  H   -0.000156  -0.000012   0.000000   0.000000   0.000000   0.000000
    35  H   -0.000124   0.000007   0.000000   0.000000   0.000000   0.000002
    36  H    0.341115  -0.044028  -0.000053   0.000170   0.003123  -0.014570
              13         14         15         16         17         18
     1  C   -0.000023   0.000000   0.000000   0.000000   0.000000  -0.001262
     2  C    0.000067   0.000000   0.000000   0.000000   0.000000  -0.000055
     3  C   -0.000467   0.000004   0.000000  -0.000001   0.000000   0.000052
     4  C    0.000111   0.000001   0.000000   0.000000   0.000000  -0.000003
     5  C   -0.000096  -0.000001   0.000000   0.000000   0.000000   0.000000
     6  O    0.001730   0.000047   0.000000   0.000000   0.000003   0.000000
     7  N    0.004906  -0.000300   0.000000   0.000013   0.000007  -0.003305
     8  C   -0.059127   0.011918   0.000023  -0.000331  -0.000293   0.005002
     9  C   -0.003565   0.433613   0.405357  -0.040391  -0.041475   0.005387
    10  C   -0.064822  -0.034489  -0.041951   0.392015   0.007112  -0.053614
    11  C    0.056687  -0.066514   0.006596  -0.050027  -0.001342   0.314605
    12  C    0.303932  -0.028894  -0.002173   0.012285   0.012351  -0.085935
    13  C    4.708323   0.467120   0.006423  -0.001207  -0.047970   0.004181
    14  C    0.467120   5.196774  -0.041037   0.006946   0.391364  -0.000518
    15  H    0.006423  -0.041037   0.445776  -0.006677  -0.006592  -0.000071
    16  H   -0.001207   0.006946  -0.006677   0.449885  -0.000178   0.001489
    17  H   -0.047970   0.391364  -0.006592  -0.000178   0.449235   0.000004
    18  F    0.004181  -0.000518  -0.000071   0.001489   0.000004   9.029557
    19  F    0.311981  -0.054861  -0.000071   0.000004   0.001349  -0.000001
    20  H   -0.000093   0.000006   0.000000   0.000002   0.000000   0.007179
    21  H    0.000001   0.000000   0.000000   0.000000   0.000000  -0.000069
    22  H    0.000000   0.000000   0.000000   0.000000   0.000000  -0.000015
    23  H    0.000008   0.000000   0.000000   0.000000   0.000000  -0.000030
    24  H   -0.000002   0.000000   0.000000   0.000000   0.000000  -0.000003
    25  H    0.000374   0.000001   0.000000   0.000000   0.000001   0.000000
    26  H    0.000033   0.000001   0.000000   0.000000   0.000000   0.000000
    27  H   -0.000016   0.000000   0.000000   0.000000   0.000000   0.000000
    28  H    0.000558  -0.000355   0.000001   0.000001  -0.000001  -0.000020
    29  H    0.006053  -0.000444   0.000000  -0.000023   0.000022   0.002327
    30  H   -0.012521   0.002261   0.000005   0.000007  -0.000063   0.000194
    31  H    0.000011   0.000000   0.000000   0.000000   0.000000  -0.000033
    32  C    0.000001   0.000000   0.000000   0.000000   0.000000   0.000000
    33  H    0.000000   0.000000   0.000000   0.000000   0.000000   0.000000
    34  H    0.000000   0.000000   0.000000   0.000000   0.000000   0.000000
    35  H    0.000000   0.000000   0.000000   0.000000   0.000000   0.000000
    36  H   -0.000349   0.000039   0.000001   0.000019  -0.000001   0.010245
              19         20         21         22         23         24
     1  C    0.000000   0.381546   0.386411   0.392951  -0.042849  -0.039517
     2  C    0.000002  -0.043305  -0.045078  -0.035749   0.392650   0.388831
     3  C    0.000017  -0.005571  -0.002402   0.007091  -0.041840  -0.033550
     4  C   -0.000089  -0.000162   0.000122  -0.000214  -0.001484  -0.006894
     5  C    0.000015  -0.000017  -0.000014   0.000010   0.000063  -0.000049
     6  O   -0.000126   0.000005   0.000001   0.000000  -0.000048   0.000019
     7  N   -0.000102   0.004466  -0.000624   0.000255  -0.004296   0.005321
     8  C   -0.008495   0.003224   0.000378  -0.000108   0.003961   0.000344
     9  C    0.005677  -0.000011   0.000000   0.000000   0.000000   0.000000
    10  C   -0.000547   0.000166  -0.000001   0.000000  -0.000001   0.000000
    11  C    0.005502   0.000101  -0.000011   0.000003  -0.000018   0.000003
    12  C   -0.072923  -0.001187   0.000053   0.000005   0.000617   0.000009
    13  C    0.311981  -0.000093   0.000001   0.000000   0.000008  -0.000002
    14  C   -0.054861   0.000006   0.000000   0.000000   0.000000   0.000000
    15  H   -0.000071   0.000000   0.000000   0.000000   0.000000   0.000000
    16  H    0.000004   0.000002   0.000000   0.000000   0.000000   0.000000
    17  H    0.001349   0.000000   0.000000   0.000000   0.000000   0.000000
    18  F   -0.000001   0.007179  -0.000069  -0.000015  -0.000030  -0.000003
    19  F    9.026597   0.000001   0.000000   0.000000   0.000000   0.000000
    20  H    0.000001   0.481108  -0.029380  -0.025404  -0.006689   0.007836
    21  H    0.000000  -0.029380   0.483787  -0.026253   0.007588  -0.004932
    22  H    0.000000  -0.025404  -0.026253   0.463422  -0.003788  -0.005314
    23  H    0.000000  -0.006689   0.007588  -0.003788   0.493563  -0.031295
    24  H    0.000000   0.007836  -0.004932  -0.005314  -0.031295   0.479539
    25  H   -0.000305   0.000019   0.000007   0.000005   0.002347  -0.000147
    26  H   -0.000003   0.000003  -0.000018   0.000000  -0.000044  -0.000010
    27  H    0.000003   0.000000   0.000001   0.000000   0.000012   0.000012
    28  H    0.001720  -0.000084  -0.000020   0.000000  -0.000037  -0.000106
    29  H   -0.000081  -0.000950  -0.000195  -0.000139  -0.002355  -0.000280
    30  H    0.016092   0.000459  -0.000025   0.000004  -0.000608   0.000144
    31  H    0.000001  -0.000078   0.005439  -0.000192   0.006980  -0.004077
    32  C    0.000000  -0.000006  -0.000068   0.000002  -0.001539   0.000585
    33  H    0.000000   0.000001   0.000017   0.000008   0.000201   0.000357
    34  H    0.000000   0.000003  -0.000003  -0.000002  -0.000179   0.000576
    35  H    0.000000  -0.000024   0.000029   0.000007   0.001079  -0.001576
    36  H   -0.000023   0.000017  -0.000445   0.000183  -0.000514  -0.000215
              25         26         27         28         29         30
     1  C   -0.000337  -0.000047   0.000013  -0.000136  -0.001264   0.000552
     2  C   -0.003746   0.000155  -0.000329   0.002381   0.009679  -0.003419
     3  C   -0.059111  -0.017089   0.009041   0.003951  -0.006993  -0.003265
     4  C    0.390519  -0.045250  -0.037510  -0.006159  -0.000740   0.003773
     5  C   -0.044638   0.376687   0.391633  -0.057149  -0.000065  -0.000351
     6  O    0.006450  -0.042468  -0.028798   0.254484  -0.000074   0.004104
     7  N   -0.002383   0.001206  -0.000503   0.062363  -0.044545  -0.033554
     8  C    0.005943   0.000457  -0.000130  -0.016312   0.378808   0.394980
     9  C    0.000000   0.000000   0.000000   0.000013   0.000064  -0.000391
    10  C    0.000001   0.000000   0.000000  -0.000058  -0.000605   0.000166
    11  C   -0.000115  -0.000014   0.000001  -0.000019  -0.013758   0.006445
    12  C   -0.000635  -0.000100   0.000028  -0.001557  -0.044130  -0.043458
    13  C    0.000374   0.000033  -0.000016   0.000558   0.006053  -0.012521
    14  C    0.000001   0.000001   0.000000  -0.000355  -0.000444   0.002261
    15  H    0.000000   0.000000   0.000000   0.000001   0.000000   0.000005
    16  H    0.000000   0.000000   0.000000   0.000001  -0.000023   0.000007
    17  H    0.000001   0.000000   0.000000  -0.000001   0.000022  -0.000063
    18  F    0.000000   0.000000   0.000000  -0.000020   0.002327   0.000194
    19  F   -0.000305  -0.000003   0.000003   0.001720  -0.000081   0.016092
    20  H    0.000019   0.000003   0.000000  -0.000084  -0.000950   0.000459
    21  H    0.000007  -0.000018   0.000001  -0.000020  -0.000195  -0.000025
    22  H    0.000005   0.000000   0.000000   0.000000  -0.000139   0.000004
    23  H    0.002347  -0.000044   0.000012  -0.000037  -0.002355  -0.000608
    24  H   -0.000147  -0.000010   0.000012  -0.000106  -0.000280   0.000144
    25  H    0.512970   0.010498  -0.009421  -0.001657   0.000851   0.001379
    26  H    0.010498   0.560155  -0.045147  -0.004610   0.000053   0.000074
    27  H   -0.009421  -0.045147   0.500325   0.005912  -0.000018   0.000110
    28  H   -0.001657  -0.004610   0.005912   0.353554   0.002319  -0.004475
    29  H    0.000851   0.000053  -0.000018   0.002319   0.509280  -0.036492
    30  H    0.001379   0.000074   0.000110  -0.004475  -0.036492   0.430868
    31  H    0.007480   0.005722  -0.000175  -0.001461  -0.000206   0.000024
    32  C   -0.038297   0.002406  -0.005610  -0.001496   0.000088   0.000381
    33  H    0.008347   0.004682  -0.001058  -0.000029   0.000011  -0.000016
    34  H   -0.005359  -0.001051   0.006408  -0.000071  -0.000008   0.000065
    35  H   -0.006189  -0.000567   0.000038   0.000096  -0.000052  -0.000056
    36  H   -0.000619  -0.000280   0.000050  -0.000862  -0.004957   0.005626
              31         32         33         34         35         36
     1  C   -0.004063   0.000172  -0.000219   0.000015   0.000310   0.005039
     2  C   -0.053041  -0.004049  -0.001646   0.000223   0.000361  -0.001804
     3  C    0.399720  -0.071403  -0.006552   0.008039  -0.005705  -0.045624
     4  C   -0.038602   0.286790  -0.041712  -0.038022  -0.028667   0.006478
     5  C   -0.004682  -0.076536  -0.003859  -0.005871   0.006162  -0.000002
     6  O    0.000118   0.005626  -0.000107   0.000111  -0.000231   0.000512
     7  N   -0.036029   0.004651   0.000041  -0.000156  -0.000124   0.341115
     8  C    0.008648   0.000056   0.000020  -0.000012   0.000007  -0.044028
     9  C    0.000000   0.000000   0.000000   0.000000   0.000000  -0.000053
    10  C    0.000000   0.000000   0.000000   0.000000   0.000000   0.000170
    11  C   -0.000045   0.000000   0.000000   0.000000   0.000000   0.003123
    12  C   -0.000195  -0.000017   0.000000   0.000000   0.000002  -0.014570
    13  C    0.000011   0.000001   0.000000   0.000000   0.000000  -0.000349
    14  C    0.000000   0.000000   0.000000   0.000000   0.000000   0.000039
    15  H    0.000000   0.000000   0.000000   0.000000   0.000000   0.000001
    16  H    0.000000   0.000000   0.000000   0.000000   0.000000   0.000019
    17  H    0.000000   0.000000   0.000000   0.000000   0.000000  -0.000001
    18  F   -0.000033   0.000000   0.000000   0.000000   0.000000   0.010245
    19  F    0.000001   0.000000   0.000000   0.000000   0.000000  -0.000023
    20  H   -0.000078  -0.000006   0.000001   0.000003  -0.000024   0.000017
    21  H    0.005439  -0.000068   0.000017  -0.000003   0.000029  -0.000445
    22  H   -0.000192   0.000002   0.000008  -0.000002   0.000007   0.000183
    23  H    0.006980  -0.001539   0.000201  -0.000179   0.001079  -0.000514
    24  H   -0.004077   0.000585   0.000357   0.000576  -0.001576  -0.000215
    25  H    0.007480  -0.038297   0.008347  -0.005359  -0.006189  -0.000619
    26  H    0.005722   0.002406   0.004682  -0.001051  -0.000567  -0.000280
    27  H   -0.000175  -0.005610  -0.001058   0.006408   0.000038   0.000050
    28  H   -0.001461  -0.001496  -0.000029  -0.000071   0.000096  -0.000862
    29  H   -0.000206   0.000088   0.000011  -0.000008  -0.000052  -0.004957
    30  H    0.000024   0.000381  -0.000016   0.000065  -0.000056   0.005626
    31  H    0.484874  -0.003944   0.005376  -0.000428  -0.000150  -0.009971
    32  C   -0.003944   5.424234   0.382416   0.391222   0.382860  -0.000192
    33  H    0.005376   0.382416   0.481901  -0.027736  -0.026515  -0.000050
    34  H   -0.000428   0.391222  -0.027736   0.466052  -0.027175   0.000024
    35  H   -0.000150   0.382860  -0.026515  -0.027175   0.467150  -0.000015
    36  H   -0.009971  -0.000192  -0.000050   0.000024  -0.000015   0.397741
 Mulliken charges:
               1
     1  C   -0.677881
     2  C   -0.473080
     3  C   -0.087044
     4  C   -0.308720
     5  C   -0.160384
     6  O   -0.622186
     7  N   -0.613639
     8  C   -0.405768
     9  C   -0.192855
    10  C   -0.278562
    11  C    0.347886
    12  C   -0.133771
    13  C    0.317760
    14  C   -0.282682
    15  H    0.234391
    16  H    0.236170
    17  H    0.236467
    18  F   -0.235288
    19  F   -0.231334
    20  H    0.226820
    21  H    0.225705
    22  H    0.233231
    23  H    0.228545
    24  H    0.244389
    25  H    0.225767
    26  H    0.194568
    27  H    0.215128
    28  H    0.409325
    29  H    0.248819
    30  H    0.270981
    31  H    0.232980
    32  C   -0.678332
    33  H    0.226122
    34  H    0.233335
    35  H    0.238946
    36  H    0.354192
 Sum of Mulliken charges =   0.00000
 Mulliken charges with hydrogens summed into heavy atoms:
               1
     1  C    0.007875
     2  C   -0.000146
     3  C    0.145936
     4  C   -0.082953
     5  C    0.249311
     6  O   -0.212861
     7  N   -0.259447
     8  C    0.114032
     9  C    0.041536
    10  C   -0.042392
    11  C    0.347886
    12  C   -0.133771
    13  C    0.317760
    14  C   -0.046215
    18  F   -0.235288
    19  F   -0.231334
    32  C    0.020070
 Electronic spatial extent (au):  <R**2>=           4813.8842
 Charge=              0.0000 electrons
 Dipole moment (field-independent basis, Debye):
    X=              0.5868    Y=              3.5225    Z=              0.9445  Tot=              3.6939
 Quadrupole moment (field-independent basis, Debye-Ang):
   XX=            -81.5853   YY=           -110.1501   ZZ=           -103.8394
   XY=             -3.6791   XZ=             -3.3506   YZ=             -4.4234
 Traceless Quadrupole moment (field-independent basis, Debye-Ang):
   XX=             16.9397   YY=            -11.6252   ZZ=             -5.3145
   XY=             -3.6791   XZ=             -3.3506   YZ=             -4.4234
 Octapole moment (field-independent basis, Debye-Ang**2):
  XXX=             73.7565  YYY=             12.6633  ZZZ=              2.3369  XYY=              7.5487
  XXY=            -12.4721  XXZ=            -16.8704  XZZ=             -3.2161  YZZ=              8.7975
  YYZ=              9.7689  XYZ=             -0.8365
 Hexadecapole moment (field-independent basis, Debye-Ang**3):
 XXXX=          -3944.8379 YYYY=          -1644.7117 ZZZZ=           -398.5327 XXXY=            -13.4260
 XXXZ=            -59.3327 YYYX=            -10.3889 YYYZ=            -43.7525 ZZZX=             10.9816
 ZZZY=            -30.8365 XXYY=           -918.8765 XXZZ=           -810.3014 YYZZ=           -341.4942
 XXYZ=            -32.6388 YYXZ=            -13.5053 ZZXY=              2.7085
 N-N= 1.290472973999D+03 E-N=-4.538799755626D+03  KE= 8.333182899006D+02
 1\1\GINC-CPU-E-278\SP\RmPW1PW91\6-311G(d)\C13H19F2N1O1\AH809\04-Mar-20
 19\0\\# mPW1PW91/6-311g(d) nmr=giao scrf=(solvent=chloroform)\\AT3_1gi
 np011\\0,1\C,0,0.070726,-1.553214,2.661797\C,0,-0.864151,-0.383566,2.3
 68462\C,0,-0.337561,0.982116,2.87211\C,0,-1.34395,2.162372,2.653095\C,
 0,-0.875176,3.450431,3.362653\O,0,0.322284,3.965501,2.799408\N,0,1.016
 761,1.317448,2.375424\C,0,1.159584,1.306301,0.910174\C,0,5.130306,2.55
 1343,-0.262316\C,0,4.942001,1.344562,0.408692\C,0,3.656629,0.952836,0.
 780917\C,0,2.539162,1.743133,0.501472\C,0,2.749582,2.94379,-0.177978\C
 ,0,4.02821,3.352204,-0.557595\H,0,6.128816,2.866208,-0.554258\H,0,5.78
 6909,0.705496,0.646948\H,0,4.152384,4.2951,-1.082134\F,0,3.501509,-0.2
 14259,1.424381\F,0,1.709562,3.727595,-0.495283\H,0,1.007435,-1.480504,
 2.102586\H,0,0.307955,-1.605637,3.729139\H,0,-0.40952,-2.494982,2.3766
 11\H,0,-1.081,-0.34406,1.294824\H,0,-1.811441,-0.614613,2.868086\H,0,-
 1.416935,2.370913,1.578769\H,0,-0.703931,3.271222,4.429754\H,0,-1.6322
 76,4.236645,3.275558\H,0,0.918472,3.193659,2.687984\H,0,0.990185,0.305
 522,0.497482\H,0,0.418669,1.965862,0.447611\H,0,-0.225703,0.880686,3.9
 61045\C,0,-2.756201,1.830325,3.152445\H,0,-2.740829,1.500191,4.196482\
 H,0,-3.411131,2.706093,3.0849\H,0,-3.219673,1.046495,2.54582\H,0,1.679
 109,0.632756,2.750375\\Version=ES64L-G09RevD.01\State=1-A\HF=-836.4649
 576\RMSD=6.774e-09\Dipole=0.3174788,-1.3916902,-0.272783\Quadrupole=9.
 9513747,-8.5955317,-1.3558429,4.2594738,-4.8693883,-4.442664\PG=C01 [X
 (C13H19F2N1O1)]\\@


 WE SHOULD BE CAREFUL TO GET OUT OF AN EXPERIENCE ONLY THE WISDOM
 THAT IS IN IT -- AND STOP THERE;
 LEST WE BE LIKE THE CAT THAT SITS DOWN ON A HOT STOVE-LID.
 SHE WILL NEVER SIT DOWN ON A HOT STOVE LID AGAIN;
 BUT ALSO SHE WILL NEVER SIT DOWN ON A COLD ONE ANY MORE.

                                                     -- MARK TWAIN
 Job cpu time:       0 days  0 hours 17 minutes  0.6 seconds.
 File lengths (MBytes):  RWF=    179 Int=      0 D2E=      0 Chk=     10 Scr=      1
 Normal termination of Gaussian 09 at Mon Mar  4 11:28:55 2019.
