 Entering Gaussian System, Link 0=/usr/local/Cluster-Apps/gaussian/g09/g09
 Initial command:
 /usr/local/Cluster-Apps/gaussian/g09/l1.exe "/home/ah809/rds/hpc-work/04Mar1111AT3/Gau-146005.inp" -scrdir="/home/ah809/rds/hpc-work/04Mar1111AT3/"
 Entering Link 1 = /usr/local/Cluster-Apps/gaussian/g09/l1.exe PID=    146023.
  
 Copyright (c) 1988,1990,1992,1993,1995,1998,2003,2009,2013,
            Gaussian, Inc.  All Rights Reserved.
  
 This is part of the Gaussian(R) 09 program.  It is based on
 the Gaussian(R) 03 system (copyright 2003, Gaussian, Inc.),
 the Gaussian(R) 98 system (copyright 1998, Gaussian, Inc.),
 the Gaussian(R) 94 system (copyright 1995, Gaussian, Inc.),
 the Gaussian 92(TM) system (copyright 1992, Gaussian, Inc.),
 the Gaussian 90(TM) system (copyright 1990, Gaussian, Inc.),
 the Gaussian 88(TM) system (copyright 1988, Gaussian, Inc.),
 the Gaussian 86(TM) system (copyright 1986, Carnegie Mellon
 University), and the Gaussian 82(TM) system (copyright 1983,
 Carnegie Mellon University). Gaussian is a federally registered
 trademark of Gaussian, Inc.
  
 This software contains proprietary and confidential information,
 including trade secrets, belonging to Gaussian, Inc.
  
 This software is provided under written license and may be
 used, copied, transmitted, or stored only in accord with that
 written license.
  
 The following legend is applicable only to US Government
 contracts under FAR:
  
                    RESTRICTED RIGHTS LEGEND
  
 Use, reproduction and disclosure by the US Government is
 subject to restrictions as set forth in subparagraphs (a)
 and (c) of the Commercial Computer Software - Restricted
 Rights clause in FAR 52.227-19.
  
 Gaussian, Inc.
 340 Quinnipiac St., Bldg. 40, Wallingford CT 06492
  
  
 ---------------------------------------------------------------
 Warning -- This program may not be used in any manner that
 competes with the business of Gaussian, Inc. or will provide
 assistance to any competitor of Gaussian, Inc.  The licensee
 of this program is prohibited from giving any competitor of
 Gaussian, Inc. access to this program.  By using this program,
 the user acknowledges that Gaussian, Inc. is engaged in the
 business of creating and licensing software in the field of
 computational chemistry and represents and warrants to the
 licensee that it is not a competitor of Gaussian, Inc. and that
 it will not use this program in any manner prohibited above.
 ---------------------------------------------------------------
  

 Cite this work as:
 Gaussian 09, Revision D.01,
 M. J. Frisch, G. W. Trucks, H. B. Schlegel, G. E. Scuseria, 
 M. A. Robb, J. R. Cheeseman, G. Scalmani, V. Barone, B. Mennucci, 
 G. A. Petersson, H. Nakatsuji, M. Caricato, X. Li, H. P. Hratchian, 
 A. F. Izmaylov, J. Bloino, G. Zheng, J. L. Sonnenberg, M. Hada, 
 M. Ehara, K. Toyota, R. Fukuda, J. Hasegawa, M. Ishida, T. Nakajima, 
 Y. Honda, O. Kitao, H. Nakai, T. Vreven, J. A. Montgomery, Jr., 
 J. E. Peralta, F. Ogliaro, M. Bearpark, J. J. Heyd, E. Brothers, 
 K. N. Kudin, V. N. Staroverov, T. Keith, R. Kobayashi, J. Normand, 
 K. Raghavachari, A. Rendell, J. C. Burant, S. S. Iyengar, J. Tomasi, 
 M. Cossi, N. Rega, J. M. Millam, M. Klene, J. E. Knox, J. B. Cross, 
 V. Bakken, C. Adamo, J. Jaramillo, R. Gomperts, R. E. Stratmann, 
 O. Yazyev, A. J. Austin, R. Cammi, C. Pomelli, J. W. Ochterski, 
 R. L. Martin, K. Morokuma, V. G. Zakrzewski, G. A. Voth, 
 P. Salvador, J. J. Dannenberg, S. Dapprich, A. D. Daniels, 
 O. Farkas, J. B. Foresman, J. V. Ortiz, J. Cioslowski, 
 and D. J. Fox, Gaussian, Inc., Wallingford CT, 2013.
 
 ******************************************
 Gaussian 09:  ES64L-G09RevD.01 24-Apr-2013
                 4-Mar-2019 
 ******************************************
 %nprocshared=8
 Will use up to    8 processors via shared memory.
 %mem=6000MB
 %chk=AT3_1ginp014.chk
 -------------------------------------------------------
 # mPW1PW91/6-311g(d) nmr=giao scrf=(solvent=chloroform)
 -------------------------------------------------------
 1/38=1/1;
 2/12=2,17=6,18=5,40=1/2;
 3/5=4,6=6,7=1,11=2,16=1,25=1,30=1,70=2201,72=7,74=-7/1,2,8,3;
 4//1;
 5/5=2,38=5,53=7/2;
 8/6=1,10=90,11=11/1;
 10/13=100,45=16/2;
 6/7=2,8=2,9=2,10=2,28=1/1;
 99/9=1/99;
 ------------
 AT3_1ginp014
 ------------
 Symbolic Z-matrix:
 Charge =  0 Multiplicity = 1
 C                    -1.88692   0.50127   0.42945 
 C                    -1.10141  -0.11616   1.57957 
 C                    -0.21923   0.86888   2.38571 
 C                    -1.0251    2.00451   3.0905 
 C                    -0.09798   2.88422   3.95282 
 O                    -0.83769   3.94897   4.5464 
 N                     0.83146   1.48713   1.55965 
 C                     1.85636   0.55119   1.10092 
 C                     5.10446   2.68989  -0.77963 
 C                     3.9366    2.4184   -1.49032 
 C                     2.89636   1.72387  -0.87403 
 C                     2.9925    1.28423   0.4477 
 C                     4.16805   1.56998   1.14321 
 C                     5.219     2.26339   0.54272 
 H                     5.9193    3.23235  -1.25206 
 H                     3.82586   2.74476  -2.52007 
 H                     6.11971   2.46661   1.11433 
 F                     1.78129   1.47884  -1.57818 
 F                     4.31141   1.16834   2.41459 
 H                    -1.22453   0.93507  -0.32515 
 H                    -2.48684  -0.27001  -0.065 
 H                    -2.57283   1.27773   0.77904 
 H                    -1.80314  -0.61772   2.25583 
 H                    -0.48045  -0.92594   1.17822 
 H                    -1.4878    2.65464   2.33583 
 H                     0.69612   3.338     3.35225 
 H                     0.36241   2.29741   4.75505 
 H                    -0.19665   4.49442   5.0335 
 H                     2.24176  -0.03703   1.94268 
 H                     1.44612  -0.1665    0.38109 
 H                     0.26926   0.2884    3.18085 
 C                    -2.16474   1.45124   3.96128 
 H                    -1.78433   0.7384    4.70055 
 H                    -2.68255   2.25142   4.50019 
 H                    -2.92333   0.94692   3.35569 
 H                     0.41693   1.95407   0.75285 
 
                          Input orientation:                          
 ---------------------------------------------------------------------
 Center     Atomic      Atomic             Coordinates (Angstroms)
 Number     Number       Type             X           Y           Z
 ---------------------------------------------------------------------
      1          6           0       -1.886916    0.501271    0.429454
      2          6           0       -1.101412   -0.116164    1.579568
      3          6           0       -0.219225    0.868884    2.385709
      4          6           0       -1.025104    2.004507    3.090495
      5          6           0       -0.097981    2.884220    3.952815
      6          8           0       -0.837692    3.948966    4.546400
      7          7           0        0.831463    1.487126    1.559652
      8          6           0        1.856361    0.551185    1.100924
      9          6           0        5.104460    2.689887   -0.779633
     10          6           0        3.936595    2.418403   -1.490321
     11          6           0        2.896357    1.723869   -0.874034
     12          6           0        2.992496    1.284225    0.447701
     13          6           0        4.168050    1.569976    1.143210
     14          6           0        5.218996    2.263386    0.542721
     15          1           0        5.919300    3.232346   -1.252059
     16          1           0        3.825863    2.744756   -2.520066
     17          1           0        6.119712    2.466607    1.114327
     18          9           0        1.781285    1.478836   -1.578177
     19          9           0        4.311406    1.168336    2.414586
     20          1           0       -1.224530    0.935070   -0.325154
     21          1           0       -2.486841   -0.270009   -0.065002
     22          1           0       -2.572826    1.277732    0.779037
     23          1           0       -1.803137   -0.617723    2.255827
     24          1           0       -0.480451   -0.925939    1.178222
     25          1           0       -1.487804    2.654641    2.335833
     26          1           0        0.696115    3.338001    3.352246
     27          1           0        0.362409    2.297406    4.755046
     28          1           0       -0.196653    4.494423    5.033498
     29          1           0        2.241764   -0.037033    1.942684
     30          1           0        1.446118   -0.166500    0.381087
     31          1           0        0.269260    0.288397    3.180847
     32          6           0       -2.164735    1.451242    3.961275
     33          1           0       -1.784326    0.738396    4.700554
     34          1           0       -2.682551    2.251417    4.500188
     35          1           0       -2.923327    0.946919    3.355685
     36          1           0        0.416933    1.954065    0.752846
 ---------------------------------------------------------------------
                    Distance matrix (angstroms):
                    1          2          3          4          5
     1  C    0.000000
     2  C    1.523484   0.000000
     3  C    2.596780   1.548689   0.000000
     4  C    3.175465   2.604989   1.560706   0.000000
     5  C    4.614413   3.954931   2.555797   1.541768   0.000000
     6  O    5.471446   5.039536   3.812872   2.436330   1.425903
     7  N    3.104648   2.511362   1.472596   2.461301   2.922835
     8  C    3.803352   3.069670   2.461638   3.791224   4.170826
     9  C    7.425043   7.207815   6.455778   7.281428   7.035568
    10  C    6.424501   6.421041   5.890285   6.765622   6.791356
    11  C    5.106224   5.038655   4.589529   5.583377   5.797495
    12  C    4.941863   4.472393   3.774061   4.862538   4.939317
    13  C    6.189846   5.549838   4.613406   5.563235   5.274480
    14  C    7.322012   6.832633   5.908933   6.748848   6.347001
    15  H    8.439388   8.277743   7.516701   8.281915   7.963641
    16  H    6.809459   7.019252   6.629348   7.453740   7.570614
    17  H    8.272707   7.683215   6.659674   7.427461   6.847709
    18  F    4.294405   4.563477   4.481794   5.472536   6.008212
    19  F    6.542547   5.625459   4.540608   5.443746   4.975249
    20  H    1.093787   2.179040   2.892023   3.584707   4.834182
    21  H    1.095112   2.155851   3.527768   4.155389   5.639031
    22  H    1.093422   2.179187   2.878887   2.875149   4.333420
    23  H    2.143550   1.096041   2.176154   2.859737   4.248639
    24  H    2.139095   1.096543   2.178911   3.541320   4.728844
    25  H    2.903545   2.898033   2.191052   1.098308   2.144515
    26  H    4.823049   4.278405   2.805099   2.193015   1.094161
    27  H    5.195797   4.248735   2.827142   2.186713   1.095392
    28  H    6.324514   5.831444   4.489524   3.265161   1.941743
    29  H    4.430083   3.363769   2.659591   4.019674   4.248382
    30  H    3.399614   2.815812   2.804264   4.261584   4.944530
    31  H    3.502081   2.146277   1.099012   2.151412   2.732965
    32  C    3.667886   3.043016   2.570323   1.537244   2.514949
    33  H    4.278907   3.307143   2.797334   2.184432   2.829741
    34  H    4.501880   4.078659   3.528512   2.189824   2.716626
    35  H    3.136172   2.757555   2.873867   2.189079   3.477395
    36  H    2.742793   2.697163   2.061203   2.747111   3.371962
                    6          7          8          9         10
     6  O    0.000000
     7  N    4.215139   0.000000
     8  C    5.538424   1.461791   0.000000
     9  C    8.078433   5.017708   4.319802   0.000000
    10  C    7.847193   4.451006   3.811617   1.393804   0.000000
    11  C    6.948042   3.200416   2.521356   2.412016   1.394375
    12  C    6.210517   2.438784   1.501616   2.818267   2.435901
    13  C    6.503749   3.363495   2.526585   2.414206   2.776488
    14  C    7.453462   4.570249   3.814517   1.394146   2.408701
    15  H    8.932671   6.069398   5.406721   1.086928   2.156477
    16  H    8.551831   5.214611   4.669289   2.160307   1.085883
    17  H    7.898227   5.396598   4.673883   2.160480   3.398899
    18  F    7.104296   3.278445   2.836151   3.625991   2.352842
    19  F    6.228141   3.597575   2.851987   3.625891   4.117214
    20  H    5.741537   2.843302   3.416571   6.583468   5.495007
    21  H    6.464091   4.091230   4.571340   8.179213   7.107716
    22  H    4.933478   3.498913   4.499909   7.960173   6.987394
    23  H    5.199371   3.443278   4.011493   8.238276   7.496413
    24  H    5.936071   2.772993   2.765603   6.935317   6.149475
    25  H    2.642826   2.710083   4.139199   7.291455   6.642241
    26  H    2.037608   2.580204   3.765762   6.076675   5.898883
    27  H    2.052176   3.329731   4.316687   7.298888   7.196809
    28  H    0.972481   4.708340   5.935413   8.071595   7.997113
    29  H    5.670148   2.111569   1.096857   4.800222   4.548312
    30  H    6.285116   2.121626   1.096146   4.784316   4.048008
    31  H    4.060769   2.093155   2.629454   6.695649   6.309206
    32  C    2.888259   3.840089   5.016067   8.766507   8.239025
    33  H    3.350767   4.155504   5.123181   9.016437   8.595248
    34  H    2.507451   4.645340   5.920093   9.418403   8.929008
    35  H    3.844472   4.197143   5.299620   9.196965   8.526873
    36  H    4.465956   1.020198   2.039898   4.986265   4.199456
                   11         12         13         14         15
    11  C    0.000000
    12  C    1.396250   0.000000
    13  C    2.389594   1.395462   0.000000
    14  C    2.773612   2.434150   1.394952   0.000000
    15  H    3.399499   3.905194   3.401127   2.156512   0.000000
    16  H    2.148398   3.411054   3.862226   3.399000   2.495609
    17  H    3.859437   3.409090   2.147968   1.085966   2.495256
    18  F    1.341359   2.368351   3.620898   4.114801   4.506031
    19  F    3.622982   2.370989   1.340993   2.350900   4.504414
    20  H    4.231452   4.301456   5.624866   6.636012   7.561147
    21  H    5.797319   5.718535   7.009486   8.134331   9.183616
    22  H    5.730938   5.575180   6.757029   7.857471   8.947741
    23  H    6.112637   5.466701   6.455929   7.781123   9.314737
    24  H    4.757738   4.180891   5.276304   6.561962   8.009645
    25  H    5.512753   5.051353   5.881117   6.953380   8.250570
    26  H    5.030699   4.234117   4.478849   5.431821   6.963652
    27  H    6.199708   5.147535   5.296925   6.428941   8.236411
    28  H    7.220915   6.442482   6.537382   7.380641   8.860358
    29  H    3.385730   2.131735   2.632910   4.014441   5.866813
    30  H    2.692957   2.121397   3.317393   4.490555   5.850528
    31  H    5.040266   3.984693   4.582027   5.946442   7.761472
    32  C    7.004940   6.242606   6.932514   8.177137   9.782781
    33  H    7.345474   6.418934   6.984053   8.286114  10.049838
    34  H    7.764328   7.040190   7.659269   8.837202  10.394345
    35  H    7.236221   6.600538   7.454587   8.714544  10.229689
    36  H    2.974436   2.678679   3.790882   4.816601   5.994138
                   16         17         18         19         20
    16  H    0.000000
    17  H    4.306730   0.000000
    18  F    2.582636   5.200694   0.000000
    19  F    5.203042   2.578013   4.737096   0.000000
    20  H    5.796471   7.639084   3.301617   6.181195   0.000000
    21  H    7.413931   9.107834   4.854385   7.377896   1.764461
    22  H    7.347072   8.779867   4.955319   7.076697   1.776107
    23  H    8.111785   8.578324   5.651834   6.372036   3.067151
    24  H    6.759858   7.421294   4.300712   5.373684   2.505424
    25  H    7.198815   7.707252   5.233444   5.987165   3.179165
    26  H    6.680667   5.931527   5.379885   4.319373   4.794395
    27  H    8.069875   6.813956   6.541634   4.727275   5.493884
    28  H    8.734890   7.705090   7.531285   6.184186   6.514651
    29  H    5.492163   4.689656   3.860876   2.441111   4.254793
    30  H    4.749241   5.414183   2.580345   3.758561   2.973986
    31  H    7.154267   6.575933   5.133388   4.207183   3.865441
    32  C    8.920102   8.818625   6.801277   6.664284   4.418585
    33  H    9.361466   8.849947   7.258395   6.524450   5.060612
    34  H    9.585760   9.433461   7.580847   7.378227   5.209848
    35  H    9.127334   9.439793   6.838078   7.299045   4.053964
    36  H    4.791445   5.737164   2.742438   4.306468   2.212428
                   21         22         23         24         25
    21  H    0.000000
    22  H    1.765021   0.000000
    23  H    2.444300   2.523109   0.000000
    24  H    2.449786   3.064890   1.733704   0.000000
    25  H    3.913523   2.344518   3.288495   3.895559   0.000000
    26  H    5.901401   4.642423   4.805845   4.928679   2.503913
    27  H    6.159765   5.046185   4.408363   4.888153   3.066512
    28  H    7.344350   5.838984   6.035750   6.657629   3.511305
    29  H    5.142449   5.124740   4.098351   2.963952   4.616205
    30  H    3.959530   4.289065   3.778348   2.218973   4.515281
    31  H    4.294583   3.850315   2.443674   2.459103   3.066013
    32  C    4.390599   3.212987   2.705535   4.029043   2.132713
    33  H    4.921477   4.036200   2.795729   4.108153   3.058075
    34  H    5.218894   3.847995   3.747331   5.097087   2.504884
    35  H    3.656847   2.621336   2.216443   3.770489   2.452986
    36  H    3.747971   3.065415   3.715071   3.046419   2.573845
                   26         27         28         29         30
    26  H    0.000000
    27  H    1.778214   0.000000
    28  H    2.227320   2.284069   0.000000
    29  H    3.970737   4.109861   6.002758   0.000000
    30  H    4.655300   5.135832   6.787328   1.757384   0.000000
    31  H    3.084099   2.553996   4.619529   2.351537   3.070925
    32  C    3.480695   2.780741   3.779413   5.070198   5.336019
    33  H    3.837769   2.653668   4.091368   4.941309   5.469223
    34  H    3.730123   3.055953   3.390455   6.002225   6.313416
    35  H    4.337931   3.818126   4.778555   5.444529   5.401850
    36  H    2.958057   4.017270   5.015365   2.951304   2.386257
                   31         32         33         34         35
    31  H    0.000000
    32  C    2.808132   0.000000
    33  H    2.594075   1.095168   0.000000
    34  H    3.782499   1.094916   1.770928   0.000000
    35  H    3.264480   1.093866   1.774677   1.752020   0.000000
    36  H    2.948126   4.148718   4.680576   4.872144   4.352752
                   36
    36  H    0.000000
 Stoichiometry    C13H19F2NO
 Framework group  C1[X(C13H19F2NO)]
 Deg. of freedom   102
 Full point group                 C1      NOp   1
 Largest Abelian subgroup         C1      NOp   1
 Largest concise Abelian subgroup C1      NOp   1
                         Standard orientation:                         
 ---------------------------------------------------------------------
 Center     Atomic      Atomic             Coordinates (Angstroms)
 Number     Number       Type             X           Y           Z
 ---------------------------------------------------------------------
      1          6           0        2.251555    2.766443   -0.185818
      2          6           0        2.213779    1.805220    0.995549
      3          6           0        1.869156    0.336388    0.645969
      4          6           0        2.896093   -0.340239   -0.314957
      5          6           0        2.546045   -1.825068   -0.538103
      6          8           0        3.459737   -2.415629   -1.459843
      7          7           0        0.524284    0.198584    0.062130
      8          6           0       -0.562632    0.495865    0.993296
      9          6           0       -4.368518   -0.545756   -0.764812
     10          6           0       -3.750078    0.660162   -1.090361
     11          6           0       -2.523501    0.987412   -0.513559
     12          6           0       -1.891050    0.134848    0.393442
     13          6           0       -2.524442   -1.069528    0.702646
     14          6           0       -3.751662   -1.413271    0.135492
     15          1           0       -5.323794   -0.809246   -1.211393
     16          1           0       -4.212045    1.348318   -1.791910
     17          1           0       -4.215992   -2.358440    0.400772
     18          9           0       -1.946983    2.151891   -0.846516
     19          9           0       -1.959730   -1.922825    1.569391
     20          1           0        1.278302    2.837769   -0.679844
     21          1           0        2.517146    3.770229    0.162242
     22          1           0        2.997641    2.467174   -0.927010
     23          1           0        3.180499    1.842470    1.510691
     24          1           0        1.496064    2.189116    1.730338
     25          1           0        2.869786    0.155217   -1.294810
     26          1           0        1.542585   -1.941217   -0.958539
     27          1           0        2.597915   -2.384326    0.402335
     28          1           0        3.161372   -3.330747   -1.598607
     29          1           0       -0.426227   -0.058081    1.930117
     30          1           0       -0.578818    1.559096    1.259405
     31          1           0        1.893301   -0.233361    1.585453
     32          6           0        4.338329   -0.224628    0.204378
     33          1           0        4.427795   -0.641828    1.213008
     34          1           0        5.042052   -0.756822   -0.443993
     35          1           0        4.672191    0.816678    0.231933
     36          1           0        0.434309    0.794269   -0.761197
 ---------------------------------------------------------------------
 Rotational constants (GHZ):      0.6772430      0.2464307      0.2087322
 Standard basis: 6-311G(d) (5D, 7F)
 There are   380 symmetry adapted cartesian basis functions of A   symmetry.
 There are   363 symmetry adapted basis functions of A   symmetry.
   363 basis functions,   639 primitive gaussians,   380 cartesian basis functions
    65 alpha electrons       65 beta electrons
       nuclear repulsion energy      1255.7848782853 Hartrees.
 NAtoms=   36 NActive=   36 NUniq=   36 SFac= 1.00D+00 NAtFMM=   60 NAOKFM=F Big=F
 Integral buffers will be    131072 words long.
 Raffenetti 2 integral format.
 Two-electron integral symmetry is turned on.
 ------------------------------------------------------------------------------
 Polarizable Continuum Model (PCM)
 =================================
 Model                : PCM (using non-symmetric T matrix).
 Atomic radii         : UFF (Universal Force Field).
 Polarization charges : Total charges.
 Charge compensation  : None.
 Solution method      : On-the-fly selection.
 Cavity type          : Scaled VdW (van der Waals Surface) (Alpha=1.100).
 Cavity algorithm     : GePol (No added spheres)
                        Default sphere list used, NSphG=   36.
                        Lebedev-Laikov grids with approx.  5.0 points / Ang**2.
                        Smoothing algorithm: Karplus/York (Gamma=1.0000).
                        Polarization charges: spherical gaussians, with
                                              point-specific exponents (IZeta= 3).
                        Self-potential: point-specific (ISelfS= 7).
                        Self-field    : sphere-specific E.n sum rule (ISelfD= 2).
 Solvent              : Chloroform, Eps=   4.711300 Eps(inf)=   2.090627
 ------------------------------------------------------------------------------
 One-electron integrals computed using PRISM.
 NBasis=   363 RedAO= T EigKep=  2.47D-04  NBF=   363
 NBsUse=   363 1.00D-06 EigRej= -1.00D+00 NBFU=   363
 ExpMin= 1.03D-01 ExpMax= 1.14D+04 ExpMxC= 1.72D+03 IAcc=1 IRadAn=         1 AccDes= 0.00D+00
 Harris functional with IExCor=  908 and IRadAn=       1 diagonalized for initial guess.
 HarFok:  IExCor=  908 AccDes= 0.00D+00 IRadAn=         1 IDoV= 1 UseB2=F ITyADJ=14
 ICtDFT=  3500011 ScaDFX=  1.000000  1.000000  1.000000  1.000000
 FoFCou: FMM=F IPFlag=           0 FMFlag=      100000 FMFlg1=           0
         NFxFlg=           0 DoJE=T BraDBF=F KetDBF=T FulRan=T
         wScrn=  0.000000 ICntrl=     500 IOpCl=  0 I1Cent=   200000004 NGrid=           0
         NMat0=    1 NMatS0=      1 NMatT0=    0 NMatD0=    1 NMtDS0=    0 NMtDT0=    0
 Petite list used in FoFCou.
 Requested convergence on RMS density matrix=1.00D-08 within 128 cycles.
 Requested convergence on MAX density matrix=1.00D-06.
 Requested convergence on             energy=1.00D-06.
 No special actions if energy rises.
 Inv3:  Mode=1 IEnd=    19492203.
 Iteration    1 A*A^-1 deviation from unit magnitude is 5.11D-15 for   1329.
 Iteration    1 A*A^-1 deviation from orthogonality  is 6.50D-15 for   2537      4.
 Iteration    1 A^-1*A deviation from unit magnitude is 5.55D-15 for    638.
 Iteration    1 A^-1*A deviation from orthogonality  is 7.68D-08 for   2379   1953.
 Iteration    2 A*A^-1 deviation from unit magnitude is 7.77D-15 for    305.
 Iteration    2 A*A^-1 deviation from orthogonality  is 1.08D-14 for   2429    308.
 Iteration    2 A^-1*A deviation from unit magnitude is 8.88D-16 for     89.
 Iteration    2 A^-1*A deviation from orthogonality  is 1.01D-15 for   2539   1188.
 Error on total polarization charges =  0.00943
 SCF Done:  E(RmPW1PW91) =  -836.457273947     A.U. after   12 cycles
            NFock= 12  Conv=0.72D-08     -V/T= 2.0038
 DoSCS=F DFT=T ScalE2(SS,OS)=  1.000000  1.000000
 Range of M.O.s used for correlation:     1   363
 NBasis=   363 NAE=    65 NBE=    65 NFC=     0 NFV=     0
 NROrb=    363 NOA=    65 NOB=    65 NVA=   298 NVB=   298

 **** Warning!!: The largest alpha MO coefficient is  0.11779354D+02

 NEqPCM:  Using equilibrium solvation (IEInf=0, Eps=   4.7113, EpsInf=   2.0906)
          Differentiating once with respect to magnetic field using GIAOs.
          Electric field/nuclear overlap derivatives assumed to be zero.
 FoFJK:  IHMeth= 1 ICntrl=    6127 DoSepK=F KAlg= 0 I1Cent=   0 FoldK=F
 IRaf=         1 NMat=   1 IRICut=       1 DoRegI=T DoRafI=F ISym2E= 0.
          There are     3 degrees of freedom in the 1st order CPHF.  IDoFFX=0 NUNeed=     3.
      3 vectors produced by pass  0 Test12= 6.46D-13 3.33D-08 XBig12= 4.32D+01 1.75D+00.
 AX will form     3 AO Fock derivatives at one time.
      3 vectors produced by pass  1 Test12= 6.46D-13 3.33D-08 XBig12= 1.23D-01 1.44D-01.
      3 vectors produced by pass  2 Test12= 6.46D-13 3.33D-08 XBig12= 6.18D-04 6.60D-03.
      3 vectors produced by pass  3 Test12= 6.46D-13 3.33D-08 XBig12= 1.55D-06 2.13D-04.
      3 vectors produced by pass  4 Test12= 6.46D-13 3.33D-08 XBig12= 3.35D-09 1.19D-05.
      3 vectors produced by pass  5 Test12= 6.46D-13 3.33D-08 XBig12= 1.35D-11 6.62D-07.
 InvSVY:  IOpt=1 It=  1 EMax= 8.88D-16
 Solved reduced A of dimension    18 with     3 vectors.
 Calculating GIAO nuclear magnetic shielding tensors.
 SCF GIAO Magnetic shielding tensor (ppm):
      1  C    Isotropic =   182.4611   Anisotropy =    10.8817
   XX=   177.3043   YX=     0.9544   ZX=    -2.3467
   XY=    -0.2266   YY=   183.7023   ZY=    -4.1569
   XZ=    -2.1687   YZ=    -4.0955   ZZ=   186.3768
   Eigenvalues:   176.7083   180.9595   189.7156
      2  C    Isotropic =   167.9212   Anisotropy =    22.2030
   XX=   156.1178   YX=     3.3477   ZX=     2.2114
   XY=     3.6461   YY=   179.3044   ZY=    -4.8988
   XZ=     6.6918   YZ=    -8.9764   ZZ=   168.3415
   Eigenvalues:   153.4218   167.6187   182.7232
      3  C    Isotropic =   123.8106   Anisotropy =    40.1315
   XX=   149.6941   YX=    -4.2592   ZX=     4.7194
   XY=    -4.2520   YY=   111.6968   ZY=    -2.0454
   XZ=     3.3366   YZ=     1.6283   ZZ=   110.0409
   Eigenvalues:   109.6069   111.2599   150.5649
      4  C    Isotropic =   147.8486   Anisotropy =    22.1995
   XX=   154.1244   YX=     1.8252   ZX=    -2.2064
   XY=   -10.3581   YY=   149.5752   ZY=    10.3627
   XZ=   -10.4802   YZ=    11.4132   ZZ=   139.8461
   Eigenvalues:   132.3297   148.5678   162.6482
      5  C    Isotropic =   118.4449   Anisotropy =    52.7164
   XX=   116.7436   YX=   -11.6980   ZX=   -27.8704
   XY=    -8.7361   YY=   118.1767   ZY=    12.9318
   XZ=   -23.7291   YZ=    17.1337   ZZ=   120.4143
   Eigenvalues:    92.3240   109.4215   153.5891
      6  O    Isotropic =   307.4736   Anisotropy =   115.9790
   XX=   263.8933   YX=    35.2044   ZX=     6.4551
   XY=    15.3117   YY=   375.7391   ZY=    24.4336
   XZ=    -5.1224   YZ=    14.5440   ZZ=   282.7885
   Eigenvalues:   257.9096   279.7183   384.7930
      7  N    Isotropic =   210.1276   Anisotropy =    43.6454
   XX=   238.7249   YX=    -5.7339   ZX=    13.0063
   XY=    -4.3715   YY=   160.2881   ZY=    -7.8005
   XZ=   -16.1090   YZ=    -5.1887   ZZ=   231.3696
   Eigenvalues:   159.3625   231.7957   239.2245
      8  C    Isotropic =   147.9516   Anisotropy =    50.7921
   XX=   164.3239   YX=    -4.3999   ZX=   -19.1366
   XY=   -10.1267   YY=   124.8418   ZY=     6.5991
   XZ=   -21.0702   YZ=     6.1402   ZZ=   154.6893
   Eigenvalues:   123.1923   138.8496   181.8130
      9  C    Isotropic =    54.8914   Anisotropy =   185.4354
   XX=    -0.1870   YX=   -49.2901   ZX=   -83.6721
   XY=   -48.6906   YY=    61.1210   ZY=    38.5445
   XZ=   -82.7715   YZ=    38.2118   ZZ=   103.7403
   Eigenvalues:   -52.3740    38.5332   178.5150
     10  C    Isotropic =    71.0848   Anisotropy =   148.0185
   XX=    71.9811   YX=   -10.2693   ZX=   -55.8874
   XY=    -3.7282   YY=    48.7656   ZY=    69.2767
   XZ=   -60.7900   YZ=    65.4125   ZZ=    92.5078
   Eigenvalues:   -12.3644    55.8551   169.7638
     11  C    Isotropic =    19.6167   Anisotropy =    97.7305
   XX=    31.8824   YX=   -50.0875   ZX=    -4.6675
   XY=   -43.7871   YY=   -28.6550   ZY=    39.5272
   XZ=    -6.4350   YZ=    41.1752   ZZ=    55.6227
   Eigenvalues:   -63.6248    37.7046    84.7704
     12  C    Isotropic =    65.2998   Anisotropy =   142.1869
   XX=    53.1652   YX=   -30.5987   ZX=   -53.6923
   XY=   -30.3410   YY=    46.1615   ZY=    47.2953
   XZ=   -50.8971   YZ=    49.2860   ZZ=    96.5726
   Eigenvalues:    16.5424    19.2659   160.0910
     13  C    Isotropic =    19.6188   Anisotropy =   100.0469
   XX=    30.7054   YX=    19.2777   ZX=   -47.7893
   XY=    14.1595   YY=     2.4405   ZY=    58.9016
   XZ=   -40.5252   YZ=    57.4069   ZZ=    25.7106
   Eigenvalues:   -63.7540    36.2938    86.3167
     14  C    Isotropic =    70.6288   Anisotropy =   148.7635
   XX=    71.0345   YX=   -44.2116   ZX=   -36.6296
   XY=   -51.3686   YY=    25.3726   ZY=    52.7570
   XZ=   -32.1807   YZ=    57.2845   ZZ=   115.4794
   Eigenvalues:   -12.8406    54.9226   169.8045
     15  H    Isotropic =    24.5402   Anisotropy =     3.2003
   XX=    24.9600   YX=     1.0750   ZX=     1.6845
   XY=     1.0387   YY=    25.4709   ZY=    -2.0389
   XZ=     1.6904   YZ=    -2.0468   ZZ=    23.1898
   Eigenvalues:    20.9922    25.9547    26.6738
     16  H    Isotropic =    25.2194   Anisotropy =     5.0715
   XX=    27.2181   YX=     1.4579   ZX=     2.5133
   XY=     1.6574   YY=    25.1271   ZY=    -1.1683
   XZ=     2.2280   YZ=    -1.2769   ZZ=    23.3131
   Eigenvalues:    21.3411    25.7167    28.6004
     17  H    Isotropic =    25.2007   Anisotropy =     4.8491
   XX=    27.0783   YX=     1.5856   ZX=     2.3936
   XY=     1.1503   YY=    24.8717   ZY=    -1.5182
   XZ=     2.4322   YZ=    -1.2962   ZZ=    23.6522
   Eigenvalues:    21.3818    25.7869    28.4334
     18  F    Isotropic =   306.0546   Anisotropy =   126.1137
   XX=   275.2067   YX=   -23.4287   ZX=   -57.3979
   XY=    -4.7758   YY=   322.9056   ZY=    35.7433
   XZ=   -58.2922   YZ=    53.6533   ZZ=   320.0515
   Eigenvalues:   233.0806   294.9528   390.1304
     19  F    Isotropic =   300.9943   Anisotropy =   127.2393
   XX=   270.1963   YX=   -47.6754   ZX=   -42.9377
   XY=   -51.8395   YY=   283.0328   ZY=    28.3989
   XZ=   -35.9277   YZ=    23.4664   ZZ=   349.7538
   Eigenvalues:   224.9517   292.2107   385.8205
     20  H    Isotropic =    31.1889   Anisotropy =     8.3590
   XX=    33.9534   YX=    -0.2461   ZX=     3.5389
   XY=    -0.7676   YY=    30.7246   ZY=    -3.6132
   XZ=     3.8767   YZ=    -3.4628   ZZ=    28.8885
   Eigenvalues:    25.2710    31.5340    36.7615
     21  H    Isotropic =    31.1739   Anisotropy =    11.5336
   XX=    27.3863   YX=     2.4817   ZX=     0.5257
   XY=     2.6711   YY=    38.2640   ZY=     0.6740
   XZ=     0.3499   YZ=     0.0802   ZZ=    27.8713
   Eigenvalues:    26.7038    27.9548    38.8629
     22  H    Isotropic =    31.3737   Anisotropy =     7.8762
   XX=    31.1442   YX=    -0.2867   ZX=    -4.5962
   XY=    -0.4230   YY=    31.1134   ZY=    -1.8511
   XZ=    -5.2710   YZ=    -1.4366   ZZ=    31.8634
   Eigenvalues:    26.1655    31.3310    36.6245
     23  H    Isotropic =    30.5353   Anisotropy =     7.9834
   XX=    31.9621   YX=     0.1935   ZX=     4.3713
   XY=     0.3517   YY=    29.6804   ZY=     1.0967
   XZ=     4.8740   YZ=     1.4285   ZZ=    29.9635
   Eigenvalues:    26.0468    29.7016    35.8576
     24  H    Isotropic =    30.0321   Anisotropy =     6.6354
   XX=    28.9919   YX=     0.6431   ZX=    -2.8605
   XY=     0.1428   YY=    29.6555   ZY=     2.4653
   XZ=    -3.5420   YZ=     2.6420   ZZ=    31.4488
   Eigenvalues:    25.8549    29.7857    34.4557
     25  H    Isotropic =    30.3048   Anisotropy =     2.9923
   XX=    29.3111   YX=    -1.4543   ZX=    -0.1898
   XY=    -1.4978   YY=    30.1760   ZY=    -1.1763
   XZ=    -0.1141   YZ=    -1.1701   ZZ=    31.4273
   Eigenvalues:    27.9938    30.6210    32.2997
     26  H    Isotropic =    27.6878   Anisotropy =     8.8666
   XX=    32.1374   YX=    -1.3042   ZX=     0.0825
   XY=    -2.1653   YY=    27.4303   ZY=     3.7706
   XZ=    -2.6896   YZ=     5.2580   ZZ=    23.4958
   Eigenvalues:    20.5369    28.9276    33.5989
     27  H    Isotropic =    28.7576   Anisotropy =     4.2061
   XX=    26.8144   YX=    -1.0532   ZX=    -4.0400
   XY=    -1.4965   YY=    30.5213   ZY=    -0.2434
   XZ=    -3.0144   YZ=    -1.5462   ZZ=    28.9370
   Eigenvalues:    23.8300    30.8810    31.5616
     28  H    Isotropic =    31.5363   Anisotropy =    19.5373
   XX=    26.5838   YX=     1.9840   ZX=    -2.2670
   XY=     3.6753   YY=    42.4466   ZY=     5.3474
   XZ=    -2.3457   YZ=     6.5485   ZZ=    25.5785
   Eigenvalues:    21.7075    28.3401    44.5611
     29  H    Isotropic =    28.9193   Anisotropy =     7.3591
   XX=    29.5532   YX=     2.7635   ZX=    -1.9377
   XY=     3.1507   YY=    26.2693   ZY=    -2.3255
   XZ=    -0.0760   YZ=    -3.9262   ZZ=    30.9355
   Eigenvalues:    23.7789    29.1537    33.8254
     30  H    Isotropic =    28.1077   Anisotropy =     5.3549
   XX=    29.9567   YX=    -1.9673   ZX=    -1.8014
   XY=     0.2237   YY=    29.4538   ZY=     2.1040
   XZ=     0.4348   YZ=     4.0075   ZZ=    24.9125
   Eigenvalues:    23.3686    29.2767    31.6776
     31  H    Isotropic =    29.6191   Anisotropy =     3.4300
   XX=    29.7547   YX=    -0.6488   ZX=     0.6839
   XY=    -0.0796   YY=    29.6219   ZY=    -2.3627
   XZ=    -0.3386   YZ=    -2.2084   ZZ=    29.4807
   Eigenvalues:    27.2579    29.6936    31.9058
     32  C    Isotropic =   173.3320   Anisotropy =    24.6908
   XX=   182.6332   YX=     2.4538   ZX=    10.9831
   XY=    -0.3545   YY=   165.3338   ZY=    -3.9081
   XZ=    11.3068   YZ=    -5.7052   ZZ=   172.0289
   Eigenvalues:   160.4871   169.7163   189.7925
     33  H    Isotropic =    31.8185   Anisotropy =     9.3160
   XX=    31.8612   YX=    -2.1951   ZX=     4.0529
   XY=    -1.5939   YY=    29.2005   ZY=    -2.2109
   XZ=     3.3201   YZ=    -2.3974   ZZ=    34.3939
   Eigenvalues:    28.1625    29.2638    38.0292
     34  H    Isotropic =    30.5326   Anisotropy =     9.5043
   XX=    35.2328   YX=    -2.0681   ZX=    -2.4359
   XY=    -1.6104   YY=    28.5857   ZY=     3.3505
   XZ=    -2.4456   YZ=     2.8004   ZZ=    27.7794
   Eigenvalues:    25.0367    29.6923    36.8689
     35  H    Isotropic =    31.2133   Anisotropy =     7.7719
   XX=    34.0431   YX=     2.8201   ZX=     0.6662
   XY=     1.9603   YY=    33.8696   ZY=     0.4686
   XZ=     0.3356   YZ=     0.5200   ZZ=    25.7272
   Eigenvalues:    25.6808    31.5646    36.3945
     36  H    Isotropic =    31.4940   Anisotropy =     8.1117
   XX=    34.6163   YX=    -1.0195   ZX=     1.7565
   XY=    -0.7067   YY=    26.9317   ZY=    -4.1106
   XZ=     0.2532   YZ=    -6.7933   ZZ=    32.9340
   Eigenvalues:    23.7045    33.8757    36.9018
 End of Minotr F.D. properties file   721 does not exist.
 End of Minotr F.D. properties file   722 does not exist.
 End of Minotr F.D. properties file   788 does not exist.

 **********************************************************************

            Population analysis using the SCF density.

 **********************************************************************

 Orbital symmetries:
       Occupied  (A) (A) (A) (A) (A) (A) (A) (A) (A) (A) (A) (A)
                 (A) (A) (A) (A) (A) (A) (A) (A) (A) (A) (A) (A)
                 (A) (A) (A) (A) (A) (A) (A) (A) (A) (A) (A) (A)
                 (A) (A) (A) (A) (A) (A) (A) (A) (A) (A) (A) (A)
                 (A) (A) (A) (A) (A) (A) (A) (A) (A) (A) (A) (A)
                 (A) (A) (A) (A) (A)
       Virtual   (A) (A) (A) (A) (A) (A) (A) (A) (A) (A) (A) (A)
                 (A) (A) (A) (A) (A) (A) (A) (A) (A) (A) (A) (A)
                 (A) (A) (A) (A) (A) (A) (A) (A) (A) (A) (A) (A)
                 (A) (A) (A) (A) (A) (A) (A) (A) (A) (A) (A) (A)
                 (A) (A) (A) (A) (A) (A) (A) (A) (A) (A) (A) (A)
                 (A) (A) (A) (A) (A) (A) (A) (A) (A) (A) (A) (A)
                 (A) (A) (A) (A) (A) (A) (A) (A) (A) (A) (A) (A)
                 (A) (A) (A) (A) (A) (A) (A) (A) (A) (A) (A) (A)
                 (A) (A) (A) (A) (A) (A) (A) (A) (A) (A) (A) (A)
                 (A) (A) (A) (A) (A) (A) (A) (A) (A) (A) (A) (A)
                 (A) (A) (A) (A) (A) (A) (A) (A) (A) (A) (A) (A)
                 (A) (A) (A) (A) (A) (A) (A) (A) (A) (A) (A) (A)
                 (A) (A) (A) (A) (A) (A) (A) (A) (A) (A) (A) (A)
                 (A) (A) (A) (A) (A) (A) (A) (A) (A) (A) (A) (A)
                 (A) (A) (A) (A) (A) (A) (A) (A) (A) (A) (A) (A)
                 (A) (A) (A) (A) (A) (A) (A) (A) (A) (A) (A) (A)
                 (A) (A) (A) (A) (A) (A) (A) (A) (A) (A) (A) (A)
                 (A) (A) (A) (A) (A) (A) (A) (A) (A) (A) (A) (A)
                 (A) (A) (A) (A) (A) (A) (A) (A) (A) (A) (A) (A)
                 (A) (A) (A) (A) (A) (A) (A) (A) (A) (A) (A) (A)
                 (A) (A) (A) (A) (A) (A) (A) (A) (A) (A) (A) (A)
                 (A) (A) (A) (A) (A) (A) (A) (A) (A) (A) (A) (A)
                 (A) (A) (A) (A) (A) (A) (A) (A) (A) (A) (A) (A)
                 (A) (A) (A) (A) (A) (A) (A) (A) (A) (A) (A) (A)
                 (A) (A) (A) (A) (A) (A) (A) (A) (A) (A)
 The electronic state is 1-A.
 Alpha  occ. eigenvalues --  -24.80555 -24.80187 -19.19926 -14.37731 -10.33714
 Alpha  occ. eigenvalues --  -10.33675 -10.26652 -10.26361 -10.26357 -10.26291
 Alpha  occ. eigenvalues --  -10.25925 -10.25159 -10.25120 -10.23578 -10.22487
 Alpha  occ. eigenvalues --  -10.21862 -10.21296  -1.27792  -1.27456  -1.04083
 Alpha  occ. eigenvalues --   -0.94243  -0.90377  -0.83028  -0.79854  -0.78565
 Alpha  occ. eigenvalues --   -0.77959  -0.71671  -0.68892  -0.67857  -0.65971
 Alpha  occ. eigenvalues --   -0.63968  -0.61223  -0.59025  -0.57629  -0.55679
 Alpha  occ. eigenvalues --   -0.52746  -0.51915  -0.51317  -0.51242  -0.49561
 Alpha  occ. eigenvalues --   -0.49174  -0.48467  -0.47779  -0.46966  -0.45421
 Alpha  occ. eigenvalues --   -0.44557  -0.43940  -0.42066  -0.41646  -0.41423
 Alpha  occ. eigenvalues --   -0.40933  -0.39272  -0.38570  -0.38171  -0.37797
 Alpha  occ. eigenvalues --   -0.36772  -0.35843  -0.35395  -0.34537  -0.33008
 Alpha  occ. eigenvalues --   -0.32403  -0.27738  -0.27412  -0.26715  -0.23557
 Alpha virt. eigenvalues --   -0.01937  -0.00863   0.04924   0.05667   0.06282
 Alpha virt. eigenvalues --    0.06777   0.08054   0.09375   0.10417   0.10621
 Alpha virt. eigenvalues --    0.11646   0.11687   0.12368   0.13124   0.13546
 Alpha virt. eigenvalues --    0.13768   0.14834   0.15334   0.15665   0.16308
 Alpha virt. eigenvalues --    0.17399   0.17792   0.18763   0.19394   0.20174
 Alpha virt. eigenvalues --    0.22025   0.22760   0.23343   0.23639   0.24812
 Alpha virt. eigenvalues --    0.25376   0.25764   0.26504   0.29086   0.30213
 Alpha virt. eigenvalues --    0.32528   0.32630   0.33965   0.34698   0.35089
 Alpha virt. eigenvalues --    0.35909   0.37271   0.37613   0.38769   0.38962
 Alpha virt. eigenvalues --    0.39684   0.40316   0.40938   0.41605   0.42024
 Alpha virt. eigenvalues --    0.43106   0.44813   0.44940   0.45866   0.46312
 Alpha virt. eigenvalues --    0.47138   0.48747   0.49601   0.50925   0.51632
 Alpha virt. eigenvalues --    0.52569   0.53007   0.54642   0.55439   0.55754
 Alpha virt. eigenvalues --    0.56521   0.56996   0.57895   0.57905   0.59190
 Alpha virt. eigenvalues --    0.60283   0.60471   0.61325   0.61531   0.62068
 Alpha virt. eigenvalues --    0.62620   0.63309   0.63552   0.64498   0.64780
 Alpha virt. eigenvalues --    0.65385   0.65863   0.66329   0.66671   0.67314
 Alpha virt. eigenvalues --    0.67799   0.68503   0.69493   0.70398   0.70928
 Alpha virt. eigenvalues --    0.71691   0.72821   0.74278   0.75265   0.77004
 Alpha virt. eigenvalues --    0.78714   0.80419   0.82365   0.82764   0.86693
 Alpha virt. eigenvalues --    0.87179   0.89148   0.90203   0.92494   0.93121
 Alpha virt. eigenvalues --    0.93989   0.96243   0.98195   0.98321   0.99576
 Alpha virt. eigenvalues --    1.00165   1.03504   1.05679   1.06428   1.07476
 Alpha virt. eigenvalues --    1.08156   1.09914   1.12245   1.14196   1.14393
 Alpha virt. eigenvalues --    1.15582   1.17706   1.19645   1.20521   1.23536
 Alpha virt. eigenvalues --    1.25019   1.27208   1.27297   1.28673   1.30851
 Alpha virt. eigenvalues --    1.33674   1.34513   1.36838   1.39283   1.43148
 Alpha virt. eigenvalues --    1.44252   1.46101   1.48386   1.49670   1.50052
 Alpha virt. eigenvalues --    1.51144   1.53097   1.53721   1.55008   1.55391
 Alpha virt. eigenvalues --    1.56193   1.56494   1.58081   1.58569   1.60335
 Alpha virt. eigenvalues --    1.61753   1.63571   1.64626   1.66121   1.66381
 Alpha virt. eigenvalues --    1.66983   1.68380   1.69796   1.71849   1.73568
 Alpha virt. eigenvalues --    1.74763   1.76801   1.78294   1.81809   1.83189
 Alpha virt. eigenvalues --    1.84302   1.85139   1.85582   1.88203   1.89253
 Alpha virt. eigenvalues --    1.89779   1.90237   1.92388   1.93989   1.95115
 Alpha virt. eigenvalues --    1.96135   1.99523   1.99885   1.99940   2.03545
 Alpha virt. eigenvalues --    2.08087   2.09810   2.13242   2.17103   2.18358
 Alpha virt. eigenvalues --    2.19547   2.21969   2.25844   2.27246   2.27562
 Alpha virt. eigenvalues --    2.29917   2.30980   2.35310   2.39521   2.40205
 Alpha virt. eigenvalues --    2.41276   2.42848   2.43669   2.45164   2.46642
 Alpha virt. eigenvalues --    2.48642   2.49953   2.52326   2.54023   2.54161
 Alpha virt. eigenvalues --    2.55294   2.57610   2.59645   2.62298   2.66095
 Alpha virt. eigenvalues --    2.67308   2.67389   2.70505   2.72583   2.73513
 Alpha virt. eigenvalues --    2.77508   2.83253   2.83986   2.84918   2.88941
 Alpha virt. eigenvalues --    2.90974   2.93755   2.95518   2.99667   3.05988
 Alpha virt. eigenvalues --    3.06586   3.07081   3.07815   3.09409   3.10652
 Alpha virt. eigenvalues --    3.13561   3.15905   3.17353   3.18398   3.22427
 Alpha virt. eigenvalues --    3.23568   3.26244   3.27098   3.28491   3.28805
 Alpha virt. eigenvalues --    3.30166   3.31672   3.33493   3.37036   3.40499
 Alpha virt. eigenvalues --    3.47432   3.48273   3.52586   3.61100   3.64882
 Alpha virt. eigenvalues --    3.75783   3.79287   3.79776   3.80046   3.80703
 Alpha virt. eigenvalues --    3.85205   3.87283   3.96201   3.96515   3.99758
 Alpha virt. eigenvalues --    4.00426   4.03755   4.06969   4.11214   4.12748
 Alpha virt. eigenvalues --    4.19010   4.21094   4.49057   4.75417   4.77261
 Alpha virt. eigenvalues --    4.80576   4.81217   4.90976   5.10463   5.40180
 Alpha virt. eigenvalues --    6.12640   6.14618   6.31085   6.32551   6.56513
 Alpha virt. eigenvalues --    6.59521  23.30252  23.48177  23.58684  23.69692
 Alpha virt. eigenvalues --   23.73996  23.79488  23.80679  23.82945  23.86977
 Alpha virt. eigenvalues --   23.89968  24.08825  24.11318  24.19471  35.58638
 Alpha virt. eigenvalues --   49.97561  66.89121  66.89582
          Condensed to atoms (all electrons):
               1          2          3          4          5          6
     1  C    5.382806   0.275912  -0.077357  -0.000041  -0.000399   0.000000
     2  C    0.275912   5.424950   0.327702  -0.082093   0.007720  -0.000045
     3  C   -0.077357   0.327702   5.251037   0.291662  -0.062022   0.002912
     4  C   -0.000041  -0.082093   0.291662   5.454892   0.292880  -0.049891
     5  C   -0.000399   0.007720  -0.062022   0.292880   5.124395   0.221498
     6  O    0.000000  -0.000045   0.002912  -0.049891   0.221498   8.234860
     7  N    0.001478  -0.079098   0.299495  -0.071200  -0.011058   0.000071
     8  C   -0.000752  -0.009200  -0.082455   0.009340   0.000255  -0.000002
     9  C    0.000000   0.000000  -0.000001   0.000000   0.000000   0.000000
    10  C   -0.000002  -0.000003   0.000026   0.000000   0.000000   0.000000
    11  C   -0.000022  -0.000281   0.000043   0.000040   0.000015   0.000000
    12  C   -0.000066   0.000241   0.009003  -0.000118  -0.000031   0.000000
    13  C   -0.000004   0.000110  -0.000406  -0.000077  -0.000049   0.000000
    14  C    0.000000   0.000000   0.000006   0.000000   0.000001   0.000000
    15  H    0.000000   0.000000   0.000000   0.000000   0.000000   0.000000
    16  H    0.000000   0.000000  -0.000001   0.000000   0.000000   0.000000
    17  H    0.000000   0.000000   0.000000   0.000000   0.000000   0.000000
    18  F   -0.000264  -0.000091   0.000085  -0.000001   0.000000   0.000000
    19  F    0.000000   0.000002  -0.000082  -0.000002   0.000000   0.000000
    20  H    0.380832  -0.046652  -0.003387  -0.000492  -0.000088   0.000001
    21  H    0.393336  -0.035907   0.007350  -0.000145   0.000010   0.000000
    22  H    0.387044  -0.037939  -0.008333   0.005121   0.000187  -0.000031
    23  H   -0.040197   0.387102  -0.035995  -0.005557  -0.000344  -0.000002
    24  H   -0.045603   0.408983  -0.042657   0.006904  -0.000171   0.000002
    25  H    0.004015  -0.010360  -0.028678   0.380478  -0.045810   0.008253
    26  H   -0.000124   0.001216  -0.003977  -0.048725   0.393403  -0.033948
    27  H   -0.000004  -0.000233   0.002226  -0.048327   0.379875  -0.039610
    28  H    0.000000   0.000019  -0.000730   0.011394  -0.050078   0.260327
    29  H    0.000177  -0.002607  -0.004658   0.001068   0.000002  -0.000002
    30  H    0.000447   0.007306  -0.003078  -0.001202  -0.000006   0.000001
    31  H    0.008148  -0.061216   0.400329  -0.031147  -0.009007  -0.000213
    32  C   -0.003223   0.000979  -0.072667   0.303438  -0.077705  -0.004118
    33  H    0.000373  -0.001957  -0.004211  -0.040446  -0.004055  -0.000678
    34  H   -0.000059  -0.000199   0.008043  -0.036636  -0.010614   0.018697
    35  H    0.000046   0.000129  -0.007764  -0.034408   0.007618  -0.000111
    36  H    0.006161  -0.006540  -0.047140  -0.003499   0.000313  -0.000122
               7          8          9         10         11         12
     1  C    0.001478  -0.000752   0.000000  -0.000002  -0.000022  -0.000066
     2  C   -0.079098  -0.009200   0.000000  -0.000003  -0.000281   0.000241
     3  C    0.299495  -0.082455  -0.000001   0.000026   0.000043   0.009003
     4  C   -0.071200   0.009340   0.000000   0.000000   0.000040  -0.000118
     5  C   -0.011058   0.000255   0.000000   0.000000   0.000015  -0.000031
     6  O    0.000071  -0.000002   0.000000   0.000000   0.000000   0.000000
     7  N    6.942138   0.284992   0.000063  -0.000344  -0.009188  -0.080085
     8  C    0.284992   5.294877  -0.001443   0.009901  -0.083685   0.294809
     9  C    0.000063  -0.001443   5.064098   0.434954  -0.005502  -0.059072
    10  C   -0.000344   0.009901   0.434954   5.200145   0.479472  -0.038174
    11  C   -0.009188  -0.083685  -0.005502   0.479472   4.801326   0.243887
    12  C   -0.080085   0.294809  -0.059072  -0.038174   0.243887   5.772330
    13  C    0.016913  -0.073834  -0.002918  -0.066862   0.031186   0.264021
    14  C   -0.000075   0.010162   0.430664  -0.035630  -0.064426  -0.032119
    15  H    0.000000   0.000030   0.404840  -0.041017   0.006255  -0.001984
    16  H    0.000014  -0.000329  -0.040910   0.391971  -0.049617   0.012271
    17  H    0.000011  -0.000300  -0.041213   0.007127  -0.001334   0.012031
    18  F   -0.001277   0.002561   0.005578  -0.056713   0.318733  -0.083068
    19  F   -0.000448  -0.002322   0.005701  -0.000567   0.005166  -0.076862
    20  H    0.006152   0.002528  -0.000003   0.000063   0.000439  -0.000638
    21  H    0.000021  -0.000097   0.000000   0.000000   0.000000   0.000001
    22  H    0.000144   0.000064   0.000000   0.000000   0.000005   0.000008
    23  H    0.006012   0.000430   0.000000   0.000000   0.000009   0.000024
    24  H   -0.004486   0.002906   0.000000  -0.000002   0.000063   0.000429
    25  H   -0.003602  -0.000410   0.000000   0.000001  -0.000010   0.000063
    26  H    0.026981  -0.000942  -0.000002  -0.000008  -0.000195  -0.000298
    27  H   -0.000098   0.000029   0.000000   0.000000  -0.000003  -0.000045
    28  H   -0.000031  -0.000003   0.000000   0.000000   0.000000   0.000000
    29  H   -0.036574   0.385829  -0.000261   0.000094   0.010137  -0.027490
    30  H   -0.051794   0.380183  -0.000153  -0.000337  -0.029544  -0.043647
    31  H   -0.035761  -0.008651   0.000000   0.000002   0.000038   0.000140
    32  C    0.004933  -0.000317   0.000000   0.000000   0.000000   0.000004
    33  H   -0.000040  -0.000021   0.000000   0.000000   0.000000   0.000001
    34  H   -0.000184   0.000020   0.000000   0.000000   0.000000   0.000000
    35  H   -0.000070  -0.000014   0.000000   0.000000   0.000000   0.000000
    36  H    0.331704  -0.045638  -0.000016  -0.000049   0.005287  -0.013528
              13         14         15         16         17         18
     1  C   -0.000004   0.000000   0.000000   0.000000   0.000000  -0.000264
     2  C    0.000110   0.000000   0.000000   0.000000   0.000000  -0.000091
     3  C   -0.000406   0.000006   0.000000  -0.000001   0.000000   0.000085
     4  C   -0.000077   0.000000   0.000000   0.000000   0.000000  -0.000001
     5  C   -0.000049   0.000001   0.000000   0.000000   0.000000   0.000000
     6  O    0.000000   0.000000   0.000000   0.000000   0.000000   0.000000
     7  N    0.016913  -0.000075   0.000000   0.000014   0.000011  -0.001277
     8  C   -0.073834   0.010162   0.000030  -0.000329  -0.000300   0.002561
     9  C   -0.002918   0.430664   0.404840  -0.040910  -0.041213   0.005578
    10  C   -0.066862  -0.035630  -0.041017   0.391971   0.007127  -0.056713
    11  C    0.031186  -0.064426   0.006255  -0.049617  -0.001334   0.318733
    12  C    0.264021  -0.032119  -0.001984   0.012271   0.012031  -0.083068
    13  C    4.753637   0.471470   0.006067  -0.001273  -0.048868   0.004828
    14  C    0.471470   5.205022  -0.040743   0.007065   0.392070  -0.000588
    15  H    0.006067  -0.040743   0.446989  -0.006650  -0.006613  -0.000071
    16  H   -0.001273   0.007065  -0.006650   0.451890  -0.000180   0.001553
    17  H   -0.048868   0.392070  -0.006613  -0.000180   0.452003   0.000004
    18  F    0.004828  -0.000588  -0.000071   0.001553   0.000004   9.030339
    19  F    0.321264  -0.055899  -0.000072   0.000004   0.001433  -0.000001
    20  H   -0.000065   0.000001   0.000000   0.000000   0.000000   0.002861
    21  H    0.000000   0.000000   0.000000   0.000000   0.000000  -0.000013
    22  H    0.000000   0.000000   0.000000   0.000000   0.000000  -0.000007
    23  H   -0.000005   0.000000   0.000000   0.000000   0.000000  -0.000002
    24  H   -0.000030   0.000000   0.000000   0.000000   0.000000  -0.000126
    25  H    0.000003   0.000000   0.000000   0.000000   0.000000  -0.000011
    26  H    0.000698   0.000003   0.000000   0.000000   0.000001  -0.000003
    27  H    0.000017   0.000001   0.000000   0.000000   0.000000   0.000000
    28  H    0.000000   0.000000   0.000000   0.000000   0.000000   0.000000
    29  H   -0.021957   0.001105   0.000004   0.000009  -0.000055   0.000176
    30  H    0.013736  -0.000038   0.000003  -0.000023   0.000017   0.007436
    31  H   -0.000064  -0.000006   0.000000   0.000000   0.000000  -0.000003
    32  C    0.000000   0.000000   0.000000   0.000000   0.000000   0.000000
    33  H    0.000000   0.000000   0.000000   0.000000   0.000000   0.000000
    34  H    0.000000   0.000000   0.000000   0.000000   0.000000   0.000000
    35  H    0.000000   0.000000   0.000000   0.000000   0.000000   0.000000
    36  H   -0.000297  -0.000007   0.000001   0.000003   0.000000   0.004435
              19         20         21         22         23         24
     1  C    0.000000   0.380832   0.393336   0.387044  -0.040197  -0.045603
     2  C    0.000002  -0.046652  -0.035907  -0.037939   0.387102   0.408983
     3  C   -0.000082  -0.003387   0.007350  -0.008333  -0.035995  -0.042657
     4  C   -0.000002  -0.000492  -0.000145   0.005121  -0.005557   0.006904
     5  C    0.000000  -0.000088   0.000010   0.000187  -0.000344  -0.000171
     6  O    0.000000   0.000001   0.000000  -0.000031  -0.000002   0.000002
     7  N   -0.000448   0.006152   0.000021   0.000144   0.006012  -0.004486
     8  C   -0.002322   0.002528  -0.000097   0.000064   0.000430   0.002906
     9  C    0.005701  -0.000003   0.000000   0.000000   0.000000   0.000000
    10  C   -0.000567   0.000063   0.000000   0.000000   0.000000  -0.000002
    11  C    0.005166   0.000439   0.000000   0.000005   0.000009   0.000063
    12  C   -0.076862  -0.000638   0.000001   0.000008   0.000024   0.000429
    13  C    0.321264  -0.000065   0.000000   0.000000  -0.000005  -0.000030
    14  C   -0.055899   0.000001   0.000000   0.000000   0.000000   0.000000
    15  H   -0.000072   0.000000   0.000000   0.000000   0.000000   0.000000
    16  H    0.000004   0.000000   0.000000   0.000000   0.000000   0.000000
    17  H    0.001433   0.000000   0.000000   0.000000   0.000000   0.000000
    18  F   -0.000001   0.002861  -0.000013  -0.000007  -0.000002  -0.000126
    19  F    9.025765   0.000000   0.000000   0.000000   0.000000  -0.000001
    20  H    0.000000   0.492107  -0.027273  -0.027633   0.008354  -0.005916
    21  H    0.000000  -0.027273   0.468855  -0.027412  -0.005095  -0.004820
    22  H    0.000000  -0.027633  -0.027412   0.474166  -0.005369   0.007014
    23  H    0.000000   0.008354  -0.005095  -0.005369   0.491579  -0.033988
    24  H   -0.000001  -0.005916  -0.004820   0.007014  -0.033988   0.485682
    25  H    0.000000   0.000074   0.000113  -0.001166   0.000156  -0.000295
    26  H    0.000080  -0.000124   0.000000  -0.000001  -0.000105  -0.000005
    27  H    0.000021   0.000006   0.000001  -0.000046  -0.000024  -0.000018
    28  H    0.000000   0.000000   0.000000   0.000000   0.000001  -0.000001
    29  H    0.012270   0.000218   0.000005   0.000004   0.000133   0.000446
    30  H    0.000037  -0.002489  -0.000013  -0.000108  -0.000684  -0.000859
    31  H   -0.000147   0.000052  -0.000187  -0.000263  -0.001316  -0.005525
    32  C    0.000000   0.000013  -0.000037   0.000264   0.000360   0.000055
    33  H    0.000000  -0.000005   0.000011  -0.000095   0.000408  -0.000207
    34  H    0.000000   0.000027  -0.000004  -0.000041   0.000432   0.000004
    35  H    0.000000  -0.000089  -0.000013   0.002387  -0.001556   0.000425
    36  H   -0.000027   0.003406   0.000063  -0.000339  -0.000122  -0.000493
              25         26         27         28         29         30
     1  C    0.004015  -0.000124  -0.000004   0.000000   0.000177   0.000447
     2  C   -0.010360   0.001216  -0.000233   0.000019  -0.002607   0.007306
     3  C   -0.028678  -0.003977   0.002226  -0.000730  -0.004658  -0.003078
     4  C    0.380478  -0.048725  -0.048327   0.011394   0.001068  -0.001202
     5  C   -0.045810   0.393403   0.379875  -0.050078   0.000002  -0.000006
     6  O    0.008253  -0.033948  -0.039610   0.260327  -0.000002   0.000001
     7  N   -0.003602   0.026981  -0.000098  -0.000031  -0.036574  -0.051794
     8  C   -0.000410  -0.000942   0.000029  -0.000003   0.385829   0.380183
     9  C    0.000000  -0.000002   0.000000   0.000000  -0.000261  -0.000153
    10  C    0.000001  -0.000008   0.000000   0.000000   0.000094  -0.000337
    11  C   -0.000010  -0.000195  -0.000003   0.000000   0.010137  -0.029544
    12  C    0.000063  -0.000298  -0.000045   0.000000  -0.027490  -0.043647
    13  C    0.000003   0.000698   0.000017   0.000000  -0.021957   0.013736
    14  C    0.000000   0.000003   0.000001   0.000000   0.001105  -0.000038
    15  H    0.000000   0.000000   0.000000   0.000000   0.000004   0.000003
    16  H    0.000000   0.000000   0.000000   0.000000   0.000009  -0.000023
    17  H    0.000000   0.000001   0.000000   0.000000  -0.000055   0.000017
    18  F   -0.000011  -0.000003   0.000000   0.000000   0.000176   0.007436
    19  F    0.000000   0.000080   0.000021   0.000000   0.012270   0.000037
    20  H    0.000074  -0.000124   0.000006   0.000000   0.000218  -0.002489
    21  H    0.000113   0.000000   0.000001   0.000000   0.000005  -0.000013
    22  H   -0.001166  -0.000001  -0.000046   0.000000   0.000004  -0.000108
    23  H    0.000156  -0.000105  -0.000024   0.000001   0.000133  -0.000684
    24  H   -0.000295  -0.000005  -0.000018  -0.000001   0.000446  -0.000859
    25  H    0.521636  -0.009215   0.010695  -0.000486  -0.000046   0.000032
    26  H   -0.009215   0.493394  -0.039301  -0.003695  -0.000381   0.000392
    27  H    0.010695  -0.039301   0.545364  -0.003748  -0.000144   0.000027
    28  H   -0.000486  -0.003695  -0.003748   0.380655   0.000000   0.000000
    29  H   -0.000046  -0.000381  -0.000144   0.000000   0.468118  -0.045051
    30  H    0.000032   0.000392   0.000027   0.000000  -0.045051   0.546380
    31  H    0.008013  -0.001865   0.006685  -0.000014   0.005326  -0.001431
    32  C   -0.055440   0.008587  -0.012556   0.000067  -0.000041   0.000057
    33  H    0.008272  -0.000336   0.004297  -0.000019  -0.000016  -0.000001
    34  H   -0.003932   0.000889   0.000042  -0.000930   0.000003  -0.000003
    35  H   -0.006586  -0.000263  -0.000233   0.000035   0.000003  -0.000003
    36  H    0.002022  -0.000081  -0.000166   0.000011   0.006792  -0.005857
              31         32         33         34         35         36
     1  C    0.008148  -0.003223   0.000373  -0.000059   0.000046   0.006161
     2  C   -0.061216   0.000979  -0.001957  -0.000199   0.000129  -0.006540
     3  C    0.400329  -0.072667  -0.004211   0.008043  -0.007764  -0.047140
     4  C   -0.031147   0.303438  -0.040446  -0.036636  -0.034408  -0.003499
     5  C   -0.009007  -0.077705  -0.004055  -0.010614   0.007618   0.000313
     6  O   -0.000213  -0.004118  -0.000678   0.018697  -0.000111  -0.000122
     7  N   -0.035761   0.004933  -0.000040  -0.000184  -0.000070   0.331704
     8  C   -0.008651  -0.000317  -0.000021   0.000020  -0.000014  -0.045638
     9  C    0.000000   0.000000   0.000000   0.000000   0.000000  -0.000016
    10  C    0.000002   0.000000   0.000000   0.000000   0.000000  -0.000049
    11  C    0.000038   0.000000   0.000000   0.000000   0.000000   0.005287
    12  C    0.000140   0.000004   0.000001   0.000000   0.000000  -0.013528
    13  C   -0.000064   0.000000   0.000000   0.000000   0.000000  -0.000297
    14  C   -0.000006   0.000000   0.000000   0.000000   0.000000  -0.000007
    15  H    0.000000   0.000000   0.000000   0.000000   0.000000   0.000001
    16  H    0.000000   0.000000   0.000000   0.000000   0.000000   0.000003
    17  H    0.000000   0.000000   0.000000   0.000000   0.000000   0.000000
    18  F   -0.000003   0.000000   0.000000   0.000000   0.000000   0.004435
    19  F   -0.000147   0.000000   0.000000   0.000000   0.000000  -0.000027
    20  H    0.000052   0.000013  -0.000005   0.000027  -0.000089   0.003406
    21  H   -0.000187  -0.000037   0.000011  -0.000004  -0.000013   0.000063
    22  H   -0.000263   0.000264  -0.000095  -0.000041   0.002387  -0.000339
    23  H   -0.001316   0.000360   0.000408   0.000432  -0.001556  -0.000122
    24  H   -0.005525   0.000055  -0.000207   0.000004   0.000425  -0.000493
    25  H    0.008013  -0.055440   0.008272  -0.003932  -0.006586   0.002022
    26  H   -0.001865   0.008587  -0.000336   0.000889  -0.000263  -0.000081
    27  H    0.006685  -0.012556   0.004297   0.000042  -0.000233  -0.000166
    28  H   -0.000014   0.000067  -0.000019  -0.000930   0.000035   0.000011
    29  H    0.005326  -0.000041  -0.000016   0.000003   0.000003   0.006792
    30  H   -0.001431   0.000057  -0.000001  -0.000003  -0.000003  -0.005857
    31  H    0.488669  -0.004672   0.005483  -0.000334  -0.000437   0.007008
    32  C   -0.004672   5.429286   0.379005   0.385444   0.388763   0.000248
    33  H    0.005483   0.379005   0.490900  -0.026438  -0.027902   0.000009
    34  H   -0.000334   0.385444  -0.026438   0.453797  -0.028892  -0.000006
    35  H   -0.000437   0.388763  -0.027902  -0.028892   0.476695   0.000021
    36  H    0.007008   0.000248   0.000009  -0.000006   0.000021   0.426513
 Mulliken charges:
               1
     1  C   -0.672656
     2  C   -0.467950
     3  C   -0.114319
     4  C   -0.303211
     5  C   -0.156735
     6  O   -0.617850
     7  N   -0.535708
     8  C   -0.368501
     9  C   -0.194403
    10  C   -0.284047
    11  C    0.341707
    12  C   -0.152037
    13  C    0.332759
    14  C   -0.288039
    15  H    0.232961
    16  H    0.234201
    17  H    0.233866
    18  F   -0.236351
    19  F   -0.235314
    20  H    0.217721
    21  H    0.231250
    22  H    0.232374
    23  H    0.235360
    24  H    0.232290
    25  H    0.222221
    26  H    0.217949
    27  H    0.195272
    28  H    0.407226
    29  H    0.247363
    30  H    0.230265
    31  H    0.232366
    32  C   -0.670726
    33  H    0.217668
    34  H    0.240874
    35  H    0.232218
    36  H    0.329934
 Sum of Mulliken charges =   0.00000
 Mulliken charges with hydrogens summed into heavy atoms:
               1
     1  C    0.008690
     2  C   -0.000301
     3  C    0.118047
     4  C   -0.080990
     5  C    0.256486
     6  O   -0.210624
     7  N   -0.205774
     8  C    0.109128
     9  C    0.038558
    10  C   -0.049846
    11  C    0.341707
    12  C   -0.152037
    13  C    0.332759
    14  C   -0.054172
    18  F   -0.236351
    19  F   -0.235314
    32  C    0.020035
 Electronic spatial extent (au):  <R**2>=           5362.7026
 Charge=              0.0000 electrons
 Dipole moment (field-independent basis, Debye):
    X=             -2.5241    Y=             -0.0437    Z=              0.3819  Tot=              2.5532
 Quadrupole moment (field-independent basis, Debye-Ang):
   XX=            -98.9548   YY=            -96.1860   ZZ=           -102.5712
   XY=              4.3074   XZ=              9.0967   YZ=              1.2750
 Traceless Quadrupole moment (field-independent basis, Debye-Ang):
   XX=              0.2826   YY=              3.0514   ZZ=             -3.3339
   XY=              4.3074   XZ=              9.0967   YZ=              1.2750
 Octapole moment (field-independent basis, Debye-Ang**2):
  XXX=           -121.4388  YYY=            -48.8011  ZZZ=              1.7591  XYY=             10.3599
  XXY=             -4.2547  XXZ=             -7.9885  XZZ=             -9.6965  YZZ=              1.1177
  YYZ=             -9.8281  XYZ=             -0.9765
 Hexadecapole moment (field-independent basis, Debye-Ang**3):
 XXXX=          -4886.6821 YYYY=          -1295.8587 ZZZZ=           -559.9361 XXXY=            139.6899
 XXXZ=            185.3303 YYYX=           -103.0210 YYYZ=             51.9324 ZZZX=             -3.9031
 ZZZY=            -23.8555 XXYY=          -1012.7290 XXZZ=           -939.3209 YYZZ=           -321.5077
 XXYZ=            -43.3050 YYXZ=            -24.7634 ZZXY=            -27.8441
 N-N= 1.255784878285D+03 E-N=-4.469871925423D+03  KE= 8.333291529904D+02
 1\1\GINC-CPU-E-278\SP\RmPW1PW91\6-311G(d)\C13H19F2N1O1\AH809\04-Mar-20
 19\0\\# mPW1PW91/6-311g(d) nmr=giao scrf=(solvent=chloroform)\\AT3_1gi
 np014\\0,1\C,0,-1.886916,0.501271,0.429454\C,0,-1.101412,-0.116164,1.5
 79568\C,0,-0.219225,0.868884,2.385709\C,0,-1.025104,2.004507,3.090495\
 C,0,-0.097981,2.88422,3.952815\O,0,-0.837692,3.948966,4.5464\N,0,0.831
 463,1.487126,1.559652\C,0,1.856361,0.551185,1.100924\C,0,5.10446,2.689
 887,-0.779633\C,0,3.936595,2.418403,-1.490321\C,0,2.896357,1.723869,-0
 .874034\C,0,2.992496,1.284225,0.447701\C,0,4.16805,1.569976,1.14321\C,
 0,5.218996,2.263386,0.542721\H,0,5.9193,3.232346,-1.252059\H,0,3.82586
 3,2.744756,-2.520066\H,0,6.119712,2.466607,1.114327\F,0,1.781285,1.478
 836,-1.578177\F,0,4.311406,1.168336,2.414586\H,0,-1.22453,0.93507,-0.3
 25154\H,0,-2.486841,-0.270009,-0.065002\H,0,-2.572826,1.277732,0.77903
 7\H,0,-1.803137,-0.617723,2.255827\H,0,-0.480451,-0.925939,1.178222\H,
 0,-1.487804,2.654641,2.335833\H,0,0.696115,3.338001,3.352246\H,0,0.362
 409,2.297406,4.755046\H,0,-0.196653,4.494423,5.033498\H,0,2.241764,-0.
 037033,1.942684\H,0,1.446118,-0.1665,0.381087\H,0,0.26926,0.288397,3.1
 80847\C,0,-2.164735,1.451242,3.961275\H,0,-1.784326,0.738396,4.700554\
 H,0,-2.682551,2.251417,4.500188\H,0,-2.923327,0.946919,3.355685\H,0,0.
 416933,1.954065,0.752846\\Version=ES64L-G09RevD.01\State=1-A\HF=-836.4
 572739\RMSD=7.224e-09\Dipole=0.8879656,-0.10001,-0.4588541\Quadrupole=
 -0.224507,-0.3473298,0.5718368,7.6609087,0.2055184,-1.8922537\PG=C01 [
 X(C13H19F2N1O1)]\\@


 WE MIGHT AS WELL ATTEMPT TO INTRODUCE A NEW PLANET 
 INTO THE SOLAR SYSTEM, OR TO ANNIHILATE ONE ALREADYIN EXISTENCE, 
 AS TO CREATE OR DESTROY A PARTICLE OF HYDROGEN.
 ALL THE CHANGES WE CAN PRODUCE CONSIST IN SEPARATING PARTICLES
 THAT ARE IN A STATE OF ... COMBINATION, AND JOINING 
 THOSE THAT WERE PREVIOUSLY AT A DISTANCE.

                                    -- JOHN DALTON, 1810
 Job cpu time:       0 days  0 hours 16 minutes 34.9 seconds.
 File lengths (MBytes):  RWF=    186 Int=      0 D2E=      0 Chk=     10 Scr=      1
 Normal termination of Gaussian 09 at Mon Mar  4 11:28:31 2019.
