 Entering Gaussian System, Link 0=/usr/local/Cluster-Apps/gaussian/g09/g09
 Initial command:
 /usr/local/Cluster-Apps/gaussian/g09/l1.exe "/home/ah809/rds/hpc-work/04Mar1111AT3/Gau-402756.inp" -scrdir="/home/ah809/rds/hpc-work/04Mar1111AT3/"
 Entering Link 1 = /usr/local/Cluster-Apps/gaussian/g09/l1.exe PID=    402761.
  
 Copyright (c) 1988,1990,1992,1993,1995,1998,2003,2009,2013,
            Gaussian, Inc.  All Rights Reserved.
  
 This is part of the Gaussian(R) 09 program.  It is based on
 the Gaussian(R) 03 system (copyright 2003, Gaussian, Inc.),
 the Gaussian(R) 98 system (copyright 1998, Gaussian, Inc.),
 the Gaussian(R) 94 system (copyright 1995, Gaussian, Inc.),
 the Gaussian 92(TM) system (copyright 1992, Gaussian, Inc.),
 the Gaussian 90(TM) system (copyright 1990, Gaussian, Inc.),
 the Gaussian 88(TM) system (copyright 1988, Gaussian, Inc.),
 the Gaussian 86(TM) system (copyright 1986, Carnegie Mellon
 University), and the Gaussian 82(TM) system (copyright 1983,
 Carnegie Mellon University). Gaussian is a federally registered
 trademark of Gaussian, Inc.
  
 This software contains proprietary and confidential information,
 including trade secrets, belonging to Gaussian, Inc.
  
 This software is provided under written license and may be
 used, copied, transmitted, or stored only in accord with that
 written license.
  
 The following legend is applicable only to US Government
 contracts under FAR:
  
                    RESTRICTED RIGHTS LEGEND
  
 Use, reproduction and disclosure by the US Government is
 subject to restrictions as set forth in subparagraphs (a)
 and (c) of the Commercial Computer Software - Restricted
 Rights clause in FAR 52.227-19.
  
 Gaussian, Inc.
 340 Quinnipiac St., Bldg. 40, Wallingford CT 06492
  
  
 ---------------------------------------------------------------
 Warning -- This program may not be used in any manner that
 competes with the business of Gaussian, Inc. or will provide
 assistance to any competitor of Gaussian, Inc.  The licensee
 of this program is prohibited from giving any competitor of
 Gaussian, Inc. access to this program.  By using this program,
 the user acknowledges that Gaussian, Inc. is engaged in the
 business of creating and licensing software in the field of
 computational chemistry and represents and warrants to the
 licensee that it is not a competitor of Gaussian, Inc. and that
 it will not use this program in any manner prohibited above.
 ---------------------------------------------------------------
  

 Cite this work as:
 Gaussian 09, Revision D.01,
 M. J. Frisch, G. W. Trucks, H. B. Schlegel, G. E. Scuseria, 
 M. A. Robb, J. R. Cheeseman, G. Scalmani, V. Barone, B. Mennucci, 
 G. A. Petersson, H. Nakatsuji, M. Caricato, X. Li, H. P. Hratchian, 
 A. F. Izmaylov, J. Bloino, G. Zheng, J. L. Sonnenberg, M. Hada, 
 M. Ehara, K. Toyota, R. Fukuda, J. Hasegawa, M. Ishida, T. Nakajima, 
 Y. Honda, O. Kitao, H. Nakai, T. Vreven, J. A. Montgomery, Jr., 
 J. E. Peralta, F. Ogliaro, M. Bearpark, J. J. Heyd, E. Brothers, 
 K. N. Kudin, V. N. Staroverov, T. Keith, R. Kobayashi, J. Normand, 
 K. Raghavachari, A. Rendell, J. C. Burant, S. S. Iyengar, J. Tomasi, 
 M. Cossi, N. Rega, J. M. Millam, M. Klene, J. E. Knox, J. B. Cross, 
 V. Bakken, C. Adamo, J. Jaramillo, R. Gomperts, R. E. Stratmann, 
 O. Yazyev, A. J. Austin, R. Cammi, C. Pomelli, J. W. Ochterski, 
 R. L. Martin, K. Morokuma, V. G. Zakrzewski, G. A. Voth, 
 P. Salvador, J. J. Dannenberg, S. Dapprich, A. D. Daniels, 
 O. Farkas, J. B. Foresman, J. V. Ortiz, J. Cioslowski, 
 and D. J. Fox, Gaussian, Inc., Wallingford CT, 2013.
 
 ******************************************
 Gaussian 09:  ES64L-G09RevD.01 24-Apr-2013
                 4-Mar-2019 
 ******************************************
 %nprocshared=8
 Will use up to    8 processors via shared memory.
 %mem=6000MB
 %chk=AT3_1ginp017.chk
 -------------------------------------------------------
 # mPW1PW91/6-311g(d) nmr=giao scrf=(solvent=chloroform)
 -------------------------------------------------------
 1/38=1/1;
 2/12=2,17=6,18=5,40=1/2;
 3/5=4,6=6,7=1,11=2,16=1,25=1,30=1,70=2201,72=7,74=-7/1,2,8,3;
 4//1;
 5/5=2,38=5,53=7/2;
 8/6=1,10=90,11=11/1;
 10/13=100,45=16/2;
 6/7=2,8=2,9=2,10=2,28=1/1;
 99/9=1/99;
 ------------
 AT3_1ginp017
 ------------
 Symbolic Z-matrix:
 Charge =  0 Multiplicity = 1
 C                    -1.88029   0.6213    0.47365 
 C                    -1.09982  -0.06111   1.59023 
 C                    -0.188     0.86743   2.42934 
 C                    -0.95515   1.99726   3.183 
 C                    -0.00355   2.78622   4.10627 
 O                    -0.68572   3.87642   4.72294 
 N                     0.86842   1.49412   1.61695 
 C                     1.89836   0.55785   1.16603 
 C                     5.13222   2.68273  -0.75505 
 C                     3.93909   2.45197  -1.43756 
 C                     2.90354   1.76231  -0.8081 
 C                     3.02864   1.28812   0.49934 
 C                     4.22993   1.5321    1.16604 
 C                     5.27657   2.22029   0.55222 
 H                     5.94396   3.22106  -1.23746 
 H                     3.80551   2.80619  -2.4553 
 H                     6.19752   2.39101   1.10193 
 F                     1.76329   1.55721  -1.48439 
 F                     4.40311   1.09353   2.42125 
 H                    -2.53545   1.40729   0.85899 
 H                    -1.21444   1.05902  -0.2756 
 H                    -2.51154  -0.11268  -0.03831 
 H                    -1.80779  -0.57326   2.25208 
 H                    -0.50137  -0.86727   1.14935 
 H                    -1.37859   2.70457   2.45714 
 H                     0.84923   3.20351   3.56233 
 H                     0.38747   2.14361   4.90226 
 H                    -0.9332    4.49195   4.01198 
 H                     2.2873   -0.01754   2.01485 
 H                     1.49053  -0.17047   0.45557 
 H                     0.28973   0.24357   3.1977 
 C                    -2.12968   1.45287   4.0117 
 H                    -1.79195   0.68486   4.71564 
 H                    -2.61509   2.24772   4.58752 
 H                    -2.90349   1.01724   3.37296 
 H                     0.4634    1.95786   0.80391 
 
                          Input orientation:                          
 ---------------------------------------------------------------------
 Center     Atomic      Atomic             Coordinates (Angstroms)
 Number     Number       Type             X           Y           Z
 ---------------------------------------------------------------------
      1          6           0       -1.880293    0.621302    0.473646
      2          6           0       -1.099819   -0.061108    1.590229
      3          6           0       -0.188004    0.867428    2.429344
      4          6           0       -0.955154    1.997259    3.182995
      5          6           0       -0.003553    2.786221    4.106273
      6          8           0       -0.685718    3.876419    4.722938
      7          7           0        0.868423    1.494115    1.616954
      8          6           0        1.898359    0.557848    1.166030
      9          6           0        5.132219    2.682729   -0.755051
     10          6           0        3.939094    2.451974   -1.437563
     11          6           0        2.903536    1.762312   -0.808103
     12          6           0        3.028636    1.288123    0.499340
     13          6           0        4.229931    1.532100    1.166045
     14          6           0        5.276572    2.220293    0.552219
     15          1           0        5.943964    3.221059   -1.237463
     16          1           0        3.805508    2.806193   -2.455297
     17          1           0        6.197518    2.391006    1.101930
     18          9           0        1.763289    1.557208   -1.484386
     19          9           0        4.403112    1.093530    2.421254
     20          1           0       -2.535453    1.407285    0.858986
     21          1           0       -1.214440    1.059017   -0.275599
     22          1           0       -2.511542   -0.112677   -0.038308
     23          1           0       -1.807786   -0.573259    2.252084
     24          1           0       -0.501369   -0.867265    1.149346
     25          1           0       -1.378587    2.704567    2.457143
     26          1           0        0.849233    3.203514    3.562325
     27          1           0        0.387469    2.143613    4.902263
     28          1           0       -0.933204    4.491955    4.011980
     29          1           0        2.287302   -0.017535    2.014855
     30          1           0        1.490534   -0.170468    0.455566
     31          1           0        0.289725    0.243570    3.197700
     32          6           0       -2.129676    1.452870    4.011700
     33          1           0       -1.791946    0.684858    4.715641
     34          1           0       -2.615092    2.247717    4.587520
     35          1           0       -2.903490    1.017241    3.372964
     36          1           0        0.463400    1.957856    0.803914
 ---------------------------------------------------------------------
                    Distance matrix (angstroms):
                    1          2          3          4          5
     1  C    0.000000
     2  C    1.523673   0.000000
     3  C    2.597917   1.548451   0.000000
     4  C    3.176431   2.606666   1.559816   0.000000
     5  C    4.626554   3.954688   2.554972   1.542870   0.000000
     6  O    5.484458   5.048709   3.816061   2.444435   1.426239
     7  N    3.102321   2.508667   1.472668   2.455824   2.937106
     8  C    3.842087   3.090651   2.458600   3.779231   4.150656
     9  C    7.411781   7.201894   6.460686   7.282457   7.072435
    10  C    6.392914   6.393258   5.873389   6.746109   6.811043
    11  C    5.082303   5.010360   4.565030   5.556397   5.800918
    12  C    4.954079   4.478237   3.774741   4.855457   4.944536
    13  C    6.216414   5.578932   4.642829   5.582971   5.304729
    14  C    7.333735   6.851322   5.934259   6.767949   6.389937
    15  H    8.420548   8.269422   7.522372   8.284683   8.007344
    16  H    6.758756   6.974950   6.600505   7.423518   7.587064
    17  H    8.293228   7.713782   6.697627   7.459664   6.901851
    18  F    4.240931   4.502176   4.427259   5.419227   5.990632
    19  F    6.595252   5.683840   4.596687   5.487075   5.012304
    20  H    1.093385   2.179894   2.875411   2.871660   4.342448
    21  H    1.093765   2.179250   2.899482   3.592965   4.863156
    22  H    1.095124   2.155865   3.528277   4.153428   5.645456
    23  H    2.143613   1.096161   2.175016   2.863763   4.240210
    24  H    2.138652   1.096544   2.178475   3.542195   4.726436
    25  H    2.919925   2.911737   2.189370   1.098381   2.148724
    26  H    4.863956   4.283191   2.795855   2.203351   1.094192
    27  H    5.203155   4.247633   2.841680   2.186307   1.095191
    28  H    5.329047   5.159750   4.024581   2.628917   1.944909
    29  H    4.489130   3.413912   2.661222   3.992176   4.181279
    30  H    3.462615   2.830079   2.791150   4.256677   4.929703
    31  H    3.503160   2.146538   1.098997   2.150666   2.715988
    32  C    3.643010   3.035829   2.572291   1.537079   2.511408
    33  H    4.243391   3.286899   2.798770   2.184404   2.825846
    34  H    4.484319   4.075595   3.528977   2.188793   2.709561
    35  H    3.099959   2.755759   2.878668   2.189186   3.475150
    36  H    2.718152   2.671734   2.062858   2.770176   3.436540
                    6          7          8          9         10
     6  O    0.000000
     7  N    4.211634   0.000000
     8  C    5.508354   1.463112   0.000000
     9  C    8.079706   5.021869   4.320130   0.000000
    10  C    7.833882   4.435830   3.811956   1.393778   0.000000
    11  C    6.924204   3.177187   2.521570   2.411848   1.394358
    12  C    6.191485   2.440904   1.501767   2.818419   2.436201
    13  C    6.504685   3.391828   2.526934   2.414266   2.776604
    14  C    7.462342   4.592687   3.814815   1.394145   2.408683
    15  H    8.939159   6.073808   5.407069   1.086945   2.156626
    16  H    8.534843   5.189532   4.669720   2.160149   1.085863
    17  H    7.918149   5.428528   4.674114   2.160635   3.399003
    18  F    7.064506   3.228479   2.835784   3.626075   2.353067
    19  F    6.240065   3.647108   2.852425   3.625750   4.117178
    20  H    4.944519   3.488327   4.524877   7.938833   6.948760
    21  H    5.762176   2.847698   3.466840   6.568592   5.463461
    22  H    6.474255   4.092168   4.620310   8.170379   7.081388
    23  H    5.211889   3.440860   4.024230   8.234561   7.469415
    24  H    5.941976   2.769676   2.791043   6.925785   6.117774
    25  H    2.643318   2.687037   4.124773   7.260114   6.596231
    26  H    2.038602   2.589765   3.720543   6.103681   5.925448
    27  H    2.046095   3.383256   4.330921   7.403276   7.273412
    28  H    0.972417   4.238992   5.620888   7.923840   7.589356
    29  H    5.597807   2.111073   1.096743   4.801808   4.554787
    30  H    6.270872   2.122894   1.096141   4.782070   4.056672
    31  H    4.058994   2.097025   2.610394   6.709954   6.299254
    32  C    2.909375   3.837331   5.012381   8.773231   8.217216
    33  H    3.377848   4.163451   5.121935   9.047874   8.592406
    34  H    2.528536   4.639726   5.910456   9.420888   8.905094
    35  H    3.862103   4.187876   5.304654   9.186238   8.486494
    36  H    4.512217   1.019869   2.037218   4.975307   4.165192
                   11         12         13         14         15
    11  C    0.000000
    12  C    1.396393   0.000000
    13  C    2.389473   1.395396   0.000000
    14  C    2.773359   2.434123   1.394937   0.000000
    15  H    3.399485   3.905363   3.401080   2.156364   0.000000
    16  H    2.148602   3.411443   3.862326   3.398891   2.495642
    17  H    3.859249   3.409000   2.147843   1.086033   2.495203
    18  F    1.341488   2.368265   3.620737   4.114681   4.506375
    19  F    3.622809   2.370824   1.340852   2.350706   4.504089
    20  H    5.699810   5.576973   6.773499   7.860205   8.921064
    21  H    4.211402   4.319342   5.651842   6.645832   7.539387
    22  H    5.781975   5.739763   7.042955   8.151453   9.167734
    23  H    6.084093   5.470634   6.485834   7.802666   9.309319
    24  H    4.726485   4.186782   5.304944   6.578311   7.997097
    25  H    5.466832   5.026223   5.873422   6.939337   8.218067
    26  H    5.039629   4.219052   4.468210   5.443234   6.999611
    27  H    6.251741   5.205128   5.394236   6.544623   8.350555
    28  H    6.738303   6.188647   6.596821   7.462688   8.744556
    29  H    3.393625   2.133332   2.625958   4.010351   5.868325
    30  H    2.707226   2.120180   3.302698   4.478746   5.848234
    31  H    5.018470   3.984203   4.616617   5.981191   7.778594
    32  C    6.975635   6.242756   6.967685   8.210326   9.791010
    33  H    7.329407   6.432661   7.041339   8.345992  10.085438
    34  H    7.733280   7.034607   7.685892   8.863564  10.398811
    35  H    7.194304   6.597061   7.484736   8.735980  10.217157
    36  H    2.931058   2.668659   3.807777   4.826888   5.983267
                   16         17         18         19         20
    16  H    0.000000
    17  H    4.306734   0.000000
    18  F    2.583271   5.200638   0.000000
    19  F    5.202989   2.577587   4.736844   0.000000
    20  H    7.290350   8.791559   4.898270   7.119186   0.000000
    21  H    5.744875   7.655645   3.252112   6.231460   1.775852
    22  H    7.366597   9.133252   4.811843   7.437528   1.765217
    23  H    8.067788   8.613630   5.590409   6.432889   2.528394
    24  H    6.710956   7.449407   4.235952   5.432900   3.065189
    25  H    7.142635   7.702746   5.169475   6.002064   2.361225
    26  H    6.716338   5.942884   5.386568   4.287672   4.689411
    27  H    8.139760   6.946971   6.559424   4.835646   5.043188
    28  H    8.192854   7.983080   6.789245   6.523494   4.692948
    29  H    5.500968   4.682338   3.872866   2.424103   5.159953
    30  H    4.763690   5.397651   2.612025   3.734264   4.342882
    31  H    7.133312   6.626142   5.081237   4.271446   3.847785
    32  C    8.881438   8.870683   6.735950   6.733199   3.179047
    33  H    9.340980   8.933162   7.200071   6.618910   3.993556
    34  H    9.546584   9.477973   7.517650   7.435055   3.822909
    35  H    9.065298   9.480146   6.757532   7.368718   2.570539
    36  H    4.744662   5.758172   2.662057   4.345593   3.049472
                   21         22         23         24         25
    21  H    0.000000
    22  H    1.763986   0.000000
    23  H    3.066849   2.439939   0.000000
    24  H    2.499900   2.453716   1.734703   0.000000
    25  H    3.194160   3.930360   3.312160   3.903566   0.000000
    26  H    4.856673   5.937718   4.800052   4.921162   2.536446
    27  H    5.527451   6.156651   4.384517   4.892832   3.067937
    28  H    5.499772   6.332347   5.433095   6.091173   2.410527
    29  H    4.320572   5.220482   4.139427   3.041025   4.587396
    30  H    3.059922   4.032848   3.777384   2.221381   4.528133
    31  H    3.871856   4.294852   2.441506   2.460800   3.064016
    32  C    4.401558   4.358821   2.702788   4.028335   2.132493
    33  H    5.038451   4.873798   2.766265   4.097943   3.057925
    34  H    5.198534   5.194273   3.750188   5.098233   2.505227
    35  H    4.020777   3.614846   2.233076   3.777039   2.451760
    36  H    2.188243   3.721119   3.696218   3.005231   2.585277
                   26         27         28         29         30
    26  H    0.000000
    27  H    1.769760   0.000000
    28  H    2.244850   2.837515   0.000000
    29  H    3.851995   4.076402   5.890303   0.000000
    30  H    4.631088   5.132722   6.345138   1.757729   0.000000
    31  H    3.034348   2.554457   4.495262   2.336153   3.022031
    32  C    3.484335   2.757943   3.266127   5.065489   5.327967
    33  H    3.827479   2.629191   3.965673   4.942455   5.445594
    34  H    3.737127   3.020807   2.862970   5.981926   6.306887
    35  H    4.347249   3.799721   4.045245   5.464389   5.406414
    36  H    3.051125   4.103259   4.320168   2.948757   2.388747
                   31         32         33         34         35
    31  H    0.000000
    32  C    2.824625   0.000000
    33  H    2.613854   1.095188   0.000000
    34  H    3.792910   1.094979   1.771020   0.000000
    35  H    3.290275   1.093867   1.774483   1.752824   0.000000
    36  H    2.949432   4.155592   4.691345   4.886390   4.338286
                   36
    36  H    0.000000
 Stoichiometry    C13H19F2NO
 Framework group  C1[X(C13H19F2NO)]
 Deg. of freedom   102
 Full point group                 C1      NOp   1
 Largest Abelian subgroup         C1      NOp   1
 Largest concise Abelian subgroup C1      NOp   1
                         Standard orientation:                         
 ---------------------------------------------------------------------
 Center     Atomic      Atomic             Coordinates (Angstroms)
 Number     Number       Type             X           Y           Z
 ---------------------------------------------------------------------
      1          6           0        2.271830    2.743694   -0.159880
      2          6           0        2.221822    1.776762    1.016607
      3          6           0        1.870029    0.311547    0.660115
      4          6           0        2.889595   -0.368721   -0.304638
      5          6           0        2.552528   -1.862061   -0.496390
      6          8           0        3.428450   -2.459847   -1.450102
      7          7           0        0.527113    0.188643    0.068319
      8          6           0       -0.559526    0.429088    1.018108
      9          6           0       -4.375569   -0.472312   -0.795401
     10          6           0       -3.721091    0.722139   -1.091309
     11          6           0       -2.491273    1.003375   -0.497433
     12          6           0       -1.890428    0.115347    0.397164
     13          6           0       -2.560573   -1.076012    0.677696
     14          6           0       -3.791439   -1.374135    0.092940
     15          1           0       -5.333686   -0.700432   -1.255209
     16          1           0       -4.157731    1.436671   -1.782603
     17          1           0       -4.284263   -2.310977    0.335669
     18          9           0       -1.878965    2.157390   -0.802255
     19          9           0       -2.029139   -1.960597    1.533835
     20          1           0        3.010240    2.436768   -0.905560
     21          1           0        1.298335    2.834066   -0.650249
     22          1           0        2.554434    3.741144    0.193002
     23          1           0        3.186594    1.804796    1.536219
     24          1           0        1.502502    2.162219    1.749008
     25          1           0        2.843938    0.113099   -1.290643
     26          1           0        1.530229   -2.012693   -0.856211
     27          1           0        2.661135   -2.409381    0.445995
     28          1           0        3.244132   -2.036302   -2.305808
     29          1           0       -0.422914   -0.185699    1.916006
     30          1           0       -0.571704    1.472755    1.352975
     31          1           0        1.890020   -0.263099    1.596693
     32          6           0        4.338993   -0.235621    0.189469
     33          1           0        4.447239   -0.634937    1.203504
     34          1           0        5.034507   -0.775657   -0.461376
     35          1           0        4.667041    0.807886    0.194178
     36          1           0        0.426114    0.828364   -0.719520
 ---------------------------------------------------------------------
 Rotational constants (GHZ):      0.6808998      0.2462836      0.2088842
 Standard basis: 6-311G(d) (5D, 7F)
 There are   380 symmetry adapted cartesian basis functions of A   symmetry.
 There are   363 symmetry adapted basis functions of A   symmetry.
   363 basis functions,   639 primitive gaussians,   380 cartesian basis functions
    65 alpha electrons       65 beta electrons
       nuclear repulsion energy      1256.6962216942 Hartrees.
 NAtoms=   36 NActive=   36 NUniq=   36 SFac= 1.00D+00 NAtFMM=   60 NAOKFM=F Big=F
 Integral buffers will be    131072 words long.
 Raffenetti 2 integral format.
 Two-electron integral symmetry is turned on.
 ------------------------------------------------------------------------------
 Polarizable Continuum Model (PCM)
 =================================
 Model                : PCM (using non-symmetric T matrix).
 Atomic radii         : UFF (Universal Force Field).
 Polarization charges : Total charges.
 Charge compensation  : None.
 Solution method      : On-the-fly selection.
 Cavity type          : Scaled VdW (van der Waals Surface) (Alpha=1.100).
 Cavity algorithm     : GePol (No added spheres)
                        Default sphere list used, NSphG=   36.
                        Lebedev-Laikov grids with approx.  5.0 points / Ang**2.
                        Smoothing algorithm: Karplus/York (Gamma=1.0000).
                        Polarization charges: spherical gaussians, with
                                              point-specific exponents (IZeta= 3).
                        Self-potential: point-specific (ISelfS= 7).
                        Self-field    : sphere-specific E.n sum rule (ISelfD= 2).
 Solvent              : Chloroform, Eps=   4.711300 Eps(inf)=   2.090627
 ------------------------------------------------------------------------------
 One-electron integrals computed using PRISM.
 NBasis=   363 RedAO= T EigKep=  2.47D-04  NBF=   363
 NBsUse=   363 1.00D-06 EigRej= -1.00D+00 NBFU=   363
 ExpMin= 1.03D-01 ExpMax= 1.14D+04 ExpMxC= 1.72D+03 IAcc=1 IRadAn=         1 AccDes= 0.00D+00
 Harris functional with IExCor=  908 and IRadAn=       1 diagonalized for initial guess.
 HarFok:  IExCor=  908 AccDes= 0.00D+00 IRadAn=         1 IDoV= 1 UseB2=F ITyADJ=14
 ICtDFT=  3500011 ScaDFX=  1.000000  1.000000  1.000000  1.000000
 FoFCou: FMM=F IPFlag=           0 FMFlag=      100000 FMFlg1=           0
         NFxFlg=           0 DoJE=T BraDBF=F KetDBF=T FulRan=T
         wScrn=  0.000000 ICntrl=     500 IOpCl=  0 I1Cent=   200000004 NGrid=           0
         NMat0=    1 NMatS0=      1 NMatT0=    0 NMatD0=    1 NMtDS0=    0 NMtDT0=    0
 Petite list used in FoFCou.
 Requested convergence on RMS density matrix=1.00D-08 within 128 cycles.
 Requested convergence on MAX density matrix=1.00D-06.
 Requested convergence on             energy=1.00D-06.
 No special actions if energy rises.
 Inv3:  Mode=1 IEnd=    19172352.
 Iteration    1 A*A^-1 deviation from unit magnitude is 6.99D-15 for   2526.
 Iteration    1 A*A^-1 deviation from orthogonality  is 3.48D-15 for   2479   1227.
 Iteration    1 A^-1*A deviation from unit magnitude is 6.99D-15 for   2526.
 Iteration    1 A^-1*A deviation from orthogonality  is 4.09D-13 for   2189   2166.
 Error on total polarization charges =  0.00942
 SCF Done:  E(RmPW1PW91) =  -836.457934468     A.U. after   12 cycles
            NFock= 12  Conv=0.75D-08     -V/T= 2.0037
 DoSCS=F DFT=T ScalE2(SS,OS)=  1.000000  1.000000
 Range of M.O.s used for correlation:     1   363
 NBasis=   363 NAE=    65 NBE=    65 NFC=     0 NFV=     0
 NROrb=    363 NOA=    65 NOB=    65 NVA=   298 NVB=   298

 **** Warning!!: The largest alpha MO coefficient is  0.10881680D+02

 NEqPCM:  Using equilibrium solvation (IEInf=0, Eps=   4.7113, EpsInf=   2.0906)
          Differentiating once with respect to magnetic field using GIAOs.
          Electric field/nuclear overlap derivatives assumed to be zero.
 FoFJK:  IHMeth= 1 ICntrl=    6127 DoSepK=F KAlg= 0 I1Cent=   0 FoldK=F
 IRaf=         1 NMat=   1 IRICut=       1 DoRegI=T DoRafI=F ISym2E= 0.
          There are     3 degrees of freedom in the 1st order CPHF.  IDoFFX=0 NUNeed=     3.
      3 vectors produced by pass  0 Test12= 6.46D-13 3.33D-08 XBig12= 4.06D+01 1.76D+00.
 AX will form     3 AO Fock derivatives at one time.
      3 vectors produced by pass  1 Test12= 6.46D-13 3.33D-08 XBig12= 1.18D-01 1.48D-01.
      3 vectors produced by pass  2 Test12= 6.46D-13 3.33D-08 XBig12= 5.89D-04 6.64D-03.
      3 vectors produced by pass  3 Test12= 6.46D-13 3.33D-08 XBig12= 1.46D-06 2.27D-04.
      3 vectors produced by pass  4 Test12= 6.46D-13 3.33D-08 XBig12= 3.30D-09 1.24D-05.
      3 vectors produced by pass  5 Test12= 6.46D-13 3.33D-08 XBig12= 1.40D-11 6.12D-07.
 InvSVY:  IOpt=1 It=  1 EMax= 4.44D-16
 Solved reduced A of dimension    18 with     3 vectors.
 Calculating GIAO nuclear magnetic shielding tensors.
 SCF GIAO Magnetic shielding tensor (ppm):
      1  C    Isotropic =   182.3068   Anisotropy =    11.2441
   XX=   177.2178   YX=     1.3020   ZX=    -2.3875
   XY=    -0.1366   YY=   183.4323   ZY=    -4.2802
   XZ=    -2.4537   YZ=    -4.3174   ZZ=   186.2703
   Eigenvalues:   176.5657   180.5518   189.8029
      2  C    Isotropic =   167.7827   Anisotropy =    21.2638
   XX=   156.6741   YX=     2.9214   ZX=     2.8564
   XY=     3.6084   YY=   179.1112   ZY=    -4.1195
   XZ=     6.8288   YZ=    -8.5629   ZZ=   167.5629
   Eigenvalues:   153.6594   167.7302   181.9586
      3  C    Isotropic =   124.4018   Anisotropy =    40.0577
   XX=   150.2578   YX=    -3.9298   ZX=     4.5919
   XY=    -4.3186   YY=   112.0308   ZY=    -2.0694
   XZ=     3.4974   YZ=     1.4261   ZZ=   110.9169
   Eigenvalues:   110.4968   111.6017   151.1070
      4  C    Isotropic =   143.6250   Anisotropy =    23.6639
   XX=   144.5163   YX=     2.7408   ZX=    -2.0463
   XY=   -12.6961   YY=   147.5649   ZY=    12.1532
   XZ=   -11.0537   YZ=    10.3201   ZZ=   138.7939
   Eigenvalues:   130.5303   140.9438   159.4009
      5  C    Isotropic =   118.0489   Anisotropy =    52.1644
   XX=   113.8263   YX=    -8.6465   ZX=   -28.7459
   XY=    -6.8864   YY=   121.5799   ZY=    15.3363
   XZ=   -24.6316   YZ=    17.3856   ZZ=   118.7405
   Eigenvalues:    88.4693   112.8522   152.8252
      6  O    Isotropic =   300.4680   Anisotropy =   116.5987
   XX=   246.4798   YX=    -6.8592   ZX=     9.4816
   XY=     1.3559   YY=   296.0717   ZY=   -54.2282
   XZ=    -6.5628   YZ=   -25.3749   ZZ=   358.8524
   Eigenvalues:   246.3208   276.8827   378.2005
      7  N    Isotropic =   210.8273   Anisotropy =    43.3327
   XX=   239.3761   YX=    -6.4615   ZX=    14.0803
   XY=    -3.7337   YY=   161.2674   ZY=   -10.2316
   XZ=   -14.8235   YZ=    -8.5398   ZZ=   231.8384
   Eigenvalues:   159.7136   233.0525   239.7158
      8  C    Isotropic =   147.5458   Anisotropy =    51.1050
   XX=   164.0934   YX=    -3.3242   ZX=   -19.1320
   XY=    -9.6741   YY=   123.3355   ZY=     4.9869
   XZ=   -21.6725   YZ=     4.2227   ZZ=   155.2085
   Eigenvalues:   122.2368   138.7849   181.6158
      9  C    Isotropic =    54.8948   Anisotropy =   185.4260
   XX=    -1.3078   YX=   -46.2539   ZX=   -84.4304
   XY=   -45.7021   YY=    62.1048   ZY=    39.6053
   XZ=   -83.4935   YZ=    39.2262   ZZ=   103.8875
   Eigenvalues:   -52.3204    38.4927   178.5122
     10  C    Isotropic =    71.1352   Anisotropy =   148.0009
   XX=    72.7427   YX=   -10.3990   ZX=   -54.2311
   XY=    -3.7951   YY=    46.4361   ZY=    69.8444
   XZ=   -59.2371   YZ=    66.2240   ZZ=    94.2267
   Eigenvalues:   -12.3932    55.9963   169.8024
     11  C    Isotropic =    19.5323   Anisotropy =    97.4549
   XX=    29.4801   YX=   -51.8091   ZX=    -4.7276
   XY=   -45.6555   YY=   -27.8882   ZY=    37.5531
   XZ=    -6.4622   YZ=    38.8894   ZZ=    57.0050
   Eigenvalues:   -63.7180    37.8127    84.5022
     12  C    Isotropic =    65.3805   Anisotropy =   141.8025
   XX=    52.4210   YX=   -29.6886   ZX=   -53.3256
   XY=   -29.6896   YY=    45.8025   ZY=    47.0912
   XZ=   -50.8374   YZ=    48.9401   ZZ=    97.9180
   Eigenvalues:    16.7935    19.4325   159.9155
     13  C    Isotropic =    19.8070   Anisotropy =    99.9473
   XX=    32.5876   YX=    18.5627   ZX=   -45.6044
   XY=    13.2946   YY=    -0.3542   ZY=    59.7098
   XZ=   -38.6633   YZ=    58.1135   ZZ=    27.1875
   Eigenvalues:   -63.3273    36.3097    86.4385
     14  C    Isotropic =    70.5372   Anisotropy =   148.9792
   XX=    68.6566   YX=   -45.3520   ZX=   -36.6471
   XY=   -52.4689   YY=    26.0308   ZY=    51.4870
   XZ=   -32.0956   YZ=    56.1265   ZZ=   116.9241
   Eigenvalues:   -12.8652    54.6201   169.8566
     15  H    Isotropic =    24.5387   Anisotropy =     3.1989
   XX=    24.9922   YX=     1.1020   ZX=     1.6454
   XY=     1.0457   YY=    25.4834   ZY=    -2.0296
   XZ=     1.6799   YZ=    -2.0405   ZZ=    23.1404
   Eigenvalues:    20.9875    25.9573    26.6713
     16  H    Isotropic =    25.2183   Anisotropy =     5.1135
   XX=    27.2833   YX=     1.3835   ZX=     2.5290
   XY=     1.5779   YY=    25.0744   ZY=    -1.1748
   XZ=     2.2712   YZ=    -1.2814   ZZ=    23.2970
   Eigenvalues:    21.3381    25.6894    28.6273
     17  H    Isotropic =    25.1875   Anisotropy =     4.8087
   XX=    27.0719   YX=     1.5062   ZX=     2.3857
   XY=     1.0626   YY=    24.8599   ZY=    -1.5577
   XZ=     2.4423   YZ=    -1.3396   ZZ=    23.6307
   Eigenvalues:    21.3690    25.8002    28.3933
     18  F    Isotropic =   306.4193   Anisotropy =   125.8997
   XX=   275.3597   YX=   -22.2584   ZX=   -56.2314
   XY=    -2.6941   YY=   322.7191   ZY=    37.1796
   XZ=   -56.9577   YZ=    55.2044   ZZ=   321.1793
   Eigenvalues:   233.9103   294.9952   390.3525
     19  F    Isotropic =   300.7302   Anisotropy =   125.8925
   XX=   268.8284   YX=   -48.3681   ZX=   -42.1681
   XY=   -50.9331   YY=   285.2601   ZY=    26.8155
   XZ=   -37.5924   YZ=    23.4473   ZZ=   348.1021
   Eigenvalues:   224.7836   292.7484   384.6585
     20  H    Isotropic =    31.4504   Anisotropy =     7.7746
   XX=    31.2025   YX=    -0.3147   ZX=    -4.5341
   XY=    -0.4288   YY=    31.1838   ZY=    -1.7408
   XZ=    -5.2254   YZ=    -1.4102   ZZ=    31.9648
   Eigenvalues:    26.3127    31.4050    36.6334
     21  H    Isotropic =    31.2226   Anisotropy =     8.3987
   XX=    34.0374   YX=    -0.3244   ZX=     3.4930
   XY=    -0.8671   YY=    30.7967   ZY=    -3.6189
   XZ=     3.8265   YZ=    -3.4731   ZZ=    28.8337
   Eigenvalues:    25.3060    31.5400    36.8218
     22  H    Isotropic =    31.1681   Anisotropy =    11.4991
   XX=    27.4572   YX=     2.6338   ZX=     0.5878
   XY=     2.8124   YY=    38.1550   ZY=     0.7446
   XZ=     0.3646   YZ=     0.1213   ZZ=    27.8921
   Eigenvalues:    26.6925    27.9776    38.8342
     23  H    Isotropic =    30.5475   Anisotropy =     8.0120
   XX=    31.9335   YX=     0.1676   ZX=     4.3997
   XY=     0.3556   YY=    29.6172   ZY=     1.0952
   XZ=     4.8604   YZ=     1.3645   ZZ=    30.0917
   Eigenvalues:    26.1110    29.6426    35.8888
     24  H    Isotropic =    30.0417   Anisotropy =     6.7348
   XX=    28.9690   YX=     0.6425   ZX=    -2.9194
   XY=     0.1269   YY=    29.6545   ZY=     2.5189
   XZ=    -3.5913   YZ=     2.6033   ZZ=    31.5015
   Eigenvalues:    25.8217    29.7718    34.5316
     25  H    Isotropic =    30.7891   Anisotropy =     2.4630
   XX=    30.0245   YX=    -1.7166   ZX=    -0.1774
   XY=    -1.4755   YY=    30.4833   ZY=    -0.7244
   XZ=    -0.0203   YZ=    -0.8276   ZZ=    31.8594
   Eigenvalues:    28.5366    31.3995    32.4311
     26  H    Isotropic =    27.5795   Anisotropy =     8.6801
   XX=    32.0572   YX=    -0.5249   ZX=    -0.7235
   XY=    -1.7004   YY=    27.3729   ZY=     4.1060
   XZ=    -3.2371   YZ=     4.4683   ZZ=    23.3083
   Eigenvalues:    20.4917    28.8804    33.3662
     27  H    Isotropic =    29.0329   Anisotropy =     4.4450
   XX=    26.8353   YX=    -0.5035   ZX=    -3.1575
   XY=    -0.9153   YY=    31.2740   ZY=    -0.7316
   XZ=    -2.5042   YZ=    -1.9527   ZZ=    28.9895
   Eigenvalues:    24.6086    30.4940    31.9962
     28  H    Isotropic =    32.5051   Anisotropy =    15.5066
   XX=    26.5568   YX=    -2.3124   ZX=    -0.8435
   XY=    -3.8486   YY=    28.4839   ZY=    -2.4217
   XZ=     0.1340   YZ=    -2.1700   ZZ=    42.4745
   Eigenvalues:    24.1416    30.5308    42.8428
     29  H    Isotropic =    28.8804   Anisotropy =     7.7008
   XX=    29.6688   YX=     2.8824   ZX=    -1.8477
   XY=     3.1294   YY=    26.4875   ZY=    -2.7167
   XZ=    -0.1037   YZ=    -4.4264   ZZ=    30.4849
   Eigenvalues:    23.5864    29.0405    34.0142
     30  H    Isotropic =    28.1235   Anisotropy =     5.1988
   XX=    29.8200   YX=    -1.7547   ZX=    -2.0778
   XY=     0.4152   YY=    29.0171   ZY=     2.3535
   XZ=     0.3561   YZ=     4.2256   ZZ=    25.5334
   Eigenvalues:    23.5281    29.2531    31.5894
     31  H    Isotropic =    29.6892   Anisotropy =     3.4320
   XX=    29.7750   YX=    -0.6797   ZX=     0.6304
   XY=    -0.1348   YY=    29.6423   ZY=    -2.2885
   XZ=    -0.4105   YZ=    -2.2514   ZZ=    29.6503
   Eigenvalues:    27.3578    29.7326    31.9772
     32  C    Isotropic =   172.8253   Anisotropy =    24.9135
   XX=   182.3792   YX=     2.4119   ZX=    11.2976
   XY=    -0.2684   YY=   165.4165   ZY=    -3.8448
   XZ=    11.5502   YZ=    -4.5694   ZZ=   170.6804
   Eigenvalues:   160.2967   168.7450   189.4343
     33  H    Isotropic =    31.7587   Anisotropy =     9.3700
   XX=    31.8514   YX=    -2.1504   ZX=     4.0914
   XY=    -1.5505   YY=    29.0313   ZY=    -2.1268
   XZ=     3.4211   YZ=    -2.2793   ZZ=    34.3934
   Eigenvalues:    28.0739    29.1968    38.0054
     34  H    Isotropic =    30.4275   Anisotropy =     9.1583
   XX=    34.8187   YX=    -2.0749   ZX=    -2.3350
   XY=    -1.5971   YY=    28.4523   ZY=     3.4111
   XZ=    -2.4615   YZ=     2.6932   ZZ=    28.0115
   Eigenvalues:    25.1408    29.6086    36.5330
     35  H    Isotropic =    31.2443   Anisotropy =     7.5421
   XX=    33.9790   YX=     2.6842   ZX=     0.5016
   XY=     1.9261   YY=    33.9151   ZY=     0.3206
   XZ=     0.1764   YZ=     0.2930   ZZ=    25.8389
   Eigenvalues:    25.8189    31.6417    36.2724
     36  H    Isotropic =    31.4674   Anisotropy =     8.4356
   XX=    34.6972   YX=    -0.9524   ZX=     1.8275
   XY=    -0.7856   YY=    27.4413   ZY=    -4.5619
   XZ=     0.3453   YZ=    -7.3709   ZZ=    32.2637
   Eigenvalues:    23.4161    33.8949    37.0911
 End of Minotr F.D. properties file   721 does not exist.
 End of Minotr F.D. properties file   722 does not exist.
 End of Minotr F.D. properties file   788 does not exist.

 **********************************************************************

            Population analysis using the SCF density.

 **********************************************************************

 Orbital symmetries:
       Occupied  (A) (A) (A) (A) (A) (A) (A) (A) (A) (A) (A) (A)
                 (A) (A) (A) (A) (A) (A) (A) (A) (A) (A) (A) (A)
                 (A) (A) (A) (A) (A) (A) (A) (A) (A) (A) (A) (A)
                 (A) (A) (A) (A) (A) (A) (A) (A) (A) (A) (A) (A)
                 (A) (A) (A) (A) (A) (A) (A) (A) (A) (A) (A) (A)
                 (A) (A) (A) (A) (A)
       Virtual   (A) (A) (A) (A) (A) (A) (A) (A) (A) (A) (A) (A)
                 (A) (A) (A) (A) (A) (A) (A) (A) (A) (A) (A) (A)
                 (A) (A) (A) (A) (A) (A) (A) (A) (A) (A) (A) (A)
                 (A) (A) (A) (A) (A) (A) (A) (A) (A) (A) (A) (A)
                 (A) (A) (A) (A) (A) (A) (A) (A) (A) (A) (A) (A)
                 (A) (A) (A) (A) (A) (A) (A) (A) (A) (A) (A) (A)
                 (A) (A) (A) (A) (A) (A) (A) (A) (A) (A) (A) (A)
                 (A) (A) (A) (A) (A) (A) (A) (A) (A) (A) (A) (A)
                 (A) (A) (A) (A) (A) (A) (A) (A) (A) (A) (A) (A)
                 (A) (A) (A) (A) (A) (A) (A) (A) (A) (A) (A) (A)
                 (A) (A) (A) (A) (A) (A) (A) (A) (A) (A) (A) (A)
                 (A) (A) (A) (A) (A) (A) (A) (A) (A) (A) (A) (A)
                 (A) (A) (A) (A) (A) (A) (A) (A) (A) (A) (A) (A)
                 (A) (A) (A) (A) (A) (A) (A) (A) (A) (A) (A) (A)
                 (A) (A) (A) (A) (A) (A) (A) (A) (A) (A) (A) (A)
                 (A) (A) (A) (A) (A) (A) (A) (A) (A) (A) (A) (A)
                 (A) (A) (A) (A) (A) (A) (A) (A) (A) (A) (A) (A)
                 (A) (A) (A) (A) (A) (A) (A) (A) (A) (A) (A) (A)
                 (A) (A) (A) (A) (A) (A) (A) (A) (A) (A) (A) (A)
                 (A) (A) (A) (A) (A) (A) (A) (A) (A) (A) (A) (A)
                 (A) (A) (A) (A) (A) (A) (A) (A) (A) (A) (A) (A)
                 (A) (A) (A) (A) (A) (A) (A) (A) (A) (A) (A) (A)
                 (A) (A) (A) (A) (A) (A) (A) (A) (A) (A) (A) (A)
                 (A) (A) (A) (A) (A) (A) (A) (A) (A) (A) (A) (A)
                 (A) (A) (A) (A) (A) (A) (A) (A) (A) (A)
 The electronic state is 1-A.
 Alpha  occ. eigenvalues --  -24.80658 -24.80194 -19.20140 -14.37803 -10.33761
 Alpha  occ. eigenvalues --  -10.33701 -10.26692 -10.26452 -10.26388 -10.26341
 Alpha  occ. eigenvalues --  -10.25950 -10.25202 -10.25142 -10.23548 -10.22557
 Alpha  occ. eigenvalues --  -10.21994 -10.21396  -1.27888  -1.27469  -1.04262
 Alpha  occ. eigenvalues --   -0.94312  -0.90418  -0.83057  -0.79872  -0.78599
 Alpha  occ. eigenvalues --   -0.77988  -0.71713  -0.69064  -0.67936  -0.66007
 Alpha  occ. eigenvalues --   -0.64081  -0.61865  -0.59080  -0.58052  -0.55719
 Alpha  occ. eigenvalues --   -0.52184  -0.51951  -0.51416  -0.50789  -0.49606
 Alpha  occ. eigenvalues --   -0.49243  -0.49064  -0.47849  -0.46987  -0.45157
 Alpha  occ. eigenvalues --   -0.44433  -0.43549  -0.42865  -0.41926  -0.41462
 Alpha  occ. eigenvalues --   -0.41025  -0.39352  -0.38491  -0.37850  -0.37579
 Alpha  occ. eigenvalues --   -0.37456  -0.36417  -0.35619  -0.34770  -0.33106
 Alpha  occ. eigenvalues --   -0.32253  -0.28071  -0.27435  -0.26748  -0.23565
 Alpha virt. eigenvalues --   -0.01967  -0.00899   0.04815   0.05442   0.06237
 Alpha virt. eigenvalues --    0.06899   0.08261   0.09311   0.10348   0.10618
 Alpha virt. eigenvalues --    0.11324   0.11644   0.12415   0.13014   0.13470
 Alpha virt. eigenvalues --    0.13682   0.14830   0.15098   0.15698   0.15961
 Alpha virt. eigenvalues --    0.17460   0.17806   0.18618   0.19464   0.20509
 Alpha virt. eigenvalues --    0.21729   0.22934   0.23566   0.23814   0.24868
 Alpha virt. eigenvalues --    0.25294   0.25821   0.26474   0.28746   0.30114
 Alpha virt. eigenvalues --    0.32494   0.32769   0.34003   0.34835   0.34959
 Alpha virt. eigenvalues --    0.35905   0.37330   0.38065   0.38753   0.39313
 Alpha virt. eigenvalues --    0.39690   0.40155   0.40996   0.41561   0.42169
 Alpha virt. eigenvalues --    0.42710   0.44128   0.44921   0.45799   0.46114
 Alpha virt. eigenvalues --    0.47092   0.48551   0.49623   0.50739   0.51084
 Alpha virt. eigenvalues --    0.52256   0.52707   0.54183   0.55237   0.55826
 Alpha virt. eigenvalues --    0.56703   0.56873   0.57755   0.58038   0.59118
 Alpha virt. eigenvalues --    0.60248   0.60523   0.60998   0.61517   0.62363
 Alpha virt. eigenvalues --    0.62737   0.63275   0.63615   0.64208   0.64781
 Alpha virt. eigenvalues --    0.65052   0.65506   0.66219   0.66751   0.67212
 Alpha virt. eigenvalues --    0.67641   0.68024   0.69189   0.70169   0.70700
 Alpha virt. eigenvalues --    0.71679   0.72920   0.74288   0.75315   0.77154
 Alpha virt. eigenvalues --    0.78680   0.79629   0.82390   0.82604   0.86305
 Alpha virt. eigenvalues --    0.88268   0.89135   0.90604   0.92820   0.93447
 Alpha virt. eigenvalues --    0.95473   0.97085   0.97954   0.98416   0.99203
 Alpha virt. eigenvalues --    1.00110   1.01521   1.04893   1.05728   1.07363
 Alpha virt. eigenvalues --    1.08136   1.09590   1.11068   1.13169   1.14900
 Alpha virt. eigenvalues --    1.15550   1.18685   1.20257   1.20724   1.23360
 Alpha virt. eigenvalues --    1.24064   1.26716   1.27346   1.28840   1.30859
 Alpha virt. eigenvalues --    1.33466   1.34189   1.36457   1.39284   1.42766
 Alpha virt. eigenvalues --    1.43972   1.46175   1.47413   1.49687   1.49977
 Alpha virt. eigenvalues --    1.51188   1.51817   1.53533   1.54225   1.55235
 Alpha virt. eigenvalues --    1.56128   1.56526   1.57842   1.58634   1.59923
 Alpha virt. eigenvalues --    1.61550   1.63520   1.64684   1.65734   1.66441
 Alpha virt. eigenvalues --    1.66836   1.68224   1.69903   1.71765   1.73630
 Alpha virt. eigenvalues --    1.75283   1.76776   1.78135   1.81698   1.83238
 Alpha virt. eigenvalues --    1.84445   1.84911   1.85688   1.88127   1.89259
 Alpha virt. eigenvalues --    1.89805   1.90166   1.92068   1.93843   1.95270
 Alpha virt. eigenvalues --    1.96138   1.99233   1.99406   1.99859   2.03348
 Alpha virt. eigenvalues --    2.08111   2.10614   2.15271   2.16703   2.18036
 Alpha virt. eigenvalues --    2.19368   2.21152   2.25773   2.26822   2.27534
 Alpha virt. eigenvalues --    2.29793   2.30928   2.34794   2.39283   2.40227
 Alpha virt. eigenvalues --    2.41372   2.42585   2.43802   2.45058   2.46595
 Alpha virt. eigenvalues --    2.48654   2.50133   2.51997   2.53996   2.54017
 Alpha virt. eigenvalues --    2.55039   2.57470   2.59251   2.62186   2.66218
 Alpha virt. eigenvalues --    2.67227   2.67439   2.70374   2.72394   2.73549
 Alpha virt. eigenvalues --    2.77543   2.83457   2.84544   2.84888   2.88650
 Alpha virt. eigenvalues --    2.90995   2.94285   2.95958   2.99415   3.04248
 Alpha virt. eigenvalues --    3.06443   3.07535   3.07862   3.09318   3.10486
 Alpha virt. eigenvalues --    3.13773   3.16291   3.16884   3.20891   3.22309
 Alpha virt. eigenvalues --    3.23574   3.25410   3.26981   3.28458   3.28794
 Alpha virt. eigenvalues --    3.30154   3.31797   3.34478   3.35445   3.40248
 Alpha virt. eigenvalues --    3.47437   3.48118   3.52208   3.61196   3.64770
 Alpha virt. eigenvalues --    3.75594   3.79192   3.79712   3.79972   3.80721
 Alpha virt. eigenvalues --    3.85218   3.87237   3.95972   3.96433   3.99683
 Alpha virt. eigenvalues --    4.00408   4.03347   4.06455   4.11083   4.12709
 Alpha virt. eigenvalues --    4.19131   4.21111   4.49022   4.75435   4.77342
 Alpha virt. eigenvalues --    4.80350   4.81116   4.94425   5.05226   5.39925
 Alpha virt. eigenvalues --    6.12649   6.14610   6.30779   6.32551   6.56525
 Alpha virt. eigenvalues --    6.59508  23.30212  23.47623  23.58632  23.70370
 Alpha virt. eigenvalues --   23.73910  23.79440  23.80707  23.82914  23.86938
 Alpha virt. eigenvalues --   23.89923  24.08794  24.11206  24.19438  35.58585
 Alpha virt. eigenvalues --   49.96754  66.89090  66.89503
          Condensed to atoms (all electrons):
               1          2          3          4          5          6
     1  C    5.383330   0.279467  -0.077712  -0.000107  -0.000353  -0.000001
     2  C    0.279467   5.421424   0.319093  -0.076336   0.007387  -0.000102
     3  C   -0.077712   0.319093   5.276200   0.280338  -0.070283   0.005573
     4  C   -0.000107  -0.076336   0.280338   5.457570   0.329766  -0.051477
     5  C   -0.000353   0.007387  -0.070283   0.329766   5.130742   0.230713
     6  O   -0.000001  -0.000102   0.005573  -0.051477   0.230713   8.193022
     7  N    0.000979  -0.077600   0.296812  -0.075487  -0.010711   0.000038
     8  C   -0.000633  -0.009228  -0.082992   0.009270   0.000062   0.000003
     9  C    0.000000   0.000000  -0.000001   0.000000   0.000000   0.000000
    10  C   -0.000003  -0.000003   0.000025   0.000000   0.000000   0.000000
    11  C   -0.000048  -0.000242   0.000020   0.000045   0.000016   0.000000
    12  C   -0.000018   0.000247   0.009231  -0.000224  -0.000014   0.000000
    13  C   -0.000002   0.000088  -0.000404  -0.000064  -0.000057   0.000000
    14  C    0.000000   0.000000   0.000006   0.000000   0.000001   0.000000
    15  H    0.000000   0.000000   0.000000   0.000000   0.000000   0.000000
    16  H    0.000000   0.000000  -0.000001   0.000000   0.000000   0.000000
    17  H    0.000000   0.000000   0.000000   0.000000   0.000000   0.000000
    18  F   -0.000318  -0.000092   0.000081   0.000000   0.000000   0.000000
    19  F    0.000000   0.000002  -0.000060  -0.000001  -0.000001   0.000000
    20  H    0.386611  -0.038291  -0.008414   0.004721   0.000252  -0.000041
    21  H    0.379707  -0.046288  -0.003279  -0.000275  -0.000101   0.000002
    22  H    0.393464  -0.035793   0.007286  -0.000171   0.000010   0.000000
    23  H   -0.040558   0.387352  -0.036566  -0.005174  -0.000429  -0.000005
    24  H   -0.045720   0.407429  -0.041434   0.006402  -0.000087   0.000004
    25  H    0.004030  -0.010378  -0.030076   0.388108  -0.046481   0.002637
    26  H   -0.000116   0.001312  -0.002555  -0.053639   0.392527  -0.032311
    27  H   -0.000001  -0.000376  -0.002512  -0.039295   0.372874  -0.026636
    28  H   -0.000007   0.000013  -0.000580  -0.000922  -0.055089   0.260720
    29  H    0.000118  -0.002171  -0.005024   0.000913   0.000149  -0.000002
    30  H    0.000502   0.006838  -0.002921  -0.001102  -0.000029   0.000001
    31  H    0.007983  -0.060751   0.404931  -0.035273  -0.009027  -0.000020
    32  C   -0.003676   0.001279  -0.069101   0.291440  -0.078207  -0.012304
    33  H    0.000396  -0.002112  -0.003777  -0.040832  -0.003704  -0.000666
    34  H   -0.000084  -0.000216   0.009152  -0.034845  -0.015134   0.025809
    35  H   -0.000109   0.000300  -0.007899  -0.033991   0.007477  -0.000142
    36  H    0.006109  -0.006154  -0.045895  -0.005037   0.000435  -0.000085
               7          8          9         10         11         12
     1  C    0.000979  -0.000633   0.000000  -0.000003  -0.000048  -0.000018
     2  C   -0.077600  -0.009228   0.000000  -0.000003  -0.000242   0.000247
     3  C    0.296812  -0.082992  -0.000001   0.000025   0.000020   0.009231
     4  C   -0.075487   0.009270   0.000000   0.000000   0.000045  -0.000224
     5  C   -0.010711   0.000062   0.000000   0.000000   0.000016  -0.000014
     6  O    0.000038   0.000003   0.000000   0.000000   0.000000   0.000000
     7  N    6.942538   0.283244   0.000066  -0.000358  -0.008916  -0.074684
     8  C    0.283244   5.298421  -0.001414   0.009903  -0.081952   0.290463
     9  C    0.000066  -0.001414   5.062978   0.435615  -0.006667  -0.058432
    10  C   -0.000358   0.009903   0.435615   5.199079   0.481133  -0.039037
    11  C   -0.008916  -0.081952  -0.006667   0.481133   4.798769   0.241522
    12  C   -0.074684   0.290463  -0.058432  -0.039037   0.241522   5.763851
    13  C    0.015288  -0.072432  -0.002715  -0.067226   0.032630   0.272449
    14  C   -0.000131   0.010248   0.431190  -0.035674  -0.063107  -0.031403
    15  H    0.000000   0.000030   0.404874  -0.041157   0.006284  -0.001983
    16  H    0.000014  -0.000332  -0.040760   0.392041  -0.049813   0.012232
    17  H    0.000010  -0.000301  -0.041226   0.007104  -0.001312   0.012043
    18  F   -0.001574   0.003300   0.005564  -0.056684   0.318203  -0.083821
    19  F   -0.000389  -0.003237   0.005699  -0.000556   0.005193  -0.076103
    20  H    0.000215   0.000054   0.000000   0.000000   0.000008   0.000003
    21  H    0.005700   0.002543  -0.000003   0.000070   0.000387  -0.000624
    22  H    0.000041  -0.000095   0.000000   0.000000   0.000001   0.000000
    23  H    0.006064   0.000430   0.000000   0.000000   0.000010   0.000019
    24  H   -0.004391   0.002719   0.000000  -0.000001   0.000088   0.000338
    25  H   -0.002128  -0.000380   0.000000   0.000000  -0.000021   0.000086
    26  H    0.027382  -0.001169  -0.000002  -0.000009  -0.000184  -0.000342
    27  H    0.000372   0.000022   0.000000   0.000000  -0.000003  -0.000030
    28  H   -0.000074  -0.000002   0.000000   0.000000   0.000000   0.000000
    29  H   -0.036258   0.387478  -0.000290   0.000122   0.009837  -0.029152
    30  H   -0.052217   0.377533  -0.000106  -0.000477  -0.028152  -0.042530
    31  H   -0.034739  -0.008169   0.000001   0.000002   0.000023   0.000227
    32  C    0.004800  -0.000314   0.000000   0.000000   0.000000   0.000004
    33  H   -0.000023  -0.000018   0.000000   0.000000   0.000000   0.000001
    34  H   -0.000202   0.000021   0.000000   0.000000   0.000000   0.000000
    35  H   -0.000084  -0.000016   0.000000   0.000000   0.000000   0.000000
    36  H    0.332460  -0.046359  -0.000020  -0.000063   0.004847  -0.013740
              13         14         15         16         17         18
     1  C   -0.000002   0.000000   0.000000   0.000000   0.000000  -0.000318
     2  C    0.000088   0.000000   0.000000   0.000000   0.000000  -0.000092
     3  C   -0.000404   0.000006   0.000000  -0.000001   0.000000   0.000081
     4  C   -0.000064   0.000000   0.000000   0.000000   0.000000   0.000000
     5  C   -0.000057   0.000001   0.000000   0.000000   0.000000   0.000000
     6  O    0.000000   0.000000   0.000000   0.000000   0.000000   0.000000
     7  N    0.015288  -0.000131   0.000000   0.000014   0.000010  -0.001574
     8  C   -0.072432   0.010248   0.000030  -0.000332  -0.000301   0.003300
     9  C   -0.002715   0.431190   0.404874  -0.040760  -0.041226   0.005564
    10  C   -0.067226  -0.035674  -0.041157   0.392041   0.007104  -0.056684
    11  C    0.032630  -0.063107   0.006284  -0.049813  -0.001312   0.318203
    12  C    0.272449  -0.031403  -0.001983   0.012232   0.012043  -0.083821
    13  C    4.748760   0.470357   0.006064  -0.001259  -0.048509   0.004778
    14  C    0.470357   5.202620  -0.040664   0.007042   0.391834  -0.000591
    15  H    0.006064  -0.040664   0.446812  -0.006660  -0.006594  -0.000071
    16  H   -0.001259   0.007042  -0.006660   0.451887  -0.000180   0.001557
    17  H   -0.048509   0.391834  -0.006594  -0.000180   0.451339   0.000004
    18  F    0.004778  -0.000591  -0.000071   0.001557   0.000004   9.031098
    19  F    0.320054  -0.055506  -0.000072   0.000004   0.001405  -0.000001
    20  H   -0.000001   0.000000   0.000000   0.000000   0.000000  -0.000007
    21  H   -0.000060   0.000001   0.000000   0.000001   0.000000   0.003168
    22  H    0.000000   0.000000   0.000000   0.000000   0.000000  -0.000015
    23  H   -0.000004   0.000000   0.000000   0.000000   0.000000  -0.000002
    24  H   -0.000029   0.000000   0.000000   0.000000   0.000000  -0.000137
    25  H    0.000008   0.000000   0.000000   0.000000   0.000000  -0.000015
    26  H    0.000702   0.000000   0.000000   0.000000   0.000001  -0.000002
    27  H    0.000012   0.000000   0.000000   0.000000   0.000000   0.000000
    28  H    0.000000   0.000000   0.000000   0.000000   0.000000   0.000000
    29  H   -0.021116   0.001314   0.000004   0.000008  -0.000054   0.000174
    30  H    0.013069  -0.000146   0.000003  -0.000023   0.000017   0.006838
    31  H   -0.000041  -0.000006   0.000000   0.000000   0.000000  -0.000004
    32  C    0.000000   0.000000   0.000000   0.000000   0.000000   0.000000
    33  H    0.000000   0.000000   0.000000   0.000000   0.000000   0.000000
    34  H    0.000000   0.000000   0.000000   0.000000   0.000000   0.000000
    35  H    0.000000   0.000000   0.000000   0.000000   0.000000   0.000000
    36  H   -0.000109  -0.000003   0.000001   0.000005   0.000000   0.005302
              19         20         21         22         23         24
     1  C    0.000000   0.386611   0.379707   0.393464  -0.040558  -0.045720
     2  C    0.000002  -0.038291  -0.046288  -0.035793   0.387352   0.407429
     3  C   -0.000060  -0.008414  -0.003279   0.007286  -0.036566  -0.041434
     4  C   -0.000001   0.004721  -0.000275  -0.000171  -0.005174   0.006402
     5  C   -0.000001   0.000252  -0.000101   0.000010  -0.000429  -0.000087
     6  O    0.000000  -0.000041   0.000002   0.000000  -0.000005   0.000004
     7  N   -0.000389   0.000215   0.005700   0.000041   0.006064  -0.004391
     8  C   -0.003237   0.000054   0.002543  -0.000095   0.000430   0.002719
     9  C    0.005699   0.000000  -0.000003   0.000000   0.000000   0.000000
    10  C   -0.000556   0.000000   0.000070   0.000000   0.000000  -0.000001
    11  C    0.005193   0.000008   0.000387   0.000001   0.000010   0.000088
    12  C   -0.076103   0.000003  -0.000624   0.000000   0.000019   0.000338
    13  C    0.320054  -0.000001  -0.000060   0.000000  -0.000004  -0.000029
    14  C   -0.055506   0.000000   0.000001   0.000000   0.000000   0.000000
    15  H   -0.000072   0.000000   0.000000   0.000000   0.000000   0.000000
    16  H    0.000004   0.000000   0.000001   0.000000   0.000000   0.000000
    17  H    0.001405   0.000000   0.000000   0.000000   0.000000   0.000000
    18  F   -0.000001  -0.000007   0.003168  -0.000015  -0.000002  -0.000137
    19  F    9.025424   0.000000   0.000000   0.000000   0.000000   0.000000
    20  H    0.000000   0.476317  -0.027520  -0.027360  -0.005107   0.006965
    21  H    0.000000  -0.027520   0.492766  -0.027100   0.008392  -0.005901
    22  H    0.000000  -0.027360  -0.027100   0.467369  -0.005206  -0.004705
    23  H    0.000000  -0.005107   0.008392  -0.005206   0.491940  -0.033694
    24  H    0.000000   0.006965  -0.005901  -0.004705  -0.033694   0.485862
    25  H    0.000000  -0.000890  -0.000207   0.000083  -0.000023  -0.000212
    26  H    0.000108  -0.000007  -0.000115   0.000000  -0.000107  -0.000008
    27  H    0.000011  -0.000028   0.000001   0.000001  -0.000045  -0.000006
    28  H    0.000000  -0.000031   0.000003   0.000001   0.000002  -0.000002
    29  H    0.012969   0.000006   0.000193   0.000005   0.000133   0.000484
    30  H    0.000021  -0.000122  -0.002352  -0.000018  -0.000735  -0.000423
    31  H   -0.000170  -0.000231  -0.000003  -0.000188  -0.001473  -0.005281
    32  C    0.000000   0.000151   0.000039  -0.000016   0.000347   0.000079
    33  H    0.000000  -0.000109  -0.000007   0.000010   0.000403  -0.000205
    34  H    0.000000   0.000027   0.000028  -0.000005   0.000437   0.000016
    35  H    0.000000   0.002518  -0.000079   0.000004  -0.001811   0.000427
    36  H   -0.000028  -0.000400   0.003662   0.000065  -0.000104  -0.000607
              25         26         27         28         29         30
     1  C    0.004030  -0.000116  -0.000001  -0.000007   0.000118   0.000502
     2  C   -0.010378   0.001312  -0.000376   0.000013  -0.002171   0.006838
     3  C   -0.030076  -0.002555  -0.002512  -0.000580  -0.005024  -0.002921
     4  C    0.388108  -0.053639  -0.039295  -0.000922   0.000913  -0.001102
     5  C   -0.046481   0.392527   0.372874  -0.055089   0.000149  -0.000029
     6  O    0.002637  -0.032311  -0.026636   0.260720  -0.000002   0.000001
     7  N   -0.002128   0.027382   0.000372  -0.000074  -0.036258  -0.052217
     8  C   -0.000380  -0.001169   0.000022  -0.000002   0.387478   0.377533
     9  C    0.000000  -0.000002   0.000000   0.000000  -0.000290  -0.000106
    10  C    0.000000  -0.000009   0.000000   0.000000   0.000122  -0.000477
    11  C   -0.000021  -0.000184  -0.000003   0.000000   0.009837  -0.028152
    12  C    0.000086  -0.000342  -0.000030   0.000000  -0.029152  -0.042530
    13  C    0.000008   0.000702   0.000012   0.000000  -0.021116   0.013069
    14  C    0.000000   0.000000   0.000000   0.000000   0.001314  -0.000146
    15  H    0.000000   0.000000   0.000000   0.000000   0.000004   0.000003
    16  H    0.000000   0.000000   0.000000   0.000000   0.000008  -0.000023
    17  H    0.000000   0.000001   0.000000   0.000000  -0.000054   0.000017
    18  F   -0.000015  -0.000002   0.000000   0.000000   0.000174   0.006838
    19  F    0.000000   0.000108   0.000011   0.000000   0.012969   0.000021
    20  H   -0.000890  -0.000007  -0.000028  -0.000031   0.000006  -0.000122
    21  H   -0.000207  -0.000115   0.000001   0.000003   0.000193  -0.002352
    22  H    0.000083   0.000000   0.000001   0.000001   0.000005  -0.000018
    23  H   -0.000023  -0.000107  -0.000045   0.000002   0.000133  -0.000735
    24  H   -0.000212  -0.000008  -0.000006  -0.000002   0.000484  -0.000423
    25  H    0.524570  -0.007234   0.008652   0.007992  -0.000040   0.000063
    26  H   -0.007234   0.484904  -0.035249  -0.006238  -0.000478   0.000424
    27  H    0.008652  -0.035249   0.499193   0.007955  -0.000101   0.000021
    28  H    0.007992  -0.006238   0.007955   0.388073  -0.000001   0.000000
    29  H   -0.000040  -0.000478  -0.000101  -0.000001   0.465375  -0.044770
    30  H    0.000063   0.000424   0.000021   0.000000  -0.044770   0.547363
    31  H    0.007529  -0.001639   0.005290   0.000060   0.005244  -0.001491
    32  C   -0.056123   0.008647  -0.008734  -0.000024  -0.000045   0.000061
    33  H    0.008284  -0.000310   0.004551   0.000085  -0.000017   0.000001
    34  H   -0.005111   0.001055  -0.001664  -0.001261   0.000005  -0.000003
    35  H   -0.006243  -0.000281  -0.000077  -0.000030   0.000002  -0.000002
    36  H    0.002383  -0.000125  -0.000043  -0.000021   0.006470  -0.005020
              31         32         33         34         35         36
     1  C    0.007983  -0.003676   0.000396  -0.000084  -0.000109   0.006109
     2  C   -0.060751   0.001279  -0.002112  -0.000216   0.000300  -0.006154
     3  C    0.404931  -0.069101  -0.003777   0.009152  -0.007899  -0.045895
     4  C   -0.035273   0.291440  -0.040832  -0.034845  -0.033991  -0.005037
     5  C   -0.009027  -0.078207  -0.003704  -0.015134   0.007477   0.000435
     6  O   -0.000020  -0.012304  -0.000666   0.025809  -0.000142  -0.000085
     7  N   -0.034739   0.004800  -0.000023  -0.000202  -0.000084   0.332460
     8  C   -0.008169  -0.000314  -0.000018   0.000021  -0.000016  -0.046359
     9  C    0.000001   0.000000   0.000000   0.000000   0.000000  -0.000020
    10  C    0.000002   0.000000   0.000000   0.000000   0.000000  -0.000063
    11  C    0.000023   0.000000   0.000000   0.000000   0.000000   0.004847
    12  C    0.000227   0.000004   0.000001   0.000000   0.000000  -0.013740
    13  C   -0.000041   0.000000   0.000000   0.000000   0.000000  -0.000109
    14  C   -0.000006   0.000000   0.000000   0.000000   0.000000  -0.000003
    15  H    0.000000   0.000000   0.000000   0.000000   0.000000   0.000001
    16  H    0.000000   0.000000   0.000000   0.000000   0.000000   0.000005
    17  H    0.000000   0.000000   0.000000   0.000000   0.000000   0.000000
    18  F   -0.000004   0.000000   0.000000   0.000000   0.000000   0.005302
    19  F   -0.000170   0.000000   0.000000   0.000000   0.000000  -0.000028
    20  H   -0.000231   0.000151  -0.000109   0.000027   0.002518  -0.000400
    21  H   -0.000003   0.000039  -0.000007   0.000028  -0.000079   0.003662
    22  H   -0.000188  -0.000016   0.000010  -0.000005   0.000004   0.000065
    23  H   -0.001473   0.000347   0.000403   0.000437  -0.001811  -0.000104
    24  H   -0.005281   0.000079  -0.000205   0.000016   0.000427  -0.000607
    25  H    0.007529  -0.056123   0.008284  -0.005111  -0.006243   0.002383
    26  H   -0.001639   0.008647  -0.000310   0.001055  -0.000281  -0.000125
    27  H    0.005290  -0.008734   0.004551  -0.001664  -0.000077  -0.000043
    28  H    0.000060  -0.000024   0.000085  -0.001261  -0.000030  -0.000021
    29  H    0.005244  -0.000045  -0.000017   0.000005   0.000002   0.006470
    30  H   -0.001491   0.000061   0.000001  -0.000003  -0.000002  -0.005020
    31  H    0.484765  -0.003302   0.004897  -0.000304  -0.000372   0.007031
    32  C   -0.003302   5.438419   0.381161   0.379698   0.388268   0.000182
    33  H    0.004897   0.381161   0.485076  -0.026258  -0.027385   0.000006
    34  H   -0.000304   0.379698  -0.026258   0.463130  -0.029152  -0.000003
    35  H   -0.000372   0.388268  -0.027385  -0.029152   0.476325   0.000011
    36  H    0.007031   0.000182   0.000006  -0.000003   0.000011   0.426239
 Mulliken charges:
               1
     1  C   -0.673230
     2  C   -0.466098
     3  C   -0.117262
     4  C   -0.314321
     5  C   -0.182703
     6  O   -0.594726
     7  N   -0.536056
     8  C   -0.366702
     9  C   -0.194351
    10  C   -0.283847
    11  C    0.341399
    12  C   -0.150579
    13  C    0.329770
    14  C   -0.287383
    15  H    0.233129
    16  H    0.234236
    17  H    0.234420
    18  F   -0.236737
    19  F   -0.234766
    20  H    0.230712
    21  H    0.217247
    22  H    0.232332
    23  H    0.235518
    24  H    0.232029
    25  H    0.211140
    26  H    0.225057
    27  H    0.215846
    28  H    0.399378
    29  H    0.248516
    30  H    0.229888
    31  H    0.234503
    32  C   -0.662728
    33  H    0.220554
    34  H    0.234865
    35  H    0.232341
    36  H    0.328607
 Sum of Mulliken charges =   0.00000
 Mulliken charges with hydrogens summed into heavy atoms:
               1
     1  C    0.007062
     2  C    0.001449
     3  C    0.117241
     4  C   -0.103181
     5  C    0.258200
     6  O   -0.195349
     7  N   -0.207449
     8  C    0.111703
     9  C    0.038778
    10  C   -0.049611
    11  C    0.341399
    12  C   -0.150579
    13  C    0.329770
    14  C   -0.052963
    18  F   -0.236737
    19  F   -0.234766
    32  C    0.025033
 Electronic spatial extent (au):  <R**2>=           5357.8504
 Charge=              0.0000 electrons
 Dipole moment (field-independent basis, Debye):
    X=             -2.3557    Y=              2.4028    Z=             -0.6738  Tot=              3.4317
 Quadrupole moment (field-independent basis, Debye-Ang):
   XX=            -97.3329   YY=           -110.3463   ZZ=            -96.7423
   XY=             11.1345   XZ=              5.1189   YZ=             -0.9205
 Traceless Quadrupole moment (field-independent basis, Debye-Ang):
   XX=              4.1409   YY=             -8.8725   ZZ=              4.7315
   XY=             11.1345   XZ=              5.1189   YZ=             -0.9205
 Octapole moment (field-independent basis, Debye-Ang**2):
  XXX=           -115.8498  YYY=             13.4652  ZZZ=            -16.2191  XYY=            -33.0158
  XXY=             18.0278  XXZ=            -23.6721  XZZ=              9.9124  YZZ=             -3.0667
  YYZ=              9.3845  XYZ=             -5.8358
 Hexadecapole moment (field-independent basis, Debye-Ang**3):
 XXXX=          -4858.7680 YYYY=          -1513.8739 ZZZZ=           -512.9615 XXXY=            200.1951
 XXXZ=            131.3799 YYYX=             89.7773 YYYZ=            -42.4241 ZZZX=            -67.0816
 ZZZY=             -0.2408 XXYY=          -1144.9783 XXZZ=           -874.3808 YYZZ=           -335.1062
 XXYZ=            -56.1508 YYXZ=             36.5437 ZZXY=            -43.6031
 N-N= 1.256696221694D+03 E-N=-4.471407058804D+03  KE= 8.333366442297D+02
 1\1\GINC-CPU-E-804\SP\RmPW1PW91\6-311G(d)\C13H19F2N1O1\AH809\04-Mar-20
 19\0\\# mPW1PW91/6-311g(d) nmr=giao scrf=(solvent=chloroform)\\AT3_1gi
 np017\\0,1\C,0,-1.880293,0.621302,0.473646\C,0,-1.099819,-0.061108,1.5
 90229\C,0,-0.188004,0.867428,2.429344\C,0,-0.955154,1.997259,3.182995\
 C,0,-0.003553,2.786221,4.106273\O,0,-0.685718,3.876419,4.722938\N,0,0.
 868423,1.494115,1.616954\C,0,1.898359,0.557848,1.16603\C,0,5.132219,2.
 682729,-0.755051\C,0,3.939094,2.451974,-1.437563\C,0,2.903536,1.762312
 ,-0.808103\C,0,3.028636,1.288123,0.49934\C,0,4.229931,1.5321,1.166045\
 C,0,5.276572,2.220293,0.552219\H,0,5.943964,3.221059,-1.237463\H,0,3.8
 05508,2.806193,-2.455297\H,0,6.197518,2.391006,1.10193\F,0,1.763289,1.
 557208,-1.484386\F,0,4.403112,1.09353,2.421254\H,0,-2.535453,1.407285,
 0.858986\H,0,-1.21444,1.059017,-0.275599\H,0,-2.511542,-0.112677,-0.03
 8308\H,0,-1.807786,-0.573259,2.252084\H,0,-0.501369,-0.867265,1.149346
 \H,0,-1.378587,2.704567,2.457143\H,0,0.849233,3.203514,3.562325\H,0,0.
 387469,2.143613,4.902263\H,0,-0.933204,4.491955,4.01198\H,0,2.287302,-
 0.017535,2.014855\H,0,1.490534,-0.170468,0.455566\H,0,0.289725,0.24357
 ,3.1977\C,0,-2.129676,1.45287,4.0117\H,0,-1.791946,0.684858,4.715641\H
 ,0,-2.615092,2.247717,4.58752\H,0,-2.90349,1.017241,3.372964\H,0,0.463
 4,1.957856,0.803914\\Version=ES64L-G09RevD.01\State=1-A\HF=-836.457934
 5\RMSD=7.451e-09\Dipole=0.2721992,-0.1156105,-1.3173503\Quadrupole=6.2
 20796,1.7193572,-7.9401532,3.673822,-0.5375513,-7.073035\PG=C01 [X(C13
 H19F2N1O1)]\\@


 SUPPORT THE RIGHT TO ARM BEARS!
 (ADD A CLAWS TO THE BILL OF RIGHTS)
 Job cpu time:       0 days  0 hours 16 minutes 22.9 seconds.
 File lengths (MBytes):  RWF=    184 Int=      0 D2E=      0 Chk=     10 Scr=      1
 Normal termination of Gaussian 09 at Mon Mar  4 11:28:21 2019.
