 Entering Gaussian System, Link 0=/usr/local/Cluster-Apps/gaussian/g09/g09
 Initial command:
 /usr/local/Cluster-Apps/gaussian/g09/l1.exe "/home/ah809/rds/hpc-work/04Mar1111AT3/Gau-125466.inp" -scrdir="/home/ah809/rds/hpc-work/04Mar1111AT3/"
 Entering Link 1 = /usr/local/Cluster-Apps/gaussian/g09/l1.exe PID=    125471.
  
 Copyright (c) 1988,1990,1992,1993,1995,1998,2003,2009,2013,
            Gaussian, Inc.  All Rights Reserved.
  
 This is part of the Gaussian(R) 09 program.  It is based on
 the Gaussian(R) 03 system (copyright 2003, Gaussian, Inc.),
 the Gaussian(R) 98 system (copyright 1998, Gaussian, Inc.),
 the Gaussian(R) 94 system (copyright 1995, Gaussian, Inc.),
 the Gaussian 92(TM) system (copyright 1992, Gaussian, Inc.),
 the Gaussian 90(TM) system (copyright 1990, Gaussian, Inc.),
 the Gaussian 88(TM) system (copyright 1988, Gaussian, Inc.),
 the Gaussian 86(TM) system (copyright 1986, Carnegie Mellon
 University), and the Gaussian 82(TM) system (copyright 1983,
 Carnegie Mellon University). Gaussian is a federally registered
 trademark of Gaussian, Inc.
  
 This software contains proprietary and confidential information,
 including trade secrets, belonging to Gaussian, Inc.
  
 This software is provided under written license and may be
 used, copied, transmitted, or stored only in accord with that
 written license.
  
 The following legend is applicable only to US Government
 contracts under FAR:
  
                    RESTRICTED RIGHTS LEGEND
  
 Use, reproduction and disclosure by the US Government is
 subject to restrictions as set forth in subparagraphs (a)
 and (c) of the Commercial Computer Software - Restricted
 Rights clause in FAR 52.227-19.
  
 Gaussian, Inc.
 340 Quinnipiac St., Bldg. 40, Wallingford CT 06492
  
  
 ---------------------------------------------------------------
 Warning -- This program may not be used in any manner that
 competes with the business of Gaussian, Inc. or will provide
 assistance to any competitor of Gaussian, Inc.  The licensee
 of this program is prohibited from giving any competitor of
 Gaussian, Inc. access to this program.  By using this program,
 the user acknowledges that Gaussian, Inc. is engaged in the
 business of creating and licensing software in the field of
 computational chemistry and represents and warrants to the
 licensee that it is not a competitor of Gaussian, Inc. and that
 it will not use this program in any manner prohibited above.
 ---------------------------------------------------------------
  

 Cite this work as:
 Gaussian 09, Revision D.01,
 M. J. Frisch, G. W. Trucks, H. B. Schlegel, G. E. Scuseria, 
 M. A. Robb, J. R. Cheeseman, G. Scalmani, V. Barone, B. Mennucci, 
 G. A. Petersson, H. Nakatsuji, M. Caricato, X. Li, H. P. Hratchian, 
 A. F. Izmaylov, J. Bloino, G. Zheng, J. L. Sonnenberg, M. Hada, 
 M. Ehara, K. Toyota, R. Fukuda, J. Hasegawa, M. Ishida, T. Nakajima, 
 Y. Honda, O. Kitao, H. Nakai, T. Vreven, J. A. Montgomery, Jr., 
 J. E. Peralta, F. Ogliaro, M. Bearpark, J. J. Heyd, E. Brothers, 
 K. N. Kudin, V. N. Staroverov, T. Keith, R. Kobayashi, J. Normand, 
 K. Raghavachari, A. Rendell, J. C. Burant, S. S. Iyengar, J. Tomasi, 
 M. Cossi, N. Rega, J. M. Millam, M. Klene, J. E. Knox, J. B. Cross, 
 V. Bakken, C. Adamo, J. Jaramillo, R. Gomperts, R. E. Stratmann, 
 O. Yazyev, A. J. Austin, R. Cammi, C. Pomelli, J. W. Ochterski, 
 R. L. Martin, K. Morokuma, V. G. Zakrzewski, G. A. Voth, 
 P. Salvador, J. J. Dannenberg, S. Dapprich, A. D. Daniels, 
 O. Farkas, J. B. Foresman, J. V. Ortiz, J. Cioslowski, 
 and D. J. Fox, Gaussian, Inc., Wallingford CT, 2013.
 
 ******************************************
 Gaussian 09:  ES64L-G09RevD.01 24-Apr-2013
                 4-Mar-2019 
 ******************************************
 %nprocshared=8
 Will use up to    8 processors via shared memory.
 %mem=6000MB
 %chk=AT3_2ginp004.chk
 -------------------------------------------------------
 # mPW1PW91/6-311g(d) nmr=giao scrf=(solvent=chloroform)
 -------------------------------------------------------
 1/38=1/1;
 2/12=2,17=6,18=5,40=1/2;
 3/5=4,6=6,7=1,11=2,16=1,25=1,30=1,70=2201,72=7,74=-7/1,2,8,3;
 4//1;
 5/5=2,38=5,53=7/2;
 8/6=1,10=90,11=11/1;
 10/13=100,45=16/2;
 6/7=2,8=2,9=2,10=2,28=1/1;
 99/9=1/99;
 ------------
 AT3_2ginp004
 ------------
 Symbolic Z-matrix:
 Charge =  0 Multiplicity = 1
 C                    -1.62744  -3.20683   2.34682 
 C                    -2.38789  -2.34754   1.34515 
 C                    -3.38776  -1.36494   1.99951 
 C                    -2.72247  -0.38094   3.01371 
 C                    -3.77405   0.49255   3.72721 
 O                    -4.36475   1.44581   2.85507 
 N                    -4.11036  -0.59841   0.96098 
 C                    -5.20899  -1.33363   0.32027 
 C                    -8.72387  -1.6025    2.81701 
 C                    -8.41057  -0.40798   2.17074 
 C                    -7.27759  -0.33323   1.36146 
 C                    -6.43551  -1.43193   1.18007 
 C                    -6.76986  -2.61923   1.83288 
 C                    -7.89966  -2.71327   2.64493 
 H                    -9.60468  -1.66625   3.45067 
 H                    -9.03863   0.46988   2.29073 
 H                    -8.12662  -3.65286   3.13971 
 F                    -7.00935   0.8241    0.73991 
 F                    -5.99169  -3.70213   1.68931 
 H                    -1.04179  -3.9665    1.81878 
 H                    -0.929    -2.61152   2.94158 
 H                    -2.31496  -3.72146   3.02531 
 H                    -1.66929  -1.81101   0.71444 
 H                    -2.92762  -3.02985   0.67807 
 H                    -2.2524   -0.98239   3.80198 
 H                    -3.31081   1.04361   4.55239 
 H                    -4.57131  -0.12678   4.15205 
 H                    -4.58524   0.95196   2.03475 
 H                    -5.48777  -0.79198  -0.59308 
 H                    -4.88983  -2.32189  -0.02818 
 H                    -4.10298  -1.95734   2.58298 
 C                    -1.62943   0.49813   2.39267 
 H                    -0.80215  -0.1073    2.01079 
 H                    -2.00918   1.11146   1.56967 
 H                    -1.211     1.17536   3.14549 
 H                    -3.4457   -0.32134   0.23591 
 
                          Input orientation:                          
 ---------------------------------------------------------------------
 Center     Atomic      Atomic             Coordinates (Angstroms)
 Number     Number       Type             X           Y           Z
 ---------------------------------------------------------------------
      1          6           0       -1.627439   -3.206831    2.346817
      2          6           0       -2.387893   -2.347542    1.345154
      3          6           0       -3.387758   -1.364940    1.999512
      4          6           0       -2.722473   -0.380936    3.013715
      5          6           0       -3.774046    0.492549    3.727205
      6          8           0       -4.364754    1.445809    2.855072
      7          7           0       -4.110361   -0.598414    0.960976
      8          6           0       -5.208988   -1.333633    0.320265
      9          6           0       -8.723873   -1.602499    2.817011
     10          6           0       -8.410571   -0.407976    2.170743
     11          6           0       -7.277585   -0.333228    1.361455
     12          6           0       -6.435510   -1.431927    1.180070
     13          6           0       -6.769863   -2.619226    1.832880
     14          6           0       -7.899662   -2.713265    2.644933
     15          1           0       -9.604677   -1.666248    3.450674
     16          1           0       -9.038630    0.469884    2.290730
     17          1           0       -8.126622   -3.652864    3.139709
     18          9           0       -7.009348    0.824097    0.739911
     19          9           0       -5.991686   -3.702126    1.689306
     20          1           0       -1.041786   -3.966496    1.818776
     21          1           0       -0.928995   -2.611517    2.941575
     22          1           0       -2.314961   -3.721457    3.025310
     23          1           0       -1.669292   -1.811014    0.714443
     24          1           0       -2.927622   -3.029852    0.678068
     25          1           0       -2.252404   -0.982387    3.801978
     26          1           0       -3.310805    1.043607    4.552392
     27          1           0       -4.571305   -0.126777    4.152052
     28          1           0       -4.585240    0.951961    2.034751
     29          1           0       -5.487766   -0.791977   -0.593078
     30          1           0       -4.889831   -2.321893   -0.028184
     31          1           0       -4.102976   -1.957342    2.582975
     32          6           0       -1.629433    0.498133    2.392668
     33          1           0       -0.802145   -0.107304    2.010793
     34          1           0       -2.009179    1.111458    1.569674
     35          1           0       -1.211003    1.175360    3.145491
     36          1           0       -3.445704   -0.321342    0.235905
 ---------------------------------------------------------------------
                    Distance matrix (angstroms):
                    1          2          3          4          5
     1  C    0.000000
     2  C    1.523154   0.000000
     3  C    2.571363   1.547069   0.000000
     4  C    3.103149   2.600688   1.561882   0.000000
     5  C    4.494308   3.957487   2.566010   1.542028   0.000000
     6  O    5.422018   4.536226   3.096258   2.461555   1.420654
     7  N    3.858665   2.484741   1.479282   2.487422   2.992546
     8  C    4.521424   3.168120   2.477444   3.787487   4.123256
     9  C    7.290702   6.547220   5.403597   6.127619   5.451465
    10  C    7.339991   6.380922   5.116029   5.750286   4.973016
    11  C    6.415036   5.288366   4.074592   4.845749   4.307373
    12  C    5.256342   4.153168   3.156702   4.272409   4.156308
    13  C    5.201340   4.417392   3.611043   4.773435   4.716623
    14  C    6.298671   5.674749   4.753086   5.690259   5.335660
    15  H    8.199282   7.548467   6.391145   7.014819   6.223595
    16  H    8.273278   7.284525   5.948423   6.414081   5.457089
    17  H    6.562545   6.152829   5.384373   6.318719   6.039414
    18  F    6.913427   5.637682   4.415245   4.999959   4.415997
    19  F    4.441204   3.865315   3.512707   4.844803   5.163938
    20  H    1.094946   2.158086   3.507755   4.136282   5.566905
    21  H    1.093599   2.178675   2.913237   2.863086   4.283311
    22  H    1.094477   2.171609   2.785018   3.365305   4.514358
    23  H    2.148186   1.096379   2.191691   2.905334   4.337410
    24  H    2.122857   1.096293   2.174827   3.537526   4.735080
    25  H    2.730609   2.813892   2.164315   1.097300   2.120477
    26  H    5.075875   4.757944   3.510586   2.177839   1.095076
    27  H    4.627305   4.192584   2.750865   2.185998   1.095300
    28  H    5.112878   4.023754   2.608301   2.490961   1.932226
    29  H    5.420021   3.973127   3.385239   4.563415   4.822000
    30  H    4.131216   2.854191   2.698802   4.209264   4.823796
    31  H    2.783034   2.150806   1.096771   2.139248   2.723862
    32  C    3.705248   3.125766   2.591779   1.534014   2.525942
    33  H    3.225072   2.824241   2.875269   2.183664   3.483976
    34  H    4.404236   3.486906   2.866668   2.195742   2.855301
    35  H    4.473801   4.127605   3.536192   2.173468   2.715476
    36  H    4.010995   2.540646   2.050064   2.871035   3.599917
                    6          7          8          9         10
     6  O    0.000000
     7  N    2.798422   0.000000
     8  C    3.855292   1.469026   0.000000
     9  C    5.319356   5.073218   4.319774   0.000000
    10  C    4.502606   4.471198   3.811987   1.393810   0.000000
    11  C    3.725647   3.203438   2.522693   2.412766   1.394343
    12  C    3.921100   2.479731   1.501094   2.818737   2.435318
    13  C    4.832591   3.452079   2.525289   2.412551   2.774113
    14  C    5.462383   4.654794   3.814078   1.393821   2.408369
    15  H    6.123433   6.125877   5.406679   1.086926   2.155774
    16  H    4.807913   5.215107   4.669214   2.161207   1.086045
    17  H    6.342644   5.496080   4.673402   2.159824   3.398356
    18  F    3.443009   3.236747   2.841337   3.625232   2.351321
    19  F    5.523328   3.701740   2.845461   3.625603   4.115120
    20  H    6.434988   4.636372   5.151997   8.099347   8.190601
    21  H    5.317313   4.253992   5.179053   7.860900   7.837331
    22  H    5.561589   4.151907   4.625404   6.753334   6.990415
    23  H    4.738639   2.736786   3.593427   7.364196   7.038051
    24  H    5.180370   2.718602   2.865277   6.341052   6.258198
    25  H    3.354816   3.416245   4.581167   6.575303   6.396397
    26  H    2.038006   4.029118   5.212031   6.270146   5.812655
    27  H    2.048865   3.258508   4.067645   4.604770   4.329506
    28  H    0.982561   1.944779   2.924460   4.926000   4.062152
    29  H    4.261289   2.085616   1.097863   4.770539   4.040910
    30  H    4.773306   2.134570   1.095416   4.828306   4.570992
    31  H    3.424033   2.116039   2.594635   4.640407   4.596286
    32  C    2.931533   3.067110   4.523653   7.411059   6.845007
    33  H    3.977078   3.505367   4.876683   8.101813   7.616045
    34  H    2.704214   2.776534   4.216429   7.349049   6.606647
    35  H    3.178621   4.040378   5.500985   8.016709   7.435783
    36  H    3.290518   1.021893   2.034950   6.013530   5.329260
                   11         12         13         14         15
    11  C    0.000000
    12  C    1.396113   0.000000
    13  C    2.388684   1.395576   0.000000
    14  C    2.774684   2.435445   1.394532   0.000000
    15  H    3.399579   3.905659   3.400235   2.156975   0.000000
    16  H    2.147049   3.409792   3.859991   3.399286   2.495784
    17  H    3.860445   3.410661   2.148722   1.085892   2.495594
    18  F    1.340772   2.369108   3.620553   4.115179   4.503975
    19  F    3.620842   2.368566   1.341210   2.351902   4.505654
    20  H    7.231526   5.993684   5.884403   7.020227   9.015394
    21  H    6.927624   5.900512   5.945166   6.977718   8.741863
    22  H    6.235074   5.062191   4.741619   5.687708   7.585827
    23  H    5.835703   4.803889   5.283932   6.584706   8.395133
    24  H    5.163427   3.887242   4.032991   5.356302   7.357297
    25  H    5.624056   4.957304   5.192690   6.018822   7.392361
    26  H    5.273812   5.221552   5.725135   6.229775   6.940455
    27  H    3.892815   3.743174   4.052717   4.476526   5.310060
    28  H    3.058392   3.136383   4.191265   4.979116   5.835632
    29  H    2.689629   2.109931   3.296647   4.471387   5.836543
    30  H    3.404006   2.154307   2.662046   4.044479   5.895939
    31  H    3.769350   2.772169   2.848336   3.871703   5.577307
    32  C    5.801395   5.319201   6.037823   7.049290   8.331173
    33  H    6.511836   5.846326   6.477273   7.587352   9.054730
    34  H    5.466861   5.119864   6.054039   7.105102   8.303337
    35  H    6.500926   6.160868   6.857314   7.753072   8.866884
    36  H    3.993785   3.326227   4.345185   5.600219   7.076472
                   16         17         18         19         20
    16  H    0.000000
    17  H    4.306922   0.000000
    18  F    2.578467   5.201011   0.000000
    19  F    5.201081   2.581482   4.735365   0.000000
    20  H    9.157168   7.213746   7.728229   4.958645   0.000000
    21  H    8.699702   7.275266   7.322668   5.328081   1.763340
    22  H    7.957052   5.813192   6.922599   3.911980   1.771085
    23  H    7.873647   7.139428   5.954885   4.817650   2.501883
    24  H    7.224490   5.785968   5.614021   3.295913   2.394764
    25  H    7.102522   6.486639   5.938700   5.083561   3.782009
    26  H    6.184841   6.873471   5.316241   6.156815   6.141843
    27  H    4.876219   5.108660   4.300107   4.567901   5.713591
    28  H    4.486714   5.913267   2.751229   4.874213   6.065800
    29  H    4.745237   5.392767   2.589163   3.732583   5.971712
    30  H    5.512161   4.720577   3.870346   2.463514   4.574214
    31  H    5.507950   4.401645   4.424962   2.722157   3.740533
    32  C    7.409952   7.746116   5.637494   6.096404   4.539559
    33  H    8.261428   8.215437   6.404063   6.321189   3.871390
    34  H    7.095401   7.911187   5.076689   6.248621   5.175279
    35  H    7.905698   8.434309   6.287369   6.983214   5.312955
    36  H    6.010754   6.437555   3.776984   4.474830   4.644508
                   21         22         23         24         25
    21  H    0.000000
    22  H    1.777605   0.000000
    23  H    2.479710   3.067049   0.000000
    24  H    3.048439   2.522542   1.752222   0.000000
    25  H    2.268429   2.847741   3.249541   3.795635   0.000000
    26  H    4.650557   5.101913   5.057003   5.634739   2.405823
    27  H    4.572265   4.391168   4.803695   4.816441   2.496382
    28  H    5.185444   5.289254   4.228475   4.521407   3.508122
    29  H    6.048710   5.633940   4.162786   3.630184   5.460800
    30  H    4.958989   4.232323   3.344303   2.202331   4.839467
    31  H    3.260475   2.550443   3.071749   2.482016   2.420975
    32  C    3.234476   4.321472   2.854853   4.131807   2.136864
    33  H    2.674608   4.047216   2.309782   3.851635   2.465231
    34  H    4.112110   5.056624   3.063949   4.334622   3.070265
    35  H    3.802834   5.021154   3.877944   5.169020   2.484223
    36  H    4.347341   4.540941   2.367226   2.792838   3.818091
                   26         27         28         29         30
    26  H    0.000000
    27  H    1.766050   0.000000
    28  H    2.823314   2.376307   0.000000
    29  H    5.880849   4.878386   3.280451   0.000000
    30  H    5.899287   4.732269   3.881571   1.737030   0.000000
    31  H    3.675845   2.456075   2.999529   3.655548   2.751398
    32  C    2.790871   3.484330   3.011787   5.046365   4.944013
    33  H    3.752026   4.334967   3.928667   5.404069   5.076515
    34  H    3.255064   3.842706   2.622561   4.516761   4.758067
    35  H    2.530987   3.741705   3.559372   6.011490   5.986382
    36  H    4.529166   4.079343   2.481066   2.253603   2.481421
                   31         32         33         34         35
    31  H    0.000000
    32  C    3.490557   0.000000
    33  H    3.826946   1.093978   0.000000
    34  H    3.850753   1.094392   1.771129   0.000000
    35  H    4.300436   1.095656   1.760662   1.767588   0.000000
    36  H    2.935514   2.936325   3.191308   2.428057   3.962284
                   36
    36  H    0.000000
 Stoichiometry    C13H19F2NO
 Framework group  C1[X(C13H19F2NO)]
 Deg. of freedom   102
 Full point group                 C1      NOp   1
 Largest Abelian subgroup         C1      NOp   1
 Largest concise Abelian subgroup C1      NOp   1
                         Standard orientation:                         
 ---------------------------------------------------------------------
 Center     Atomic      Atomic             Coordinates (Angstroms)
 Number     Number       Type             X           Y           Z
 ---------------------------------------------------------------------
      1          6           0        3.244176    2.310764   -0.417413
      2          6           0        2.473453    1.518565    0.630634
      3          6           0        1.592050    0.393725    0.037940
      4          6           0        2.393654   -0.648222   -0.805419
      5          6           0        1.457672   -1.675784   -1.473180
      6          8           0        0.871546   -2.563241   -0.531303
      7          7           0        0.850063   -0.299457    1.113685
      8          6           0       -0.339047    0.419904    1.589684
      9          6           0       -3.675181    0.129960   -1.139160
     10          6           0       -3.329140   -0.954217   -0.334473
     11          6           0       -2.254902   -0.848432    0.548145
     12          6           0       -1.504320    0.324486    0.648239
     13          6           0       -1.870350    1.399155   -0.163389
     14          6           0       -2.942522    1.312395   -1.050878
     15          1           0       -4.510371    0.052781   -1.830470
     16          1           0       -3.886110   -1.885092   -0.386903
     17          1           0       -3.196307    2.168249   -1.669157
     18          9           0       -1.954441   -1.902055    1.320977
     19          9           0       -1.179563    2.547196   -0.102891
     20          1           0        3.737566    3.168781    0.050862
     21          1           0        4.022289    1.704992   -0.890213
     22          1           0        2.574054    2.689533   -1.195454
     23          1           0        3.179424    1.114907    1.365965
     24          1           0        1.842187    2.230913    1.174621
     25          1           0        2.877490   -0.108565   -1.629276
     26          1           0        2.015328   -2.282307   -2.194525
     27          1           0        0.653007   -1.172168   -2.019592
     28          1           0        0.559678   -1.995558    0.207548
     29          1           0       -0.645577   -0.031519    2.542343
     30          1           0       -0.113383    1.463264    1.835472
     31          1           0        0.882264    0.858462   -0.657136
     32          6           0        3.496098   -1.363880   -0.014440
     33          1           0        4.250896   -0.657285    0.343040
     34          1           0        3.100446   -1.904422    0.850990
     35          1           0        4.012486   -2.090340   -0.651669
     36          1           0        1.478011   -0.439288    1.907659
 ---------------------------------------------------------------------
 Rotational constants (GHZ):      0.6467118      0.3410916      0.2724105
 Standard basis: 6-311G(d) (5D, 7F)
 There are   380 symmetry adapted cartesian basis functions of A   symmetry.
 There are   363 symmetry adapted basis functions of A   symmetry.
   363 basis functions,   639 primitive gaussians,   380 cartesian basis functions
    65 alpha electrons       65 beta electrons
       nuclear repulsion energy      1316.1642563436 Hartrees.
 NAtoms=   36 NActive=   36 NUniq=   36 SFac= 1.00D+00 NAtFMM=   60 NAOKFM=F Big=F
 Integral buffers will be    131072 words long.
 Raffenetti 2 integral format.
 Two-electron integral symmetry is turned on.
 ------------------------------------------------------------------------------
 Polarizable Continuum Model (PCM)
 =================================
 Model                : PCM (using non-symmetric T matrix).
 Atomic radii         : UFF (Universal Force Field).
 Polarization charges : Total charges.
 Charge compensation  : None.
 Solution method      : On-the-fly selection.
 Cavity type          : Scaled VdW (van der Waals Surface) (Alpha=1.100).
 Cavity algorithm     : GePol (No added spheres)
                        Default sphere list used, NSphG=   36.
                        Lebedev-Laikov grids with approx.  5.0 points / Ang**2.
                        Smoothing algorithm: Karplus/York (Gamma=1.0000).
                        Polarization charges: spherical gaussians, with
                                              point-specific exponents (IZeta= 3).
                        Self-potential: point-specific (ISelfS= 7).
                        Self-field    : sphere-specific E.n sum rule (ISelfD= 2).
 Solvent              : Chloroform, Eps=   4.711300 Eps(inf)=   2.090627
 ------------------------------------------------------------------------------
 One-electron integrals computed using PRISM.
 NBasis=   363 RedAO= T EigKep=  2.44D-04  NBF=   363
 NBsUse=   363 1.00D-06 EigRej= -1.00D+00 NBFU=   363
 ExpMin= 1.03D-01 ExpMax= 1.14D+04 ExpMxC= 1.72D+03 IAcc=1 IRadAn=         1 AccDes= 0.00D+00
 Harris functional with IExCor=  908 and IRadAn=       1 diagonalized for initial guess.
 HarFok:  IExCor=  908 AccDes= 0.00D+00 IRadAn=         1 IDoV= 1 UseB2=F ITyADJ=14
 ICtDFT=  3500011 ScaDFX=  1.000000  1.000000  1.000000  1.000000
 FoFCou: FMM=F IPFlag=           0 FMFlag=      100000 FMFlg1=           0
         NFxFlg=           0 DoJE=T BraDBF=F KetDBF=T FulRan=T
         wScrn=  0.000000 ICntrl=     500 IOpCl=  0 I1Cent=   200000004 NGrid=           0
         NMat0=    1 NMatS0=      1 NMatT0=    0 NMatD0=    1 NMtDS0=    0 NMtDT0=    0
 Petite list used in FoFCou.
 Requested convergence on RMS density matrix=1.00D-08 within 128 cycles.
 Requested convergence on MAX density matrix=1.00D-06.
 Requested convergence on             energy=1.00D-06.
 No special actions if energy rises.
 Inv3:  Mode=1 IEnd=    18154800.
 Iteration    1 A*A^-1 deviation from unit magnitude is 4.22D-15 for   2448.
 Iteration    1 A*A^-1 deviation from orthogonality  is 3.37D-15 for   2041    732.
 Iteration    1 A^-1*A deviation from unit magnitude is 4.00D-15 for   2457.
 Iteration    1 A^-1*A deviation from orthogonality  is 1.74D-12 for   2438   2419.
 Error on total polarization charges =  0.00929
 SCF Done:  E(RmPW1PW91) =  -836.466733566     A.U. after   12 cycles
            NFock= 12  Conv=0.77D-08     -V/T= 2.0038
 DoSCS=F DFT=T ScalE2(SS,OS)=  1.000000  1.000000
 Range of M.O.s used for correlation:     1   363
 NBasis=   363 NAE=    65 NBE=    65 NFC=     0 NFV=     0
 NROrb=    363 NOA=    65 NOB=    65 NVA=   298 NVB=   298
 NEqPCM:  Using equilibrium solvation (IEInf=0, Eps=   4.7113, EpsInf=   2.0906)
          Differentiating once with respect to magnetic field using GIAOs.
          Electric field/nuclear overlap derivatives assumed to be zero.
 FoFJK:  IHMeth= 1 ICntrl=    6127 DoSepK=F KAlg= 0 I1Cent=   0 FoldK=F
 IRaf=         1 NMat=   1 IRICut=       1 DoRegI=T DoRafI=F ISym2E= 0.
          There are     3 degrees of freedom in the 1st order CPHF.  IDoFFX=0 NUNeed=     3.
      3 vectors produced by pass  0 Test12= 6.46D-13 3.33D-08 XBig12= 3.75D+01 1.82D+00.
 AX will form     3 AO Fock derivatives at one time.
      3 vectors produced by pass  1 Test12= 6.46D-13 3.33D-08 XBig12= 1.18D-01 1.66D-01.
      3 vectors produced by pass  2 Test12= 6.46D-13 3.33D-08 XBig12= 5.59D-04 6.72D-03.
      3 vectors produced by pass  3 Test12= 6.46D-13 3.33D-08 XBig12= 1.27D-06 2.26D-04.
      3 vectors produced by pass  4 Test12= 6.46D-13 3.33D-08 XBig12= 3.43D-09 1.16D-05.
      3 vectors produced by pass  5 Test12= 6.46D-13 3.33D-08 XBig12= 1.35D-11 1.01D-06.
      1 vectors produced by pass  6 Test12= 6.46D-13 3.33D-08 XBig12= 4.08D-14 5.39D-08.
 InvSVY:  IOpt=1 It=  1 EMax= 8.88D-16
 Solved reduced A of dimension    19 with     3 vectors.
 Calculating GIAO nuclear magnetic shielding tensors.
 SCF GIAO Magnetic shielding tensor (ppm):
      1  C    Isotropic =   175.7091   Anisotropy =    19.2334
   XX=   173.8459   YX=     7.1404   ZX=    -3.0812
   XY=     7.3160   YY=   176.0632   ZY=    -6.8696
   XZ=    -3.4864   YZ=    -9.3154   ZZ=   177.2182
   Eigenvalues:   166.4432   172.1527   188.5314
      2  C    Isotropic =   161.7090   Anisotropy =    25.0977
   XX=   155.7421   YX=    16.8856   ZX=     6.1114
   XY=    19.7953   YY=   163.4885   ZY=    -8.0996
   XZ=     5.6039   YZ=    -3.7913   ZZ=   165.8963
   Eigenvalues:   138.3691   168.3170   178.4408
      3  C    Isotropic =   124.9228   Anisotropy =    22.9623
   XX=   123.9699   YX=     2.5876   ZX=   -18.2702
   XY=    10.3288   YY=   131.4156   ZY=    -7.3281
   XZ=   -11.3087   YZ=     5.4761   ZZ=   119.3830
   Eigenvalues:   106.2046   128.3328   140.2311
      4  C    Isotropic =   151.3448   Anisotropy =     5.6005
   XX=   150.2780   YX=    -5.5538   ZX=     4.1219
   XY=     3.0474   YY=   154.4912   ZY=    -0.8000
   XZ=     1.9811   YZ=     0.3857   ZZ=   149.2652
   Eigenvalues:   146.6229   152.3330   155.0784
      5  C    Isotropic =   116.0065   Anisotropy =    38.6585
   XX=   110.5597   YX=    17.2539   ZX=    -2.8948
   XY=    19.6744   YY=   119.6825   ZY=    -9.0008
   XZ=   -10.8079   YZ=   -14.6085   ZZ=   117.7774
   Eigenvalues:    95.8945   110.3462   141.7789
      6  O    Isotropic =   307.2957   Anisotropy =    93.3786
   XX=   294.1985   YX=    -0.2449   ZX=   -12.9635
   XY=   -17.8095   YY=   312.7520   ZY=    60.0315
   XZ=    -3.5511   YZ=    47.3928   ZZ=   314.9368
   Eigenvalues:   260.1075   292.2316   369.5482
      7  N    Isotropic =   196.5936   Anisotropy =    41.8743
   XX=   210.4173   YX=    -2.1522   ZX=    17.1392
   XY=     2.6162   YY=   186.2091   ZY=   -18.5916
   XZ=    18.2870   YZ=   -19.3107   ZZ=   193.1545
   Eigenvalues:   167.0199   198.2512   224.5098
      8  C    Isotropic =   150.6125   Anisotropy =    49.3149
   XX=   169.7908   YX=   -18.1510   ZX=    -9.9427
   XY=   -19.3615   YY=   137.0995   ZY=    10.1841
   XZ=   -10.9132   YZ=    11.6070   ZZ=   144.9471
   Eigenvalues:   126.4377   141.9106   183.4891
      9  C    Isotropic =    53.6800   Anisotropy =   187.3907
   XX=    38.0313   YX=   -34.5394   ZX=  -106.8714
   XY=   -33.3954   YY=    51.6890   ZY=    29.8135
   XZ=  -107.1128   YZ=    29.2851   ZZ=    71.3197
   Eigenvalues:   -54.0513    36.4841   178.6071
     10  C    Isotropic =    69.9060   Anisotropy =   149.9939
   XX=    83.8231   YX=   -49.7875   ZX=   -52.6461
   XY=   -55.7513   YY=    14.0931   ZY=    23.8438
   XZ=   -50.2732   YZ=    29.2515   ZZ=   111.8018
   Eigenvalues:   -14.2988    54.1149   169.9019
     11  C    Isotropic =    18.4840   Anisotropy =   101.7517
   XX=    50.1742   YX=    11.0457   ZX=   -38.7579
   XY=     3.0175   YY=   -25.1397   ZY=    56.4051
   XZ=   -30.5551   YZ=    56.9962   ZZ=    30.4176
   Eigenvalues:   -65.8236    34.9573    86.3185
     12  C    Isotropic =    67.8188   Anisotropy =   140.9110
   XX=    74.4092   YX=   -31.4892   ZX=   -61.4259
   XY=   -31.2436   YY=    40.9811   ZY=    34.2505
   XZ=   -61.2524   YZ=    37.5131   ZZ=    88.0660
   Eigenvalues:    19.4231    22.2738   161.7594
     13  C    Isotropic =    19.2300   Anisotropy =   101.6112
   XX=    29.9996   YX=   -58.6738   ZX=   -23.1638
   XY=   -54.5365   YY=   -33.3451   ZY=     8.6449
   XZ=   -23.3078   YZ=    10.1304   ZZ=    61.0355
   Eigenvalues:   -66.6450    37.3642    86.9708
     14  C    Isotropic =    71.5414   Anisotropy =   147.9738
   XX=    97.4534   YX=   -15.9620   ZX=   -56.6413
   XY=    -9.3945   YY=    25.3257   ZY=    59.5653
   XZ=   -59.8724   YZ=    54.5913   ZZ=    91.8451
   Eigenvalues:   -11.3027    55.7363   170.1906
     15  H    Isotropic =    24.4435   Anisotropy =     3.1119
   XX=    24.3963   YX=     1.0383   ZX=     2.0820
   XY=     1.0876   YY=    25.8790   ZY=    -1.4324
   XZ=     2.0277   YZ=    -1.4192   ZZ=    23.0553
   Eigenvalues:    20.9259    25.8865    26.5181
     16  H    Isotropic =    25.0881   Anisotropy =     5.0515
   XX=    26.2990   YX=     1.0745   ZX=     3.0891
   XY=     0.7421   YY=    24.8385   ZY=    -1.3509
   XZ=     3.0208   YZ=    -1.0749   ZZ=    24.1267
   Eigenvalues:    21.3187    25.4898    28.4557
     17  H    Isotropic =    25.1609   Anisotropy =     5.0289
   XX=    26.2831   YX=     0.7912   ZX=     3.3459
   XY=     1.0165   YY=    25.3410   ZY=    -0.8510
   XZ=     3.0551   YZ=    -0.9073   ZZ=    23.8587
   Eigenvalues:    21.2717    25.6976    28.5135
     18  F    Isotropic =   300.3123   Anisotropy =   144.1405
   XX=   283.1039   YX=   -28.3508   ZX=   -78.0192
   XY=   -46.5108   YY=   277.9709   ZY=     6.8980
   XZ=   -68.5857   YZ=     6.8733   ZZ=   339.8619
   Eigenvalues:   219.4637   285.0671   396.4059
     19  F    Isotropic =   301.3477   Anisotropy =   125.1324
   XX=   305.5074   YX=   -10.3117   ZX=   -68.6245
   XY=    -2.6762   YY=   295.6240   ZY=    40.7667
   XZ=   -67.3785   YZ=    39.3899   ZZ=   302.9118
   Eigenvalues:   226.7807   292.4931   384.7693
     20  H    Isotropic =    31.0088   Anisotropy =    11.4649
   XX=    30.3700   YX=     5.8332   ZX=     0.6506
   XY=     5.3472   YY=    34.7200   ZY=     1.5816
   XZ=    -0.1593   YZ=     0.6942   ZZ=    27.9363
   Eigenvalues:    26.4114    27.9630    38.6520
     21  H    Isotropic =    31.2207   Anisotropy =     7.7262
   XX=    33.6773   YX=    -0.1741   ZX=    -4.2377
   XY=     0.1995   YY=    31.3251   ZY=    -0.1326
   XZ=    -4.8783   YZ=     0.2960   ZZ=    28.6597
   Eigenvalues:    25.9645    31.3260    36.3715
     22  H    Isotropic =    31.4847   Anisotropy =     8.6309
   XX=    30.4467   YX=     0.3339   ZX=     1.3563
   XY=    -0.5972   YY=    31.6561   ZY=    -4.7612
   XZ=     1.8695   YZ=    -5.2030   ZZ=    32.3512
   Eigenvalues:    26.7267    30.4888    37.2386
     23  H    Isotropic =    30.9752   Anisotropy =     5.6075
   XX=    31.3312   YX=     0.5090   ZX=     2.9978
   XY=     0.3554   YY=    29.9209   ZY=    -0.4382
   XZ=     3.3528   YZ=    -1.4318   ZZ=    31.6734
   Eigenvalues:    27.8710    30.3409    34.7135
     24  H    Isotropic =    29.9012   Anisotropy =     5.3793
   XX=    30.6625   YX=     1.0193   ZX=    -2.8216
   XY=     0.3739   YY=    31.3941   ZY=     2.6927
   XZ=    -3.5963   YZ=     2.9975   ZZ=    27.6469
   Eigenvalues:    24.4781    31.7381    33.4874
     25  H    Isotropic =    30.7050   Anisotropy =     6.6176
   XX=    29.2349   YX=     1.6519   ZX=    -2.6178
   XY=     1.3835   YY=    30.9157   ZY=    -1.3352
   XZ=    -3.8245   YZ=    -1.6017   ZZ=    31.9644
   Eigenvalues:    27.0382    29.9601    35.1167
     26  H    Isotropic =    28.6759   Anisotropy =     8.1910
   XX=    26.3914   YX=     0.1494   ZX=    -2.4998
   XY=     1.2008   YY=    27.8962   ZY=     2.4607
   XZ=    -3.0309   YZ=     3.9241   ZZ=    31.7400
   Eigenvalues:    24.0645    27.8266    34.1365
     27  H    Isotropic =    28.7160   Anisotropy =     3.9028
   XX=    28.8243   YX=     0.5959   ZX=     0.6476
   XY=    -0.6338   YY=    26.7315   ZY=    -1.4289
   XZ=     1.2198   YZ=    -1.1836   ZZ=    30.5922
   Eigenvalues:    26.3033    28.5269    31.3179
     28  H    Isotropic =    28.2950   Anisotropy =    22.1388
   XX=    23.5853   YX=    -1.5913   ZX=    -7.4130
   XY=    -0.6931   YY=    31.7714   ZY=     9.5352
   XZ=    -8.9211   YZ=    10.7931   ZZ=    29.5282
   Eigenvalues:    15.8328    25.9980    43.0542
     29  H    Isotropic =    28.4561   Anisotropy =     8.0045
   XX=    28.3334   YX=     1.1864   ZX=    -2.8939
   XY=     0.7827   YY=    24.4249   ZY=    -0.4111
   XZ=    -1.4785   YZ=    -2.1591   ZZ=    32.6101
   Eigenvalues:    24.1136    27.4623    33.7925
     30  H    Isotropic =    28.1858   Anisotropy =     6.2026
   XX=    28.2256   YX=    -2.3575   ZX=    -0.0990
   XY=    -0.0341   YY=    30.5252   ZY=     2.3302
   XZ=     1.0551   YZ=     4.0620   ZZ=    25.8065
   Eigenvalues:    23.9696    28.2669    32.3209
     31  H    Isotropic =    29.4966   Anisotropy =     6.4035
   XX=    33.3363   YX=     0.0879   ZX=     0.7977
   XY=    -3.2298   YY=    28.0140   ZY=    -1.0489
   XZ=    -1.7021   YZ=    -2.0547   ZZ=    27.1394
   Eigenvalues:    25.7307    28.9935    33.7656
     32  C    Isotropic =   178.1297   Anisotropy =    17.2600
   XX=   181.7885   YX=    -9.0262   ZX=     5.1312
   XY=    -9.7236   YY=   177.1002   ZY=     1.4978
   XZ=     5.7646   YZ=     4.0759   ZZ=   175.5005
   Eigenvalues:   166.3174   178.4354   189.6364
     33  H    Isotropic =    31.3148   Anisotropy =     8.1584
   XX=    35.5438   YX=     0.8833   ZX=     3.1032
   XY=     0.5102   YY=    31.3742   ZY=     1.4184
   XZ=     2.9208   YZ=     1.7757   ZZ=    27.0264
   Eigenvalues:    25.7562    31.4345    36.7538
     34  H    Isotropic =    30.9167   Anisotropy =     6.0001
   XX=    30.8503   YX=    -1.4710   ZX=     0.1307
   XY=    -0.9980   YY=    30.4998   ZY=    -3.8335
   XZ=    -0.3573   YZ=    -3.7726   ZZ=    31.4001
   Eigenvalues:    26.8660    30.9674    34.9168
     35  H    Isotropic =    31.3634   Anisotropy =    11.6924
   XX=    33.2626   YX=    -5.4121   ZX=    -2.1143
   XY=    -4.8479   YY=    32.0454   ZY=     3.2828
   XZ=    -2.2946   YZ=     2.9419   ZZ=    28.7822
   Eigenvalues:    26.6540    28.2780    39.1584
     36  H    Isotropic =    31.2722   Anisotropy =    10.1560
   XX=    34.1364   YX=    -2.3351   ZX=     2.7626
   XY=    -3.4750   YY=    25.1112   ZY=    -2.9161
   XZ=     1.8678   YZ=    -3.1566   ZZ=    34.5689
   Eigenvalues:    23.7453    32.0284    38.0429
 End of Minotr F.D. properties file   721 does not exist.
 End of Minotr F.D. properties file   722 does not exist.
 End of Minotr F.D. properties file   788 does not exist.

 **********************************************************************

            Population analysis using the SCF density.

 **********************************************************************

 Orbital symmetries:
       Occupied  (A) (A) (A) (A) (A) (A) (A) (A) (A) (A) (A) (A)
                 (A) (A) (A) (A) (A) (A) (A) (A) (A) (A) (A) (A)
                 (A) (A) (A) (A) (A) (A) (A) (A) (A) (A) (A) (A)
                 (A) (A) (A) (A) (A) (A) (A) (A) (A) (A) (A) (A)
                 (A) (A) (A) (A) (A) (A) (A) (A) (A) (A) (A) (A)
                 (A) (A) (A) (A) (A)
       Virtual   (A) (A) (A) (A) (A) (A) (A) (A) (A) (A) (A) (A)
                 (A) (A) (A) (A) (A) (A) (A) (A) (A) (A) (A) (A)
                 (A) (A) (A) (A) (A) (A) (A) (A) (A) (A) (A) (A)
                 (A) (A) (A) (A) (A) (A) (A) (A) (A) (A) (A) (A)
                 (A) (A) (A) (A) (A) (A) (A) (A) (A) (A) (A) (A)
                 (A) (A) (A) (A) (A) (A) (A) (A) (A) (A) (A) (A)
                 (A) (A) (A) (A) (A) (A) (A) (A) (A) (A) (A) (A)
                 (A) (A) (A) (A) (A) (A) (A) (A) (A) (A) (A) (A)
                 (A) (A) (A) (A) (A) (A) (A) (A) (A) (A) (A) (A)
                 (A) (A) (A) (A) (A) (A) (A) (A) (A) (A) (A) (A)
                 (A) (A) (A) (A) (A) (A) (A) (A) (A) (A) (A) (A)
                 (A) (A) (A) (A) (A) (A) (A) (A) (A) (A) (A) (A)
                 (A) (A) (A) (A) (A) (A) (A) (A) (A) (A) (A) (A)
                 (A) (A) (A) (A) (A) (A) (A) (A) (A) (A) (A) (A)
                 (A) (A) (A) (A) (A) (A) (A) (A) (A) (A) (A) (A)
                 (A) (A) (A) (A) (A) (A) (A) (A) (A) (A) (A) (A)
                 (A) (A) (A) (A) (A) (A) (A) (A) (A) (A) (A) (A)
                 (A) (A) (A) (A) (A) (A) (A) (A) (A) (A) (A) (A)
                 (A) (A) (A) (A) (A) (A) (A) (A) (A) (A) (A) (A)
                 (A) (A) (A) (A) (A) (A) (A) (A) (A) (A) (A) (A)
                 (A) (A) (A) (A) (A) (A) (A) (A) (A) (A) (A) (A)
                 (A) (A) (A) (A) (A) (A) (A) (A) (A) (A) (A) (A)
                 (A) (A) (A) (A) (A) (A) (A) (A) (A) (A) (A) (A)
                 (A) (A) (A) (A) (A) (A) (A) (A) (A) (A) (A) (A)
                 (A) (A) (A) (A) (A) (A) (A) (A) (A) (A)
 The electronic state is 1-A.
 Alpha  occ. eigenvalues --  -24.80577 -24.80379 -19.17742 -14.39501 -10.33922
 Alpha  occ. eigenvalues --  -10.33866 -10.27402 -10.26721 -10.26559 -10.26145
 Alpha  occ. eigenvalues --  -10.26080 -10.25273 -10.25218 -10.23480 -10.22972
 Alpha  occ. eigenvalues --  -10.21979 -10.21588  -1.27834  -1.27588  -1.02415
 Alpha  occ. eigenvalues --   -0.95038  -0.90594  -0.83155  -0.80320  -0.78692
 Alpha  occ. eigenvalues --   -0.78154  -0.72124  -0.69515  -0.67590  -0.66083
 Alpha  occ. eigenvalues --   -0.63719  -0.62624  -0.59080  -0.57756  -0.55765
 Alpha  occ. eigenvalues --   -0.52456  -0.52018  -0.51979  -0.50324  -0.49603
 Alpha  occ. eigenvalues --   -0.49454  -0.48700  -0.47843  -0.47002  -0.46088
 Alpha  occ. eigenvalues --   -0.44685  -0.43449  -0.42538  -0.41626  -0.41249
 Alpha  occ. eigenvalues --   -0.40812  -0.39631  -0.38462  -0.38143  -0.37719
 Alpha  occ. eigenvalues --   -0.37633  -0.36932  -0.36349  -0.34241  -0.32985
 Alpha  occ. eigenvalues --   -0.32587  -0.27753  -0.26852  -0.26467  -0.24810
 Alpha virt. eigenvalues --   -0.02299  -0.00990   0.05104   0.05733   0.06171
 Alpha virt. eigenvalues --    0.07368   0.07788   0.09888   0.10628   0.10991
 Alpha virt. eigenvalues --    0.11457   0.11619   0.12502   0.12985   0.13206
 Alpha virt. eigenvalues --    0.13993   0.14562   0.14769   0.15545   0.16702
 Alpha virt. eigenvalues --    0.17224   0.17863   0.18700   0.19127   0.19793
 Alpha virt. eigenvalues --    0.21860   0.23227   0.23944   0.24106   0.24568
 Alpha virt. eigenvalues --    0.25656   0.25977   0.26328   0.27471   0.29967
 Alpha virt. eigenvalues --    0.31584   0.32648   0.33809   0.33935   0.35394
 Alpha virt. eigenvalues --    0.36158   0.37186   0.38045   0.38914   0.39388
 Alpha virt. eigenvalues --    0.39451   0.40259   0.41171   0.41679   0.42312
 Alpha virt. eigenvalues --    0.42799   0.43826   0.44775   0.45865   0.46177
 Alpha virt. eigenvalues --    0.47862   0.48654   0.50382   0.50741   0.52312
 Alpha virt. eigenvalues --    0.52613   0.53134   0.54005   0.54692   0.55598
 Alpha virt. eigenvalues --    0.56245   0.57089   0.58488   0.58873   0.59285
 Alpha virt. eigenvalues --    0.59853   0.60519   0.60806   0.61475   0.62045
 Alpha virt. eigenvalues --    0.62728   0.62943   0.63267   0.63716   0.64670
 Alpha virt. eigenvalues --    0.64897   0.65658   0.66095   0.66698   0.68152
 Alpha virt. eigenvalues --    0.68589   0.68937   0.70335   0.71090   0.71864
 Alpha virt. eigenvalues --    0.72962   0.74065   0.75215   0.75933   0.77590
 Alpha virt. eigenvalues --    0.78657   0.79360   0.82138   0.82615   0.86005
 Alpha virt. eigenvalues --    0.87491   0.89203   0.91544   0.92986   0.95194
 Alpha virt. eigenvalues --    0.95919   0.96095   0.97748   0.99121   1.00777
 Alpha virt. eigenvalues --    1.02061   1.03133   1.05401   1.05762   1.08520
 Alpha virt. eigenvalues --    1.09042   1.10188   1.12585   1.13886   1.15049
 Alpha virt. eigenvalues --    1.17844   1.19661   1.20131   1.21328   1.23015
 Alpha virt. eigenvalues --    1.24477   1.27777   1.28424   1.29258   1.31687
 Alpha virt. eigenvalues --    1.32624   1.36456   1.36878   1.40362   1.43412
 Alpha virt. eigenvalues --    1.44180   1.46494   1.47824   1.48963   1.50123
 Alpha virt. eigenvalues --    1.52213   1.52867   1.54190   1.54574   1.55339
 Alpha virt. eigenvalues --    1.56017   1.57414   1.58686   1.60025   1.60863
 Alpha virt. eigenvalues --    1.62236   1.64008   1.65805   1.66380   1.66996
 Alpha virt. eigenvalues --    1.68233   1.68712   1.72120   1.73413   1.73802
 Alpha virt. eigenvalues --    1.74349   1.77478   1.78348   1.79431   1.81981
 Alpha virt. eigenvalues --    1.83280   1.85631   1.85971   1.88511   1.89199
 Alpha virt. eigenvalues --    1.89846   1.90546   1.91476   1.93766   1.97079
 Alpha virt. eigenvalues --    1.97321   1.97993   1.99643   2.01968   2.03562
 Alpha virt. eigenvalues --    2.08458   2.13399   2.14754   2.17515   2.18719
 Alpha virt. eigenvalues --    2.23206   2.24568   2.25932   2.27633   2.28190
 Alpha virt. eigenvalues --    2.31029   2.32636   2.37280   2.38622   2.40559
 Alpha virt. eigenvalues --    2.41917   2.43530   2.44403   2.46504   2.48094
 Alpha virt. eigenvalues --    2.48680   2.50436   2.52209   2.52779   2.53906
 Alpha virt. eigenvalues --    2.56284   2.57205   2.60062   2.62733   2.65261
 Alpha virt. eigenvalues --    2.67937   2.69189   2.70336   2.72873   2.74235
 Alpha virt. eigenvalues --    2.76575   2.82290   2.84942   2.86162   2.86478
 Alpha virt. eigenvalues --    2.92760   2.94750   2.98313   3.00550   3.06593
 Alpha virt. eigenvalues --    3.07185   3.08606   3.09744   3.10835   3.12788
 Alpha virt. eigenvalues --    3.14358   3.15590   3.16859   3.21200   3.22230
 Alpha virt. eigenvalues --    3.25327   3.26794   3.27892   3.28279   3.28996
 Alpha virt. eigenvalues --    3.29985   3.31699   3.34954   3.38739   3.41448
 Alpha virt. eigenvalues --    3.43587   3.48457   3.50014   3.58901   3.64229
 Alpha virt. eigenvalues --    3.76607   3.79508   3.79895   3.79975   3.81187
 Alpha virt. eigenvalues --    3.86400   3.88941   3.96088   3.96755   3.99837
 Alpha virt. eigenvalues --    4.00300   4.06236   4.08090   4.10409   4.12673
 Alpha virt. eigenvalues --    4.18236   4.23950   4.46961   4.75291   4.76759
 Alpha virt. eigenvalues --    4.78295   4.80789   4.96936   5.08097   5.46506
 Alpha virt. eigenvalues --    6.13994   6.16480   6.31504   6.33316   6.56591
 Alpha virt. eigenvalues --    6.59723  23.29674  23.47064  23.58860  23.69909
 Alpha virt. eigenvalues --   23.74813  23.78238  23.82381  23.86315  23.86983
 Alpha virt. eigenvalues --   23.89938  24.08755  24.10967  24.19359  35.57467
 Alpha virt. eigenvalues --   50.00830  66.90106  66.90515
          Condensed to atoms (all electrons):
               1          2          3          4          5          6
     1  C    5.356361   0.295827  -0.071529  -0.000194  -0.000152   0.000009
     2  C    0.295827   5.330528   0.333277  -0.074191   0.006700  -0.000070
     3  C   -0.071529   0.333277   5.397781   0.299411  -0.075178  -0.002048
     4  C   -0.000194  -0.074191   0.299411   5.484057   0.330491  -0.063328
     5  C   -0.000152   0.006700  -0.075178   0.330491   5.082127   0.250779
     6  O    0.000009  -0.000070  -0.002048  -0.063328   0.250779   8.245223
     7  N    0.006708  -0.066420   0.238705  -0.069949   0.006250  -0.029648
     8  C   -0.000018  -0.003092  -0.092186   0.010202  -0.000992  -0.000037
     9  C    0.000000  -0.000001   0.000029   0.000004  -0.000024  -0.000032
    10  C    0.000000   0.000002  -0.000084  -0.000012   0.000172   0.000053
    11  C    0.000000  -0.000067   0.001019  -0.000307   0.001170   0.002540
    12  C    0.000049   0.000158  -0.009601  -0.000960   0.001309   0.000597
    13  C    0.000041   0.000088  -0.000723   0.000463  -0.000170  -0.000037
    14  C   -0.000001   0.000015  -0.000265  -0.000003  -0.000053   0.000016
    15  H    0.000000   0.000000   0.000000   0.000000   0.000000  -0.000001
    16  H    0.000000   0.000000   0.000002   0.000000   0.000007   0.000071
    17  H    0.000000   0.000001   0.000005  -0.000001   0.000001   0.000000
    18  F    0.000000   0.000000  -0.000014   0.000011  -0.000251  -0.000549
    19  F   -0.000155   0.000053  -0.001109   0.000057   0.000000   0.000000
    20  H    0.388894  -0.034701   0.008048  -0.000094   0.000013   0.000000
    21  H    0.388315  -0.036984  -0.009067   0.003247   0.000314  -0.000003
    22  H    0.388286  -0.044928  -0.003095  -0.001584  -0.000195   0.000001
    23  H   -0.039375   0.389297  -0.036405  -0.009739  -0.000267  -0.000016
    24  H   -0.042124   0.404768  -0.045517   0.007903  -0.000195   0.000009
    25  H    0.001902  -0.006794  -0.045964   0.386868  -0.033641   0.005000
    26  H    0.000027  -0.000340   0.009445  -0.031271   0.388181  -0.032478
    27  H   -0.000036   0.000309  -0.011601  -0.054626   0.391965  -0.038527
    28  H   -0.000123   0.001362  -0.000643  -0.006106  -0.061571   0.257285
    29  H    0.000023  -0.000341   0.006918  -0.000264   0.000031   0.000068
    30  H   -0.000794   0.004841  -0.004106  -0.000814   0.000057  -0.000165
    31  H   -0.000985  -0.047443   0.398103  -0.047012  -0.005636   0.000035
    32  C   -0.002592  -0.001914  -0.090953   0.264106  -0.087101   0.006157
    33  H   -0.000445   0.002644  -0.007538  -0.036845   0.006995   0.000080
    34  H   -0.000034   0.000791  -0.012093  -0.038719  -0.007694   0.014890
    35  H   -0.000001  -0.000173   0.008113  -0.032963  -0.004577  -0.000574
    36  H    0.000505  -0.004598  -0.051805  -0.005139   0.000406   0.001046
               7          8          9         10         11         12
     1  C    0.006708  -0.000018   0.000000   0.000000   0.000000   0.000049
     2  C   -0.066420  -0.003092  -0.000001   0.000002  -0.000067   0.000158
     3  C    0.238705  -0.092186   0.000029  -0.000084   0.001019  -0.009601
     4  C   -0.069949   0.010202   0.000004  -0.000012  -0.000307  -0.000960
     5  C    0.006250  -0.000992  -0.000024   0.000172   0.001170   0.001309
     6  O   -0.029648  -0.000037  -0.000032   0.000053   0.002540   0.000597
     7  N    7.022366   0.276154   0.000052  -0.000215   0.003607  -0.073667
     8  C    0.276154   5.323455  -0.001442   0.008554  -0.078326   0.264300
     9  C    0.000052  -0.001442   5.066355   0.425298  -0.000863  -0.061125
    10  C   -0.000215   0.008554   0.425298   5.203274   0.473953  -0.029278
    11  C    0.003607  -0.078326  -0.000863   0.473953   4.745126   0.248529
    12  C   -0.073667   0.264300  -0.061125  -0.029278   0.248529   5.785015
    13  C   -0.001283  -0.082761   0.002040  -0.069075   0.049365   0.292449
    14  C   -0.000245   0.009815   0.424954  -0.030532  -0.064819  -0.027497
    15  H   -0.000001   0.000034   0.405657  -0.041603   0.006404  -0.002077
    16  H    0.000016  -0.000308  -0.041463   0.392696  -0.049589   0.012462
    17  H    0.000007  -0.000293  -0.041377   0.007265  -0.001458   0.012199
    18  F   -0.001221   0.004292   0.005704  -0.056239   0.310192  -0.082547
    19  F   -0.000201  -0.004929   0.005728  -0.000574   0.005197  -0.074724
    20  H   -0.000307  -0.000013   0.000000   0.000000   0.000000   0.000000
    21  H   -0.000071  -0.000027   0.000000   0.000000   0.000000   0.000000
    22  H   -0.000001   0.000051   0.000000   0.000000   0.000001   0.000028
    23  H   -0.001766   0.000076   0.000000   0.000000   0.000011   0.000042
    24  H   -0.001963   0.002379  -0.000002   0.000002  -0.000069  -0.000559
    25  H    0.005072  -0.000225   0.000001  -0.000002  -0.000002   0.000023
    26  H   -0.000412   0.000031  -0.000003   0.000007   0.000043   0.000030
    27  H    0.000230  -0.000345   0.000246  -0.000089  -0.000439   0.000678
    28  H    0.055474  -0.000926  -0.000033  -0.000417  -0.001697  -0.009360
    29  H   -0.029956   0.398096  -0.000132   0.000606  -0.012358  -0.038483
    30  H   -0.044765   0.409919  -0.000217   0.000043   0.007173  -0.065196
    31  H   -0.030524  -0.010527  -0.000046  -0.000012   0.000829  -0.001114
    32  C   -0.001839  -0.000533   0.000000   0.000000  -0.000012   0.000035
    33  H    0.000048  -0.000059   0.000000   0.000000   0.000000  -0.000002
    34  H    0.007059  -0.000028   0.000000  -0.000001  -0.000033   0.000023
    35  H   -0.000310   0.000022   0.000000   0.000000   0.000000   0.000003
    36  H    0.332801  -0.045849  -0.000004   0.000033   0.000175   0.010609
              13         14         15         16         17         18
     1  C    0.000041  -0.000001   0.000000   0.000000   0.000000   0.000000
     2  C    0.000088   0.000015   0.000000   0.000000   0.000001   0.000000
     3  C   -0.000723  -0.000265   0.000000   0.000002   0.000005  -0.000014
     4  C    0.000463  -0.000003   0.000000   0.000000  -0.000001   0.000011
     5  C   -0.000170  -0.000053   0.000000   0.000007   0.000001  -0.000251
     6  O   -0.000037   0.000016  -0.000001   0.000071   0.000000  -0.000549
     7  N   -0.001283  -0.000245  -0.000001   0.000016   0.000007  -0.001221
     8  C   -0.082761   0.009815   0.000034  -0.000308  -0.000293   0.004292
     9  C    0.002040   0.424954   0.405657  -0.041463  -0.041377   0.005704
    10  C   -0.069075  -0.030532  -0.041603   0.392696   0.007265  -0.056239
    11  C    0.049365  -0.064819   0.006404  -0.049589  -0.001458   0.310192
    12  C    0.292449  -0.027497  -0.002077   0.012462   0.012199  -0.082547
    13  C    4.752469   0.464511   0.006160  -0.001463  -0.049403   0.005043
    14  C    0.464511   5.210329  -0.041074   0.007265   0.393062  -0.000627
    15  H    0.006160  -0.041074   0.445411  -0.006737  -0.006626  -0.000069
    16  H   -0.001463   0.007265  -0.006737   0.449228  -0.000171   0.001324
    17  H   -0.049403   0.393062  -0.006626  -0.000171   0.450824   0.000004
    18  F    0.005043  -0.000627  -0.000069   0.001324   0.000004   9.031761
    19  F    0.306791  -0.057167  -0.000069   0.000004   0.001131  -0.000001
    20  H   -0.000005   0.000000   0.000000   0.000000   0.000000   0.000000
    21  H    0.000003   0.000000   0.000000   0.000000   0.000000   0.000000
    22  H   -0.000058   0.000002   0.000000   0.000000   0.000002   0.000000
    23  H   -0.000027   0.000000   0.000000   0.000000   0.000000   0.000000
    24  H    0.000385   0.000027   0.000000   0.000000   0.000000   0.000000
    25  H    0.000028  -0.000003   0.000000   0.000000   0.000000   0.000000
    26  H    0.000000   0.000000   0.000000   0.000001   0.000000  -0.000008
    27  H    0.000564   0.000066   0.000005  -0.000021   0.000000  -0.000012
    28  H   -0.000563   0.000069   0.000002   0.000007   0.000000   0.010127
    29  H    0.005645  -0.000068   0.000002  -0.000031   0.000014   0.006474
    30  H   -0.015561   0.000848   0.000002   0.000013  -0.000037   0.000146
    31  H   -0.004202  -0.000812   0.000004  -0.000004  -0.000022   0.000030
    32  C   -0.000006   0.000000   0.000000   0.000000   0.000000   0.000000
    33  H    0.000000   0.000000   0.000000   0.000000   0.000000   0.000000
    34  H    0.000002  -0.000001   0.000000   0.000000   0.000000  -0.000014
    35  H    0.000000   0.000000   0.000000   0.000000   0.000000   0.000000
    36  H   -0.000293   0.000029   0.000000  -0.000001  -0.000001  -0.000196
              19         20         21         22         23         24
     1  C   -0.000155   0.388894   0.388315   0.388286  -0.039375  -0.042124
     2  C    0.000053  -0.034701  -0.036984  -0.044928   0.389297   0.404768
     3  C   -0.001109   0.008048  -0.009067  -0.003095  -0.036405  -0.045517
     4  C    0.000057  -0.000094   0.003247  -0.001584  -0.009739   0.007903
     5  C    0.000000   0.000013   0.000314  -0.000195  -0.000267  -0.000195
     6  O    0.000000   0.000000  -0.000003   0.000001  -0.000016   0.000009
     7  N   -0.000201  -0.000307  -0.000071  -0.000001  -0.001766  -0.001963
     8  C   -0.004929  -0.000013  -0.000027   0.000051   0.000076   0.002379
     9  C    0.005728   0.000000   0.000000   0.000000   0.000000  -0.000002
    10  C   -0.000574   0.000000   0.000000   0.000000   0.000000   0.000002
    11  C    0.005197   0.000000   0.000000   0.000001   0.000011  -0.000069
    12  C   -0.074724   0.000000   0.000000   0.000028   0.000042  -0.000559
    13  C    0.306791  -0.000005   0.000003  -0.000058  -0.000027   0.000385
    14  C   -0.057167   0.000000   0.000000   0.000002   0.000000   0.000027
    15  H   -0.000069   0.000000   0.000000   0.000000   0.000000   0.000000
    16  H    0.000004   0.000000   0.000000   0.000000   0.000000   0.000000
    17  H    0.001131   0.000000   0.000000   0.000002   0.000000   0.000000
    18  F   -0.000001   0.000000   0.000000   0.000000   0.000000   0.000000
    19  F    9.040210  -0.000009  -0.000003   0.000265   0.000014   0.001397
    20  H   -0.000009   0.476562  -0.028544  -0.026683  -0.004014  -0.006886
    21  H   -0.000003  -0.028544   0.477911  -0.027694  -0.006841   0.007178
    22  H    0.000265  -0.026683  -0.027694   0.479841   0.007457  -0.004026
    23  H    0.000014  -0.004014  -0.006841   0.007457   0.495861  -0.033370
    24  H    0.001397  -0.006886   0.007178  -0.004026  -0.033370   0.481692
    25  H   -0.000007   0.000418  -0.001000   0.000039  -0.000491  -0.000073
    26  H    0.000000  -0.000002   0.000007   0.000013   0.000012   0.000015
    27  H   -0.000084   0.000000   0.000013  -0.000038  -0.000034  -0.000014
    28  H   -0.000001   0.000005   0.000001  -0.000004  -0.000084  -0.000043
    29  H    0.000142  -0.000003   0.000001  -0.000003  -0.000060   0.000203
    30  H    0.007948   0.000133  -0.000015   0.000038  -0.000213   0.001427
    31  H    0.008467  -0.000279  -0.000497   0.005291   0.006956  -0.006041
    32  C    0.000000  -0.000099   0.000375   0.000253   0.004076  -0.000323
    33  H    0.000000   0.000005   0.002378  -0.000113  -0.000701   0.000316
    34  H    0.000000   0.000027  -0.000086  -0.000010  -0.000557  -0.000088
    35  H    0.000000  -0.000005  -0.000016   0.000013   0.000122   0.000016
    36  H   -0.000031  -0.000044   0.000009   0.000034   0.005673  -0.000516
              25         26         27         28         29         30
     1  C    0.001902   0.000027  -0.000036  -0.000123   0.000023  -0.000794
     2  C   -0.006794  -0.000340   0.000309   0.001362  -0.000341   0.004841
     3  C   -0.045964   0.009445  -0.011601  -0.000643   0.006918  -0.004106
     4  C    0.386868  -0.031271  -0.054626  -0.006106  -0.000264  -0.000814
     5  C   -0.033641   0.388181   0.391965  -0.061571   0.000031   0.000057
     6  O    0.005000  -0.032478  -0.038527   0.257285   0.000068  -0.000165
     7  N    0.005072  -0.000412   0.000230   0.055474  -0.029956  -0.044765
     8  C   -0.000225   0.000031  -0.000345  -0.000926   0.398096   0.409919
     9  C    0.000001  -0.000003   0.000246  -0.000033  -0.000132  -0.000217
    10  C   -0.000002   0.000007  -0.000089  -0.000417   0.000606   0.000043
    11  C   -0.000002   0.000043  -0.000439  -0.001697  -0.012358   0.007173
    12  C    0.000023   0.000030   0.000678  -0.009360  -0.038483  -0.065196
    13  C    0.000028   0.000000   0.000564  -0.000563   0.005645  -0.015561
    14  C   -0.000003   0.000000   0.000066   0.000069  -0.000068   0.000848
    15  H    0.000000   0.000000   0.000005   0.000002   0.000002   0.000002
    16  H    0.000000   0.000001  -0.000021   0.000007  -0.000031   0.000013
    17  H    0.000000   0.000000   0.000000   0.000000   0.000014  -0.000037
    18  F    0.000000  -0.000008  -0.000012   0.010127   0.006474   0.000146
    19  F   -0.000007   0.000000  -0.000084  -0.000001   0.000142   0.007948
    20  H    0.000418  -0.000002   0.000000   0.000005  -0.000003   0.000133
    21  H   -0.001000   0.000007   0.000013   0.000001   0.000001  -0.000015
    22  H    0.000039   0.000013  -0.000038  -0.000004  -0.000003   0.000038
    23  H   -0.000491   0.000012  -0.000034  -0.000084  -0.000060  -0.000213
    24  H   -0.000073   0.000015  -0.000014  -0.000043   0.000203   0.001427
    25  H    0.503837  -0.003289   0.001527  -0.000517   0.000018   0.000016
    26  H   -0.003289   0.504191  -0.044259   0.004445   0.000000  -0.000004
    27  H    0.001527  -0.044259   0.537631   0.000350   0.000026   0.000032
    28  H   -0.000517   0.004445   0.000350   0.342739  -0.001253   0.001162
    29  H    0.000018   0.000000   0.000026  -0.001253   0.450907  -0.032290
    30  H    0.000016  -0.000004   0.000032   0.001162  -0.032290   0.484824
    31  H   -0.004099  -0.000236   0.003953  -0.000001  -0.000024  -0.001274
    32  C   -0.040007  -0.012736   0.011227   0.000374   0.000030   0.000012
    33  H   -0.005370  -0.000165  -0.000230   0.000072  -0.000001   0.000016
    34  H    0.008059  -0.001652   0.000939   0.000231   0.000034   0.000061
    35  H   -0.004626   0.004334  -0.000086  -0.000149  -0.000002  -0.000001
    36  H   -0.000191   0.000074  -0.000142  -0.003076  -0.006052  -0.001377
              31         32         33         34         35         36
     1  C   -0.000985  -0.002592  -0.000445  -0.000034  -0.000001   0.000505
     2  C   -0.047443  -0.001914   0.002644   0.000791  -0.000173  -0.004598
     3  C    0.398103  -0.090953  -0.007538  -0.012093   0.008113  -0.051805
     4  C   -0.047012   0.264106  -0.036845  -0.038719  -0.032963  -0.005139
     5  C   -0.005636  -0.087101   0.006995  -0.007694  -0.004577   0.000406
     6  O    0.000035   0.006157   0.000080   0.014890  -0.000574   0.001046
     7  N   -0.030524  -0.001839   0.000048   0.007059  -0.000310   0.332801
     8  C   -0.010527  -0.000533  -0.000059  -0.000028   0.000022  -0.045849
     9  C   -0.000046   0.000000   0.000000   0.000000   0.000000  -0.000004
    10  C   -0.000012   0.000000   0.000000  -0.000001   0.000000   0.000033
    11  C    0.000829  -0.000012   0.000000  -0.000033   0.000000   0.000175
    12  C   -0.001114   0.000035  -0.000002   0.000023   0.000003   0.010609
    13  C   -0.004202  -0.000006   0.000000   0.000002   0.000000  -0.000293
    14  C   -0.000812   0.000000   0.000000  -0.000001   0.000000   0.000029
    15  H    0.000004   0.000000   0.000000   0.000000   0.000000   0.000000
    16  H   -0.000004   0.000000   0.000000   0.000000   0.000000  -0.000001
    17  H   -0.000022   0.000000   0.000000   0.000000   0.000000  -0.000001
    18  F    0.000030   0.000000   0.000000  -0.000014   0.000000  -0.000196
    19  F    0.008467   0.000000   0.000000   0.000000   0.000000  -0.000031
    20  H   -0.000279  -0.000099   0.000005   0.000027  -0.000005  -0.000044
    21  H   -0.000497   0.000375   0.002378  -0.000086  -0.000016   0.000009
    22  H    0.005291   0.000253  -0.000113  -0.000010   0.000013   0.000034
    23  H    0.006956   0.004076  -0.000701  -0.000557   0.000122   0.005673
    24  H   -0.006041  -0.000323   0.000316  -0.000088   0.000016  -0.000516
    25  H   -0.004099  -0.040007  -0.005370   0.008059  -0.004626  -0.000191
    26  H   -0.000236  -0.012736  -0.000165  -0.001652   0.004334   0.000074
    27  H    0.003953   0.011227  -0.000230   0.000939  -0.000086  -0.000142
    28  H   -0.000001   0.000374   0.000072   0.000231  -0.000149  -0.003076
    29  H   -0.000024   0.000030  -0.000001   0.000034  -0.000002  -0.006052
    30  H   -0.001274   0.000012   0.000016   0.000061  -0.000001  -0.001377
    31  H    0.468732   0.007718  -0.000218  -0.000122  -0.000200   0.006639
    32  C    0.007718   5.443349   0.386868   0.382546   0.387569   0.003750
    33  H   -0.000218   0.386868   0.477525  -0.027013  -0.027970  -0.000525
    34  H   -0.000122   0.382546  -0.027013   0.474110  -0.026121  -0.000794
    35  H   -0.000200   0.387569  -0.027970  -0.026121   0.467915   0.000047
    36  H    0.006639   0.003750  -0.000525  -0.000794   0.000047   0.413049
 Mulliken charges:
               1
     1  C   -0.668390
     2  C   -0.448607
     3  C   -0.129329
     4  C   -0.312701
     5  C   -0.189271
     6  O   -0.616346
     7  N   -0.599786
     8  C   -0.384465
     9  C   -0.189304
    10  C   -0.283828
    11  C    0.354706
    12  C   -0.152348
    13  C    0.339582
    14  C   -0.287841
    15  H    0.234576
    16  H    0.236694
    17  H    0.234873
    18  F   -0.233359
    19  F   -0.238339
    20  H    0.227583
    21  H    0.231097
    22  H    0.226817
    23  H    0.224365
    24  H    0.234093
    25  H    0.233494
    26  H    0.215996
    27  H    0.200819
    28  H    0.412863
    29  H    0.252082
    30  H    0.248119
    31  H    0.254573
    32  C   -0.660331
    33  H    0.230250
    34  H    0.226289
    35  H    0.229620
    36  H    0.345757
 Sum of Mulliken charges =   0.00000
 Mulliken charges with hydrogens summed into heavy atoms:
               1
     1  C    0.017107
     2  C    0.009850
     3  C    0.125244
     4  C   -0.079207
     5  C    0.227543
     6  O   -0.203483
     7  N   -0.254029
     8  C    0.115736
     9  C    0.045272
    10  C   -0.047134
    11  C    0.354706
    12  C   -0.152348
    13  C    0.339582
    14  C   -0.052968
    18  F   -0.233359
    19  F   -0.238339
    32  C    0.025828
 Electronic spatial extent (au):  <R**2>=           4320.1801
 Charge=              0.0000 electrons
 Dipole moment (field-independent basis, Debye):
    X=             -0.5192    Y=              3.6263    Z=              0.3361  Tot=              3.6787
 Quadrupole moment (field-independent basis, Debye-Ang):
   XX=            -89.6503   YY=           -115.4040   ZZ=            -95.3736
   XY=              3.0655   XZ=              6.7782   YZ=             -0.9342
 Traceless Quadrupole moment (field-independent basis, Debye-Ang):
   XX=             10.4924   YY=            -15.2614   ZZ=              4.7690
   XY=              3.0655   XZ=              6.7782   YZ=             -0.9342
 Octapole moment (field-independent basis, Debye-Ang**2):
  XXX=            -43.7210  YYY=             28.7366  ZZZ=             16.0803  XYY=            -14.8359
  XXY=             -6.4438  XXZ=            -24.4082  XZZ=             -2.9568  YZZ=              0.6879
  YYZ=              3.3741  XYZ=              5.1526
 Hexadecapole moment (field-independent basis, Debye-Ang**3):
 XXXX=          -3406.3952 YYYY=          -1575.4354 ZZZZ=           -620.2887 XXXY=             36.7056
 XXXZ=            103.6947 YYYX=             34.0400 YYYZ=            -28.7554 ZZZX=             -0.4857
 ZZZY=            -19.0413 XXYY=           -812.9716 XXZZ=           -656.5069 YYZZ=           -340.1468
 XXYZ=              0.4901 YYXZ=             16.2020 ZZXY=            -26.9841
 N-N= 1.316164256344D+03 E-N=-4.590354095111D+03  KE= 8.333259604416D+02
 1\1\GINC-CPU-E-805\SP\RmPW1PW91\6-311G(d)\C13H19F2N1O1\AH809\04-Mar-20
 19\0\\# mPW1PW91/6-311g(d) nmr=giao scrf=(solvent=chloroform)\\AT3_2gi
 np004\\0,1\C,0,-1.627439,-3.206831,2.346817\C,0,-2.387893,-2.347542,1.
 345154\C,0,-3.387758,-1.36494,1.999512\C,0,-2.722473,-0.380936,3.01371
 5\C,0,-3.774046,0.492549,3.727205\O,0,-4.364754,1.445809,2.855072\N,0,
 -4.110361,-0.598414,0.960976\C,0,-5.208988,-1.333633,0.320265\C,0,-8.7
 23873,-1.602499,2.817011\C,0,-8.410571,-0.407976,2.170743\C,0,-7.27758
 5,-0.333228,1.361455\C,0,-6.43551,-1.431927,1.18007\C,0,-6.769863,-2.6
 19226,1.83288\C,0,-7.899662,-2.713265,2.644933\H,0,-9.604677,-1.666248
 ,3.450674\H,0,-9.03863,0.469884,2.29073\H,0,-8.126622,-3.652864,3.1397
 09\F,0,-7.009348,0.824097,0.739911\F,0,-5.991686,-3.702126,1.689306\H,
 0,-1.041786,-3.966496,1.818776\H,0,-0.928995,-2.611517,2.941575\H,0,-2
 .314961,-3.721457,3.02531\H,0,-1.669292,-1.811014,0.714443\H,0,-2.9276
 22,-3.029852,0.678068\H,0,-2.252404,-0.982387,3.801978\H,0,-3.310805,1
 .043607,4.552392\H,0,-4.571305,-0.126777,4.152052\H,0,-4.58524,0.95196
 1,2.034751\H,0,-5.487766,-0.791977,-0.593078\H,0,-4.889831,-2.321893,-
 0.028184\H,0,-4.102976,-1.957342,2.582975\C,0,-1.629433,0.498133,2.392
 668\H,0,-0.802145,-0.107304,2.010793\H,0,-2.009179,1.111458,1.569674\H
 ,0,-1.211003,1.17536,3.145491\H,0,-3.445704,-0.321342,0.235905\\Versio
 n=ES64L-G09RevD.01\State=1-A\HF=-836.4667336\RMSD=7.685e-09\Dipole=-0.
 0868606,-1.4107216,-0.3114466\Quadrupole=8.6469452,-11.096883,2.449937
 8,-0.16523,-4.702708,-2.8384165\PG=C01 [X(C13H19F2N1O1)]\\@


 IF YOU'RE NOT PART OF THE SOLUTION,
 THEN YOU'RE PART OF THE PRECIPITATE.
 Job cpu time:       0 days  0 hours 17 minutes 55.3 seconds.
 File lengths (MBytes):  RWF=    179 Int=      0 D2E=      0 Chk=     10 Scr=      1
 Normal termination of Gaussian 09 at Mon Mar  4 11:29:55 2019.
