 Entering Gaussian System, Link 0=/usr/local/Cluster-Apps/gaussian/g09/g09
 Initial command:
 /usr/local/Cluster-Apps/gaussian/g09/l1.exe "/home/ah809/rds/hpc-work/04Mar1111AT3/Gau-88892.inp" -scrdir="/home/ah809/rds/hpc-work/04Mar1111AT3/"
 Entering Link 1 = /usr/local/Cluster-Apps/gaussian/g09/l1.exe PID=     88898.
  
 Copyright (c) 1988,1990,1992,1993,1995,1998,2003,2009,2013,
            Gaussian, Inc.  All Rights Reserved.
  
 This is part of the Gaussian(R) 09 program.  It is based on
 the Gaussian(R) 03 system (copyright 2003, Gaussian, Inc.),
 the Gaussian(R) 98 system (copyright 1998, Gaussian, Inc.),
 the Gaussian(R) 94 system (copyright 1995, Gaussian, Inc.),
 the Gaussian 92(TM) system (copyright 1992, Gaussian, Inc.),
 the Gaussian 90(TM) system (copyright 1990, Gaussian, Inc.),
 the Gaussian 88(TM) system (copyright 1988, Gaussian, Inc.),
 the Gaussian 86(TM) system (copyright 1986, Carnegie Mellon
 University), and the Gaussian 82(TM) system (copyright 1983,
 Carnegie Mellon University). Gaussian is a federally registered
 trademark of Gaussian, Inc.
  
 This software contains proprietary and confidential information,
 including trade secrets, belonging to Gaussian, Inc.
  
 This software is provided under written license and may be
 used, copied, transmitted, or stored only in accord with that
 written license.
  
 The following legend is applicable only to US Government
 contracts under FAR:
  
                    RESTRICTED RIGHTS LEGEND
  
 Use, reproduction and disclosure by the US Government is
 subject to restrictions as set forth in subparagraphs (a)
 and (c) of the Commercial Computer Software - Restricted
 Rights clause in FAR 52.227-19.
  
 Gaussian, Inc.
 340 Quinnipiac St., Bldg. 40, Wallingford CT 06492
  
  
 ---------------------------------------------------------------
 Warning -- This program may not be used in any manner that
 competes with the business of Gaussian, Inc. or will provide
 assistance to any competitor of Gaussian, Inc.  The licensee
 of this program is prohibited from giving any competitor of
 Gaussian, Inc. access to this program.  By using this program,
 the user acknowledges that Gaussian, Inc. is engaged in the
 business of creating and licensing software in the field of
 computational chemistry and represents and warrants to the
 licensee that it is not a competitor of Gaussian, Inc. and that
 it will not use this program in any manner prohibited above.
 ---------------------------------------------------------------
  

 Cite this work as:
 Gaussian 09, Revision D.01,
 M. J. Frisch, G. W. Trucks, H. B. Schlegel, G. E. Scuseria, 
 M. A. Robb, J. R. Cheeseman, G. Scalmani, V. Barone, B. Mennucci, 
 G. A. Petersson, H. Nakatsuji, M. Caricato, X. Li, H. P. Hratchian, 
 A. F. Izmaylov, J. Bloino, G. Zheng, J. L. Sonnenberg, M. Hada, 
 M. Ehara, K. Toyota, R. Fukuda, J. Hasegawa, M. Ishida, T. Nakajima, 
 Y. Honda, O. Kitao, H. Nakai, T. Vreven, J. A. Montgomery, Jr., 
 J. E. Peralta, F. Ogliaro, M. Bearpark, J. J. Heyd, E. Brothers, 
 K. N. Kudin, V. N. Staroverov, T. Keith, R. Kobayashi, J. Normand, 
 K. Raghavachari, A. Rendell, J. C. Burant, S. S. Iyengar, J. Tomasi, 
 M. Cossi, N. Rega, J. M. Millam, M. Klene, J. E. Knox, J. B. Cross, 
 V. Bakken, C. Adamo, J. Jaramillo, R. Gomperts, R. E. Stratmann, 
 O. Yazyev, A. J. Austin, R. Cammi, C. Pomelli, J. W. Ochterski, 
 R. L. Martin, K. Morokuma, V. G. Zakrzewski, G. A. Voth, 
 P. Salvador, J. J. Dannenberg, S. Dapprich, A. D. Daniels, 
 O. Farkas, J. B. Foresman, J. V. Ortiz, J. Cioslowski, 
 and D. J. Fox, Gaussian, Inc., Wallingford CT, 2013.
 
 ******************************************
 Gaussian 09:  ES64L-G09RevD.01 24-Apr-2013
                 4-Mar-2019 
 ******************************************
 %nprocshared=8
 Will use up to    8 processors via shared memory.
 %mem=6000MB
 %chk=AT3_2ginp008.chk
 -------------------------------------------------------
 # mPW1PW91/6-311g(d) nmr=giao scrf=(solvent=chloroform)
 -------------------------------------------------------
 1/38=1/1;
 2/12=2,17=6,18=5,40=1/2;
 3/5=4,6=6,7=1,11=2,16=1,25=1,30=1,70=2201,72=7,74=-7/1,2,8,3;
 4//1;
 5/5=2,38=5,53=7/2;
 8/6=1,10=90,11=11/1;
 10/13=100,45=16/2;
 6/7=2,8=2,9=2,10=2,28=1/1;
 99/9=1/99;
 ------------
 AT3_2ginp008
 ------------
 Symbolic Z-matrix:
 Charge =  0 Multiplicity = 1
 C                    -2.56826   0.2731   -0.77541 
 C                    -2.3241    0.21441   0.7303 
 C                    -3.04452  -0.95988   1.44259 
 C                    -2.58284  -1.12939   2.92307 
 C                    -2.97127   0.05835   3.81479 
 O                    -2.61094  -0.21427   5.16742 
 N                    -4.50424  -0.76468   1.32752 
 C                    -5.28028  -1.94792   1.71528 
 C                    -9.4917   -1.29023   1.00527 
 C                    -8.65716  -1.68999  -0.037 
 C                    -7.30041  -1.90249   0.20466 
 C                    -6.74748  -1.7288    1.47482 
 C                    -7.59881  -1.32247   2.50342 
 C                    -8.95854  -1.10547   2.28008 
 H                    -10.55022  -1.12114   0.82535 
 H                    -9.05182  -1.83556  -1.0381 
 H                    -9.59103  -0.79188   3.10532 
 F                    -6.51693  -2.27836  -0.81701 
 F                    -7.11796  -1.13981   3.74168 
 H                    -1.92144   1.03236  -1.22749 
 H                    -2.34152  -0.68763  -1.24812 
 H                    -3.60084   0.5443   -1.01238 
 H                    -1.24196   0.12512   0.87074 
 H                    -2.62129   1.1733    1.17154 
 H                    -3.06527  -2.02424   3.3371 
 H                    -4.05081   0.23567   3.78901 
 H                    -2.45701   0.97475   3.50961 
 H                    -2.96375   0.51766   5.70191 
 H                    -4.95423  -2.82795   1.1465 
 H                    -5.13342  -2.18644   2.77373 
 H                    -2.77502  -1.87671   0.90004 
 C                    -1.07733  -1.41976   3.02908 
 H                    -0.47341  -0.5274    2.83799 
 H                    -0.82193  -1.77618   4.03307 
 H                    -0.77905  -2.19966   2.3207 
 H                    -4.73709  -0.56102   0.35562 
 
                          Input orientation:                          
 ---------------------------------------------------------------------
 Center     Atomic      Atomic             Coordinates (Angstroms)
 Number     Number       Type             X           Y           Z
 ---------------------------------------------------------------------
      1          6           0       -2.568255    0.273097   -0.775405
      2          6           0       -2.324100    0.214411    0.730297
      3          6           0       -3.044515   -0.959882    1.442586
      4          6           0       -2.582843   -1.129392    2.923068
      5          6           0       -2.971274    0.058345    3.814785
      6          8           0       -2.610940   -0.214269    5.167417
      7          7           0       -4.504241   -0.764677    1.327519
      8          6           0       -5.280277   -1.947916    1.715279
      9          6           0       -9.491698   -1.290232    1.005270
     10          6           0       -8.657157   -1.689990   -0.036999
     11          6           0       -7.300412   -1.902490    0.204655
     12          6           0       -6.747475   -1.728800    1.474823
     13          6           0       -7.598805   -1.322469    2.503415
     14          6           0       -8.958536   -1.105467    2.280081
     15          1           0      -10.550217   -1.121137    0.825354
     16          1           0       -9.051816   -1.835555   -1.038104
     17          1           0       -9.591028   -0.791878    3.105316
     18          9           0       -6.516926   -2.278356   -0.817011
     19          9           0       -7.117955   -1.139809    3.741676
     20          1           0       -1.921440    1.032365   -1.227490
     21          1           0       -2.341515   -0.687633   -1.248124
     22          1           0       -3.600836    0.544295   -1.012383
     23          1           0       -1.241955    0.125120    0.870742
     24          1           0       -2.621285    1.173299    1.171544
     25          1           0       -3.065268   -2.024241    3.337100
     26          1           0       -4.050812    0.235666    3.789007
     27          1           0       -2.457011    0.974753    3.509609
     28          1           0       -2.963746    0.517658    5.701905
     29          1           0       -4.954228   -2.827945    1.146504
     30          1           0       -5.133415   -2.186441    2.773732
     31          1           0       -2.775019   -1.876705    0.900042
     32          6           0       -1.077329   -1.419756    3.029083
     33          1           0       -0.473411   -0.527402    2.837985
     34          1           0       -0.821926   -1.776182    4.033072
     35          1           0       -0.779052   -2.199656    2.320700
     36          1           0       -4.737087   -0.561016    0.355618
 ---------------------------------------------------------------------
                    Distance matrix (angstroms):
                    1          2          3          4          5
     1  C    0.000000
     2  C    1.526497   0.000000
     3  C    2.581965   1.550909   0.000000
     4  C    3.955489   2.584763   1.560033   0.000000
     5  C    4.612850   3.155512   2.582533   1.535173   0.000000
     6  O    5.962926   4.466999   3.823388   2.423910   1.426104
     7  N    3.040938   2.463392   1.477209   2.523998   3.035432
     8  C    4.300171   3.792734   2.459513   3.066739   3.710054
     9  C    7.317709   7.328985   6.470436   7.171896   7.226892
    10  C    6.440006   6.657559   5.850126   6.780380   7.086761
    11  C    5.299718   5.433346   4.531406   5.499355   5.968195
    12  C    5.151407   4.888418   3.782088   4.449816   4.788424
    13  C    6.213125   5.773081   4.690244   5.037188   5.004037
    14  C    7.216102   6.939715   5.974800   6.408078   6.289442
    15  H    8.259421   8.334370   7.532765   8.238903   8.232148
    16  H    6.822902   7.252018   6.558071   7.618212   8.006896
    17  H    8.094042   7.711133   6.756458   7.018674   6.711734
    18  F    4.701451   5.117406   4.347619   5.548452   6.283737
    19  F    6.565066   5.820942   4.680930   4.608413   4.316930
    20  H    1.095097   2.159656   3.515630   4.726286   5.241699
    21  H    1.094475   2.174428   2.794324   4.201456   5.156174
    22  H    1.093586   2.185363   2.932391   4.396056   4.892244
    23  H    2.119143   1.094868   2.180243   2.753874   3.415024
    24  H    2.145644   1.096578   2.191586   2.893389   2.890041
    25  H    4.736822   3.515155   2.173125   1.097684   2.138734
    26  H    4.799295   3.512505   2.819159   2.183613   1.094308
    27  H    4.343506   2.884504   2.891463   2.187988   1.094259
    28  H    6.493979   5.021752   4.509041   3.252660   1.942227
    29  H    4.359250   4.043109   2.687811   3.415367   4.402556
    30  H    5.022524   4.222791   2.764037   2.764972   3.285987
    31  H    2.733409   2.145905   1.098884   2.165189   3.504092
    32  C    4.422979   3.083724   2.568711   1.536920   2.527674
    33  H    4.252735   2.901325   2.957153   2.195298   2.745279
    34  H    5.510958   4.138515   3.509539   2.179742   2.834226
    35  H    4.347599   3.277846   2.727718   2.182195   3.483776
    36  H    2.584335   2.562065   2.050706   3.399356   3.932879
                    6          7          8          9         10
     6  O    0.000000
     7  N    4.316521   0.000000
     8  C    4.695546   1.467189   0.000000
     9  C    8.113322   5.025413   4.321195   0.000000
    10  C    8.112980   4.468202   3.813177   1.393768   0.000000
    11  C    7.033509   3.220872   2.522894   2.411966   1.394385
    12  C    5.748041   2.446085   1.502831   2.818436   2.435980
    13  C    5.762275   3.357110   2.527432   2.414233   2.776488
    14  C    7.030144   4.567741   3.815535   1.394110   2.408600
    15  H    9.094396   6.077258   5.408123   1.086934   2.156600
    16  H    9.089661   5.236735   4.671001   2.160151   1.085890
    17  H    7.301200   5.388572   4.674527   2.160652   3.398950
    18  F    7.438451   3.307738   2.837426   3.625792   2.352697
    19  F    4.816902   3.577762   2.852434   3.625631   4.117065
    20  H    6.551667   4.053183   5.368775   8.227301   7.361954
    21  H    6.438620   3.364113   4.359632   7.521039   6.508370
    22  H    6.304383   2.829256   4.058544   6.491430   5.613358
    23  H    4.522247   3.412169   4.617225   8.371355   7.687902
    24  H    4.229947   2.706585   4.136166   7.300631   6.789017
    25  H    2.613900   2.774087   2.746342   6.875697   6.539533
    26  H    2.043450   2.695405   3.252685   6.299270   6.290063
    27  H    2.045922   3.460966   4.442122   7.803121   7.623719
    28  H    0.972557   4.811732   5.228629   8.242633   8.379956
    29  H    5.337606   2.119512   1.097390   4.793031   4.050593
    30  H    3.997758   2.123395   1.094891   4.788035   4.534692
    31  H    4.582696   2.099893   2.635527   6.743056   5.959233
    32  C    2.894414   3.881775   4.435065   8.655299   8.180934
    33  H    3.177001   4.311078   5.136564   9.234189   8.751619
    34  H    2.631897   4.680022   5.027778   9.196123   8.829708
    35  H    3.924458   4.113710   4.548729   8.858194   8.239117
    36  H    5.272015   1.019944   2.016736   4.853878   4.098253
                   11         12         13         14         15
    11  C    0.000000
    12  C    1.396150   0.000000
    13  C    2.389510   1.395661   0.000000
    14  C    2.773448   2.434292   1.394932   0.000000
    15  H    3.399561   3.905370   3.401067   2.156368   0.000000
    16  H    2.148568   3.411185   3.862234   3.398835   2.495611
    17  H    3.859302   3.409124   2.147735   1.086000   2.495332
    18  F    1.341241   2.368051   3.620692   4.114500   4.505991
    19  F    3.622912   2.371242   1.340847   2.350570   4.503965
    20  H    6.292675   6.182001   7.190088   8.148257   9.127296
    21  H    5.308211   5.283082   6.489696   7.510511   8.477619
    22  H    4.599435   4.610259   5.641755   6.501306   7.378674
    23  H    6.423377   5.840606   6.720913   7.940164   9.391430
    24  H    5.682392   5.053672   5.725246   6.825128   8.261492
    25  H    5.269106   4.136908   4.662668   6.057396   7.946630
    26  H    5.289536   4.060365   4.082742   5.306717   7.270930
    27  H    6.531446   5.464214   5.720813   6.936057   8.780545
    28  H    7.408343   6.101754   5.924540   7.090904   9.166294
    29  H    2.692234   2.128767   3.331884   4.504044   5.859302
    30  H    3.372931   2.121742   2.626341   4.005465   5.854297
    31  H    4.578582   4.016548   5.113403   6.382413   7.812181
    32  C    6.851072   5.887426   6.543351   7.922954   9.730427
    33  H    7.445350   6.531879   7.177417   8.523072  10.292970
    34  H    7.526188   6.454379   6.962169   8.350285  10.264414
    35  H    6.862513   6.046428   6.878363   8.252446   9.943587
    36  H    2.897064   2.580310   3.658179   4.671254   5.858914
                   16         17         18         19         20
    16  H    0.000000
    17  H    4.306732   0.000000
    18  F    2.582755   5.200420   0.000000
    19  F    5.202901   2.577227   4.736998   0.000000
    20  H    7.687854   8.995757   5.678720   7.510973   0.000000
    21  H    6.811018   8.456876   4.488910   6.922207   1.770673
    22  H    5.947901   7.390751   4.063140   6.148773   1.762060
    23  H    8.275377   8.691446   6.037427   6.661057   2.384821
    24  H    7.435555   7.495246   5.571740   5.672397   2.503000
    25  H    7.417329   6.645148   5.406954   4.167754   5.611298
    26  H    7.252655   5.676026   5.798054   3.361776   5.507649
    27  H    8.489463   7.360614   6.766481   5.123439   4.767626
    28  H    9.382427   7.237266   7.933413   4.883354   7.026225
    29  H    4.748429   5.429772   2.568942   3.777094   5.453040
    30  H    5.477872   4.682421   3.849154   2.443512   6.057002
    31  H    6.569344   7.245555   4.136600   5.242041   3.703738
    32  C    8.961436   8.537161   6.717057   6.088951   4.984359
    33  H    9.503913   9.125369   7.276600   6.733622   4.588872
    34  H    9.667029   8.872809   7.497233   6.334814   6.063858
    35  H    8.936037   8.958146   6.540231   6.582108   4.933626
    36  H    4.709968   5.583447   2.737178   4.179584   3.601800
                   21         22         23         24         25
    21  H    0.000000
    22  H    1.777388   0.000000
    23  H    2.521744   3.047325   0.000000
    24  H    3.065311   2.474814   1.758327   0.000000
    25  H    4.830592   5.079588   3.745283   3.887289   0.000000
    26  H    5.398784   4.832295   4.051934   3.126310   2.506531
    27  H    5.041120   4.684233   3.026856   2.352223   3.064915
    28  H    7.081158   6.744498   5.143810   4.590350   3.473307
    29  H    4.140223   4.226638   4.751590   4.631760   3.002136
    30  H    5.120201   4.913287   4.910005   4.490619   2.149634
    31  H    2.493278   3.193835   2.521596   3.065921   2.458712
    32  C    4.519809   5.153546   2.659357   3.543753   2.100519
    33  H    4.495751   5.074904   2.210541   3.206676   3.034364
    34  H    5.602242   6.209957   3.713718   4.486142   2.361883
    35  H    4.178996   5.157633   2.778712   4.011385   2.508111
    36  H    2.885617   2.093849   3.598900   2.854856   3.718231
                   26         27         28         29         30
    26  H    0.000000
    27  H    1.778908   0.000000
    28  H    2.218200   2.296057   0.000000
    29  H    4.145443   5.126487   5.992225   0.000000
    30  H    2.840672   4.206875   4.538041   1.758268   0.000000
    31  H    3.799458   3.878374   5.369030   2.390513   3.027983
    32  C    3.487049   2.805014   3.802120   4.534032   4.135800
    33  H    3.779486   2.577250   3.936490   5.313316   4.946936
    34  H    3.812192   3.242709   3.554448   5.149214   4.510342
    35  H    4.334874   3.782317   4.856875   4.382417   4.377886
    36  H    3.590799   4.183897   5.735073   2.410730   2.940469
                   31         32         33         34         35
    31  H    0.000000
    32  C    2.761117   0.000000
    33  H    3.297520   1.094318   0.000000
    34  H    3.693312   1.095566   1.763277   0.000000
    35  H    2.471123   1.094998   1.776917   1.764479   0.000000
    36  H    2.424283   4.612882   4.933782   5.507157   4.713038
                   36
    36  H    0.000000
 Stoichiometry    C13H19F2NO
 Framework group  C1[X(C13H19F2NO)]
 Deg. of freedom   102
 Full point group                 C1      NOp   1
 Largest Abelian subgroup         C1      NOp   1
 Largest concise Abelian subgroup C1      NOp   1
                         Standard orientation:                         
 ---------------------------------------------------------------------
 Center     Atomic      Atomic             Coordinates (Angstroms)
 Number     Number       Type             X           Y           Z
 ---------------------------------------------------------------------
      1          6           0       -1.965144    3.092883   -1.049498
      2          6           0       -2.568844    1.703370   -0.862435
      3          6           0       -1.864252    0.848509    0.222959
      4          6           0       -2.650018   -0.458319    0.552314
      5          6           0       -2.706595   -1.440284   -0.626373
      6          8           0       -3.346037   -2.648217   -0.219208
      7          7           0       -0.477695    0.577438   -0.208464
      8          6           0        0.363522    0.021652    0.857415
      9          6           0        4.443531   -0.396988   -0.503100
     10          6           0        3.979985    0.832784   -0.039015
     11          6           0        2.662411    0.955189    0.400675
     12          6           0        1.784885   -0.130690    0.393711
     13          6           0        2.266773   -1.351725   -0.080343
     14          6           0        3.581793   -1.492671   -0.523844
     15          1           0        5.468748   -0.500866   -0.848881
     16          1           0        4.633893    1.699466   -0.018440
     17          1           0        3.922379   -2.458977   -0.883911
     18          9           0        2.238242    2.151412    0.834333
     19          9           0        1.464470   -2.425657   -0.109526
     20          1           0       -2.595280    3.684425   -1.721991
     21          1           0       -1.898985    3.624459   -0.095074
     22          1           0       -0.967463    3.049105   -1.495197
     23          1           0       -3.620076    1.850141   -0.593909
     24          1           0       -2.559624    1.183930   -1.828137
     25          1           0       -2.143908   -0.968153    1.382273
     26          1           0       -1.701757   -1.698590   -0.974348
     27          1           0       -3.274229   -1.027661   -1.465978
     28          1           0       -3.269043   -3.268279   -0.964501
     29          1           0        0.345744    0.670385    1.742340
     30          1           0       -0.003894   -0.958212    1.179374
     31          1           0       -1.828576    1.457859    1.136724
     32          6           0       -4.061803   -0.165011    1.084250
     33          1           0       -4.739639    0.161137    0.289456
     34          1           0       -4.498884   -1.062116    1.536386
     35          1           0       -4.034733    0.609620    1.857705
     36          1           0       -0.044382    1.452003   -0.504545
 ---------------------------------------------------------------------
 Rotational constants (GHZ):      0.6713306      0.2634406      0.2057270
 Standard basis: 6-311G(d) (5D, 7F)
 There are   380 symmetry adapted cartesian basis functions of A   symmetry.
 There are   363 symmetry adapted basis functions of A   symmetry.
   363 basis functions,   639 primitive gaussians,   380 cartesian basis functions
    65 alpha electrons       65 beta electrons
       nuclear repulsion energy      1259.0445618880 Hartrees.
 NAtoms=   36 NActive=   36 NUniq=   36 SFac= 1.00D+00 NAtFMM=   60 NAOKFM=F Big=F
 Integral buffers will be    131072 words long.
 Raffenetti 2 integral format.
 Two-electron integral symmetry is turned on.
 ------------------------------------------------------------------------------
 Polarizable Continuum Model (PCM)
 =================================
 Model                : PCM (using non-symmetric T matrix).
 Atomic radii         : UFF (Universal Force Field).
 Polarization charges : Total charges.
 Charge compensation  : None.
 Solution method      : On-the-fly selection.
 Cavity type          : Scaled VdW (van der Waals Surface) (Alpha=1.100).
 Cavity algorithm     : GePol (No added spheres)
                        Default sphere list used, NSphG=   36.
                        Lebedev-Laikov grids with approx.  5.0 points / Ang**2.
                        Smoothing algorithm: Karplus/York (Gamma=1.0000).
                        Polarization charges: spherical gaussians, with
                                              point-specific exponents (IZeta= 3).
                        Self-potential: point-specific (ISelfS= 7).
                        Self-field    : sphere-specific E.n sum rule (ISelfD= 2).
 Solvent              : Chloroform, Eps=   4.711300 Eps(inf)=   2.090627
 ------------------------------------------------------------------------------
 One-electron integrals computed using PRISM.
 NBasis=   363 RedAO= T EigKep=  2.45D-04  NBF=   363
 NBsUse=   363 1.00D-06 EigRej= -1.00D+00 NBFU=   363
 ExpMin= 1.03D-01 ExpMax= 1.14D+04 ExpMxC= 1.72D+03 IAcc=1 IRadAn=         1 AccDes= 0.00D+00
 Harris functional with IExCor=  908 and IRadAn=       1 diagonalized for initial guess.
 HarFok:  IExCor=  908 AccDes= 0.00D+00 IRadAn=         1 IDoV= 1 UseB2=F ITyADJ=14
 ICtDFT=  3500011 ScaDFX=  1.000000  1.000000  1.000000  1.000000
 FoFCou: FMM=F IPFlag=           0 FMFlag=      100000 FMFlg1=           0
         NFxFlg=           0 DoJE=T BraDBF=F KetDBF=T FulRan=T
         wScrn=  0.000000 ICntrl=     500 IOpCl=  0 I1Cent=   200000004 NGrid=           0
         NMat0=    1 NMatS0=      1 NMatT0=    0 NMatD0=    1 NMtDS0=    0 NMtDT0=    0
 Petite list used in FoFCou.
 Requested convergence on RMS density matrix=1.00D-08 within 128 cycles.
 Requested convergence on MAX density matrix=1.00D-06.
 Requested convergence on             energy=1.00D-06.
 No special actions if energy rises.
 Inv3:  Mode=1 IEnd=    19385292.
 Iteration    1 A*A^-1 deviation from unit magnitude is 4.88D-15 for   2536.
 Iteration    1 A*A^-1 deviation from orthogonality  is 5.56D-15 for   2536   1230.
 Iteration    1 A^-1*A deviation from unit magnitude is 4.66D-15 for   2536.
 Iteration    1 A^-1*A deviation from orthogonality  is 4.06D-13 for   2382   2372.
 Error on total polarization charges =  0.00951
 SCF Done:  E(RmPW1PW91) =  -836.456538033     A.U. after   12 cycles
            NFock= 12  Conv=0.70D-08     -V/T= 2.0038
 DoSCS=F DFT=T ScalE2(SS,OS)=  1.000000  1.000000
 Range of M.O.s used for correlation:     1   363
 NBasis=   363 NAE=    65 NBE=    65 NFC=     0 NFV=     0
 NROrb=    363 NOA=    65 NOB=    65 NVA=   298 NVB=   298
 NEqPCM:  Using equilibrium solvation (IEInf=0, Eps=   4.7113, EpsInf=   2.0906)
          Differentiating once with respect to magnetic field using GIAOs.
          Electric field/nuclear overlap derivatives assumed to be zero.
 FoFJK:  IHMeth= 1 ICntrl=    6127 DoSepK=F KAlg= 0 I1Cent=   0 FoldK=F
 IRaf=         1 NMat=   1 IRICut=       1 DoRegI=T DoRafI=F ISym2E= 0.
          There are     3 degrees of freedom in the 1st order CPHF.  IDoFFX=0 NUNeed=     3.
      3 vectors produced by pass  0 Test12= 6.46D-13 3.33D-08 XBig12= 5.07D+01 2.31D+00.
 AX will form     3 AO Fock derivatives at one time.
      3 vectors produced by pass  1 Test12= 6.46D-13 3.33D-08 XBig12= 1.60D-01 2.14D-01.
      3 vectors produced by pass  2 Test12= 6.46D-13 3.33D-08 XBig12= 7.76D-04 8.57D-03.
      3 vectors produced by pass  3 Test12= 6.46D-13 3.33D-08 XBig12= 1.66D-06 2.74D-04.
      3 vectors produced by pass  4 Test12= 6.46D-13 3.33D-08 XBig12= 3.21D-09 1.58D-05.
      3 vectors produced by pass  5 Test12= 6.46D-13 3.33D-08 XBig12= 1.30D-11 6.03D-07.
 InvSVY:  IOpt=1 It=  1 EMax= 2.66D-15
 Solved reduced A of dimension    18 with     3 vectors.
 Calculating GIAO nuclear magnetic shielding tensors.
 SCF GIAO Magnetic shielding tensor (ppm):
      1  C    Isotropic =   174.9652   Anisotropy =    22.9074
   XX=   164.2181   YX=     9.6232   ZX=     2.1366
   XY=     6.6002   YY=   187.6996   ZY=    -0.9519
   XZ=     4.4355   YZ=    -0.3493   ZZ=   172.9780
   Eigenvalues:   160.7787   173.8802   190.2368
      2  C    Isotropic =   163.2794   Anisotropy =    17.0696
   XX=   162.1854   YX=     1.0336   ZX=     4.7811
   XY=    -6.6897   YY=   164.0192   ZY=    -6.3074
   XZ=    12.2589   YZ=    -4.2589   ZZ=   163.6336
   Eigenvalues:   154.0807   161.0983   174.6591
      3  C    Isotropic =   120.0598   Anisotropy =    21.9862
   XX=   130.9930   YX=   -11.7128   ZX=    -2.9553
   XY=     6.3493   YY=   119.8120   ZY=     2.4875
   XZ=   -12.8786   YZ=     7.1298   ZZ=   109.3744
   Eigenvalues:   105.7490   119.7132   134.7172
      4  C    Isotropic =   150.9230   Anisotropy =    27.2043
   XX=   140.5473   YX=     4.3066   ZX=    -5.6726
   XY=     8.1650   YY=   165.5418   ZY=     2.8616
   XZ=    -4.1823   YZ=    12.9118   ZZ=   146.6801
   Eigenvalues:   134.9010   148.8089   169.0592
      5  C    Isotropic =   122.7350   Anisotropy =    53.3696
   XX=   109.5439   YX=    23.3174   ZX=    -7.4411
   XY=    17.1852   YY=   144.9964   ZY=    -6.4961
   XZ=    -8.4226   YZ=   -16.0968   ZZ=   113.6648
   Eigenvalues:    99.7372   110.1532   158.3148
      6  O    Isotropic =   310.0962   Anisotropy =   113.1624
   XX=   267.2317   YX=    -9.8166   ZX=    -0.6548
   XY=     1.1842   YY=   329.2476   ZY=    42.7240
   XZ=     8.4922   YZ=    65.1980   ZZ=   333.8093
   Eigenvalues:   264.6023   280.1485   385.5378
      7  N    Isotropic =   198.1949   Anisotropy =    49.3213
   XX=   226.4174   YX=    -1.4744   ZX=   -16.0722
   XY=   -12.6842   YY=   173.9442   ZY=   -13.6846
   XZ=   -10.1325   YZ=   -25.7897   ZZ=   194.2230
   Eigenvalues:   159.3788   204.1300   231.0758
      8  C    Isotropic =   147.7736   Anisotropy =    50.6332
   XX=   150.1436   YX=   -14.3412   ZX=    17.4410
   XY=   -18.5567   YY=   129.2659   ZY=    -4.6127
   XZ=    20.3291   YZ=    -8.6351   ZZ=   163.9113
   Eigenvalues:   119.9048   141.8869   181.5291
      9  C    Isotropic =    54.5026   Anisotropy =   185.8767
   XX=   -31.3814   YX=    -1.6259   ZX=    65.0312
   XY=    -1.6146   YY=    45.4226   ZY=   -34.4452
   XZ=    63.6169   YZ=   -34.6401   ZZ=   149.4668
   Eigenvalues:   -52.7888    37.8763   178.4204
     10  C    Isotropic =    71.0140   Anisotropy =   148.0860
   XX=    43.5967   YX=   -35.5717   ZX=    30.3883
   XY=   -43.9377   YY=    16.1772   ZY=   -26.2598
   XZ=    28.8013   YZ=   -28.3948   ZZ=   153.2680
   Eigenvalues:   -12.3407    55.6446   169.7380
     11  C    Isotropic =    18.9980   Anisotropy =    99.0139
   XX=    32.6930   YX=    26.5038   ZX=    24.1338
   XY=    21.4330   YY=   -44.0382   ZY=   -40.0593
   XZ=    21.6630   YZ=   -36.9435   ZZ=    68.3390
   Eigenvalues:   -65.1055    37.0922    85.0072
     12  C    Isotropic =    66.0990   Anisotropy =   140.7527
   XX=    32.0027   YX=   -11.6860   ZX=    39.6881
   XY=    -9.8963   YY=    27.4369   ZY=   -32.1341
   XZ=    37.6984   YZ=   -31.5799   ZZ=   138.8575
   Eigenvalues:    18.6670    19.6959   159.9342
     13  C    Isotropic =    19.4235   Anisotropy =    99.5379
   XX=     6.1879   YX=   -55.1026   ZX=    11.5178
   XY=   -46.9670   YY=   -26.2502   ZY=   -14.6524
   XZ=     8.8209   YZ=   -16.4767   ZZ=    78.3329
   Eigenvalues:   -63.8898    36.3782    85.7822
     14  C    Isotropic =    70.5952   Anisotropy =   148.5578
   XX=    59.7826   YX=     4.3187   ZX=    35.7174
   XY=    12.8488   YY=     5.9621   ZY=   -47.1262
   XZ=    37.7008   YZ=   -44.5432   ZZ=   146.0410
   Eigenvalues:   -12.9650    55.1169   169.6338
     15  H    Isotropic =    24.5170   Anisotropy =     3.2151
   XX=    25.5902   YX=     0.4054   ZX=    -1.2059
   XY=     0.4544   YY=    26.3319   ZY=     1.2767
   XZ=    -1.2455   YZ=     1.2120   ZZ=    21.6291
   Eigenvalues:    20.9589    25.9318    26.6604
     16  H    Isotropic =    25.1807   Anisotropy =     5.0081
   XX=    27.9526   YX=    -0.0162   ZX=    -1.7744
   XY=    -0.3125   YY=    25.5217   ZY=     1.2787
   XZ=    -1.7430   YZ=     1.1294   ZZ=    22.0680
   Eigenvalues:    21.2856    25.7371    28.5195
     17  H    Isotropic =    25.1710   Anisotropy =     5.0611
   XX=    28.0298   YX=    -0.0337   ZX=    -1.9278
   XY=     0.3326   YY=    25.5091   ZY=     0.9173
   XZ=    -1.7359   YZ=     0.9841   ZZ=    21.9741
   Eigenvalues:    21.2486    25.7194    28.5451
     18  F    Isotropic =   306.6911   Anisotropy =   129.4039
   XX=   247.5031   YX=   -19.9415   ZX=    37.6320
   XY=   -28.7905   YY=   288.7560   ZY=   -17.6583
   XZ=    27.5911   YZ=     1.4772   ZZ=   383.8141
   Eigenvalues:   231.5048   295.6081   392.9603
     19  F    Isotropic =   301.8663   Anisotropy =   128.9922
   XX=   259.9935   YX=    16.4099   ZX=    43.0444
   XY=    24.8404   YY=   280.6887   ZY=   -36.2171
   XZ=    38.8745   YZ=   -40.8767   ZZ=   364.9168
   Eigenvalues:   225.2356   292.5023   387.8611
     20  H    Isotropic =    30.9503   Anisotropy =    11.2956
   XX=    29.1416   YX=    -1.6982   ZX=     2.4680
   XY=    -2.5312   YY=    33.9357   ZY=    -4.9655
   XZ=     3.4002   YZ=    -4.9585   ZZ=    29.7737
   Eigenvalues:    25.7864    28.5838    38.4807
     21  H    Isotropic =    31.5005   Anisotropy =     8.7910
   XX=    27.9519   YX=     0.5553   ZX=     0.7263
   XY=     0.3873   YY=    35.3315   ZY=     4.0617
   XZ=     0.4267   YZ=     2.8813   ZZ=    31.2182
   Eigenvalues:    27.8494    29.2910    37.3612
     22  H    Isotropic =    31.3168   Anisotropy =     7.3625
   XX=    34.0342   YX=     0.4202   ZX=    -3.0756
   XY=     1.5395   YY=    31.5249   ZY=    -2.7489
   XZ=    -2.3513   YZ=    -3.5569   ZZ=    28.3914
   Eigenvalues:    26.0013    31.7241    36.2252
     23  H    Isotropic =    30.4737   Anisotropy =     7.0382
   XX=    35.0546   YX=     0.0373   ZX=    -1.2615
   XY=    -0.4385   YY=    31.1639   ZY=    -3.5992
   XZ=    -0.7319   YZ=    -3.8747   ZZ=    25.2026
   Eigenvalues:    23.3205    32.9348    35.1659
     24  H    Isotropic =    31.0059   Anisotropy =     6.0482
   XX=    26.8541   YX=     1.8726   ZX=     2.3978
   XY=     1.3718   YY=    32.4664   ZY=     0.7374
   XZ=     2.3449   YZ=     0.7481   ZZ=    33.6973
   Eigenvalues:    25.8403    32.1394    35.0380
     25  H    Isotropic =    29.6819   Anisotropy =     5.7677
   XX=    32.8281   YX=     0.0947   ZX=     1.1183
   XY=    -0.8537   YY=    28.0884   ZY=    -3.0766
   XZ=     1.5822   YZ=    -3.0974   ZZ=    28.1292
   Eigenvalues:    24.9607    30.5580    33.5270
     26  H    Isotropic =    27.8609   Anisotropy =     6.4847
   XX=    30.3538   YX=     1.4366   ZX=    -2.6764
   XY=     2.7751   YY=    29.7190   ZY=     2.2686
   XZ=    -2.3103   YZ=     2.5273   ZZ=    23.5100
   Eigenvalues:    21.6148    29.7839    32.1840
     27  H    Isotropic =    28.6424   Anisotropy =     5.8740
   XX=    24.9035   YX=     3.6184   ZX=     1.2967
   XY=     1.8160   YY=    31.3683   ZY=    -1.9910
   XZ=     2.9175   YZ=    -0.9527   ZZ=    29.6554
   Eigenvalues:    22.9822    30.3865    32.5584
     28  H    Isotropic =    31.4739   Anisotropy =    19.6171
   XX=    23.7536   YX=     2.7794   ZX=    -1.0080
   XY=     2.1524   YY=    37.3927   ZY=     9.7032
   XZ=    -1.8650   YZ=     8.1593   ZZ=    33.2753
   Eigenvalues:    22.0066    27.8631    44.5519
     29  H    Isotropic =    28.6665   Anisotropy =     6.7601
   XX=    28.9280   YX=     0.9706   ZX=     2.7187
   XY=     1.3189   YY=    25.7912   ZY=     1.6055
   XZ=     0.0705   YZ=     4.0138   ZZ=    31.2805
   Eigenvalues:    24.5423    28.2841    33.1733
     30  H    Isotropic =    28.1322   Anisotropy =     5.0524
   XX=    30.5411   YX=    -1.1478   ZX=     0.1780
   XY=    -0.6896   YY=    29.9957   ZY=    -2.1848
   XZ=    -1.7757   YZ=    -3.5214   ZZ=    23.8599
   Eigenvalues:    22.5910    30.3052    31.5005
     31  H    Isotropic =    29.4412   Anisotropy =     3.8124
   XX=    29.7763   YX=     0.3898   ZX=    -2.6841
   XY=     0.0452   YY=    29.5886   ZY=     2.7507
   XZ=     0.0270   YZ=     2.1057   ZZ=    28.9587
   Eigenvalues:    26.4248    29.9161    31.9828
     32  C    Isotropic =   171.2689   Anisotropy =    24.5403
   XX=   182.6076   YX=    -7.4877   ZX=    -5.9458
   XY=    -6.4199   YY=   160.8023   ZY=     4.6477
   XZ=    -5.5448   YZ=     6.5178   ZZ=   170.3967
   Eigenvalues:   157.5006   168.6769   187.6291
     33  H    Isotropic =    31.3021   Anisotropy =     7.9898
   XX=    35.5371   YX=    -1.4069   ZX=     2.4017
   XY=    -1.2744   YY=    29.0157   ZY=    -2.0853
   XZ=     1.7424   YZ=    -1.7550   ZZ=    29.3536
   Eigenvalues:    27.2322    30.0455    36.6286
     34  H    Isotropic =    30.4438   Anisotropy =     9.5268
   XX=    31.2885   YX=     2.9222   ZX=    -4.4305
   XY=     2.3533   YY=    31.3083   ZY=    -2.2907
   XZ=    -4.5535   YZ=    -2.0233   ZZ=    28.7347
   Eigenvalues:    25.3381    29.1985    36.7950
     35  H    Isotropic =    31.4454   Anisotropy =     9.1484
   XX=    30.7282   YX=    -1.1479   ZX=    -3.5732
   XY=    -0.6396   YY=    30.3328   ZY=     3.7910
   XZ=    -2.9816   YZ=     4.0918   ZZ=    33.2753
   Eigenvalues:    27.0817    29.7102    37.5444
     36  H    Isotropic =    31.3512   Anisotropy =     9.5337
   XX=    36.8462   YX=     1.4304   ZX=     0.4722
   XY=     1.2806   YY=    33.2813   ZY=    -5.6872
   XZ=     2.3878   YZ=    -9.0404   ZZ=    23.9261
   Eigenvalues:    19.6682    36.6784    37.7070
 End of Minotr F.D. properties file   721 does not exist.
 End of Minotr F.D. properties file   722 does not exist.
 End of Minotr F.D. properties file   788 does not exist.

 **********************************************************************

            Population analysis using the SCF density.

 **********************************************************************

 Orbital symmetries:
       Occupied  (A) (A) (A) (A) (A) (A) (A) (A) (A) (A) (A) (A)
                 (A) (A) (A) (A) (A) (A) (A) (A) (A) (A) (A) (A)
                 (A) (A) (A) (A) (A) (A) (A) (A) (A) (A) (A) (A)
                 (A) (A) (A) (A) (A) (A) (A) (A) (A) (A) (A) (A)
                 (A) (A) (A) (A) (A) (A) (A) (A) (A) (A) (A) (A)
                 (A) (A) (A) (A) (A)
       Virtual   (A) (A) (A) (A) (A) (A) (A) (A) (A) (A) (A) (A)
                 (A) (A) (A) (A) (A) (A) (A) (A) (A) (A) (A) (A)
                 (A) (A) (A) (A) (A) (A) (A) (A) (A) (A) (A) (A)
                 (A) (A) (A) (A) (A) (A) (A) (A) (A) (A) (A) (A)
                 (A) (A) (A) (A) (A) (A) (A) (A) (A) (A) (A) (A)
                 (A) (A) (A) (A) (A) (A) (A) (A) (A) (A) (A) (A)
                 (A) (A) (A) (A) (A) (A) (A) (A) (A) (A) (A) (A)
                 (A) (A) (A) (A) (A) (A) (A) (A) (A) (A) (A) (A)
                 (A) (A) (A) (A) (A) (A) (A) (A) (A) (A) (A) (A)
                 (A) (A) (A) (A) (A) (A) (A) (A) (A) (A) (A) (A)
                 (A) (A) (A) (A) (A) (A) (A) (A) (A) (A) (A) (A)
                 (A) (A) (A) (A) (A) (A) (A) (A) (A) (A) (A) (A)
                 (A) (A) (A) (A) (A) (A) (A) (A) (A) (A) (A) (A)
                 (A) (A) (A) (A) (A) (A) (A) (A) (A) (A) (A) (A)
                 (A) (A) (A) (A) (A) (A) (A) (A) (A) (A) (A) (A)
                 (A) (A) (A) (A) (A) (A) (A) (A) (A) (A) (A) (A)
                 (A) (A) (A) (A) (A) (A) (A) (A) (A) (A) (A) (A)
                 (A) (A) (A) (A) (A) (A) (A) (A) (A) (A) (A) (A)
                 (A) (A) (A) (A) (A) (A) (A) (A) (A) (A) (A) (A)
                 (A) (A) (A) (A) (A) (A) (A) (A) (A) (A) (A) (A)
                 (A) (A) (A) (A) (A) (A) (A) (A) (A) (A) (A) (A)
                 (A) (A) (A) (A) (A) (A) (A) (A) (A) (A) (A) (A)
                 (A) (A) (A) (A) (A) (A) (A) (A) (A) (A) (A) (A)
                 (A) (A) (A) (A) (A) (A) (A) (A) (A) (A) (A) (A)
                 (A) (A) (A) (A) (A) (A) (A) (A) (A) (A)
 The electronic state is 1-A.
 Alpha  occ. eigenvalues --  -24.80557 -24.80278 -19.20006 -14.37910 -10.33789
 Alpha  occ. eigenvalues --  -10.33748 -10.26572 -10.26540 -10.26405 -10.26381
 Alpha  occ. eigenvalues --  -10.25990 -10.25206 -10.25166 -10.23639 -10.22734
 Alpha  occ. eigenvalues --  -10.22030 -10.21427  -1.27815  -1.27515  -1.04167
 Alpha  occ. eigenvalues --   -0.94210  -0.90421  -0.83040  -0.80047  -0.78617
 Alpha  occ. eigenvalues --   -0.78293  -0.71463  -0.69238  -0.67477  -0.66022
 Alpha  occ. eigenvalues --   -0.63759  -0.62199  -0.59032  -0.56146  -0.55942
 Alpha  occ. eigenvalues --   -0.52636  -0.52253  -0.51960  -0.51059  -0.49687
 Alpha  occ. eigenvalues --   -0.49474  -0.48577  -0.47941  -0.46940  -0.45625
 Alpha  occ. eigenvalues --   -0.44434  -0.43419  -0.42555  -0.41991  -0.41467
 Alpha  occ. eigenvalues --   -0.40478  -0.39081  -0.38901  -0.37978  -0.37869
 Alpha  occ. eigenvalues --   -0.37452  -0.36445  -0.35018  -0.34151  -0.33131
 Alpha  occ. eigenvalues --   -0.31950  -0.27757  -0.27513  -0.26768  -0.24214
 Alpha virt. eigenvalues --   -0.02039  -0.00911   0.05195   0.05637   0.06108
 Alpha virt. eigenvalues --    0.07084   0.07792   0.09167   0.10260   0.11026
 Alpha virt. eigenvalues --    0.11219   0.11669   0.12545   0.13128   0.13474
 Alpha virt. eigenvalues --    0.13982   0.14540   0.14666   0.15345   0.15940
 Alpha virt. eigenvalues --    0.16767   0.17792   0.19337   0.19767   0.20741
 Alpha virt. eigenvalues --    0.21231   0.22981   0.23818   0.24234   0.25540
 Alpha virt. eigenvalues --    0.25799   0.26459   0.26709   0.27745   0.29821
 Alpha virt. eigenvalues --    0.31903   0.32811   0.34267   0.34707   0.34857
 Alpha virt. eigenvalues --    0.35780   0.36783   0.37751   0.38748   0.39112
 Alpha virt. eigenvalues --    0.39939   0.40756   0.41576   0.42033   0.42769
 Alpha virt. eigenvalues --    0.43189   0.44280   0.44503   0.45443   0.45818
 Alpha virt. eigenvalues --    0.47806   0.48285   0.49964   0.50941   0.51552
 Alpha virt. eigenvalues --    0.51921   0.53408   0.54576   0.55269   0.55549
 Alpha virt. eigenvalues --    0.55958   0.57896   0.58133   0.58918   0.59273
 Alpha virt. eigenvalues --    0.59995   0.60498   0.61375   0.61544   0.62043
 Alpha virt. eigenvalues --    0.62701   0.63262   0.63885   0.64819   0.65076
 Alpha virt. eigenvalues --    0.65790   0.66157   0.66653   0.67039   0.67125
 Alpha virt. eigenvalues --    0.68064   0.69179   0.69890   0.70707   0.71478
 Alpha virt. eigenvalues --    0.72255   0.73190   0.74274   0.74878   0.76825
 Alpha virt. eigenvalues --    0.77813   0.79263   0.81765   0.83085   0.84852
 Alpha virt. eigenvalues --    0.87002   0.88327   0.89857   0.91459   0.92822
 Alpha virt. eigenvalues --    0.94335   0.98078   0.98541   0.99142   0.99555
 Alpha virt. eigenvalues --    1.00987   1.04184   1.05625   1.06501   1.06803
 Alpha virt. eigenvalues --    1.08024   1.08486   1.10252   1.12634   1.15235
 Alpha virt. eigenvalues --    1.17975   1.19883   1.20521   1.22004   1.24317
 Alpha virt. eigenvalues --    1.25680   1.26729   1.28112   1.28605   1.29935
 Alpha virt. eigenvalues --    1.34148   1.36380   1.38251   1.39920   1.42838
 Alpha virt. eigenvalues --    1.44737   1.46066   1.48157   1.49127   1.50083
 Alpha virt. eigenvalues --    1.51664   1.52715   1.53032   1.53887   1.54743
 Alpha virt. eigenvalues --    1.55611   1.56403   1.57513   1.58578   1.59910
 Alpha virt. eigenvalues --    1.62364   1.64071   1.64666   1.65548   1.66681
 Alpha virt. eigenvalues --    1.67622   1.68199   1.69363   1.72695   1.73433
 Alpha virt. eigenvalues --    1.74283   1.76974   1.77938   1.80197   1.82535
 Alpha virt. eigenvalues --    1.83269   1.84163   1.84869   1.88962   1.89533
 Alpha virt. eigenvalues --    1.90074   1.90270   1.92583   1.94010   1.94560
 Alpha virt. eigenvalues --    1.96607   1.97983   2.00063   2.01448   2.03258
 Alpha virt. eigenvalues --    2.06894   2.10546   2.16112   2.17616   2.19273
 Alpha virt. eigenvalues --    2.19580   2.19872   2.24747   2.25822   2.27599
 Alpha virt. eigenvalues --    2.29861   2.32519   2.36004   2.38936   2.40141
 Alpha virt. eigenvalues --    2.41929   2.42531   2.43620   2.44565   2.46955
 Alpha virt. eigenvalues --    2.49734   2.51312   2.52006   2.52165   2.53747
 Alpha virt. eigenvalues --    2.54809   2.56630   2.59547   2.60434   2.65656
 Alpha virt. eigenvalues --    2.66492   2.68105   2.71428   2.71900   2.74164
 Alpha virt. eigenvalues --    2.77131   2.82515   2.83963   2.87013   2.90082
 Alpha virt. eigenvalues --    2.90983   2.93849   2.97476   3.00390   3.05737
 Alpha virt. eigenvalues --    3.06975   3.08384   3.08524   3.10364   3.11233
 Alpha virt. eigenvalues --    3.13423   3.16022   3.16689   3.20743   3.20985
 Alpha virt. eigenvalues --    3.22826   3.26093   3.26918   3.27961   3.28702
 Alpha virt. eigenvalues --    3.29391   3.30399   3.31968   3.35985   3.40973
 Alpha virt. eigenvalues --    3.47232   3.48929   3.51596   3.60347   3.64604
 Alpha virt. eigenvalues --    3.72934   3.79240   3.79857   3.79998   3.80588
 Alpha virt. eigenvalues --    3.85140   3.86830   3.95003   3.96442   3.99754
 Alpha virt. eigenvalues --    4.00419   4.06819   4.07400   4.11053   4.12807
 Alpha virt. eigenvalues --    4.17381   4.20142   4.49147   4.75387   4.76824
 Alpha virt. eigenvalues --    4.79721   4.80807   4.91385   5.10847   5.39972
 Alpha virt. eigenvalues --    6.12853   6.14717   6.31530   6.32093   6.56541
 Alpha virt. eigenvalues --    6.59375  23.30343  23.47166  23.58917  23.69550
 Alpha virt. eigenvalues --   23.73320  23.78454  23.80216  23.84236  23.86918
 Alpha virt. eigenvalues --   23.89929  24.08796  24.11268  24.19422  35.59167
 Alpha virt. eigenvalues --   49.97412  66.89180  66.89822
          Condensed to atoms (all electrons):
               1          2          3          4          5          6
     1  C    5.361759   0.304945  -0.067015   0.008173  -0.000192  -0.000001
     2  C    0.304945   5.343708   0.312316  -0.055318  -0.010414  -0.000132
     3  C   -0.067015   0.312316   5.281270   0.284192  -0.055950   0.003142
     4  C    0.008173  -0.055318   0.284192   5.498266   0.265050  -0.049944
     5  C   -0.000192  -0.010414  -0.055950   0.265050   5.142352   0.215208
     6  O   -0.000001  -0.000132   0.003142  -0.049944   0.215208   8.239525
     7  N   -0.001376  -0.053656   0.259810  -0.062074  -0.002395   0.000043
     8  C    0.000421   0.007539  -0.080287  -0.004773  -0.001151  -0.000025
     9  C    0.000000   0.000000  -0.000002   0.000000   0.000000   0.000000
    10  C    0.000001  -0.000001   0.000029   0.000001   0.000000   0.000000
    11  C    0.000078  -0.000115   0.000568   0.000088   0.000000   0.000000
    12  C   -0.000094  -0.000105   0.008372   0.000431  -0.000099   0.000001
    13  C   -0.000011   0.000029  -0.000548  -0.000132   0.000001  -0.000002
    14  C    0.000000   0.000000   0.000013  -0.000001   0.000001   0.000000
    15  H    0.000000   0.000000   0.000000   0.000000   0.000000   0.000000
    16  H    0.000000   0.000000   0.000000   0.000000   0.000000   0.000000
    17  H    0.000000   0.000000  -0.000001   0.000000   0.000000   0.000000
    18  F   -0.000028  -0.000001  -0.000223   0.000004   0.000000   0.000000
    19  F    0.000000   0.000000   0.000086  -0.000152  -0.000201   0.000000
    20  H    0.394424  -0.037207   0.007931  -0.000122  -0.000008   0.000000
    21  H    0.385219  -0.044739  -0.003577  -0.000097   0.000011   0.000000
    22  H    0.383475  -0.036997  -0.007600  -0.000435   0.000008   0.000000
    23  H   -0.044142   0.400926  -0.044003  -0.008597   0.000225  -0.000061
    24  H   -0.045149   0.388988  -0.041001  -0.010573   0.003945  -0.000130
    25  H   -0.000071   0.007646  -0.041698   0.404033  -0.048007   0.007828
    26  H   -0.000175  -0.001493  -0.000507  -0.053153   0.395517  -0.033156
    27  H    0.000391   0.004540  -0.002114  -0.039475   0.383795  -0.038426
    28  H   -0.000001   0.000013  -0.000677   0.010983  -0.050603   0.260305
    29  H   -0.000590   0.000962  -0.002101  -0.004164   0.000250  -0.000001
    30  H    0.000065  -0.000289  -0.008406   0.006884   0.000598  -0.000295
    31  H   -0.012468  -0.042245   0.409862  -0.070400   0.009033  -0.000102
    32  C   -0.000199  -0.011476  -0.058842   0.297387  -0.078449   0.001981
    33  H    0.000149   0.001807  -0.007255  -0.035995  -0.006054  -0.000267
    34  H    0.000013   0.000160   0.007569  -0.034848  -0.006735   0.012530
    35  H   -0.000240  -0.001204  -0.003270  -0.043503   0.008125  -0.000096
    36  H    0.007300  -0.015614  -0.048479   0.008332  -0.000058   0.000003
               7          8          9         10         11         12
     1  C   -0.001376   0.000421   0.000000   0.000001   0.000078  -0.000094
     2  C   -0.053656   0.007539   0.000000  -0.000001  -0.000115  -0.000105
     3  C    0.259810  -0.080287  -0.000002   0.000029   0.000568   0.008372
     4  C   -0.062074  -0.004773   0.000000   0.000001   0.000088   0.000431
     5  C   -0.002395  -0.001151   0.000000   0.000000   0.000000  -0.000099
     6  O    0.000043  -0.000025   0.000000   0.000000   0.000000   0.000001
     7  N    6.982540   0.267756   0.000086  -0.000360  -0.005636  -0.068244
     8  C    0.267756   5.305854  -0.001382   0.010297  -0.081525   0.306158
     9  C    0.000086  -0.001382   5.059683   0.435046  -0.007196  -0.058503
    10  C   -0.000360   0.010297   0.435046   5.202739   0.476998  -0.036002
    11  C   -0.005636  -0.081525  -0.007196   0.476998   4.800744   0.244609
    12  C   -0.068244   0.306158  -0.058503  -0.036002   0.244609   5.770338
    13  C    0.016272  -0.081509  -0.004320  -0.069406   0.033183   0.254824
    14  C   -0.000094   0.009584   0.435659  -0.035255  -0.063707  -0.029975
    15  H    0.000000   0.000027   0.404893  -0.041323   0.006398  -0.002075
    16  H    0.000012  -0.000321  -0.040784   0.392262  -0.049635   0.012114
    17  H    0.000009  -0.000289  -0.040975   0.007140  -0.001333   0.012156
    18  F   -0.001615   0.002130   0.005624  -0.056753   0.316213  -0.082540
    19  F   -0.000561  -0.004187   0.005570  -0.000562   0.005160  -0.075214
    20  H    0.000017   0.000029   0.000000   0.000000   0.000002  -0.000003
    21  H   -0.000302  -0.000088   0.000000   0.000001   0.000016  -0.000033
    22  H    0.001505  -0.000200   0.000000  -0.000005  -0.000035   0.000388
    23  H    0.004882  -0.000437   0.000000   0.000000  -0.000002   0.000022
    24  H    0.004975  -0.000562   0.000000  -0.000001  -0.000031   0.000014
    25  H   -0.003529   0.002959   0.000000   0.000001  -0.000027   0.000679
    26  H    0.017488  -0.000054  -0.000004   0.000000  -0.000134  -0.001812
    27  H   -0.000766  -0.000010   0.000000   0.000000   0.000000   0.000023
    28  H    0.000021   0.000005   0.000000   0.000000   0.000000   0.000001
    29  H   -0.051295   0.379981  -0.000116  -0.000250  -0.028590  -0.034712
    30  H   -0.038936   0.381587  -0.000289   0.000137   0.011628  -0.028504
    31  H   -0.049010  -0.009489   0.000000  -0.000019  -0.000615   0.000650
    32  C    0.004320   0.000299   0.000000   0.000000   0.000000  -0.000005
    33  H   -0.000125  -0.000016   0.000000   0.000000   0.000000   0.000001
    34  H   -0.000145  -0.000030   0.000000   0.000000   0.000000  -0.000002
    35  H    0.000044   0.000006   0.000000   0.000000   0.000000  -0.000001
    36  H    0.333613  -0.047035  -0.000092   0.000116   0.005982  -0.020526
              13         14         15         16         17         18
     1  C   -0.000011   0.000000   0.000000   0.000000   0.000000  -0.000028
     2  C    0.000029   0.000000   0.000000   0.000000   0.000000  -0.000001
     3  C   -0.000548   0.000013   0.000000   0.000000  -0.000001  -0.000223
     4  C   -0.000132  -0.000001   0.000000   0.000000   0.000000   0.000004
     5  C    0.000001   0.000001   0.000000   0.000000   0.000000   0.000000
     6  O   -0.000002   0.000000   0.000000   0.000000   0.000000   0.000000
     7  N    0.016272  -0.000094   0.000000   0.000012   0.000009  -0.001615
     8  C   -0.081509   0.009584   0.000027  -0.000321  -0.000289   0.002130
     9  C   -0.004320   0.435659   0.404893  -0.040784  -0.040975   0.005624
    10  C   -0.069406  -0.035255  -0.041323   0.392262   0.007140  -0.056753
    11  C    0.033183  -0.063707   0.006398  -0.049635  -0.001333   0.316213
    12  C    0.254824  -0.029975  -0.002075   0.012114   0.012156  -0.082540
    13  C    4.766448   0.476283   0.006304  -0.001335  -0.048937   0.004968
    14  C    0.476283   5.188142  -0.040900   0.007108   0.391748  -0.000611
    15  H    0.006304  -0.040900   0.446833  -0.006654  -0.006630  -0.000070
    16  H   -0.001335   0.007108  -0.006654   0.451299  -0.000179   0.001522
    17  H   -0.048937   0.391748  -0.006630  -0.000179   0.451346   0.000004
    18  F    0.004968  -0.000611  -0.000070   0.001522   0.000004   9.033613
    19  F    0.314840  -0.054176  -0.000074   0.000004   0.001567  -0.000001
    20  H    0.000000   0.000000   0.000000   0.000000   0.000000  -0.000001
    21  H   -0.000001   0.000000   0.000000   0.000000   0.000000   0.000043
    22  H    0.000005  -0.000001   0.000000   0.000001   0.000000  -0.000145
    23  H    0.000001   0.000000   0.000000   0.000000   0.000000   0.000000
    24  H    0.000025   0.000000   0.000000   0.000000   0.000000   0.000000
    25  H   -0.000005  -0.000008   0.000000   0.000000   0.000000  -0.000001
    26  H    0.001004   0.000045   0.000000   0.000000   0.000001   0.000001
    27  H   -0.000003   0.000000   0.000000   0.000000   0.000000   0.000000
    28  H    0.000000   0.000000   0.000000   0.000000   0.000000   0.000000
    29  H    0.012893  -0.000044   0.000003  -0.000029   0.000013   0.007308
    30  H   -0.024740   0.001041   0.000004   0.000010  -0.000059   0.000139
    31  H    0.000196   0.000001   0.000000   0.000000   0.000000  -0.000079
    32  C    0.000000   0.000000   0.000000   0.000000   0.000000   0.000000
    33  H    0.000000   0.000000   0.000000   0.000000   0.000000   0.000000
    34  H    0.000000   0.000000   0.000000   0.000000   0.000000   0.000000
    35  H    0.000000   0.000000   0.000000   0.000000   0.000000   0.000000
    36  H   -0.000649   0.000034   0.000002   0.000003   0.000000   0.007749
              19         20         21         22         23         24
     1  C    0.000000   0.394424   0.385219   0.383475  -0.044142  -0.045149
     2  C    0.000000  -0.037207  -0.044739  -0.036997   0.400926   0.388988
     3  C    0.000086   0.007931  -0.003577  -0.007600  -0.044003  -0.041001
     4  C   -0.000152  -0.000122  -0.000097  -0.000435  -0.008597  -0.010573
     5  C   -0.000201  -0.000008   0.000011   0.000008   0.000225   0.003945
     6  O    0.000000   0.000000   0.000000   0.000000  -0.000061  -0.000130
     7  N   -0.000561   0.000017  -0.000302   0.001505   0.004882   0.004975
     8  C   -0.004187   0.000029  -0.000088  -0.000200  -0.000437  -0.000562
     9  C    0.005570   0.000000   0.000000   0.000000   0.000000   0.000000
    10  C   -0.000562   0.000000   0.000001  -0.000005   0.000000  -0.000001
    11  C    0.005160   0.000002   0.000016  -0.000035  -0.000002  -0.000031
    12  C   -0.075214  -0.000003  -0.000033   0.000388   0.000022   0.000014
    13  C    0.314840   0.000000  -0.000001   0.000005   0.000001   0.000025
    14  C   -0.054176   0.000000   0.000000  -0.000001   0.000000   0.000000
    15  H   -0.000074   0.000000   0.000000   0.000000   0.000000   0.000000
    16  H    0.000004   0.000000   0.000000   0.000001   0.000000   0.000000
    17  H    0.001567   0.000000   0.000000   0.000000   0.000000   0.000000
    18  F   -0.000001  -0.000001   0.000043  -0.000145   0.000000   0.000000
    19  F    9.025864   0.000000   0.000000   0.000000   0.000000  -0.000001
    20  H    0.000000   0.468631  -0.026651  -0.027296  -0.006915  -0.004045
    21  H    0.000000  -0.026651   0.483970  -0.028717  -0.004284   0.007543
    22  H    0.000000  -0.027296  -0.028717   0.486759   0.007682  -0.005836
    23  H    0.000000  -0.006915  -0.004284   0.007682   0.480065  -0.027958
    24  H   -0.000001  -0.004045   0.007543  -0.005836  -0.027958   0.491020
    25  H   -0.000231   0.000017  -0.000045   0.000000   0.000188  -0.000168
    26  H    0.003055  -0.000008   0.000008   0.000012  -0.000002   0.001090
    27  H   -0.000004   0.000011  -0.000018   0.000001   0.000277   0.001587
    28  H   -0.000008   0.000000   0.000000   0.000000   0.000009   0.000010
    29  H    0.000062  -0.000023   0.000010   0.000225   0.000099   0.000217
    30  H    0.013538   0.000005   0.000006  -0.000044  -0.000041  -0.000165
    31  H    0.000001  -0.000426   0.006003   0.000269  -0.001176   0.008932
    32  C    0.000000  -0.000003   0.000032  -0.000007   0.001342   0.000203
    33  H    0.000000   0.000021   0.000028  -0.000015   0.000483   0.000268
    34  H    0.000000  -0.000001  -0.000005   0.000002   0.000288  -0.000106
    35  H    0.000000   0.000005   0.000019   0.000005   0.000349   0.000104
    36  H   -0.000015   0.000015  -0.000283   0.002293   0.000301  -0.000795
              25         26         27         28         29         30
     1  C   -0.000071  -0.000175   0.000391  -0.000001  -0.000590   0.000065
     2  C    0.007646  -0.001493   0.004540   0.000013   0.000962  -0.000289
     3  C   -0.041698  -0.000507  -0.002114  -0.000677  -0.002101  -0.008406
     4  C    0.404033  -0.053153  -0.039475   0.010983  -0.004164   0.006884
     5  C   -0.048007   0.395517   0.383795  -0.050603   0.000250   0.000598
     6  O    0.007828  -0.033156  -0.038426   0.260305  -0.000001  -0.000295
     7  N   -0.003529   0.017488  -0.000766   0.000021  -0.051295  -0.038936
     8  C    0.002959  -0.000054  -0.000010   0.000005   0.379981   0.381587
     9  C    0.000000  -0.000004   0.000000   0.000000  -0.000116  -0.000289
    10  C    0.000001   0.000000   0.000000   0.000000  -0.000250   0.000137
    11  C   -0.000027  -0.000134   0.000000   0.000000  -0.028590   0.011628
    12  C    0.000679  -0.001812   0.000023   0.000001  -0.034712  -0.028504
    13  C   -0.000005   0.001004  -0.000003   0.000000   0.012893  -0.024740
    14  C   -0.000008   0.000045   0.000000   0.000000  -0.000044   0.001041
    15  H    0.000000   0.000000   0.000000   0.000000   0.000003   0.000004
    16  H    0.000000   0.000000   0.000000   0.000000  -0.000029   0.000010
    17  H    0.000000   0.000001   0.000000   0.000000   0.000013  -0.000059
    18  F   -0.000001   0.000001   0.000000   0.000000   0.007308   0.000139
    19  F   -0.000231   0.003055  -0.000004  -0.000008   0.000062   0.013538
    20  H    0.000017  -0.000008   0.000011   0.000000  -0.000023   0.000005
    21  H   -0.000045   0.000008  -0.000018   0.000000   0.000010   0.000006
    22  H    0.000000   0.000012   0.000001   0.000000   0.000225  -0.000044
    23  H    0.000188  -0.000002   0.000277   0.000009   0.000099  -0.000041
    24  H   -0.000168   0.001090   0.001587   0.000010   0.000217  -0.000165
    25  H    0.504180  -0.008947   0.009260  -0.000371  -0.000176   0.000134
    26  H   -0.008947   0.496085  -0.038098  -0.004178   0.000819  -0.002288
    27  H    0.009260  -0.038098   0.525464  -0.002755  -0.000021  -0.000070
    28  H   -0.000371  -0.004178  -0.002755   0.380639   0.000001  -0.000003
    29  H   -0.000176   0.000819  -0.000021   0.000001   0.535955  -0.048313
    30  H    0.000134  -0.002288  -0.000070  -0.000003  -0.048313   0.474718
    31  H   -0.008428   0.001032  -0.000514   0.000033   0.013867  -0.002826
    32  C   -0.056273   0.008517  -0.011736  -0.000201   0.000092   0.000093
    33  H    0.007663   0.000012   0.003453  -0.000091   0.000006  -0.000021
    34  H   -0.006318   0.000495   0.000298  -0.000584  -0.000008   0.000032
    35  H   -0.003668  -0.000203  -0.000248   0.000044   0.000094  -0.000027
    36  H   -0.000427  -0.000189  -0.000092  -0.000004  -0.003939   0.006786
              31         32         33         34         35         36
     1  C   -0.012468  -0.000199   0.000149   0.000013  -0.000240   0.007300
     2  C   -0.042245  -0.011476   0.001807   0.000160  -0.001204  -0.015614
     3  C    0.409862  -0.058842  -0.007255   0.007569  -0.003270  -0.048479
     4  C   -0.070400   0.297387  -0.035995  -0.034848  -0.043503   0.008332
     5  C    0.009033  -0.078449  -0.006054  -0.006735   0.008125  -0.000058
     6  O   -0.000102   0.001981  -0.000267   0.012530  -0.000096   0.000003
     7  N   -0.049010   0.004320  -0.000125  -0.000145   0.000044   0.333613
     8  C   -0.009489   0.000299  -0.000016  -0.000030   0.000006  -0.047035
     9  C    0.000000   0.000000   0.000000   0.000000   0.000000  -0.000092
    10  C   -0.000019   0.000000   0.000000   0.000000   0.000000   0.000116
    11  C   -0.000615   0.000000   0.000000   0.000000   0.000000   0.005982
    12  C    0.000650  -0.000005   0.000001  -0.000002  -0.000001  -0.020526
    13  C    0.000196   0.000000   0.000000   0.000000   0.000000  -0.000649
    14  C    0.000001   0.000000   0.000000   0.000000   0.000000   0.000034
    15  H    0.000000   0.000000   0.000000   0.000000   0.000000   0.000002
    16  H    0.000000   0.000000   0.000000   0.000000   0.000000   0.000003
    17  H    0.000000   0.000000   0.000000   0.000000   0.000000   0.000000
    18  F   -0.000079   0.000000   0.000000   0.000000   0.000000   0.007749
    19  F    0.000001   0.000000   0.000000   0.000000   0.000000  -0.000015
    20  H   -0.000426  -0.000003   0.000021  -0.000001   0.000005   0.000015
    21  H    0.006003   0.000032   0.000028  -0.000005   0.000019  -0.000283
    22  H    0.000269  -0.000007  -0.000015   0.000002   0.000005   0.002293
    23  H   -0.001176   0.001342   0.000483   0.000288   0.000349   0.000301
    24  H    0.008932   0.000203   0.000268  -0.000106   0.000104  -0.000795
    25  H   -0.008428  -0.056273   0.007663  -0.006318  -0.003668  -0.000427
    26  H    0.001032   0.008517   0.000012   0.000495  -0.000203  -0.000189
    27  H   -0.000514  -0.011736   0.003453   0.000298  -0.000248  -0.000092
    28  H    0.000033  -0.000201  -0.000091  -0.000584   0.000044  -0.000004
    29  H    0.013867   0.000092   0.000006  -0.000008   0.000094  -0.003939
    30  H   -0.002826   0.000093  -0.000021   0.000032  -0.000027   0.006786
    31  H    0.530401  -0.000426  -0.000327  -0.000308   0.005507  -0.000538
    32  C   -0.000426   5.404529   0.383485   0.387048   0.389388  -0.000308
    33  H   -0.000327   0.383485   0.486155  -0.027567  -0.028111  -0.000017
    34  H   -0.000308   0.387048  -0.027567   0.456879  -0.027456   0.000027
    35  H    0.005507   0.389388  -0.028111  -0.027456   0.480155  -0.000033
    36  H   -0.000538  -0.000308  -0.000017   0.000027  -0.000033   0.431910
 Mulliken charges:
               1
     1  C   -0.674660
     2  C   -0.462575
     3  C   -0.101607
     4  C   -0.310067
     5  C   -0.163801
     6  O   -0.617926
     7  N   -0.553275
     8  C   -0.361260
     9  C   -0.192898
    10  C   -0.284831
    11  C    0.336915
    12  C   -0.172329
    13  C    0.344323
    14  C   -0.284886
    15  H    0.233262
    16  H    0.234601
    17  H    0.234418
    18  F   -0.237248
    19  F   -0.234360
    20  H    0.231603
    21  H    0.225932
    22  H    0.224703
    23  H    0.240480
    24  H    0.227602
    25  H    0.233810
    26  H    0.219222
    27  H    0.205250
    28  H    0.407412
    29  H    0.221517
    30  H    0.257910
    31  H    0.213609
    32  C   -0.660791
    33  H    0.222331
    34  H    0.238773
    35  H    0.224215
    36  H    0.334628
 Sum of Mulliken charges =   0.00000
 Mulliken charges with hydrogens summed into heavy atoms:
               1
     1  C    0.007577
     2  C    0.005508
     3  C    0.112002
     4  C   -0.076258
     5  C    0.260671
     6  O   -0.210514
     7  N   -0.218647
     8  C    0.118167
     9  C    0.040363
    10  C   -0.050231
    11  C    0.336915
    12  C   -0.172329
    13  C    0.344323
    14  C   -0.050468
    18  F   -0.237248
    19  F   -0.234360
    32  C    0.024528
 Electronic spatial extent (au):  <R**2>=           5283.2172
 Charge=              0.0000 electrons
 Dipole moment (field-independent basis, Debye):
    X=              2.1230    Y=              0.9884    Z=             -1.4583  Tot=              2.7587
 Quadrupole moment (field-independent basis, Debye-Ang):
   XX=            -92.3159   YY=           -100.7046   ZZ=           -101.0727
   XY=             -4.8157   XZ=              1.5535   YZ=              4.6519
 Traceless Quadrupole moment (field-independent basis, Debye-Ang):
   XX=              5.7152   YY=             -2.6735   ZZ=             -3.0417
   XY=             -4.8157   XZ=              1.5535   YZ=              4.6519
 Octapole moment (field-independent basis, Debye-Ang**2):
  XXX=            110.2461  YYY=            -25.3923  ZZZ=              3.1755  XYY=              2.6876
  XXY=              7.7141  XXZ=            -38.6692  XZZ=            -12.1040  YZZ=            -10.8943
  YYZ=            -22.8074  XYZ=            -11.4799
 Hexadecapole moment (field-independent basis, Debye-Ang**3):
 XXXX=          -4547.5999 YYYY=          -1575.6919 ZZZZ=           -421.4561 XXXY=            -31.5076
 XXXZ=            -20.6147 YYYX=             61.8679 YYYZ=             83.3081 ZZZX=             31.6564
 ZZZY=             26.5506 XXYY=          -1035.2073 XXZZ=           -877.7220 YYZZ=           -315.0175
 XXYZ=             75.8358 YYXZ=             47.8968 ZZXY=             28.7043
 N-N= 1.259044561888D+03 E-N=-4.476384173135D+03  KE= 8.333157096732D+02
 1\1\GINC-CPU-E-903\SP\RmPW1PW91\6-311G(d)\C13H19F2N1O1\AH809\04-Mar-20
 19\0\\# mPW1PW91/6-311g(d) nmr=giao scrf=(solvent=chloroform)\\AT3_2gi
 np008\\0,1\C,0,-2.568255,0.273097,-0.775405\C,0,-2.3241,0.214411,0.730
 297\C,0,-3.044515,-0.959882,1.442586\C,0,-2.582843,-1.129392,2.923068\
 C,0,-2.971274,0.058345,3.814785\O,0,-2.61094,-0.214269,5.167417\N,0,-4
 .504241,-0.764677,1.327519\C,0,-5.280277,-1.947916,1.715279\C,0,-9.491
 698,-1.290232,1.00527\C,0,-8.657157,-1.68999,-0.036999\C,0,-7.300412,-
 1.90249,0.204655\C,0,-6.747475,-1.7288,1.474823\C,0,-7.598805,-1.32246
 9,2.503415\C,0,-8.958536,-1.105467,2.280081\H,0,-10.550217,-1.121137,0
 .825354\H,0,-9.051816,-1.835555,-1.038104\H,0,-9.591028,-0.791878,3.10
 5316\F,0,-6.516926,-2.278356,-0.817011\F,0,-7.117955,-1.139809,3.74167
 6\H,0,-1.92144,1.032365,-1.22749\H,0,-2.341515,-0.687633,-1.248124\H,0
 ,-3.600836,0.544295,-1.012383\H,0,-1.241955,0.12512,0.870742\H,0,-2.62
 1285,1.173299,1.171544\H,0,-3.065268,-2.024241,3.3371\H,0,-4.050812,0.
 235666,3.789007\H,0,-2.457011,0.974753,3.509609\H,0,-2.963746,0.517658
 ,5.701905\H,0,-4.954228,-2.827945,1.146504\H,0,-5.133415,-2.186441,2.7
 73732\H,0,-2.775019,-1.876705,0.900042\C,0,-1.077329,-1.419756,3.02908
 3\H,0,-0.473411,-0.527402,2.837985\H,0,-0.821926,-1.776182,4.033072\H,
 0,-0.779052,-2.199656,2.3207\H,0,-4.737087,-0.561016,0.355618\\Version
 =ES64L-G09RevD.01\State=1-A\HF=-836.456538\RMSD=6.982e-09\Dipole=-0.78
 59219,0.41752,-0.6212904\Quadrupole=5.3702073,-1.5950553,-3.775152,1.3
 063407,-2.1467704,3.2467612\PG=C01 [X(C13H19F2N1O1)]\\@


 IT IS A CAPITAL MISTAKE TO THEORIZE BEFORE ONE HAS
 DATA.  INSENSIBLY ONE BEGINS TO TWIST FACTS TO SUIT
 THEORIES RATHER THAN THEORIES TO SUIT FACTS.

                                         -- SHERLOCK HOLMES
 Job cpu time:       0 days  0 hours 16 minutes 24.9 seconds.
 File lengths (MBytes):  RWF=    185 Int=      0 D2E=      0 Chk=     10 Scr=      1
 Normal termination of Gaussian 09 at Mon Mar  4 11:28:24 2019.
