 Entering Gaussian System, Link 0=/usr/local/Cluster-Apps/gaussian/g09/g09
 Initial command:
 /usr/local/Cluster-Apps/gaussian/g09/l1.exe "/home/ah809/rds/hpc-work/04Mar1111AT3/Gau-282023.inp" -scrdir="/home/ah809/rds/hpc-work/04Mar1111AT3/"
 Entering Link 1 = /usr/local/Cluster-Apps/gaussian/g09/l1.exe PID=    282040.
  
 Copyright (c) 1988,1990,1992,1993,1995,1998,2003,2009,2013,
            Gaussian, Inc.  All Rights Reserved.
  
 This is part of the Gaussian(R) 09 program.  It is based on
 the Gaussian(R) 03 system (copyright 2003, Gaussian, Inc.),
 the Gaussian(R) 98 system (copyright 1998, Gaussian, Inc.),
 the Gaussian(R) 94 system (copyright 1995, Gaussian, Inc.),
 the Gaussian 92(TM) system (copyright 1992, Gaussian, Inc.),
 the Gaussian 90(TM) system (copyright 1990, Gaussian, Inc.),
 the Gaussian 88(TM) system (copyright 1988, Gaussian, Inc.),
 the Gaussian 86(TM) system (copyright 1986, Carnegie Mellon
 University), and the Gaussian 82(TM) system (copyright 1983,
 Carnegie Mellon University). Gaussian is a federally registered
 trademark of Gaussian, Inc.
  
 This software contains proprietary and confidential information,
 including trade secrets, belonging to Gaussian, Inc.
  
 This software is provided under written license and may be
 used, copied, transmitted, or stored only in accord with that
 written license.
  
 The following legend is applicable only to US Government
 contracts under FAR:
  
                    RESTRICTED RIGHTS LEGEND
  
 Use, reproduction and disclosure by the US Government is
 subject to restrictions as set forth in subparagraphs (a)
 and (c) of the Commercial Computer Software - Restricted
 Rights clause in FAR 52.227-19.
  
 Gaussian, Inc.
 340 Quinnipiac St., Bldg. 40, Wallingford CT 06492
  
  
 ---------------------------------------------------------------
 Warning -- This program may not be used in any manner that
 competes with the business of Gaussian, Inc. or will provide
 assistance to any competitor of Gaussian, Inc.  The licensee
 of this program is prohibited from giving any competitor of
 Gaussian, Inc. access to this program.  By using this program,
 the user acknowledges that Gaussian, Inc. is engaged in the
 business of creating and licensing software in the field of
 computational chemistry and represents and warrants to the
 licensee that it is not a competitor of Gaussian, Inc. and that
 it will not use this program in any manner prohibited above.
 ---------------------------------------------------------------
  

 Cite this work as:
 Gaussian 09, Revision D.01,
 M. J. Frisch, G. W. Trucks, H. B. Schlegel, G. E. Scuseria, 
 M. A. Robb, J. R. Cheeseman, G. Scalmani, V. Barone, B. Mennucci, 
 G. A. Petersson, H. Nakatsuji, M. Caricato, X. Li, H. P. Hratchian, 
 A. F. Izmaylov, J. Bloino, G. Zheng, J. L. Sonnenberg, M. Hada, 
 M. Ehara, K. Toyota, R. Fukuda, J. Hasegawa, M. Ishida, T. Nakajima, 
 Y. Honda, O. Kitao, H. Nakai, T. Vreven, J. A. Montgomery, Jr., 
 J. E. Peralta, F. Ogliaro, M. Bearpark, J. J. Heyd, E. Brothers, 
 K. N. Kudin, V. N. Staroverov, T. Keith, R. Kobayashi, J. Normand, 
 K. Raghavachari, A. Rendell, J. C. Burant, S. S. Iyengar, J. Tomasi, 
 M. Cossi, N. Rega, J. M. Millam, M. Klene, J. E. Knox, J. B. Cross, 
 V. Bakken, C. Adamo, J. Jaramillo, R. Gomperts, R. E. Stratmann, 
 O. Yazyev, A. J. Austin, R. Cammi, C. Pomelli, J. W. Ochterski, 
 R. L. Martin, K. Morokuma, V. G. Zakrzewski, G. A. Voth, 
 P. Salvador, J. J. Dannenberg, S. Dapprich, A. D. Daniels, 
 O. Farkas, J. B. Foresman, J. V. Ortiz, J. Cioslowski, 
 and D. J. Fox, Gaussian, Inc., Wallingford CT, 2013.
 
 ******************************************
 Gaussian 09:  ES64L-G09RevD.01 24-Apr-2013
                 4-Mar-2019 
 ******************************************
 %nprocshared=8
 Will use up to    8 processors via shared memory.
 %mem=6000MB
 %chk=AT3_2ginp012.chk
 -------------------------------------------------------
 # mPW1PW91/6-311g(d) nmr=giao scrf=(solvent=chloroform)
 -------------------------------------------------------
 1/38=1/1;
 2/12=2,17=6,18=5,40=1/2;
 3/5=4,6=6,7=1,11=2,16=1,25=1,30=1,70=2201,72=7,74=-7/1,2,8,3;
 4//1;
 5/5=2,38=5,53=7/2;
 8/6=1,10=90,11=11/1;
 10/13=100,45=16/2;
 6/7=2,8=2,9=2,10=2,28=1/1;
 99/9=1/99;
 ------------
 AT3_2ginp012
 ------------
 Symbolic Z-matrix:
 Charge =  0 Multiplicity = 1
 C                    -2.46576  -1.77786  -0.73181 
 C                    -2.15385  -0.78755   0.38345 
 C                    -2.96075  -1.0396    1.67777 
 C                    -2.43406  -0.16724   2.85385 
 C                    -3.13776  -0.53934   4.16882 
 O                    -2.44984   0.05028   5.26943 
 N                    -4.39678  -0.79569   1.47416 
 C                    -5.18664  -2.02724   1.48812 
 C                    -9.39326  -1.12379   1.12382 
 C                    -8.82888  -1.3397    2.38026 
 C                    -7.47026  -1.63544   2.49019 
 C                    -6.65135  -1.72663   1.36376 
 C                    -7.23475  -1.50184   0.11574 
 C                    -8.59102  -1.20511  -0.0132 
 H                    -10.45096  -0.89069   1.03205 
 H                    -9.43619  -1.278     3.27842 
 H                    -9.01048  -1.03635  -1.0005 
 F                    -6.95727  -1.84312   3.71189 
 F                    -6.48285  -1.56863  -0.99292 
 H                    -1.79698  -1.60724  -1.58167 
 H                    -2.32491  -2.80895  -0.39286 
 H                    -3.49249  -1.66672  -1.09264 
 H                    -1.08286  -0.8564    0.61102 
 H                    -2.33095   0.22573   0.00417 
 H                    -1.36408  -0.38349   2.98166 
 H                    -3.13224  -1.62393   4.31899 
 H                    -4.17487  -0.18761   4.18393 
 H                    -2.97628  -0.1463    6.06315 
 H                    -4.88518  -2.69735   0.67406 
 H                    -5.01265  -2.578     2.42106 
 H                    -2.78834  -2.08692   1.96389 
 C                    -2.54511   1.34477   2.60596 
 H                    -3.585     1.65624   2.46382 
 H                    -2.143     1.91001   3.45366 
 H                    -1.97348   1.64791   1.72401 
 H                    -4.5527   -0.31041   0.59031 
 
                          Input orientation:                          
 ---------------------------------------------------------------------
 Center     Atomic      Atomic             Coordinates (Angstroms)
 Number     Number       Type             X           Y           Z
 ---------------------------------------------------------------------
      1          6           0       -2.465760   -1.777855   -0.731806
      2          6           0       -2.153853   -0.787545    0.383452
      3          6           0       -2.960746   -1.039596    1.677767
      4          6           0       -2.434064   -0.167242    2.853845
      5          6           0       -3.137765   -0.539336    4.168818
      6          8           0       -2.449841    0.050284    5.269427
      7          7           0       -4.396776   -0.795686    1.474160
      8          6           0       -5.186637   -2.027244    1.488117
      9          6           0       -9.393262   -1.123786    1.123824
     10          6           0       -8.828880   -1.339703    2.380258
     11          6           0       -7.470263   -1.635437    2.490195
     12          6           0       -6.651352   -1.726627    1.363755
     13          6           0       -7.234752   -1.501839    0.115738
     14          6           0       -8.591024   -1.205114   -0.013199
     15          1           0      -10.450963   -0.890687    1.032052
     16          1           0       -9.436187   -1.277996    3.278417
     17          1           0       -9.010477   -1.036352   -1.000504
     18          9           0       -6.957266   -1.843115    3.711894
     19          9           0       -6.482853   -1.568626   -0.992915
     20          1           0       -1.796983   -1.607240   -1.581670
     21          1           0       -2.324914   -2.808953   -0.392864
     22          1           0       -3.492489   -1.666724   -1.092643
     23          1           0       -1.082855   -0.856396    0.611018
     24          1           0       -2.330945    0.225728    0.004166
     25          1           0       -1.364082   -0.383488    2.981657
     26          1           0       -3.132236   -1.623930    4.318989
     27          1           0       -4.174867   -0.187605    4.183928
     28          1           0       -2.976276   -0.146298    6.063149
     29          1           0       -4.885178   -2.697351    0.674064
     30          1           0       -5.012651   -2.577995    2.421062
     31          1           0       -2.788336   -2.086916    1.963889
     32          6           0       -2.545113    1.344770    2.605961
     33          1           0       -3.584997    1.656239    2.463818
     34          1           0       -2.142999    1.910010    3.453657
     35          1           0       -1.973477    1.647911    1.724007
     36          1           0       -4.552698   -0.310410    0.590311
 ---------------------------------------------------------------------
                    Distance matrix (angstroms):
                    1          2          3          4          5
     1  C    0.000000
     2  C    1.523745   0.000000
     3  C    2.568283   1.545916   0.000000
     4  C    3.930900   2.562447   1.556135   0.000000
     5  C    5.099180   3.919016   2.546945   1.537141   0.000000
     6  O    6.273527   4.966117   3.787992   2.425408   1.425564
     7  N    3.091887   2.494076   1.470758   2.480063   2.985298
     8  C    3.520430   3.457588   2.442541   3.591863   3.687534
     9  C    7.201490   7.284933   6.456873   7.234527   6.981749
    10  C    7.096916   6.989141   5.917648   6.518636   6.018997
    11  C    5.953707   5.781133   4.620694   5.258435   4.773861
    12  C    4.681152   4.697911   3.767119   4.736831   4.650089
    13  C    4.851577   5.137842   4.573919   5.685507   5.842874
    14  C    6.193810   6.462884   5.881054   6.870610   6.904387
    15  H    8.225675   8.323062   7.519473   8.253058   7.965275
    16  H    8.057208   7.851990   6.674597   7.102377   6.403792
    17  H    6.592067   6.999324   6.616071   7.672064   7.839494
    18  F    6.318572   5.938479   4.555819   4.899404   4.061675
    19  F    4.031004   4.609199   4.451702   5.757962   6.236388
    20  H    1.094825   2.158926   3.507206   4.706725   6.000519
    21  H    1.094478   2.172100   2.796859   4.187084   5.159538
    22  H    1.093950   2.178017   2.889846   4.352411   5.392569
    23  H    2.136513   1.097070   2.167485   2.707577   4.120816
    24  H    2.138732   1.096331   2.190579   2.878494   4.310523
    25  H    4.116766   2.745482   2.163318   1.099072   2.139998
    26  H    5.096902   4.140679   2.710518   2.180833   1.094955
    27  H    5.441910   4.346038   2.912185   2.190874   1.095228
    28  H    7.006712   5.774646   4.475466   3.254852   1.941403
    29  H    2.945425   3.345437   2.731119   4.142566   4.463607
    30  H    4.131278   3.940849   2.670107   3.556423   3.275054
    31  H    2.732461   2.142129   1.099304   2.145385   2.716398
    32  C    4.571408   3.104738   2.592199   1.536216   2.518653
    33  H    4.822624   3.513997   2.876646   2.191313   2.815598
    34  H    5.587721   4.086940   3.538739   2.181621   2.738669
    35  H    4.243729   2.785870   2.863483   2.187111   3.480907
    36  H    2.873447   2.454568   2.061209   3.103658   3.854887
                    6          7          8          9         10
     6  O    0.000000
     7  N    4.348594   0.000000
     8  C    5.109254   1.463151   0.000000
     9  C    8.171631   5.019488   4.317944   0.000000
    10  C    7.139433   4.556371   3.812422   1.394193   0.000000
    11  C    5.980838   3.344224   2.524405   2.413852   1.394771
    12  C    6.005363   2.441711   1.500409   2.817633   2.434054
    13  C    7.201734   3.224604   2.520764   2.412121   2.774091
    14  C    8.197334   4.468958   3.810472   1.393923   2.409009
    15  H    9.102677   6.071051   5.404895   1.086963   2.156485
    16  H    7.384949   5.374349   4.671747   2.160531   1.085965
    17  H    9.139735   5.241004   4.668710   2.160310   3.399199
    18  F    5.131057   3.558184   2.848546   3.626240   2.351514
    19  F    7.622531   3.321989   2.836552   3.626148   4.115160
    20  H    7.078922   4.093365   4.592358   8.078173   8.075644
    21  H    6.344477   3.439714   3.512637   7.423050   7.221529
    22  H    6.671669   2.857432   3.108124   6.326660   6.375347
    23  H    4.938775   3.425021   4.356744   8.330506   7.960195
    24  H    5.269525   2.733464   3.928482   7.276754   7.093627
    25  H    2.569226   3.411699   4.420919   8.274498   7.549784
    26  H    2.042544   3.221506   3.520946   7.046962   6.024219
    27  H    2.051978   2.786009   3.416921   6.121464   5.122538
    28  H    0.972509   4.847509   5.417986   8.156600   7.017184
    29  H    5.881983   2.120146   1.096633   4.795958   4.506339
    30  H    4.646400   2.110107   1.097262   4.794508   4.012311
    31  H    3.950795   2.119950   2.445765   6.727435   6.100808
    32  C    2.962908   3.048144   4.426929   7.428839   6.836890
    33  H    3.426239   2.765926   4.133436   6.577238   6.039947
    34  H    2.617203   4.039642   5.350612   8.197460   7.510914
    35  H    3.917823   3.450503   4.887413   7.943282   7.506867
    36  H    5.142590   1.020291   2.038493   4.937335   4.748588
                   11         12         13         14         15
    11  C    0.000000
    12  C    1.395635   0.000000
    13  C    2.389845   1.395862   0.000000
    14  C    2.776376   2.435222   1.394326   0.000000
    15  H    3.400795   3.904596   3.399581   2.156568   0.000000
    16  H    2.148003   3.409180   3.859917   3.399169   2.495182
    17  H    3.862142   3.410524   2.148458   1.085906   2.495496
    18  F    1.341210   2.370846   3.622955   4.117345   4.504952
    19  F    3.620980   2.367963   1.341240   2.352949   4.506217
    20  H    6.983336   5.679320   5.697511   6.984325   9.068427
    21  H    6.013633   4.793246   5.106244   6.479242   8.470112
    22  H    5.353540   4.001986   3.935976   5.231954   7.316893
    23  H    6.703521   5.686130   6.205460   7.542138   9.377627
    24  H    6.004737   4.932149   5.200410   6.421542   8.260607
    25  H    6.252548   5.690066   6.627893   7.865934   9.307503
    26  H    4.707770   4.596535   5.874765   6.981520   8.056387
    27  H    3.978013   4.056469   5.257402   6.176863   7.058189
    28  H    5.931227   6.171542   7.439342   8.340773   9.040852
    29  H    3.332965   2.130105   2.694712   4.053689   5.862606
    30  H    2.633069   2.127925   3.377923   4.540394   5.861023
    31  H    4.732998   3.925922   4.850628   6.193354   7.811219
    32  C    5.757789   5.276150   6.024708   7.065051   8.365221
    33  H    5.092261   4.696430   5.367276   6.275608   7.461788
    34  H    6.471336   6.157765   6.979138   7.956137   9.095622
    35  H    6.448416   5.779256   6.339438   7.412797   8.876432
    36  H    3.725244   2.647307   2.972900   4.180047   5.943180
                   16         17         18         19         20
    16  H    0.000000
    17  H    4.306830   0.000000
    18  F    2.579207   5.203195   0.000000
    19  F    5.201050   2.583071   4.736627   0.000000
    20  H    9.060148   7.259350   7.396349   4.722870   0.000000
    21  H    8.148149   6.943205   6.264229   4.380289   1.770899
    22  H    7.388154   5.554642   5.926160   2.993634   1.765624
    23  H    8.779004   8.091760   6.715486   5.678015   2.425206
    24  H    7.966578   6.871561   6.279347   4.631654   2.481887
    25  H    8.126936   8.645877   5.826445   6.588140   4.744357
    26  H    6.398614   7.949589   3.879106   6.280606   6.049872
    27  H    5.448889   7.140156   3.271891   5.833843   6.396235
    28  H    7.125021   9.332683   4.925025   8.006693   7.871997
    29  H    5.432210   4.751967   3.775140   2.570098   3.976635
    30  H    4.689640   5.483283   2.447003   3.851696   5.225395
    31  H    6.824680   6.971825   4.527134   4.760333   3.712662
    32  C    7.403918   7.776713   5.554529   6.078288   5.177868
    33  H    6.596191   6.977636   5.017506   5.544937   5.496659
    34  H    7.961450   8.699589   6.109812   7.120902   6.151853
    35  H    8.165119   8.009220   6.401337   6.169461   4.642699
    36  H    5.657791   4.788473   4.227932   2.795570   3.740753
                   21         22         23         24         25
    21  H    0.000000
    22  H    1.776966   0.000000
    23  H    2.522493   3.060299   0.000000
    24  H    3.060549   2.476600   1.759827   0.000000
    25  H    4.265380   4.772497   2.433652   3.189267   0.000000
    26  H    4.925201   5.423779   4.305592   4.762457   2.540378
    27  H    5.589348   5.522285   4.772159   4.587080   3.063387
    28  H    7.013851   7.333726   5.815068   6.104599   3.485832
    29  H    2.775922   2.474475   4.225015   3.939195   4.803859
    30  H    3.898134   3.935407   4.656550   4.570973   4.294436
    31  H    2.508063   3.164614   2.500621   3.065623   2.442543
    32  C    5.127851   4.862745   3.311061   2.840327   2.126701
    33  H    5.448521   4.868168   4.000865   3.109485   3.059593
    34  H    6.090766   5.939949   4.105789   3.843321   2.467717
    35  H    4.946543   4.607355   2.881580   2.260142   2.465690
    36  H    3.488893   2.407481   3.512597   2.359491   3.986370
                   26         27         28         29         30
    26  H    0.000000
    27  H    1.779986   0.000000
    28  H    2.291247   2.229304   0.000000
    29  H    4.184557   4.372929   6.260512   0.000000
    30  H    2.836957   3.086024   4.829573   1.755704   0.000000
    31  H    2.424690   3.233949   4.539301   2.536341   2.323304
    32  C    3.477407   2.737563   3.789635   5.054391   4.637997
    33  H    3.795545   2.589688   4.071224   4.883384   4.468642
    34  H    3.770427   3.010278   3.425230   6.039326   5.426172
    35  H    4.333774   3.777095   4.801348   5.334949   5.251737
    36  H    4.200725   3.615511   5.697718   2.411440   2.950449
                   31         32         33         34         35
    31  H    0.000000
    32  C    3.499698   0.000000
    33  H    3.859509   1.094795   0.000000
    34  H    4.314080   1.095345   1.767354   0.000000
    35  H    3.830205   1.093849   1.773242   1.757590   0.000000
    36  H    2.855812   3.291332   2.883432   4.351513   3.431132
                   36
    36  H    0.000000
 Stoichiometry    C13H19F2NO
 Framework group  C1[X(C13H19F2NO)]
 Deg. of freedom   102
 Full point group                 C1      NOp   1
 Largest Abelian subgroup         C1      NOp   1
 Largest concise Abelian subgroup C1      NOp   1
                         Standard orientation:                         
 ---------------------------------------------------------------------
 Center     Atomic      Atomic             Coordinates (Angstroms)
 Number     Number       Type             X           Y           Z
 ---------------------------------------------------------------------
      1          6           0        1.611455    3.253987   -0.697400
      2          6           0        2.418845    2.173041    0.010748
      3          6           0        1.973644    0.735941   -0.344778
      4          6           0        2.975473   -0.320730    0.204167
      5          6           0        2.608362   -1.729990   -0.287787
      6          8           0        3.682574   -2.629464   -0.024644
      7          7           0        0.619405    0.452002    0.153763
      8          6           0       -0.368769    0.351865   -0.920619
      9          6           0       -4.232140   -0.722794    0.680665
     10          6           0       -3.394436   -1.704290    0.152752
     11          6           0       -2.149650   -1.349429   -0.366829
     12          6           0       -1.716117   -0.022876   -0.377068
     13          6           0       -2.567488    0.943667    0.160887
     14          6           0       -3.815202    0.607307    0.684544
     15          1           0       -5.202372   -0.993597    1.089081
     16          1           0       -3.699543   -2.746468    0.143100
     17          1           0       -4.451108    1.386124    1.094740
     18          9           0       -1.368203   -2.315158   -0.872350
     19          9           0       -2.186841    2.229592    0.181553
     20          1           0        2.035158    4.239972   -0.480718
     21          1           0        1.628266    3.110136   -1.782254
     22          1           0        0.569921    3.261896   -0.362928
     23          1           0        3.473146    2.299000   -0.265201
     24          1           0        2.353086    2.345965    1.091357
     25          1           0        3.970770   -0.082238   -0.196412
     26          1           0        2.434395   -1.731026   -1.368833
     27          1           0        1.711631   -2.110299    0.212974
     28          1           0        3.371333   -3.515161   -0.278501
     29          1           0       -0.451058    1.297939   -1.469049
     30          1           0       -0.056272   -0.402860   -1.653230
     31          1           0        2.001936    0.653705   -1.440637
     32          6           0        3.110262   -0.314971    1.734447
     33          1           0        2.158601   -0.542823    2.225366
     34          1           0        3.840494   -1.061510    2.064933
     35          1           0        3.460891    0.654222    2.100820
     36          1           0        0.324263    1.174436    0.811010
 ---------------------------------------------------------------------
 Rotational constants (GHZ):      0.6170208      0.2850890      0.2141845
 Standard basis: 6-311G(d) (5D, 7F)
 There are   380 symmetry adapted cartesian basis functions of A   symmetry.
 There are   363 symmetry adapted basis functions of A   symmetry.
   363 basis functions,   639 primitive gaussians,   380 cartesian basis functions
    65 alpha electrons       65 beta electrons
       nuclear repulsion energy      1266.8664397220 Hartrees.
 NAtoms=   36 NActive=   36 NUniq=   36 SFac= 1.00D+00 NAtFMM=   60 NAOKFM=F Big=F
 Integral buffers will be    131072 words long.
 Raffenetti 2 integral format.
 Two-electron integral symmetry is turned on.
 ------------------------------------------------------------------------------
 Polarizable Continuum Model (PCM)
 =================================
 Model                : PCM (using non-symmetric T matrix).
 Atomic radii         : UFF (Universal Force Field).
 Polarization charges : Total charges.
 Charge compensation  : None.
 Solution method      : On-the-fly selection.
 Cavity type          : Scaled VdW (van der Waals Surface) (Alpha=1.100).
 Cavity algorithm     : GePol (No added spheres)
                        Default sphere list used, NSphG=   36.
                        Lebedev-Laikov grids with approx.  5.0 points / Ang**2.
                        Smoothing algorithm: Karplus/York (Gamma=1.0000).
                        Polarization charges: spherical gaussians, with
                                              point-specific exponents (IZeta= 3).
                        Self-potential: point-specific (ISelfS= 7).
                        Self-field    : sphere-specific E.n sum rule (ISelfD= 2).
 Solvent              : Chloroform, Eps=   4.711300 Eps(inf)=   2.090627
 ------------------------------------------------------------------------------
 One-electron integrals computed using PRISM.
 NBasis=   363 RedAO= T EigKep=  2.45D-04  NBF=   363
 NBsUse=   363 1.00D-06 EigRej= -1.00D+00 NBFU=   363
 ExpMin= 1.03D-01 ExpMax= 1.14D+04 ExpMxC= 1.72D+03 IAcc=1 IRadAn=         1 AccDes= 0.00D+00
 Harris functional with IExCor=  908 and IRadAn=       1 diagonalized for initial guess.
 HarFok:  IExCor=  908 AccDes= 0.00D+00 IRadAn=         1 IDoV= 1 UseB2=F ITyADJ=14
 ICtDFT=  3500011 ScaDFX=  1.000000  1.000000  1.000000  1.000000
 FoFCou: FMM=F IPFlag=           0 FMFlag=      100000 FMFlg1=           0
         NFxFlg=           0 DoJE=T BraDBF=F KetDBF=T FulRan=T
         wScrn=  0.000000 ICntrl=     500 IOpCl=  0 I1Cent=   200000004 NGrid=           0
         NMat0=    1 NMatS0=      1 NMatT0=    0 NMatD0=    1 NMtDS0=    0 NMtDT0=    0
 Petite list used in FoFCou.
 Requested convergence on RMS density matrix=1.00D-08 within 128 cycles.
 Requested convergence on MAX density matrix=1.00D-06.
 Requested convergence on             energy=1.00D-06.
 No special actions if energy rises.
 Inv3:  Mode=1 IEnd=    19081452.
 Iteration    1 A*A^-1 deviation from unit magnitude is 4.22D-15 for   2489.
 Iteration    1 A*A^-1 deviation from orthogonality  is 2.79D-15 for   1707    947.
 Iteration    1 A^-1*A deviation from unit magnitude is 3.66D-15 for   2489.
 Iteration    1 A^-1*A deviation from orthogonality  is 7.04D-10 for   2316   2313.
 Iteration    2 A*A^-1 deviation from unit magnitude is 2.89D-15 for    424.
 Iteration    2 A*A^-1 deviation from orthogonality  is 2.84D-15 for   2352    239.
 Iteration    2 A^-1*A deviation from unit magnitude is 8.88D-16 for     75.
 Iteration    2 A^-1*A deviation from orthogonality  is 3.90D-16 for   2410    281.
 Error on total polarization charges =  0.00950
 SCF Done:  E(RmPW1PW91) =  -836.456871374     A.U. after   12 cycles
            NFock= 12  Conv=0.72D-08     -V/T= 2.0037
 DoSCS=F DFT=T ScalE2(SS,OS)=  1.000000  1.000000
 Range of M.O.s used for correlation:     1   363
 NBasis=   363 NAE=    65 NBE=    65 NFC=     0 NFV=     0
 NROrb=    363 NOA=    65 NOB=    65 NVA=   298 NVB=   298

 **** Warning!!: The largest alpha MO coefficient is  0.12591015D+02

 NEqPCM:  Using equilibrium solvation (IEInf=0, Eps=   4.7113, EpsInf=   2.0906)
          Differentiating once with respect to magnetic field using GIAOs.
          Electric field/nuclear overlap derivatives assumed to be zero.
 FoFJK:  IHMeth= 1 ICntrl=    6127 DoSepK=F KAlg= 0 I1Cent=   0 FoldK=F
 IRaf=         1 NMat=   1 IRICut=       1 DoRegI=T DoRafI=F ISym2E= 0.
          There are     3 degrees of freedom in the 1st order CPHF.  IDoFFX=0 NUNeed=     3.
      3 vectors produced by pass  0 Test12= 6.46D-13 3.33D-08 XBig12= 5.09D+01 2.29D+00.
 AX will form     3 AO Fock derivatives at one time.
      3 vectors produced by pass  1 Test12= 6.46D-13 3.33D-08 XBig12= 1.59D-01 2.14D-01.
      3 vectors produced by pass  2 Test12= 6.46D-13 3.33D-08 XBig12= 7.87D-04 8.70D-03.
      3 vectors produced by pass  3 Test12= 6.46D-13 3.33D-08 XBig12= 1.69D-06 2.42D-04.
      3 vectors produced by pass  4 Test12= 6.46D-13 3.33D-08 XBig12= 3.52D-09 1.40D-05.
      3 vectors produced by pass  5 Test12= 6.46D-13 3.33D-08 XBig12= 1.29D-11 8.67D-07.
      2 vectors produced by pass  6 Test12= 6.46D-13 3.33D-08 XBig12= 3.87D-14 3.48D-08.
 InvSVY:  IOpt=1 It=  1 EMax= 3.55D-15
 Solved reduced A of dimension    20 with     3 vectors.
 Calculating GIAO nuclear magnetic shielding tensors.
 SCF GIAO Magnetic shielding tensor (ppm):
      1  C    Isotropic =   174.3418   Anisotropy =    20.0982
   XX=   167.1281   YX=    -8.9803   ZX=     7.7149
   XY=    -4.5525   YY=   180.6130   ZY=    -3.9991
   XZ=     8.1142   YZ=    -4.3996   ZZ=   175.2843
   Eigenvalues:   161.5154   173.7694   187.7406
      2  C    Isotropic =   155.3920   Anisotropy =    29.3717
   XX=   160.5103   YX=     5.7019   ZX=     1.0872
   XY=    14.7290   YY=   167.5825   ZY=     0.5155
   XZ=    -0.7074   YZ=     4.3007   ZZ=   138.0832
   Eigenvalues:   137.8668   153.3361   174.9731
      3  C    Isotropic =   122.3571   Anisotropy =    17.9943
   XX=   133.8108   YX=     3.3128   ZX=    -4.2046
   XY=     1.7153   YY=   115.9688   ZY=    -7.9446
   XZ=     2.8226   YZ=    -6.5234   ZZ=   117.2916
   Eigenvalues:   109.2861   123.4319   134.3532
      4  C    Isotropic =   141.8393   Anisotropy =    30.5165
   XX=   151.4737   YX=    -6.0168   ZX=     1.6925
   XY=   -13.9862   YY=   152.8412   ZY=     2.1472
   XZ=     3.0593   YZ=     1.6631   ZZ=   121.2029
   Eigenvalues:   120.7699   142.5643   162.1836
      5  C    Isotropic =   117.0463   Anisotropy =    51.4648
   XX=   122.8313   YX=   -24.2372   ZX=     8.5252
   XY=   -24.2029   YY=   128.5901   ZY=     3.0503
   XZ=    14.0656   YZ=    -4.2469   ZZ=    99.7174
   Eigenvalues:    91.8174   107.9653   151.3561
      6  O    Isotropic =   307.6360   Anisotropy =   118.5286
   XX=   280.1693   YX=    31.9529   ZX=     8.9789
   XY=    12.5515   YY=   371.2641   ZY=    27.7248
   XZ=    -3.3753   YZ=    41.4281   ZZ=   271.4746
   Eigenvalues:   259.7106   276.5423   386.6551
      7  N    Isotropic =   207.4236   Anisotropy =    63.5571
   XX=   234.3784   YX=     8.8043   ZX=   -31.6487
   XY=    33.3658   YY=   175.3193   ZY=    31.0594
   XZ=   -15.9673   YZ=    24.9501   ZZ=   212.5731
   Eigenvalues:   149.6176   222.8582   249.7950
      8  C    Isotropic =   143.6044   Anisotropy =    56.3313
   XX=   163.5600   YX=    10.1769   ZX=    19.1304
   XY=     3.1265   YY=   115.7478   ZY=     0.1988
   XZ=    25.5548   YZ=     0.9114   ZZ=   151.5055
   Eigenvalues:   114.6132   135.0414   181.1587
      9  C    Isotropic =    54.7251   Anisotropy =   185.3928
   XX=   -10.1633   YX=   -27.9160   ZX=    83.1232
   XY=   -27.5467   YY=    35.0715   ZY=    -8.0026
   XZ=    81.9646   YZ=    -7.9160   ZZ=   139.2672
   Eigenvalues:   -52.4719    38.3270   178.3203
     10  C    Isotropic =    70.5921   Anisotropy =   148.8427
   XX=    71.2009   YX=   -17.3346   ZX=    43.3702
   XY=   -26.0872   YY=    -7.1687   ZY=   -13.3937
   XZ=    42.0911   YZ=   -17.3253   ZZ=   147.7441
   Eigenvalues:   -12.9078    54.8635   169.8206
     11  C    Isotropic =    19.4969   Anisotropy =    99.8513
   XX=    12.1583   YX=    43.6694   ZX=    41.7995
   XY=    35.7585   YY=   -17.9728   ZY=   -31.8917
   XZ=    35.9702   YZ=   -30.6389   ZZ=    64.3052
   Eigenvalues:   -63.5476    35.9738    86.0644
     12  C    Isotropic =    66.2288   Anisotropy =   141.3219
   XX=    45.6872   YX=    -7.0008   ZX=    55.7558
   XY=    -7.9184   YY=    21.4132   ZY=   -16.0440
   XZ=    53.1556   YZ=   -17.7616   ZZ=   131.5859
   Eigenvalues:    18.4452    19.7977   160.4434
     13  C    Isotropic =    19.4926   Anisotropy =    98.3169
   XX=    39.0424   YX=   -32.3852   ZX=    17.2056
   XY=   -25.4216   YY=   -55.4469   ZY=    -8.9811
   XZ=    17.3857   YZ=   -11.5476   ZZ=    74.8824
   Eigenvalues:   -63.7862    37.2268    85.0373
     14  C    Isotropic =    71.1073   Anisotropy =   148.1290
   XX=    55.1689   YX=    17.5502   ZX=    55.8350
   XY=    25.7844   YY=    19.6705   ZY=   -34.0271
   XZ=    57.9076   YZ=   -30.5493   ZZ=   138.4824
   Eigenvalues:   -12.2082    55.6702   169.8599
     15  H    Isotropic =    24.5609   Anisotropy =     3.2159
   XX=    25.2492   YX=     0.1987   ZX=    -1.7986
   XY=     0.1343   YY=    26.5564   ZY=     0.7790
   XZ=    -1.7921   YZ=     0.7951   ZZ=    21.8772
   Eigenvalues:    20.9885    25.9893    26.7049
     16  H    Isotropic =    25.2003   Anisotropy =     5.0219
   XX=    27.4972   YX=     1.0307   ZX=    -2.4514
   XY=     0.4625   YY=    25.7013   ZY=     0.5624
   XZ=    -2.3607   YZ=     0.4257   ZZ=    22.4024
   Eigenvalues:    21.3213    25.7313    28.5482
     17  H    Isotropic =    25.2222   Anisotropy =     5.0711
   XX=    27.4388   YX=     0.8269   ZX=    -2.4476
   XY=     1.1338   YY=    25.9797   ZY=     0.1455
   XZ=    -2.2122   YZ=     0.2912   ZZ=    22.2480
   Eigenvalues:    21.2887    25.7749    28.6029
     18  F    Isotropic =   302.5804   Anisotropy =   128.7476
   XX=   272.4411   YX=   -29.9057   ZX=    47.1406
   XY=   -37.9476   YY=   263.6720   ZY=    -0.4601
   XZ=    38.6973   YZ=     5.2344   ZZ=   371.6279
   Eigenvalues:   226.9791   292.3499   388.4121
     19  F    Isotropic =   307.2868   Anisotropy =   124.5699
   XX=   264.2125   YX=    -5.0481   ZX=    55.7506
   XY=     9.1157   YY=   299.5762   ZY=   -17.8375
   XZ=    54.3042   YZ=   -38.6635   ZZ=   358.0716
   Eigenvalues:   235.6859   295.8411   390.3334
     20  H    Isotropic =    30.8458   Anisotropy =    11.2322
   XX=    27.9663   YX=     1.4678   ZX=     0.9796
   XY=     2.3310   YY=    37.9793   ZY=     0.0417
   XZ=     1.1360   YZ=     0.1284   ZZ=    26.5919
   Eigenvalues:    25.9542    28.2493    38.3340
     21  H    Isotropic =    31.0180   Anisotropy =     7.7966
   XX=    27.5075   YX=     0.1611   ZX=     0.6464
   XY=    -0.1568   YY=    30.2581   ZY=    -2.7879
   XZ=    -0.0407   YZ=    -1.8865   ZZ=    35.2884
   Eigenvalues:    27.4916    29.3467    36.2158
     22  H    Isotropic =    30.6088   Anisotropy =     7.4794
   XX=    34.9843   YX=    -0.9913   ZX=    -2.1727
   XY=    -1.5637   YY=    31.3439   ZY=    -1.0653
   XZ=    -1.2624   YZ=    -0.3518   ZZ=    25.4982
   Eigenvalues:    25.0597    31.1715    35.5951
     23  H    Isotropic =    30.5912   Anisotropy =     8.6199
   XX=    35.4028   YX=     1.8516   ZX=    -1.0199
   XY=     2.0039   YY=    31.3700   ZY=    -2.1043
   XZ=    -0.2496   YZ=    -1.8606   ZZ=    25.0009
   Eigenvalues:    24.4336    31.0023    36.3378
     24  H    Isotropic =    30.5423   Anisotropy =     5.2068
   XX=    27.1204   YX=    -0.4664   ZX=     3.0469
   XY=    -0.7707   YY=    31.8753   ZY=     0.4313
   XZ=     3.0754   YZ=     0.5553   ZZ=    32.6311
   Eigenvalues:    25.6627    31.9506    34.0135
     25  H    Isotropic =    30.4550   Anisotropy =     6.4753
   XX=    33.5572   YX=    -0.3606   ZX=    -3.3080
   XY=    -0.2167   YY=    29.1758   ZY=    -0.7257
   XZ=    -2.1527   YZ=    -0.8233   ZZ=    28.6321
   Eigenvalues:    27.0912    29.5019    34.7719
     26  H    Isotropic =    28.1280   Anisotropy =     5.6276
   XX=    27.2708   YX=    -4.3457   ZX=     2.7514
   XY=    -3.5309   YY=    28.4313   ZY=     0.9819
   XZ=     1.7349   YZ=     2.0143   ZZ=    28.6819
   Eigenvalues:    22.6749    29.8293    31.8797
     27  H    Isotropic =    28.1618   Anisotropy =     7.7686
   XX=    32.6167   YX=    -0.7750   ZX=    -0.5268
   XY=    -2.3419   YY=    29.7943   ZY=     0.3665
   XZ=     1.6065   YZ=    -0.9407   ZZ=    22.0745
   Eigenvalues:    22.0412    29.1033    33.3409
     28  H    Isotropic =    31.4327   Anisotropy =    19.3733
   XX=    27.8912   YX=     0.0853   ZX=     1.9466
   XY=     1.9239   YY=    43.3476   ZY=     4.6997
   XZ=     2.8228   YZ=     3.8800   ZZ=    23.0594
   Eigenvalues:    21.4678    28.4821    44.3482
     29  H    Isotropic =    28.0771   Anisotropy =     5.0417
   XX=    28.9446   YX=    -0.5380   ZX=     2.9585
   XY=     0.7975   YY=    28.3636   ZY=    -1.7415
   XZ=     0.9164   YZ=    -4.5375   ZZ=    26.9232
   Eigenvalues:    23.8991    28.8940    31.4383
     30  H    Isotropic =    28.7492   Anisotropy =     5.9907
   XX=    29.1045   YX=     1.8705   ZX=     1.4584
   XY=     1.7647   YY=    28.8628   ZY=     3.0894
   XZ=    -1.2436   YZ=     4.0847   ZZ=    28.2803
   Eigenvalues:    24.6550    28.8497    32.7430
     31  H    Isotropic =    29.5566   Anisotropy =     2.2726
   XX=    29.7992   YX=    -1.0430   ZX=    -1.6005
   XY=    -0.3206   YY=    28.4985   ZY=    -0.5684
   XZ=    -0.2661   YZ=    -0.0672   ZZ=    30.3720
   Eigenvalues:    28.0009    29.5972    31.0716
     32  C    Isotropic =   176.8867   Anisotropy =    20.7801
   XX=   170.5020   YX=     5.3961   ZX=    -1.7360
   XY=     4.4961   YY=   169.6592   ZY=     0.7198
   XZ=    -1.4788   YZ=     3.0713   ZZ=   190.4988
   Eigenvalues:   164.8759   175.0440   190.7401
     33  H    Isotropic =    31.4108   Anisotropy =     6.2743
   XX=    32.9872   YX=     0.1760   ZX=    -2.0255
   XY=     0.5438   YY=    27.8707   ZY=    -1.7802
   XZ=    -1.9806   YZ=    -2.2346   ZZ=    33.3744
   Eigenvalues:    27.2014    31.4373    35.5936
     34  H    Isotropic =    30.8094   Anisotropy =     9.6000
   XX=    30.4298   YX=    -4.0589   ZX=     4.0067
   XY=    -4.2247   YY=    30.6095   ZY=    -1.0074
   XZ=     4.1251   YZ=    -1.4444   ZZ=    31.3889
   Eigenvalues:    25.4347    29.7841    37.2094
     35  H    Isotropic =    31.4135   Anisotropy =     8.6427
   XX=    28.8039   YX=     1.9957   ZX=     3.9183
   XY=     1.9626   YY=    33.3082   ZY=     1.7654
   XZ=     4.0785   YZ=     2.8750   ZZ=    32.1284
   Eigenvalues:    26.1150    30.9502    37.1753
     36  H    Isotropic =    32.0150   Anisotropy =     8.9525
   XX=    36.0773   YX=    -1.3741   ZX=    -2.0428
   XY=    -2.0353   YY=    29.7794   ZY=     4.7448
   XZ=     0.0962   YZ=     7.4780   ZZ=    30.1883
   Eigenvalues:    23.8438    34.2178    37.9834
 End of Minotr F.D. properties file   721 does not exist.
 End of Minotr F.D. properties file   722 does not exist.
 End of Minotr F.D. properties file   788 does not exist.

 **********************************************************************

            Population analysis using the SCF density.

 **********************************************************************

 Orbital symmetries:
       Occupied  (A) (A) (A) (A) (A) (A) (A) (A) (A) (A) (A) (A)
                 (A) (A) (A) (A) (A) (A) (A) (A) (A) (A) (A) (A)
                 (A) (A) (A) (A) (A) (A) (A) (A) (A) (A) (A) (A)
                 (A) (A) (A) (A) (A) (A) (A) (A) (A) (A) (A) (A)
                 (A) (A) (A) (A) (A) (A) (A) (A) (A) (A) (A) (A)
                 (A) (A) (A) (A) (A)
       Virtual   (A) (A) (A) (A) (A) (A) (A) (A) (A) (A) (A) (A)
                 (A) (A) (A) (A) (A) (A) (A) (A) (A) (A) (A) (A)
                 (A) (A) (A) (A) (A) (A) (A) (A) (A) (A) (A) (A)
                 (A) (A) (A) (A) (A) (A) (A) (A) (A) (A) (A) (A)
                 (A) (A) (A) (A) (A) (A) (A) (A) (A) (A) (A) (A)
                 (A) (A) (A) (A) (A) (A) (A) (A) (A) (A) (A) (A)
                 (A) (A) (A) (A) (A) (A) (A) (A) (A) (A) (A) (A)
                 (A) (A) (A) (A) (A) (A) (A) (A) (A) (A) (A) (A)
                 (A) (A) (A) (A) (A) (A) (A) (A) (A) (A) (A) (A)
                 (A) (A) (A) (A) (A) (A) (A) (A) (A) (A) (A) (A)
                 (A) (A) (A) (A) (A) (A) (A) (A) (A) (A) (A) (A)
                 (A) (A) (A) (A) (A) (A) (A) (A) (A) (A) (A) (A)
                 (A) (A) (A) (A) (A) (A) (A) (A) (A) (A) (A) (A)
                 (A) (A) (A) (A) (A) (A) (A) (A) (A) (A) (A) (A)
                 (A) (A) (A) (A) (A) (A) (A) (A) (A) (A) (A) (A)
                 (A) (A) (A) (A) (A) (A) (A) (A) (A) (A) (A) (A)
                 (A) (A) (A) (A) (A) (A) (A) (A) (A) (A) (A) (A)
                 (A) (A) (A) (A) (A) (A) (A) (A) (A) (A) (A) (A)
                 (A) (A) (A) (A) (A) (A) (A) (A) (A) (A) (A) (A)
                 (A) (A) (A) (A) (A) (A) (A) (A) (A) (A) (A) (A)
                 (A) (A) (A) (A) (A) (A) (A) (A) (A) (A) (A) (A)
                 (A) (A) (A) (A) (A) (A) (A) (A) (A) (A) (A) (A)
                 (A) (A) (A) (A) (A) (A) (A) (A) (A) (A) (A) (A)
                 (A) (A) (A) (A) (A) (A) (A) (A) (A) (A) (A) (A)
                 (A) (A) (A) (A) (A) (A) (A) (A) (A) (A)
 The electronic state is 1-A.
 Alpha  occ. eigenvalues --  -24.80629 -24.80323 -19.19956 -14.37763 -10.33792
 Alpha  occ. eigenvalues --  -10.33755 -10.26701 -10.26390 -10.26330 -10.26142
 Alpha  occ. eigenvalues --  -10.25997 -10.25218 -10.25181 -10.22987 -10.22798
 Alpha  occ. eigenvalues --  -10.21868 -10.20787  -1.27861  -1.27549  -1.04103
 Alpha  occ. eigenvalues --   -0.94324  -0.90446  -0.82944  -0.79715  -0.78636
 Alpha  occ. eigenvalues --   -0.78278  -0.71435  -0.69171  -0.67588  -0.66049
 Alpha  occ. eigenvalues --   -0.63740  -0.61310  -0.59098  -0.57484  -0.55841
 Alpha  occ. eigenvalues --   -0.52564  -0.51993  -0.51688  -0.51246  -0.49635
 Alpha  occ. eigenvalues --   -0.49295  -0.48985  -0.47004  -0.46783  -0.45833
 Alpha  occ. eigenvalues --   -0.44040  -0.43791  -0.42580  -0.41497  -0.41476
 Alpha  occ. eigenvalues --   -0.41056  -0.39197  -0.38311  -0.38041  -0.37664
 Alpha  occ. eigenvalues --   -0.37468  -0.35685  -0.35376  -0.33968  -0.33236
 Alpha  occ. eigenvalues --   -0.31989  -0.27743  -0.27541  -0.26785  -0.23667
 Alpha virt. eigenvalues --   -0.02048  -0.00915   0.05228   0.05729   0.06178
 Alpha virt. eigenvalues --    0.07125   0.07719   0.08755   0.10407   0.10885
 Alpha virt. eigenvalues --    0.11361   0.11665   0.12140   0.12904   0.13424
 Alpha virt. eigenvalues --    0.14186   0.14312   0.14781   0.15719   0.16274
 Alpha virt. eigenvalues --    0.16978   0.17920   0.18314   0.18904   0.20665
 Alpha virt. eigenvalues --    0.21185   0.22259   0.23267   0.24906   0.25494
 Alpha virt. eigenvalues --    0.25763   0.26792   0.27559   0.27956   0.29670
 Alpha virt. eigenvalues --    0.31320   0.32884   0.33587   0.34516   0.35096
 Alpha virt. eigenvalues --    0.35992   0.37700   0.38131   0.39133   0.39630
 Alpha virt. eigenvalues --    0.40054   0.40872   0.41551   0.41835   0.42734
 Alpha virt. eigenvalues --    0.43040   0.44208   0.44851   0.45795   0.47350
 Alpha virt. eigenvalues --    0.47556   0.48686   0.49398   0.51452   0.52201
 Alpha virt. eigenvalues --    0.52435   0.53810   0.54086   0.54729   0.56198
 Alpha virt. eigenvalues --    0.57112   0.57777   0.58405   0.58845   0.59128
 Alpha virt. eigenvalues --    0.59948   0.60411   0.61415   0.61686   0.62139
 Alpha virt. eigenvalues --    0.62465   0.63273   0.63652   0.64108   0.65191
 Alpha virt. eigenvalues --    0.65489   0.65639   0.66065   0.67193   0.67849
 Alpha virt. eigenvalues --    0.67973   0.68926   0.70163   0.72007   0.72289
 Alpha virt. eigenvalues --    0.73133   0.74012   0.74210   0.74956   0.75394
 Alpha virt. eigenvalues --    0.76454   0.78842   0.80354   0.82799   0.84419
 Alpha virt. eigenvalues --    0.86568   0.88244   0.89651   0.91402   0.93149
 Alpha virt. eigenvalues --    0.94693   0.96849   0.97915   0.98644   0.99967
 Alpha virt. eigenvalues --    1.02327   1.03254   1.04952   1.06231   1.07026
 Alpha virt. eigenvalues --    1.08289   1.10086   1.11433   1.12426   1.13438
 Alpha virt. eigenvalues --    1.16462   1.18439   1.19872   1.21198   1.24251
 Alpha virt. eigenvalues --    1.25220   1.26848   1.28415   1.30186   1.32373
 Alpha virt. eigenvalues --    1.35395   1.36412   1.38211   1.39227   1.43563
 Alpha virt. eigenvalues --    1.44821   1.46989   1.48534   1.49501   1.50727
 Alpha virt. eigenvalues --    1.51712   1.52877   1.53792   1.54529   1.55826
 Alpha virt. eigenvalues --    1.56474   1.57216   1.59122   1.60254   1.60446
 Alpha virt. eigenvalues --    1.62635   1.63180   1.65567   1.66031   1.66829
 Alpha virt. eigenvalues --    1.67906   1.69226   1.70057   1.72549   1.73108
 Alpha virt. eigenvalues --    1.74572   1.76441   1.78201   1.79949   1.82498
 Alpha virt. eigenvalues --    1.83781   1.85038   1.85588   1.89092   1.89605
 Alpha virt. eigenvalues --    1.89890   1.92862   1.92991   1.94992   1.95386
 Alpha virt. eigenvalues --    1.96276   1.99115   1.99764   2.00575   2.03427
 Alpha virt. eigenvalues --    2.08745   2.10606   2.12685   2.16703   2.18749
 Alpha virt. eigenvalues --    2.21037   2.24910   2.25626   2.27451   2.27556
 Alpha virt. eigenvalues --    2.30696   2.33474   2.34485   2.37849   2.41263
 Alpha virt. eigenvalues --    2.41558   2.43273   2.44323   2.45146   2.46707
 Alpha virt. eigenvalues --    2.48465   2.50934   2.51577   2.53168   2.54408
 Alpha virt. eigenvalues --    2.56033   2.57893   2.58277   2.60131   2.64816
 Alpha virt. eigenvalues --    2.66045   2.67409   2.71346   2.72424   2.74363
 Alpha virt. eigenvalues --    2.77110   2.82944   2.83402   2.86938   2.90220
 Alpha virt. eigenvalues --    2.92050   2.93047   2.97548   3.00375   3.06274
 Alpha virt. eigenvalues --    3.06408   3.06845   3.08246   3.09268   3.10446
 Alpha virt. eigenvalues --    3.12568   3.14939   3.17453   3.21049   3.23359
 Alpha virt. eigenvalues --    3.24559   3.25546   3.26029   3.28672   3.28817
 Alpha virt. eigenvalues --    3.29617   3.30711   3.33051   3.37945   3.39633
 Alpha virt. eigenvalues --    3.47573   3.49510   3.53494   3.57857   3.64566
 Alpha virt. eigenvalues --    3.75522   3.79328   3.79741   3.80027   3.80752
 Alpha virt. eigenvalues --    3.85999   3.86738   3.96346   3.97046   3.99687
 Alpha virt. eigenvalues --    4.00373   4.03355   4.07607   4.10753   4.12736
 Alpha virt. eigenvalues --    4.18368   4.25085   4.49509   4.75728   4.77768
 Alpha virt. eigenvalues --    4.79610   4.80846   4.91375   5.10263   5.40115
 Alpha virt. eigenvalues --    6.12756   6.14802   6.31683   6.33054   6.56934
 Alpha virt. eigenvalues --    6.59713  23.30476  23.46829  23.60093  23.70106
 Alpha virt. eigenvalues --   23.73307  23.78401  23.83187  23.84262  23.86950
 Alpha virt. eigenvalues --   23.90041  24.08815  24.11297  24.19443  35.58326
 Alpha virt. eigenvalues --   49.97700  66.89138  66.89652
          Condensed to atoms (all electrons):
               1          2          3          4          5          6
     1  C    5.360926   0.305987  -0.077210   0.008044  -0.000218   0.000000
     2  C    0.305987   5.328602   0.335921  -0.078373   0.006783  -0.000072
     3  C   -0.077210   0.335921   5.340500   0.281768  -0.052796   0.002801
     4  C    0.008044  -0.078373   0.281768   5.442943   0.287854  -0.049236
     5  C   -0.000218   0.006783  -0.052796   0.287854   5.126311   0.223051
     6  O    0.000000  -0.000072   0.002801  -0.049236   0.223051   8.232103
     7  N   -0.002988  -0.043023   0.226669  -0.074175  -0.005433   0.000023
     8  C   -0.000373   0.001582  -0.077068   0.006109  -0.001746   0.000016
     9  C    0.000000   0.000000  -0.000001   0.000000   0.000000   0.000000
    10  C    0.000000   0.000000   0.000002   0.000002  -0.000002   0.000000
    11  C   -0.000005   0.000002  -0.000780  -0.000056  -0.000014   0.000000
    12  C    0.000010  -0.000520   0.011733  -0.000512   0.000122  -0.000001
    13  C    0.000013   0.000031  -0.000272   0.000078   0.000003   0.000000
    14  C   -0.000007   0.000001   0.000019   0.000001   0.000000   0.000000
    15  H    0.000000   0.000000   0.000000   0.000000   0.000000   0.000000
    16  H    0.000000   0.000000   0.000000   0.000000   0.000000   0.000000
    17  H    0.000000   0.000000  -0.000001   0.000000   0.000000   0.000000
    18  F    0.000000  -0.000001  -0.000132   0.000021  -0.000240   0.000000
    19  F   -0.001001  -0.000002  -0.000035  -0.000001   0.000000   0.000000
    20  H    0.394365  -0.037445   0.007978  -0.000325   0.000013   0.000000
    21  H    0.389106  -0.045700  -0.003557  -0.000270  -0.000046   0.000000
    22  H    0.376461  -0.036358  -0.009404   0.000573  -0.000012   0.000000
    23  H   -0.040106   0.395373  -0.054044   0.005388   0.000001  -0.000023
    24  H   -0.045622   0.393077  -0.036638  -0.009034  -0.000294   0.000001
    25  H   -0.000102  -0.005903  -0.040433   0.389641  -0.042605   0.007167
    26  H   -0.000030   0.000176   0.007379  -0.063110   0.399446  -0.036248
    27  H    0.000007  -0.000401  -0.006242  -0.033510   0.376173  -0.036811
    28  H   -0.000001   0.000028  -0.000774   0.011269  -0.050860   0.259882
    29  H   -0.000243   0.000599   0.002609  -0.002273   0.000251   0.000001
    30  H    0.000324  -0.000157  -0.005908   0.001571   0.000598  -0.000057
    31  H   -0.007973  -0.036375   0.412320  -0.058965  -0.005839  -0.000258
    32  C   -0.000087  -0.005016  -0.062005   0.286577  -0.078440  -0.001547
    33  H   -0.000116   0.000627  -0.009458  -0.038695  -0.004804  -0.000779
    34  H    0.000014  -0.000220   0.009098  -0.039669  -0.008446   0.016331
    35  H    0.000259   0.002229  -0.007428  -0.037294   0.007364  -0.000185
    36  H    0.000556  -0.004463  -0.058327   0.002572  -0.000136  -0.000003
               7          8          9         10         11         12
     1  C   -0.002988  -0.000373   0.000000   0.000000  -0.000005   0.000010
     2  C   -0.043023   0.001582   0.000000   0.000000   0.000002  -0.000520
     3  C    0.226669  -0.077068  -0.000001   0.000002  -0.000780   0.011733
     4  C   -0.074175   0.006109   0.000000   0.000002  -0.000056  -0.000512
     5  C   -0.005433  -0.001746   0.000000  -0.000002  -0.000014   0.000122
     6  O    0.000023   0.000016   0.000000   0.000000   0.000000  -0.000001
     7  N    6.977674   0.289070   0.000073  -0.000111   0.018735  -0.083530
     8  C    0.289070   5.291664  -0.001193   0.009301  -0.073531   0.291322
     9  C    0.000073  -0.001193   5.057123   0.436122  -0.005857  -0.056917
    10  C   -0.000111   0.009301   0.436122   5.193612   0.476394  -0.034165
    11  C    0.018735  -0.073531  -0.005857   0.476394   4.766682   0.256182
    12  C   -0.083530   0.291322  -0.056917  -0.034165   0.256182   5.795367
    13  C   -0.006883  -0.080953  -0.007610  -0.062612   0.024618   0.237625
    14  C   -0.000287   0.009507   0.438506  -0.037275  -0.065616  -0.040897
    15  H    0.000000   0.000030   0.404999  -0.041069   0.006269  -0.002069
    16  H    0.000008  -0.000298  -0.041035   0.391907  -0.048990   0.012138
    17  H    0.000013  -0.000339  -0.040848   0.007068  -0.001284   0.012261
    18  F   -0.000476  -0.003344   0.005578  -0.054936   0.315505  -0.074596
    19  F   -0.001233   0.002213   0.005474  -0.000562   0.004762  -0.080996
    20  H   -0.000183   0.000160   0.000000   0.000000   0.000000   0.000000
    21  H   -0.000720   0.000051   0.000000   0.000000   0.000006   0.000117
    22  H    0.009119  -0.000503  -0.000008   0.000004  -0.000142  -0.001325
    23  H    0.006548  -0.000398   0.000000   0.000000  -0.000004   0.000023
    24  H   -0.004870  -0.000241   0.000000   0.000000   0.000006   0.000146
    25  H    0.006448  -0.000167   0.000000   0.000000   0.000008   0.000018
    26  H   -0.000645  -0.000553   0.000000  -0.000004  -0.000071   0.000086
    27  H    0.013786  -0.000160  -0.000006   0.000054   0.000922  -0.001568
    28  H    0.000037  -0.000003   0.000000   0.000000   0.000001   0.000001
    29  H   -0.056097   0.381815  -0.000076  -0.000083   0.015182  -0.035511
    30  H   -0.039084   0.383814  -0.000249   0.000882  -0.025818  -0.023207
    31  H   -0.039522  -0.012235   0.000001  -0.000003   0.000228   0.000895
    32  C   -0.008110  -0.000298   0.000000   0.000000  -0.000022   0.000067
    33  H    0.016321  -0.000365   0.000000  -0.000001   0.000171   0.000192
    34  H   -0.000414   0.000010   0.000000   0.000000  -0.000001  -0.000002
    35  H    0.000004  -0.000055   0.000000   0.000000   0.000000  -0.000005
    36  H    0.340393  -0.046028  -0.000037   0.000035  -0.000462  -0.013454
              13         14         15         16         17         18
     1  C    0.000013  -0.000007   0.000000   0.000000   0.000000   0.000000
     2  C    0.000031   0.000001   0.000000   0.000000   0.000000  -0.000001
     3  C   -0.000272   0.000019   0.000000   0.000000  -0.000001  -0.000132
     4  C    0.000078   0.000001   0.000000   0.000000   0.000000   0.000021
     5  C    0.000003   0.000000   0.000000   0.000000   0.000000  -0.000240
     6  O    0.000000   0.000000   0.000000   0.000000   0.000000   0.000000
     7  N   -0.006883  -0.000287   0.000000   0.000008   0.000013  -0.000476
     8  C   -0.080953   0.009507   0.000030  -0.000298  -0.000339  -0.003344
     9  C   -0.007610   0.438506   0.404999  -0.041035  -0.040848   0.005578
    10  C   -0.062612  -0.037275  -0.041069   0.391907   0.007068  -0.054936
    11  C    0.024618  -0.065616   0.006269  -0.048990  -0.001284   0.315505
    12  C    0.237625  -0.040897  -0.002069   0.012138   0.012261  -0.074596
    13  C    4.814964   0.481101   0.006338  -0.001326  -0.049546   0.005190
    14  C    0.481101   5.197097  -0.041198   0.007112   0.391909  -0.000554
    15  H    0.006338  -0.041198   0.446835  -0.006645  -0.006656  -0.000073
    16  H   -0.001326   0.007112  -0.006645   0.451599  -0.000178   0.001465
    17  H   -0.049546   0.391909  -0.006656  -0.000178   0.451505   0.000004
    18  F    0.005190  -0.000554  -0.000073   0.001465   0.000004   9.028156
    19  F    0.315228  -0.055711  -0.000072   0.000004   0.001555  -0.000001
    20  H   -0.000006   0.000000   0.000000   0.000000   0.000000   0.000000
    21  H   -0.000030  -0.000001   0.000000   0.000000   0.000000   0.000000
    22  H    0.000951   0.000173   0.000000   0.000000   0.000001   0.000000
    23  H    0.000013   0.000000   0.000000   0.000000   0.000000   0.000000
    24  H   -0.000044  -0.000001   0.000000   0.000000   0.000000   0.000000
    25  H   -0.000004   0.000000   0.000000   0.000000   0.000000   0.000000
    26  H    0.000002   0.000000   0.000000   0.000000   0.000000  -0.000007
    27  H   -0.000137   0.000003   0.000000   0.000003   0.000000   0.003616
    28  H    0.000000   0.000000   0.000000   0.000000   0.000000  -0.000010
    29  H   -0.032889  -0.000736   0.000002   0.000015  -0.000027   0.000033
    30  H    0.012307   0.000168   0.000003  -0.000050   0.000009   0.010938
    31  H   -0.000273  -0.000003   0.000000   0.000000   0.000000  -0.000088
    32  C    0.000003   0.000000   0.000000   0.000000   0.000000  -0.000001
    33  H   -0.000090  -0.000004   0.000000   0.000000   0.000000  -0.000024
    34  H    0.000000   0.000000   0.000000   0.000000   0.000000   0.000000
    35  H    0.000000   0.000000   0.000000   0.000000   0.000000   0.000000
    36  H    0.006146  -0.000013   0.000001   0.000000   0.000006   0.000009
              19         20         21         22         23         24
     1  C   -0.001001   0.394365   0.389106   0.376461  -0.040106  -0.045622
     2  C   -0.000002  -0.037445  -0.045700  -0.036358   0.395373   0.393077
     3  C   -0.000035   0.007978  -0.003557  -0.009404  -0.054044  -0.036638
     4  C   -0.000001  -0.000325  -0.000270   0.000573   0.005388  -0.009034
     5  C    0.000000   0.000013  -0.000046  -0.000012   0.000001  -0.000294
     6  O    0.000000   0.000000   0.000000   0.000000  -0.000023   0.000001
     7  N   -0.001233  -0.000183  -0.000720   0.009119   0.006548  -0.004870
     8  C    0.002213   0.000160   0.000051  -0.000503  -0.000398  -0.000241
     9  C    0.005474   0.000000   0.000000  -0.000008   0.000000   0.000000
    10  C   -0.000562   0.000000   0.000000   0.000004   0.000000   0.000000
    11  C    0.004762   0.000000   0.000006  -0.000142  -0.000004   0.000006
    12  C   -0.080996   0.000000   0.000117  -0.001325   0.000023   0.000146
    13  C    0.315228  -0.000006  -0.000030   0.000951   0.000013  -0.000044
    14  C   -0.055711   0.000000  -0.000001   0.000173   0.000000  -0.000001
    15  H   -0.000072   0.000000   0.000000   0.000000   0.000000   0.000000
    16  H    0.000004   0.000000   0.000000   0.000000   0.000000   0.000000
    17  H    0.001555   0.000000   0.000000   0.000001   0.000000   0.000000
    18  F   -0.000001   0.000000   0.000000   0.000000   0.000000   0.000000
    19  F    9.028692  -0.000021  -0.000088   0.006253  -0.000001  -0.000054
    20  H   -0.000021   0.470138  -0.027238  -0.027615  -0.006227  -0.003738
    21  H   -0.000088  -0.027238   0.485496  -0.029288  -0.004935   0.007892
    22  H    0.006253  -0.027615  -0.029288   0.490007   0.008337  -0.007467
    23  H   -0.000001  -0.006227  -0.004935   0.008337   0.497077  -0.030936
    24  H   -0.000054  -0.003738   0.007892  -0.007467  -0.030936   0.494477
    25  H    0.000000  -0.000024   0.000088  -0.000060   0.000981   0.000376
    26  H    0.000000   0.000001  -0.000021   0.000001   0.000042  -0.000014
    27  H    0.000001   0.000000   0.000005  -0.000019  -0.000104   0.000056
    28  H    0.000000   0.000000   0.000000   0.000000   0.000001   0.000000
    29  H    0.005842   0.000228   0.000509  -0.006246  -0.000529   0.000239
    30  H    0.000170  -0.000014  -0.000085   0.000698   0.000170  -0.000081
    31  H   -0.000003  -0.000052   0.005653  -0.001115  -0.004279   0.007000
    32  C    0.000000   0.000021  -0.000016  -0.000041  -0.000790   0.001936
    33  H   -0.000003   0.000004   0.000007  -0.000087  -0.000274   0.000760
    34  H    0.000000  -0.000001   0.000002  -0.000001  -0.000147   0.000115
    35  H    0.000000   0.000007  -0.000029   0.000024   0.000423  -0.000386
    36  H    0.004388  -0.000187   0.000069   0.004088   0.000696   0.002784
              25         26         27         28         29         30
     1  C   -0.000102  -0.000030   0.000007  -0.000001  -0.000243   0.000324
     2  C   -0.005903   0.000176  -0.000401   0.000028   0.000599  -0.000157
     3  C   -0.040433   0.007379  -0.006242  -0.000774   0.002609  -0.005908
     4  C    0.389641  -0.063110  -0.033510   0.011269  -0.002273   0.001571
     5  C   -0.042605   0.399446   0.376173  -0.050860   0.000251   0.000598
     6  O    0.007167  -0.036248  -0.036811   0.259882   0.000001  -0.000057
     7  N    0.006448  -0.000645   0.013786   0.000037  -0.056097  -0.039084
     8  C   -0.000167  -0.000553  -0.000160  -0.000003   0.381815   0.383814
     9  C    0.000000   0.000000  -0.000006   0.000000  -0.000076  -0.000249
    10  C    0.000000  -0.000004   0.000054   0.000000  -0.000083   0.000882
    11  C    0.000008  -0.000071   0.000922   0.000001   0.015182  -0.025818
    12  C    0.000018   0.000086  -0.001568   0.000001  -0.035511  -0.023207
    13  C   -0.000004   0.000002  -0.000137   0.000000  -0.032889   0.012307
    14  C    0.000000   0.000000   0.000003   0.000000  -0.000736   0.000168
    15  H    0.000000   0.000000   0.000000   0.000000   0.000002   0.000003
    16  H    0.000000   0.000000   0.000003   0.000000   0.000015  -0.000050
    17  H    0.000000   0.000000   0.000000   0.000000  -0.000027   0.000009
    18  F    0.000000  -0.000007   0.003616  -0.000010   0.000033   0.010938
    19  F    0.000000   0.000000   0.000001   0.000000   0.005842   0.000170
    20  H   -0.000024   0.000001   0.000000   0.000000   0.000228  -0.000014
    21  H    0.000088  -0.000021   0.000005   0.000000   0.000509  -0.000085
    22  H   -0.000060   0.000001  -0.000019   0.000000  -0.006246   0.000698
    23  H    0.000981   0.000042  -0.000104   0.000001  -0.000529   0.000170
    24  H    0.000376  -0.000014   0.000056   0.000000   0.000239  -0.000081
    25  H    0.525145  -0.007778   0.010264  -0.000374   0.000155  -0.000293
    26  H   -0.007778   0.529357  -0.041167  -0.002206   0.000034   0.001663
    27  H    0.010264  -0.041167   0.517030  -0.004882   0.000439  -0.002075
    28  H   -0.000374  -0.002206  -0.004882   0.382646   0.000001  -0.000036
    29  H    0.000155   0.000034   0.000439   0.000001   0.546958  -0.051891
    30  H   -0.000293   0.001663  -0.002075  -0.000036  -0.051891   0.478691
    31  H   -0.003496   0.006342  -0.000373  -0.000009   0.004661  -0.002132
    32  C   -0.054929   0.008774  -0.014009  -0.000102   0.000004   0.000081
    33  H    0.008567  -0.000242   0.005355   0.000041   0.000212  -0.000245
    34  H   -0.005071   0.001006  -0.000322  -0.000849  -0.000003   0.000020
    35  H   -0.005166  -0.000315  -0.000123   0.000045   0.000006  -0.000011
    36  H   -0.000224  -0.000075   0.000039  -0.000002  -0.005863   0.006447
              31         32         33         34         35         36
     1  C   -0.007973  -0.000087  -0.000116   0.000014   0.000259   0.000556
     2  C   -0.036375  -0.005016   0.000627  -0.000220   0.002229  -0.004463
     3  C    0.412320  -0.062005  -0.009458   0.009098  -0.007428  -0.058327
     4  C   -0.058965   0.286577  -0.038695  -0.039669  -0.037294   0.002572
     5  C   -0.005839  -0.078440  -0.004804  -0.008446   0.007364  -0.000136
     6  O   -0.000258  -0.001547  -0.000779   0.016331  -0.000185  -0.000003
     7  N   -0.039522  -0.008110   0.016321  -0.000414   0.000004   0.340393
     8  C   -0.012235  -0.000298  -0.000365   0.000010  -0.000055  -0.046028
     9  C    0.000001   0.000000   0.000000   0.000000   0.000000  -0.000037
    10  C   -0.000003   0.000000  -0.000001   0.000000   0.000000   0.000035
    11  C    0.000228  -0.000022   0.000171  -0.000001   0.000000  -0.000462
    12  C    0.000895   0.000067   0.000192  -0.000002  -0.000005  -0.013454
    13  C   -0.000273   0.000003  -0.000090   0.000000   0.000000   0.006146
    14  C   -0.000003   0.000000  -0.000004   0.000000   0.000000  -0.000013
    15  H    0.000000   0.000000   0.000000   0.000000   0.000000   0.000001
    16  H    0.000000   0.000000   0.000000   0.000000   0.000000   0.000000
    17  H    0.000000   0.000000   0.000000   0.000000   0.000000   0.000006
    18  F   -0.000088  -0.000001  -0.000024   0.000000   0.000000   0.000009
    19  F   -0.000003   0.000000  -0.000003   0.000000   0.000000   0.004388
    20  H   -0.000052   0.000021   0.000004  -0.000001   0.000007  -0.000187
    21  H    0.005653  -0.000016   0.000007   0.000002  -0.000029   0.000069
    22  H   -0.001115  -0.000041  -0.000087  -0.000001   0.000024   0.004088
    23  H   -0.004279  -0.000790  -0.000274  -0.000147   0.000423   0.000696
    24  H    0.007000   0.001936   0.000760   0.000115  -0.000386   0.002784
    25  H   -0.003496  -0.054929   0.008567  -0.005071  -0.005166  -0.000224
    26  H    0.006342   0.008774  -0.000242   0.001006  -0.000315  -0.000075
    27  H   -0.000373  -0.014009   0.005355  -0.000322  -0.000123   0.000039
    28  H   -0.000009  -0.000102   0.000041  -0.000849   0.000045  -0.000002
    29  H    0.004661   0.000004   0.000212  -0.000003   0.000006  -0.005863
    30  H   -0.002132   0.000081  -0.000245   0.000020  -0.000011   0.006447
    31  H    0.490786   0.008454   0.000195  -0.000180  -0.000087   0.006256
    32  C    0.008454   5.439262   0.375069   0.386186   0.389843   0.000252
    33  H    0.000195   0.375069   0.482969  -0.028549  -0.027185  -0.001051
    34  H   -0.000180   0.386186  -0.028549   0.466129  -0.028950   0.000009
    35  H   -0.000087   0.389843  -0.027185  -0.028950   0.481014  -0.000185
    36  H    0.006256   0.000252  -0.001051   0.000009  -0.000185   0.420027
 Mulliken charges:
               1
     1  C   -0.659991
     2  C   -0.476988
     3  C   -0.136286
     4  C   -0.238912
     5  C   -0.176038
     6  O   -0.616158
     7  N   -0.537137
     8  C   -0.366811
     9  C   -0.194039
    10  C   -0.284560
    11  C    0.336983
    12  C   -0.169027
    13  C    0.338065
    14  C   -0.283291
    15  H    0.233306
    16  H    0.234271
    17  H    0.234547
    18  F   -0.236030
    19  F   -0.234798
    20  H    0.230162
    21  H    0.223023
    22  H    0.223000
    23  H    0.227724
    24  H    0.230555
    25  H    0.217772
    26  H    0.198180
    27  H    0.214159
    28  H    0.406155
    29  H    0.232672
    30  H    0.252838
    31  H    0.230469
    32  C   -0.671120
    33  H    0.221479
    34  H    0.233904
    35  H    0.226186
    36  H    0.335735
 Sum of Mulliken charges =   0.00000
 Mulliken charges with hydrogens summed into heavy atoms:
               1
     1  C    0.016194
     2  C   -0.018709
     3  C    0.094183
     4  C   -0.021140
     5  C    0.236301
     6  O   -0.210003
     7  N   -0.201402
     8  C    0.118699
     9  C    0.039268
    10  C   -0.050289
    11  C    0.336983
    12  C   -0.169027
    13  C    0.338065
    14  C   -0.048744
    18  F   -0.236030
    19  F   -0.234798
    32  C    0.010449
 Electronic spatial extent (au):  <R**2>=           5097.8802
 Charge=              0.0000 electrons
 Dipole moment (field-independent basis, Debye):
    X=             -2.9827    Y=              0.3899    Z=             -0.6373  Tot=              3.0748
 Quadrupole moment (field-independent basis, Debye-Ang):
   XX=           -100.6548   YY=            -96.2345   ZZ=           -102.1448
   XY=              7.2491   XZ=             -7.6878   YZ=              2.5153
 Traceless Quadrupole moment (field-independent basis, Debye-Ang):
   XX=             -0.9768   YY=              3.4435   ZZ=             -2.4667
   XY=              7.2491   XZ=             -7.6878   YZ=              2.5153
 Octapole moment (field-independent basis, Debye-Ang**2):
  XXX=           -127.5302  YYY=            -50.9833  ZZZ=            -11.2708  XYY=              6.2377
  XXY=              8.9688  XXZ=             13.3859  XZZ=              1.0173  YZZ=              0.1560
  YYZ=             -2.6807  XYZ=              8.1921
 Hexadecapole moment (field-independent basis, Debye-Ang**3):
 XXXX=          -4329.9228 YYYY=          -1634.5721 ZZZZ=           -455.3089 XXXY=            139.2994
 XXXZ=           -158.6481 YYYX=            -97.0700 YYYZ=             48.5960 ZZZX=             -4.0717
 ZZZY=             26.0511 XXYY=           -974.4775 XXZZ=           -815.3120 YYZZ=           -376.5345
 XXYZ=             25.6125 YYXZ=            -33.0348 ZZXY=            -25.3636
 N-N= 1.266866439722D+03 E-N=-4.492028620411D+03  KE= 8.333572017896D+02
 1\1\GINC-CPU-E-904\SP\RmPW1PW91\6-311G(d)\C13H19F2N1O1\AH809\04-Mar-20
 19\0\\# mPW1PW91/6-311g(d) nmr=giao scrf=(solvent=chloroform)\\AT3_2gi
 np012\\0,1\C,0,-2.46576,-1.777855,-0.731806\C,0,-2.153853,-0.787545,0.
 383452\C,0,-2.960746,-1.039596,1.677767\C,0,-2.434064,-0.167242,2.8538
 45\C,0,-3.137765,-0.539336,4.168818\O,0,-2.449841,0.050284,5.269427\N,
 0,-4.396776,-0.795686,1.47416\C,0,-5.186637,-2.027244,1.488117\C,0,-9.
 393262,-1.123786,1.123824\C,0,-8.82888,-1.339703,2.380258\C,0,-7.47026
 3,-1.635437,2.490195\C,0,-6.651352,-1.726627,1.363755\C,0,-7.234752,-1
 .501839,0.115738\C,0,-8.591024,-1.205114,-0.013199\H,0,-10.450963,-0.8
 90687,1.032052\H,0,-9.436187,-1.277996,3.278417\H,0,-9.010477,-1.03635
 2,-1.000504\F,0,-6.957266,-1.843115,3.711894\F,0,-6.482853,-1.568626,-
 0.992915\H,0,-1.796983,-1.60724,-1.58167\H,0,-2.324914,-2.808953,-0.39
 2864\H,0,-3.492489,-1.666724,-1.092643\H,0,-1.082855,-0.856396,0.61101
 8\H,0,-2.330945,0.225728,0.004166\H,0,-1.364082,-0.383488,2.981657\H,0
 ,-3.132236,-1.62393,4.318989\H,0,-4.174867,-0.187605,4.183928\H,0,-2.9
 76276,-0.146298,6.063149\H,0,-4.885178,-2.697351,0.674064\H,0,-5.01265
 1,-2.577995,2.421062\H,0,-2.788336,-2.086916,1.963889\C,0,-2.545113,1.
 34477,2.605961\H,0,-3.584997,1.656239,2.463818\H,0,-2.142999,1.91001,3
 .453657\H,0,-1.973477,1.647911,1.724007\H,0,-4.552698,-0.31041,0.59031
 1\\Version=ES64L-G09RevD.01\State=1-A\HF=-836.4568714\RMSD=7.209e-09\D
 ipole=-1.0139577,-0.5023885,-0.4277381\Quadrupole=4.1869725,-4.7251892
 ,0.5382167,-4.6898741,-3.8834111,-3.6451186\PG=C01 [X(C13H19F2N1O1)]\\
 @


 A COMPLEXITY IS MERELY A DISARRANGEMENT OF SIMPLICITIES.

                                    -- G. O. ABELL IN "EXPLORATION OF THE UNIVERSE"
 Job cpu time:       0 days  0 hours 17 minutes  2.4 seconds.
 File lengths (MBytes):  RWF=    184 Int=      0 D2E=      0 Chk=     10 Scr=      1
 Normal termination of Gaussian 09 at Mon Mar  4 11:29:02 2019.
