 Entering Gaussian System, Link 0=/usr/local/Cluster-Apps/gaussian/g09/g09
 Initial command:
 /usr/local/Cluster-Apps/gaussian/g09/l1.exe "/home/ah809/rds/hpc-work/04Mar1111AT3/Gau-125420.inp" -scrdir="/home/ah809/rds/hpc-work/04Mar1111AT3/"
 Entering Link 1 = /usr/local/Cluster-Apps/gaussian/g09/l1.exe PID=    125426.
  
 Copyright (c) 1988,1990,1992,1993,1995,1998,2003,2009,2013,
            Gaussian, Inc.  All Rights Reserved.
  
 This is part of the Gaussian(R) 09 program.  It is based on
 the Gaussian(R) 03 system (copyright 2003, Gaussian, Inc.),
 the Gaussian(R) 98 system (copyright 1998, Gaussian, Inc.),
 the Gaussian(R) 94 system (copyright 1995, Gaussian, Inc.),
 the Gaussian 92(TM) system (copyright 1992, Gaussian, Inc.),
 the Gaussian 90(TM) system (copyright 1990, Gaussian, Inc.),
 the Gaussian 88(TM) system (copyright 1988, Gaussian, Inc.),
 the Gaussian 86(TM) system (copyright 1986, Carnegie Mellon
 University), and the Gaussian 82(TM) system (copyright 1983,
 Carnegie Mellon University). Gaussian is a federally registered
 trademark of Gaussian, Inc.
  
 This software contains proprietary and confidential information,
 including trade secrets, belonging to Gaussian, Inc.
  
 This software is provided under written license and may be
 used, copied, transmitted, or stored only in accord with that
 written license.
  
 The following legend is applicable only to US Government
 contracts under FAR:
  
                    RESTRICTED RIGHTS LEGEND
  
 Use, reproduction and disclosure by the US Government is
 subject to restrictions as set forth in subparagraphs (a)
 and (c) of the Commercial Computer Software - Restricted
 Rights clause in FAR 52.227-19.
  
 Gaussian, Inc.
 340 Quinnipiac St., Bldg. 40, Wallingford CT 06492
  
  
 ---------------------------------------------------------------
 Warning -- This program may not be used in any manner that
 competes with the business of Gaussian, Inc. or will provide
 assistance to any competitor of Gaussian, Inc.  The licensee
 of this program is prohibited from giving any competitor of
 Gaussian, Inc. access to this program.  By using this program,
 the user acknowledges that Gaussian, Inc. is engaged in the
 business of creating and licensing software in the field of
 computational chemistry and represents and warrants to the
 licensee that it is not a competitor of Gaussian, Inc. and that
 it will not use this program in any manner prohibited above.
 ---------------------------------------------------------------
  

 Cite this work as:
 Gaussian 09, Revision D.01,
 M. J. Frisch, G. W. Trucks, H. B. Schlegel, G. E. Scuseria, 
 M. A. Robb, J. R. Cheeseman, G. Scalmani, V. Barone, B. Mennucci, 
 G. A. Petersson, H. Nakatsuji, M. Caricato, X. Li, H. P. Hratchian, 
 A. F. Izmaylov, J. Bloino, G. Zheng, J. L. Sonnenberg, M. Hada, 
 M. Ehara, K. Toyota, R. Fukuda, J. Hasegawa, M. Ishida, T. Nakajima, 
 Y. Honda, O. Kitao, H. Nakai, T. Vreven, J. A. Montgomery, Jr., 
 J. E. Peralta, F. Ogliaro, M. Bearpark, J. J. Heyd, E. Brothers, 
 K. N. Kudin, V. N. Staroverov, T. Keith, R. Kobayashi, J. Normand, 
 K. Raghavachari, A. Rendell, J. C. Burant, S. S. Iyengar, J. Tomasi, 
 M. Cossi, N. Rega, J. M. Millam, M. Klene, J. E. Knox, J. B. Cross, 
 V. Bakken, C. Adamo, J. Jaramillo, R. Gomperts, R. E. Stratmann, 
 O. Yazyev, A. J. Austin, R. Cammi, C. Pomelli, J. W. Ochterski, 
 R. L. Martin, K. Morokuma, V. G. Zakrzewski, G. A. Voth, 
 P. Salvador, J. J. Dannenberg, S. Dapprich, A. D. Daniels, 
 O. Farkas, J. B. Foresman, J. V. Ortiz, J. Cioslowski, 
 and D. J. Fox, Gaussian, Inc., Wallingford CT, 2013.
 
 ******************************************
 Gaussian 09:  ES64L-G09RevD.01 24-Apr-2013
                 4-Mar-2019 
 ******************************************
 %nprocshared=8
 Will use up to    8 processors via shared memory.
 %mem=6000MB
 %chk=AT3_2ginp002.chk
 -------------------------------------------------------
 # mPW1PW91/6-311g(d) nmr=giao scrf=(solvent=chloroform)
 -------------------------------------------------------
 1/38=1/1;
 2/12=2,17=6,18=5,40=1/2;
 3/5=4,6=6,7=1,11=2,16=1,25=1,30=1,70=2201,72=7,74=-7/1,2,8,3;
 4//1;
 5/5=2,38=5,53=7/2;
 8/6=1,10=90,11=11/1;
 10/13=100,45=16/2;
 6/7=2,8=2,9=2,10=2,28=1/1;
 99/9=1/99;
 ------------
 AT3_2ginp002
 ------------
 Symbolic Z-matrix:
 Charge =  0 Multiplicity = 1
 C                    -2.26597  -0.13678  -0.6358 
 C                    -2.07877  -0.02016   0.87476 
 C                    -2.86478  -1.0843    1.68128 
 C                    -2.43368  -1.14235   3.18292 
 C                    -2.65392   0.17338   3.94936 
 O                    -4.02937   0.52753   4.00486 
 N                    -4.3153   -0.80987   1.5713 
 C                    -5.12239  -2.03217   1.7203 
 C                    -9.33931  -1.1236    1.47311 
 C                    -8.5406   -1.06794   0.33234 
 C                    -7.1816   -1.36574   0.42394 
 C                    -6.5896   -1.72208   1.63761 
 C                    -7.40767  -1.77427   2.76683 
 C                    -8.76903  -1.47923   2.6945 
 H                    -10.39916  -0.89027   1.41196 
 H                    -8.96511  -0.79176  -0.62818 
 H                    -9.37367  -1.52856   3.59538 
 F                    -6.43248  -1.30201  -0.68722 
 F                    -6.89295  -2.12736   3.95319 
 H                    -1.60541   0.57064  -1.14797 
 H                    -2.01563  -1.14362  -0.98466 
 H                    -3.29005   0.09182  -0.94319 
 H                    -1.00653  -0.11798   1.0726 
 H                    -2.36545   0.99124   1.18696 
 H                    -3.0495   -1.90864   3.67157 
 H                    -2.10163   1.00304   3.49775 
 H                    -2.305     0.07474   4.98278 
 H                    -4.42114   0.25193   3.14712 
 H                    -4.87239  -2.7535    0.93165 
 H                    -4.90756  -2.52502   2.67418 
 H                    -2.64453  -2.0585    1.22339 
 C                    -0.97793  -1.59498   3.34204 
 H                    -0.26938  -0.82528   3.02185 
 H                    -0.76223  -1.81813   4.3929 
 H                    -0.78529  -2.50529   2.76507 
 H                    -4.52426  -0.43564   0.64357 
 
                          Input orientation:                          
 ---------------------------------------------------------------------
 Center     Atomic      Atomic             Coordinates (Angstroms)
 Number     Number       Type             X           Y           Z
 ---------------------------------------------------------------------
      1          6           0       -2.265973   -0.136775   -0.635800
      2          6           0       -2.078767   -0.020155    0.874760
      3          6           0       -2.864781   -1.084304    1.681277
      4          6           0       -2.433675   -1.142352    3.182924
      5          6           0       -2.653920    0.173383    3.949364
      6          8           0       -4.029365    0.527527    4.004859
      7          7           0       -4.315304   -0.809872    1.571297
      8          6           0       -5.122391   -2.032171    1.720296
      9          6           0       -9.339313   -1.123599    1.473105
     10          6           0       -8.540605   -1.067940    0.332342
     11          6           0       -7.181600   -1.365741    0.423939
     12          6           0       -6.589601   -1.722081    1.637607
     13          6           0       -7.407670   -1.774267    2.766834
     14          6           0       -8.769032   -1.479230    2.694500
     15          1           0      -10.399158   -0.890265    1.411957
     16          1           0       -8.965114   -0.791764   -0.628175
     17          1           0       -9.373671   -1.528559    3.595375
     18          9           0       -6.432479   -1.302010   -0.687218
     19          9           0       -6.892946   -2.127357    3.953189
     20          1           0       -1.605405    0.570639   -1.147966
     21          1           0       -2.015628   -1.143615   -0.984658
     22          1           0       -3.290047    0.091821   -0.943187
     23          1           0       -1.006535   -0.117975    1.072604
     24          1           0       -2.365445    0.991240    1.186962
     25          1           0       -3.049505   -1.908643    3.671568
     26          1           0       -2.101630    1.003041    3.497746
     27          1           0       -2.305005    0.074742    4.982780
     28          1           0       -4.421135    0.251931    3.147124
     29          1           0       -4.872387   -2.753499    0.931652
     30          1           0       -4.907555   -2.525018    2.674179
     31          1           0       -2.644527   -2.058503    1.223392
     32          6           0       -0.977928   -1.594979    3.342042
     33          1           0       -0.269383   -0.825277    3.021855
     34          1           0       -0.762225   -1.818131    4.392902
     35          1           0       -0.785289   -2.505291    2.765071
     36          1           0       -4.524258   -0.435640    0.643568
 ---------------------------------------------------------------------
                    Distance matrix (angstroms):
                    1          2          3          4          5
     1  C    0.000000
     2  C    1.526577   0.000000
     3  C    2.573952   1.549419   0.000000
     4  C    3.952463   2.590928   1.563383   0.000000
     5  C    4.611988   3.133919   2.602010   1.538537   0.000000
     6  O    5.008649   3.728580   3.058315   2.451591   1.421389
     7  N    3.086113   2.472026   1.480346   2.499682   3.063036
     8  C    4.159668   3.745235   2.448832   3.187515   3.990810
     9  C    7.446707   7.368252   6.477997   7.114188   7.246275
    10  C    6.416804   6.568670   5.833941   6.739878   7.019743
    11  C    5.176562   5.296484   4.505001   5.495880   5.941162
    12  C    5.135692   4.881200   3.779279   4.471668   4.942326
    13  C    6.379369   5.920647   4.721475   5.031210   5.271609
    14  C    7.428517   7.085196   6.003563   6.363080   6.457585
    15  H    8.420793   8.382993   7.541686   8.163871   8.219397
    16  H    6.731089   7.090555   6.529411   7.570144   7.855988
    17  H    8.388044   7.930489   6.799028   6.962960   6.940963
    18  F    4.326683   4.799764   4.287847   5.567219   6.160534
    19  F    6.813965   6.090431   4.740850   4.631268   4.823148
    20  H    1.095034   2.159752   3.511336   4.730431   5.219192
    21  H    1.094578   2.173381   2.798533   4.188497   5.146501
    22  H    1.093376   2.187389   2.907221   4.391053   4.934406
    23  H    2.122541   1.094711   2.181136   2.745820   3.327839
    24  H    2.145874   1.096619   2.191248   2.922454   2.895336
    25  H    4.723014   3.511532   2.162155   1.097826   2.137403
    26  H    4.290966   2.815583   2.870360   2.193645   1.094219
    27  H    5.622695   4.115339   3.543538   2.176547   1.095181
    28  H    4.371079   3.274806   2.521204   2.428025   1.942372
    29  H    4.012174   3.908800   2.716364   3.689354   4.753401
    30  H    4.861854   4.185008   2.689691   2.879352   3.739831
    31  H    2.700544   2.143943   1.098742   2.173375   3.523113
    32  C    4.428165   3.127203   2.564984   1.532772   2.510955
    33  H    4.223606   2.920977   2.932633   2.193317   2.746564
    34  H    5.511448   4.164532   3.508868   2.171283   2.782331
    35  H    4.400934   3.379684   2.741915   2.179307   3.474137
    36  H    2.612653   2.491286   2.061909   3.364269   3.846734
                    6          7          8          9         10
     6  O    0.000000
     7  N    2.791527   0.000000
     8  C    3.600832   1.472279   0.000000
     9  C    6.109954   5.034752   4.320768   0.000000
    10  C    6.031930   4.410757   3.813180   1.393690   0.000000
    11  C    5.132644   3.137049   2.522898   2.411453   1.394263
    12  C    4.149630   2.451316   1.501898   2.818893   2.436808
    13  C    4.271289   3.452839   2.526709   2.414197   2.776543
    14  C    5.311173   4.641693   3.814814   1.394095   2.408553
    15  H    7.021933   6.086471   5.407707   1.086948   2.156700
    16  H    6.896894   5.143806   4.671236   2.159981   1.085852
    17  H    5.740799   5.495496   4.673642   2.160834   3.399052
    18  F    5.580121   3.134569   2.836475   3.626087   2.353399
    19  F    3.905275   3.748788   2.851269   3.625336   4.116756
    20  H    5.694651   4.079676   5.231705   8.339891   7.278273
    21  H    5.634104   3.454389   4.214058   7.725112   6.656992
    22  H    5.021911   2.861264   3.868200   6.626412   5.526335
    23  H    4.260551   3.416924   4.585185   8.402789   7.629720
    24  H    3.305178   2.682101   4.126283   7.293097   6.565303
    25  H    2.646910   2.687133   2.849487   6.709040   6.481465
    26  H    2.049253   3.449378   4.636468   7.810623   7.467874
    27  H    2.033411   4.057346   4.797973   7.952064   7.862252
    28  H    0.982419   1.903118   2.782934   5.374281   5.160920
    29  H    4.573884   2.120654   1.097623   4.785726   4.081189
    30  H    3.443829   2.123402   1.094964   4.800733   4.561396
    31  H    4.042510   2.114619   2.527334   6.764360   6.044743
    32  C    3.775662   3.858757   4.471887   8.580669   8.156601
    33  H    4.115075   4.298120   5.167430   9.206044   8.700890
    34  H    4.040655   4.647839   5.118563   9.087025   8.806482
    35  H    4.610758   4.093965   4.486184   8.760684   8.254034
    36  H    3.531414   1.021955   2.016437   4.934184   4.077709
                   11         12         13         14         15
    11  C    0.000000
    12  C    1.396578   0.000000
    13  C    2.388966   1.395390   0.000000
    14  C    2.772773   2.434321   1.394842   0.000000
    15  H    3.399255   3.905837   3.400905   2.156179   0.000000
    16  H    2.148794   3.412084   3.862257   3.398710   2.495661
    17  H    3.858716   3.409010   2.147560   1.086093   2.495267
    18  F    1.341609   2.367690   3.620014   4.114232   4.506730
    19  F    3.622014   2.370271   1.340542   2.350333   4.503530
    20  H    6.108552   6.152901   7.381770   8.383559   9.274564
    21  H    5.359175   5.303973   6.598904   7.697877   8.723046
    22  H    4.374666   4.564843   5.848193   6.761675   7.553188
    23  H    6.333176   5.836352   6.825558   8.046112   9.430427
    24  H    5.415987   5.040703   5.963896   7.027220   8.254164
    25  H    5.283564   4.087063   4.453112   5.818251   7.756309
    26  H    6.392614   5.570304   6.033385   7.159687   8.762653
    27  H    6.829290   5.725078   5.862290   7.030981   8.899288
    28  H    4.201520   3.298122   3.628979   4.701701   6.328679
    29  H    2.741552   2.123916   3.279398   4.462649   5.852139
    30  H    3.402761   2.132714   2.612047   4.000636   5.867139
    31  H    4.658763   3.981000   5.015031   6.325289   7.844402
    32  C    6.859550   5.866185   6.457909   7.818824   9.642688
    33  H    7.404054   6.531888   7.205606   8.531052  10.257112
    34  H    7.560800   6.446642   6.841634   8.191971  10.130027
    35  H    6.905959   5.964447   6.662607   8.049716   9.842038
    36  H    2.823967   2.628438   3.822858   4.828406   5.942353
                   16         17         18         19         20
    16  H    0.000000
    17  H    4.306758   0.000000
    18  F    2.584198   5.200244   0.000000
    19  F    5.202556   2.576934   4.735674   0.000000
    20  H    7.502776   9.340871   5.198052   7.826816   0.000000
    21  H    6.967513   8.675580   4.429688   7.009872   1.770203
    22  H    5.752073   7.761099   3.447197   6.471486   1.763298
    23  H    8.166126   8.852293   5.825786   6.854577   2.400784
    24  H    7.073150   7.827201   5.031134   6.154342   2.491276
    25  H    7.397948   6.336035   5.550814   3.859946   5.608937
    26  H    8.206824   7.700721   6.448522   5.741387   4.692105
    27  H    8.751611   7.379804   7.147053   5.192158   6.190428
    28  H    5.999161   5.281921   4.600263   3.524287   5.145649
    29  H    4.799154   5.371914   2.676088   3.688414   5.103712
    30  H    5.511216   4.667732   3.888461   2.394948   5.924194
    31  H    6.706918   7.154616   4.309442   5.050307   3.689919
    32  C    8.955608   8.399827   6.787702   5.970290   5.024321
    33  H    9.430778   9.149404   7.208901   6.814278   4.595753
    34  H    9.672230   8.653144   7.630582   6.154243   6.092487
    35  H    9.019968   8.683531   6.727328   6.233613   5.044382
    36  H    4.633072   5.781388   2.482518   4.407514   3.569579
                   21         22         23         24         25
    21  H    0.000000
    22  H    1.775434   0.000000
    23  H    2.510485   3.053171   0.000000
    24  H    3.065275   2.490257   1.757860   0.000000
    25  H    4.830591   5.035442   3.759632   3.879501   0.000000
    26  H    4.970661   4.686634   2.887425   2.325825   3.067016
    27  H    6.097413   6.007303   4.124638   3.905362   2.491460
    28  H    4.980526   4.246839   4.012475   2.935077   2.612373
    29  H    3.798031   3.756949   4.680883   4.513647   3.397620
    30  H    4.864011   4.748633   4.855600   4.586743   2.197055
    31  H    2.471441   3.120041   2.543895   3.062702   2.485967
    32  C    4.472235   5.153094   2.707897   3.641168   2.120944
    33  H    4.382106   5.068238   2.200738   3.325664   3.053668
    34  H    5.562746   6.205775   3.738261   4.554221   2.400034
    35  H    4.174729   5.173971   2.934735   4.148861   2.510856
    36  H    3.073365   2.078289   3.557999   2.644189   3.676060
                   26         27         28         29         30
    26  H    0.000000
    27  H    1.763073   0.000000
    28  H    2.463170   2.806962   0.000000
    29  H    5.326681   5.567947   3.760925   0.000000
    30  H    4.582431   4.343001   2.858623   1.757794   0.000000
    31  H    3.852334   4.335782   3.492161   2.351912   2.728317
    32  C    2.834900   2.690933   3.912128   4.724295   4.093041
    33  H    2.631796   2.966314   4.291050   5.410604   4.952034
    34  H    3.248742   2.512189   4.384603   5.454227   4.542847
    35  H    3.818109   3.726170   4.579041   4.486357   4.123315
    36  H    4.010644   4.900442   2.598303   2.361495   2.938673
                   31         32         33         34         35
    31  H    0.000000
    32  C    2.735157   0.000000
    33  H    3.224380   1.094074   0.000000
    34  H    3.694135   1.095733   1.763072   0.000000
    35  H    2.456249   1.094839   1.776104   1.767075   0.000000
    36  H    2.550151   4.604594   4.889993   5.488322   4.771176
                   36
    36  H    0.000000
 Stoichiometry    C13H19F2NO
 Framework group  C1[X(C13H19F2NO)]
 Deg. of freedom   102
 Full point group                 C1      NOp   1
 Largest Abelian subgroup         C1      NOp   1
 Largest concise Abelian subgroup C1      NOp   1
                         Standard orientation:                         
 ---------------------------------------------------------------------
 Center     Atomic      Atomic             Coordinates (Angstroms)
 Number     Number       Type             X           Y           Z
 ---------------------------------------------------------------------
      1          6           0        2.470638    2.918670    0.302251
      2          6           0        2.868374    1.457914    0.498297
      3          6           0        2.055991    0.470891   -0.377214
      4          6           0        2.668000   -0.967665   -0.390142
      5          6           0        2.733114   -1.633373    0.995387
      6          8           0        1.438679   -1.820515    1.551949
      7          7           0        0.655203    0.431232    0.099909
      8          6           0       -0.285760    0.077595   -0.975792
      9          6           0       -4.333359   -0.099459    0.525750
     10          6           0       -3.690989    1.128813    0.380562
     11          6           0       -2.385676    1.173624   -0.107411
     12          6           0       -1.694452    0.012169   -0.459067
     13          6           0       -2.356864   -1.206695   -0.308422
     14          6           0       -3.662349   -1.271083    0.178559
     15          1           0       -5.349835   -0.144478    0.908119
     16          1           0       -4.195630    2.052735    0.646608
     17          1           0       -4.144740   -2.238433    0.284056
     18          9           0       -1.787001    2.367433   -0.235180
     19          9           0       -1.744641   -2.350074   -0.647419
     20          1           0        3.149365    3.567575    0.865591
     21          1           0        2.532263    3.202877   -0.752988
     22          1           0        1.456371    3.120967    0.656946
     23          1           0        3.933556    1.381445    0.257604
     24          1           0        2.766903    1.206025    1.560761
     25          1           0        2.022019   -1.593271   -1.019861
     26          1           0        3.330277   -1.046257    1.699664
     27          1           0        3.197502   -2.622419    0.920877
     28          1           0        0.903768   -1.043969    1.276282
     29          1           0       -0.242824    0.822301   -1.780991
     30          1           0       -0.017641   -0.884288   -1.425058
     31          1           0        2.078277    0.862247   -1.403654
     32          6           0        4.055849   -0.992005   -1.040274
     33          1           0        4.815396   -0.521592   -0.408770
     34          1           0        4.374612   -2.025401   -1.216662
     35          1           0        4.044207   -0.480447   -2.008182
     36          1           0        0.379974    1.357282    0.433184
 ---------------------------------------------------------------------
 Rotational constants (GHZ):      0.7085757      0.2820774      0.2243106
 Standard basis: 6-311G(d) (5D, 7F)
 There are   380 symmetry adapted cartesian basis functions of A   symmetry.
 There are   363 symmetry adapted basis functions of A   symmetry.
   363 basis functions,   639 primitive gaussians,   380 cartesian basis functions
    65 alpha electrons       65 beta electrons
       nuclear repulsion energy      1281.2157420769 Hartrees.
 NAtoms=   36 NActive=   36 NUniq=   36 SFac= 1.00D+00 NAtFMM=   60 NAOKFM=F Big=F
 Integral buffers will be    131072 words long.
 Raffenetti 2 integral format.
 Two-electron integral symmetry is turned on.
 ------------------------------------------------------------------------------
 Polarizable Continuum Model (PCM)
 =================================
 Model                : PCM (using non-symmetric T matrix).
 Atomic radii         : UFF (Universal Force Field).
 Polarization charges : Total charges.
 Charge compensation  : None.
 Solution method      : On-the-fly selection.
 Cavity type          : Scaled VdW (van der Waals Surface) (Alpha=1.100).
 Cavity algorithm     : GePol (No added spheres)
                        Default sphere list used, NSphG=   36.
                        Lebedev-Laikov grids with approx.  5.0 points / Ang**2.
                        Smoothing algorithm: Karplus/York (Gamma=1.0000).
                        Polarization charges: spherical gaussians, with
                                              point-specific exponents (IZeta= 3).
                        Self-potential: point-specific (ISelfS= 7).
                        Self-field    : sphere-specific E.n sum rule (ISelfD= 2).
 Solvent              : Chloroform, Eps=   4.711300 Eps(inf)=   2.090627
 ------------------------------------------------------------------------------
 One-electron integrals computed using PRISM.
 NBasis=   363 RedAO= T EigKep=  2.45D-04  NBF=   363
 NBsUse=   363 1.00D-06 EigRej= -1.00D+00 NBFU=   363
 ExpMin= 1.03D-01 ExpMax= 1.14D+04 ExpMxC= 1.72D+03 IAcc=1 IRadAn=         1 AccDes= 0.00D+00
 Harris functional with IExCor=  908 and IRadAn=       1 diagonalized for initial guess.
 HarFok:  IExCor=  908 AccDes= 0.00D+00 IRadAn=         1 IDoV= 1 UseB2=F ITyADJ=14
 ICtDFT=  3500011 ScaDFX=  1.000000  1.000000  1.000000  1.000000
 FoFCou: FMM=F IPFlag=           0 FMFlag=      100000 FMFlg1=           0
         NFxFlg=           0 DoJE=T BraDBF=F KetDBF=T FulRan=T
         wScrn=  0.000000 ICntrl=     500 IOpCl=  0 I1Cent=   200000004 NGrid=           0
         NMat0=    1 NMatS0=      1 NMatT0=    0 NMatD0=    1 NMtDS0=    0 NMtDT0=    0
 Petite list used in FoFCou.
 Requested convergence on RMS density matrix=1.00D-08 within 128 cycles.
 Requested convergence on MAX density matrix=1.00D-06.
 Requested convergence on             energy=1.00D-06.
 No special actions if energy rises.
 Inv3:  Mode=1 IEnd=    19522803.
 Iteration    1 A*A^-1 deviation from unit magnitude is 5.11D-15 for    303.
 Iteration    1 A*A^-1 deviation from orthogonality  is 4.68D-15 for   2523    139.
 Iteration    1 A^-1*A deviation from unit magnitude is 6.44D-15 for    302.
 Iteration    1 A^-1*A deviation from orthogonality  is 2.53D-12 for   2154   2124.
 Error on total polarization charges =  0.00967
 SCF Done:  E(RmPW1PW91) =  -836.465980219     A.U. after   12 cycles
            NFock= 12  Conv=0.67D-08     -V/T= 2.0038
 DoSCS=F DFT=T ScalE2(SS,OS)=  1.000000  1.000000
 Range of M.O.s used for correlation:     1   363
 NBasis=   363 NAE=    65 NBE=    65 NFC=     0 NFV=     0
 NROrb=    363 NOA=    65 NOB=    65 NVA=   298 NVB=   298

 **** Warning!!: The largest alpha MO coefficient is  0.12710264D+02

 NEqPCM:  Using equilibrium solvation (IEInf=0, Eps=   4.7113, EpsInf=   2.0906)
          Differentiating once with respect to magnetic field using GIAOs.
          Electric field/nuclear overlap derivatives assumed to be zero.
 FoFJK:  IHMeth= 1 ICntrl=    6127 DoSepK=F KAlg= 0 I1Cent=   0 FoldK=F
 IRaf=         1 NMat=   1 IRICut=       1 DoRegI=T DoRafI=F ISym2E= 0.
          There are     3 degrees of freedom in the 1st order CPHF.  IDoFFX=0 NUNeed=     3.
      3 vectors produced by pass  0 Test12= 6.46D-13 3.33D-08 XBig12= 5.19D+01 2.43D+00.
 AX will form     3 AO Fock derivatives at one time.
      3 vectors produced by pass  1 Test12= 6.46D-13 3.33D-08 XBig12= 1.70D-01 2.41D-01.
      3 vectors produced by pass  2 Test12= 6.46D-13 3.33D-08 XBig12= 8.20D-04 9.79D-03.
      3 vectors produced by pass  3 Test12= 6.46D-13 3.33D-08 XBig12= 1.77D-06 2.71D-04.
      3 vectors produced by pass  4 Test12= 6.46D-13 3.33D-08 XBig12= 3.23D-09 1.51D-05.
      3 vectors produced by pass  5 Test12= 6.46D-13 3.33D-08 XBig12= 1.39D-11 5.98D-07.
 InvSVY:  IOpt=1 It=  1 EMax= 4.44D-16
 Solved reduced A of dimension    18 with     3 vectors.
 Calculating GIAO nuclear magnetic shielding tensors.
 SCF GIAO Magnetic shielding tensor (ppm):
      1  C    Isotropic =   175.2488   Anisotropy =    22.6739
   XX=   162.7942   YX=    -6.3130   ZX=     3.7779
   XY=    -1.6691   YY=   188.3982   ZY=    -2.7925
   XZ=     5.0567   YZ=    -5.0882   ZZ=   174.5539
   Eigenvalues:   161.0687   174.3129   190.3647
      2  C    Isotropic =   165.0263   Anisotropy =    16.2419
   XX=   167.8897   YX=     0.3424   ZX=     5.3664
   XY=     8.0524   YY=   164.8758   ZY=     5.5196
   XZ=     9.0137   YZ=     2.6248   ZZ=   162.3133
   Eigenvalues:   157.2132   162.0114   175.8542
      3  C    Isotropic =   118.3054   Anisotropy =    19.9052
   XX=   128.2497   YX=     7.2425   ZX=    -4.8606
   XY=    -9.8486   YY=   116.0208   ZY=    -3.8863
   XZ=   -11.6389   YZ=    -7.8769   ZZ=   110.6457
   Eigenvalues:   104.3446   118.9960   131.5755
      4  C    Isotropic =   151.0444   Anisotropy =    22.0122
   XX=   152.7558   YX=     0.4693   ZX=    -7.3447
   XY=    15.7591   YY=   151.9435   ZY=   -12.9693
   XZ=    -0.6219   YZ=    -5.6815   ZZ=   148.4340
   Eigenvalues:   140.1808   147.2333   165.7192
      5  C    Isotropic =   119.3392   Anisotropy =    67.3988
   XX=   146.4213   YX=     4.0296   ZX=   -24.1889
   XY=     8.2371   YY=    95.2564   ZY=   -12.9314
   XZ=   -30.0756   YZ=   -10.7424   ZZ=   116.3400
   Eigenvalues:    89.0694   104.6765   164.2718
      6  O    Isotropic =   302.3921   Anisotropy =    75.0939
   XX=   283.4504   YX=    -4.8480   ZX=     2.1850
   XY=   -12.5076   YY=   310.7652   ZY=   -32.3834
   XZ=    13.7713   YZ=   -44.7537   ZZ=   312.9608
   Eigenvalues:   273.2268   281.4949   352.4547
      7  N    Isotropic =   199.4770   Anisotropy =    45.3885
   XX=   223.4748   YX=    -3.1556   ZX=   -14.8757
   XY=    10.6244   YY=   172.7515   ZY=    19.2011
   XZ=    -9.5387   YZ=    23.9481   ZZ=   202.2046
   Eigenvalues:   160.0470   208.6480   229.7359
      8  C    Isotropic =   146.9640   Anisotropy =    50.8295
   XX=   158.9758   YX=    11.2401   ZX=    16.2509
   XY=    13.9602   YY=   120.0980   ZY=    -1.9274
   XZ=    21.7780   YZ=     3.1686   ZZ=   161.8181
   Eigenvalues:   115.7786   144.2630   180.8503
      9  C    Isotropic =    54.1371   Anisotropy =   186.5109
   XX=   -24.4109   YX=    -7.4631   ZX=    76.6081
   XY=    -7.2406   YY=    37.6870   ZY=    -8.1614
   XZ=    75.5562   YZ=    -7.6920   ZZ=   149.1350
   Eigenvalues:   -53.2265    37.1600   178.4777
     10  C    Isotropic =    70.9023   Anisotropy =   148.1213
   XX=    58.1713   YX=    17.7833   ZX=    43.9848
   XY=    26.2921   YY=     3.9238   ZY=   -23.1087
   XZ=    45.5435   YZ=   -20.7847   ZZ=   150.6117
   Eigenvalues:   -12.5117    55.5688   169.6498
     11  C    Isotropic =    18.8281   Anisotropy =    98.1117
   XX=    25.6992   YX=   -43.8238   ZX=    19.9586
   XY=   -37.1091   YY=   -45.8776   ZY=     4.1108
   XZ=    19.1639   YZ=     2.3585   ZZ=    76.6628
   Eigenvalues:   -64.9781    37.2266    84.2359
     12  C    Isotropic =    67.6597   Anisotropy =   138.8463
   XX=    39.4133   YX=    -2.1389   ZX=    48.2263
   XY=    -3.4095   YY=    23.0368   ZY=    -8.3499
   XZ=    47.5383   YZ=    -9.2833   ZZ=   140.5291
   Eigenvalues:    20.1328    22.6224   160.2239
     13  C    Isotropic =    20.5436   Anisotropy =    99.2141
   XX=    23.9587   YX=    39.9414   ZX=    28.8151
   XY=    31.8215   YY=   -37.3197   ZY=   -23.5751
   XZ=    24.0845   YZ=   -21.6592   ZZ=    74.9917
   Eigenvalues:   -61.3097    36.2541    86.6863
     14  C    Isotropic =    70.2693   Anisotropy =   149.6020
   XX=    57.4084   YX=   -23.9028   ZX=    41.4130
   XY=   -32.3986   YY=    -0.7845   ZY=    -1.2767
   XZ=    40.0211   YZ=    -5.1529   ZZ=   154.1841
   Eigenvalues:   -13.1881    53.9921   170.0040
     15  H    Isotropic =    24.5186   Anisotropy =     3.1848
   XX=    25.4279   YX=     0.1592   ZX=    -1.4946
   XY=     0.1184   YY=    26.6012   ZY=     0.4411
   XZ=    -1.5809   YZ=     0.4697   ZZ=    21.5266
   Eigenvalues:    20.9533    25.9607    26.6417
     16  H    Isotropic =    25.1874   Anisotropy =     5.1261
   XX=    27.9084   YX=     0.1575   ZX=    -2.1649
   XY=     0.5209   YY=    25.6825   ZY=     0.1389
   XZ=    -2.0440   YZ=     0.1738   ZZ=    21.9713
   Eigenvalues:    21.2866    25.6708    28.6048
     17  H    Isotropic =    25.1618   Anisotropy =     5.0144
   XX=    27.8054   YX=     0.3015   ZX=    -2.1256
   XY=    -0.1095   YY=    25.6897   ZY=     0.4985
   XZ=    -2.1412   YZ=     0.3529   ZZ=    21.9904
   Eigenvalues:    21.2491    25.7316    28.5048
     18  F    Isotropic =   305.7836   Anisotropy =   129.5902
   XX=   257.6422   YX=     8.0849   ZX=    48.1278
   XY=    21.4038   YY=   287.6750   ZY=   -18.6586
   XZ=    43.1320   YZ=   -35.1697   ZZ=   372.0336
   Eigenvalues:   231.8741   293.2996   392.1770
     19  F    Isotropic =   298.8211   Anisotropy =   127.0962
   XX=   257.2834   YX=   -32.2820   ZX=    45.0936
   XY=   -30.7608   YY=   273.0167   ZY=     4.3042
   XZ=    46.3647   YZ=     0.0932   ZZ=   366.1633
   Eigenvalues:   222.2766   290.6349   383.5520
     20  H    Isotropic =    30.7922   Anisotropy =    11.3107
   XX=    29.4528   YX=     2.9851   ZX=     2.5126
   XY=     3.7740   YY=    34.9565   ZY=     3.5296
   XZ=     3.1857   YZ=     3.1905   ZZ=    27.9672
   Eigenvalues:    25.7018    28.3420    38.3326
     21  H    Isotropic =    31.3280   Anisotropy =     8.7987
   XX=    27.6342   YX=     0.7933   ZX=    -0.3281
   XY=     0.7024   YY=    33.1237   ZY=    -4.3443
   XZ=    -0.7397   YZ=    -3.5212   ZZ=    33.2261
   Eigenvalues:    27.5341    29.2561    37.1938
     22  H    Isotropic =    31.0775   Anisotropy =     7.6318
   XX=    34.0907   YX=    -1.2909   ZX=    -2.2705
   XY=    -2.3704   YY=    32.9169   ZY=     1.8465
   XZ=    -1.3437   YZ=     2.3567   ZZ=    26.2247
   Eigenvalues:    25.4311    31.6360    36.1653
     23  H    Isotropic =    30.4984   Anisotropy =     7.6397
   XX=    35.4889   YX=    -0.2261   ZX=    -0.7896
   XY=    -0.5817   YY=    32.1055   ZY=     2.3416
   XZ=    -0.2602   YZ=     1.7870   ZZ=    23.9007
   Eigenvalues:    23.3962    32.5075    35.5915
     24  H    Isotropic =    30.5784   Anisotropy =     6.0506
   XX=    26.4731   YX=     0.0664   ZX=     2.1662
   XY=    -0.0407   YY=    31.4613   ZY=    -0.6010
   XZ=     2.4555   YZ=    -0.8049   ZZ=    33.8009
   Eigenvalues:    25.7976    31.3255    34.6122
     25  H    Isotropic =    29.6697   Anisotropy =     5.0626
   XX=    31.7769   YX=    -0.0066   ZX=     0.2320
   XY=     0.7295   YY=    30.5133   ZY=     3.4260
   XZ=     1.8902   YZ=     3.2369   ZZ=    26.7190
   Eigenvalues:    24.7049    31.2595    33.0448
     26  H    Isotropic =    28.2061   Anisotropy =     4.3975
   XX=    30.4169   YX=     1.4806   ZX=     2.2673
   XY=     0.2504   YY=    26.0994   ZY=    -0.6936
   XZ=     0.6303   YZ=    -1.3759   ZZ=    28.1022
   Eigenvalues:    25.2771    28.2036    31.1378
     27  H    Isotropic =    28.5883   Anisotropy =     6.9941
   XX=    30.0206   YX=    -4.1671   ZX=    -1.9906
   XY=    -2.0075   YY=    30.1523   ZY=    -3.1580
   XZ=    -1.4148   YZ=    -2.0986   ZZ=    25.5919
   Eigenvalues:    23.1311    29.3827    33.2510
     28  H    Isotropic =    27.6865   Anisotropy =    24.1030
   XX=    29.2846   YX=    -9.5667   ZX=     0.8185
   XY=    -8.5554   YY=    32.3922   ZY=    -9.7798
   XZ=     2.2522   YZ=   -10.7791   ZZ=    21.3828
   Eigenvalues:    14.2957    25.0087    43.7552
     29  H    Isotropic =    28.6209   Anisotropy =     6.0036
   XX=    28.1599   YX=    -0.2582   ZX=     2.4594
   XY=    -0.7050   YY=    27.1015   ZY=    -2.0833
   XZ=    -0.7411   YZ=    -4.1046   ZZ=    30.6014
   Eigenvalues:    25.2967    27.9428    32.6233
     30  H    Isotropic =    28.0718   Anisotropy =     6.1346
   XX=    30.1334   YX=     1.7435   ZX=     0.9655
   XY=     1.2186   YY=    29.0956   ZY=     2.7071
   XZ=    -0.6067   YZ=     4.5694   ZZ=    24.9864
   Eigenvalues:    22.8134    29.2405    32.1615
     31  H    Isotropic =    29.4558   Anisotropy =     3.2748
   XX=    29.7483   YX=    -0.3139   ZX=    -2.6064
   XY=    -0.3457   YY=    28.7334   ZY=    -1.5196
   XZ=    -0.4980   YZ=    -1.3581   ZZ=    29.8857
   Eigenvalues:    27.1769    29.5514    31.6390
     32  C    Isotropic =   172.7502   Anisotropy =    27.8147
   XX=   181.4792   YX=    -2.8680   ZX=   -16.7989
   XY=    -3.9560   YY=   166.6730   ZY=    -4.7930
   XZ=   -11.9882   YZ=    -2.3901   ZZ=   170.0985
   Eigenvalues:   157.6555   169.3018   191.2934
     33  H    Isotropic =    31.4804   Anisotropy =     7.7867
   XX=    36.3405   YX=     1.3755   ZX=     1.1031
   XY=     0.6593   YY=    29.5236   ZY=     2.1869
   XZ=     0.7033   YZ=     1.7778   ZZ=    28.5771
   Eigenvalues:    27.0116    30.7580    36.6715
     34  H    Isotropic =    31.1885   Anisotropy =    10.7507
   XX=    31.3756   YX=    -4.6500   ZX=    -3.0667
   XY=    -3.4049   YY=    34.1912   ZY=     2.4179
   XZ=    -2.5163   YZ=     2.6092   ZZ=    27.9988
   Eigenvalues:    26.4145    28.7954    38.3557
     35  H    Isotropic =    31.4539   Anisotropy =     9.3450
   XX=    30.3505   YX=    -0.1418   ZX=    -4.6133
   XY=    -0.6916   YY=    28.7263   ZY=    -2.2206
   XZ=    -3.0736   YZ=    -1.9239   ZZ=    35.2848
   Eigenvalues:    26.9984    29.6794    37.6838
     36  H    Isotropic =    30.5042   Anisotropy =    10.3450
   XX=    35.4640   YX=    -2.0395   ZX=     0.6484
   XY=    -1.9256   YY=    33.4286   ZY=     5.3318
   XZ=     2.3443   YZ=     8.0218   ZZ=    22.6202
   Eigenvalues:    19.1356    34.9762    37.4009
 End of Minotr F.D. properties file   721 does not exist.
 End of Minotr F.D. properties file   722 does not exist.
 End of Minotr F.D. properties file   788 does not exist.

 **********************************************************************

            Population analysis using the SCF density.

 **********************************************************************

 Orbital symmetries:
       Occupied  (A) (A) (A) (A) (A) (A) (A) (A) (A) (A) (A) (A)
                 (A) (A) (A) (A) (A) (A) (A) (A) (A) (A) (A) (A)
                 (A) (A) (A) (A) (A) (A) (A) (A) (A) (A) (A) (A)
                 (A) (A) (A) (A) (A) (A) (A) (A) (A) (A) (A) (A)
                 (A) (A) (A) (A) (A) (A) (A) (A) (A) (A) (A) (A)
                 (A) (A) (A) (A) (A)
       Virtual   (A) (A) (A) (A) (A) (A) (A) (A) (A) (A) (A) (A)
                 (A) (A) (A) (A) (A) (A) (A) (A) (A) (A) (A) (A)
                 (A) (A) (A) (A) (A) (A) (A) (A) (A) (A) (A) (A)
                 (A) (A) (A) (A) (A) (A) (A) (A) (A) (A) (A) (A)
                 (A) (A) (A) (A) (A) (A) (A) (A) (A) (A) (A) (A)
                 (A) (A) (A) (A) (A) (A) (A) (A) (A) (A) (A) (A)
                 (A) (A) (A) (A) (A) (A) (A) (A) (A) (A) (A) (A)
                 (A) (A) (A) (A) (A) (A) (A) (A) (A) (A) (A) (A)
                 (A) (A) (A) (A) (A) (A) (A) (A) (A) (A) (A) (A)
                 (A) (A) (A) (A) (A) (A) (A) (A) (A) (A) (A) (A)
                 (A) (A) (A) (A) (A) (A) (A) (A) (A) (A) (A) (A)
                 (A) (A) (A) (A) (A) (A) (A) (A) (A) (A) (A) (A)
                 (A) (A) (A) (A) (A) (A) (A) (A) (A) (A) (A) (A)
                 (A) (A) (A) (A) (A) (A) (A) (A) (A) (A) (A) (A)
                 (A) (A) (A) (A) (A) (A) (A) (A) (A) (A) (A) (A)
                 (A) (A) (A) (A) (A) (A) (A) (A) (A) (A) (A) (A)
                 (A) (A) (A) (A) (A) (A) (A) (A) (A) (A) (A) (A)
                 (A) (A) (A) (A) (A) (A) (A) (A) (A) (A) (A) (A)
                 (A) (A) (A) (A) (A) (A) (A) (A) (A) (A) (A) (A)
                 (A) (A) (A) (A) (A) (A) (A) (A) (A) (A) (A) (A)
                 (A) (A) (A) (A) (A) (A) (A) (A) (A) (A) (A) (A)
                 (A) (A) (A) (A) (A) (A) (A) (A) (A) (A) (A) (A)
                 (A) (A) (A) (A) (A) (A) (A) (A) (A) (A) (A) (A)
                 (A) (A) (A) (A) (A) (A) (A) (A) (A) (A) (A) (A)
                 (A) (A) (A) (A) (A) (A) (A) (A) (A) (A)
 The electronic state is 1-A.
 Alpha  occ. eigenvalues --  -24.80972 -24.80319 -19.17497 -14.39789 -10.34028
 Alpha  occ. eigenvalues --  -10.33923 -10.27420 -10.27022 -10.26696 -10.26201
 Alpha  occ. eigenvalues --  -10.26116 -10.25371 -10.25278 -10.23759 -10.23307
 Alpha  occ. eigenvalues --  -10.22381 -10.22113  -1.28202  -1.27596  -1.02270
 Alpha  occ. eigenvalues --   -0.95323  -0.90688  -0.83459  -0.80480  -0.78781
 Alpha  occ. eigenvalues --   -0.78711  -0.72045  -0.68665  -0.68031  -0.66208
 Alpha  occ. eigenvalues --   -0.64230  -0.63012  -0.59252  -0.57854  -0.56265
 Alpha  occ. eigenvalues --   -0.52524  -0.52121  -0.51694  -0.51162  -0.49972
 Alpha  occ. eigenvalues --   -0.49632  -0.49331  -0.47228  -0.47005  -0.45682
 Alpha  occ. eigenvalues --   -0.44376  -0.43122  -0.42888  -0.42496  -0.41650
 Alpha  occ. eigenvalues --   -0.40600  -0.40179  -0.39344  -0.39054  -0.38081
 Alpha  occ. eigenvalues --   -0.37753  -0.37012  -0.35459  -0.34503  -0.32923
 Alpha  occ. eigenvalues --   -0.32550  -0.27760  -0.26907  -0.26283  -0.25624
 Alpha virt. eigenvalues --   -0.02259  -0.01074   0.04898   0.05870   0.06174
 Alpha virt. eigenvalues --    0.07120   0.08299   0.10154   0.10294   0.10491
 Alpha virt. eigenvalues --    0.11126   0.11649   0.12528   0.12719   0.13360
 Alpha virt. eigenvalues --    0.13915   0.14174   0.14989   0.15555   0.16900
 Alpha virt. eigenvalues --    0.17273   0.18355   0.18943   0.19325   0.20009
 Alpha virt. eigenvalues --    0.21646   0.22721   0.23340   0.23793   0.24345
 Alpha virt. eigenvalues --    0.25509   0.26166   0.26390   0.27535   0.29289
 Alpha virt. eigenvalues --    0.31561   0.32599   0.32840   0.34473   0.34927
 Alpha virt. eigenvalues --    0.35811   0.36535   0.37728   0.38554   0.39047
 Alpha virt. eigenvalues --    0.39517   0.40618   0.41405   0.42011   0.42227
 Alpha virt. eigenvalues --    0.43081   0.43486   0.44438   0.45671   0.46795
 Alpha virt. eigenvalues --    0.47371   0.49249   0.50237   0.50594   0.51503
 Alpha virt. eigenvalues --    0.51692   0.53929   0.54198   0.54822   0.55477
 Alpha virt. eigenvalues --    0.57061   0.57782   0.57954   0.58456   0.58680
 Alpha virt. eigenvalues --    0.59542   0.60152   0.60385   0.61093   0.61944
 Alpha virt. eigenvalues --    0.62221   0.62735   0.63368   0.64069   0.65008
 Alpha virt. eigenvalues --    0.65566   0.65654   0.65979   0.66258   0.67119
 Alpha virt. eigenvalues --    0.67431   0.67947   0.69445   0.69831   0.70902
 Alpha virt. eigenvalues --    0.71765   0.72563   0.73976   0.74791   0.77229
 Alpha virt. eigenvalues --    0.78123   0.78660   0.81099   0.82637   0.85722
 Alpha virt. eigenvalues --    0.88059   0.89230   0.92364   0.93478   0.94454
 Alpha virt. eigenvalues --    0.96184   0.97377   0.98094   0.99007   0.99959
 Alpha virt. eigenvalues --    1.03144   1.03442   1.05094   1.07045   1.07560
 Alpha virt. eigenvalues --    1.08952   1.09335   1.10308   1.12175   1.14536
 Alpha virt. eigenvalues --    1.16686   1.18270   1.19978   1.23433   1.24438
 Alpha virt. eigenvalues --    1.24986   1.26875   1.27942   1.29339   1.29461
 Alpha virt. eigenvalues --    1.33671   1.34440   1.37854   1.41322   1.42940
 Alpha virt. eigenvalues --    1.44298   1.45242   1.47922   1.49329   1.50042
 Alpha virt. eigenvalues --    1.50213   1.51596   1.52658   1.54403   1.54779
 Alpha virt. eigenvalues --    1.55218   1.56323   1.57848   1.60693   1.62520
 Alpha virt. eigenvalues --    1.63085   1.63599   1.64482   1.64888   1.66694
 Alpha virt. eigenvalues --    1.67449   1.68240   1.69691   1.70627   1.73566
 Alpha virt. eigenvalues --    1.73853   1.76162   1.78152   1.79079   1.80470
 Alpha virt. eigenvalues --    1.81591   1.83960   1.85467   1.88896   1.89477
 Alpha virt. eigenvalues --    1.89855   1.91078   1.92121   1.93791   1.94764
 Alpha virt. eigenvalues --    1.95652   1.97579   1.99874   2.01388   2.02594
 Alpha virt. eigenvalues --    2.05546   2.09526   2.16756   2.18557   2.19205
 Alpha virt. eigenvalues --    2.21029   2.24677   2.25774   2.27308   2.29712
 Alpha virt. eigenvalues --    2.31181   2.32798   2.35106   2.40274   2.41449
 Alpha virt. eigenvalues --    2.41952   2.43146   2.43521   2.44770   2.46309
 Alpha virt. eigenvalues --    2.48031   2.50085   2.51650   2.52860   2.53859
 Alpha virt. eigenvalues --    2.54283   2.56072   2.57310   2.59001   2.65201
 Alpha virt. eigenvalues --    2.66464   2.67626   2.70444   2.72276   2.74519
 Alpha virt. eigenvalues --    2.77530   2.83960   2.85007   2.86807   2.87161
 Alpha virt. eigenvalues --    2.91283   2.94105   2.98653   3.00652   3.04541
 Alpha virt. eigenvalues --    3.06307   3.08106   3.09767   3.09849   3.11659
 Alpha virt. eigenvalues --    3.13644   3.16035   3.16509   3.20282   3.21407
 Alpha virt. eigenvalues --    3.24138   3.24618   3.26749   3.27459   3.28738
 Alpha virt. eigenvalues --    3.29863   3.29916   3.32024   3.38501   3.39618
 Alpha virt. eigenvalues --    3.47228   3.48182   3.50510   3.60606   3.64225
 Alpha virt. eigenvalues --    3.72616   3.78907   3.79510   3.79854   3.80506
 Alpha virt. eigenvalues --    3.86183   3.89086   3.95698   3.96309   3.99434
 Alpha virt. eigenvalues --    4.00337   4.07710   4.10219   4.11569   4.12828
 Alpha virt. eigenvalues --    4.18201   4.25545   4.47515   4.74995   4.76488
 Alpha virt. eigenvalues --    4.77577   4.80672   4.94681   5.07697   5.46814
 Alpha virt. eigenvalues --    6.12779   6.14663   6.30626   6.32010   6.56321
 Alpha virt. eigenvalues --    6.59287  23.29997  23.46672  23.58569  23.69230
 Alpha virt. eigenvalues --   23.72491  23.77780  23.80325  23.83928  23.86724
 Alpha virt. eigenvalues --   23.89673  24.08643  24.10731  24.19263  35.57999
 Alpha virt. eigenvalues --   50.00916  66.89028  66.89421
          Condensed to atoms (all electrons):
               1          2          3          4          5          6
     1  C    5.347148   0.307718  -0.072494   0.008307  -0.000180   0.000020
     2  C    0.307718   5.364782   0.291057  -0.060145  -0.008563  -0.002798
     3  C   -0.072494   0.291057   5.389114   0.296316  -0.059440   0.004087
     4  C    0.008307  -0.060145   0.296316   5.411158   0.325270  -0.038916
     5  C   -0.000180  -0.008563  -0.059440   0.325270   5.058550   0.247291
     6  O    0.000020  -0.002798   0.004087  -0.038916   0.247291   8.248318
     7  N   -0.000274  -0.047055   0.211772  -0.061660   0.004742  -0.036176
     8  C    0.000578   0.006509  -0.082055  -0.002837  -0.000012   0.004693
     9  C    0.000000   0.000000  -0.000001   0.000000   0.000000  -0.000001
    10  C   -0.000001   0.000000   0.000017   0.000001   0.000000   0.000001
    11  C    0.000003  -0.000075   0.000191  -0.000012   0.000008   0.000008
    12  C   -0.000027  -0.000265   0.012098  -0.001143   0.000283  -0.001098
    13  C   -0.000003   0.000018  -0.000854   0.000186  -0.000079   0.000596
    14  C    0.000000   0.000000   0.000008   0.000002  -0.000001   0.000024
    15  H    0.000000   0.000000   0.000000   0.000000   0.000000   0.000000
    16  H    0.000000   0.000000  -0.000001   0.000000   0.000000   0.000000
    17  H    0.000000   0.000000  -0.000001   0.000000   0.000000   0.000001
    18  F   -0.000114  -0.000032  -0.000060  -0.000002   0.000000   0.000000
    19  F    0.000000   0.000000   0.000046  -0.000093  -0.000013  -0.000057
    20  H    0.393766  -0.037305   0.007670  -0.000200   0.000008   0.000002
    21  H    0.386139  -0.043187  -0.004767  -0.000263   0.000009  -0.000002
    22  H    0.384329  -0.038298  -0.005973   0.000004  -0.000041  -0.000014
    23  H   -0.041161   0.400705  -0.045197  -0.004138  -0.000565  -0.000094
    24  H   -0.046168   0.388063  -0.034620  -0.010917   0.003374   0.002101
    25  H   -0.000203   0.008461  -0.070109   0.410560  -0.051106   0.008255
    26  H    0.000318   0.009489  -0.023279  -0.033558   0.374453  -0.042953
    27  H    0.000011  -0.000693   0.010232  -0.036945   0.393653  -0.031089
    28  H   -0.000187  -0.000175  -0.000292  -0.008930  -0.057910   0.258022
    29  H   -0.000464   0.001048  -0.006349  -0.001060  -0.000069  -0.000124
    30  H    0.000056  -0.000159  -0.002501   0.003844   0.000052   0.001278
    31  H   -0.011726  -0.039553   0.414348  -0.065532   0.007111  -0.000643
    32  C   -0.000011  -0.007133  -0.076636   0.289697  -0.076872   0.005733
    33  H    0.000133   0.002634  -0.010108  -0.036832  -0.006068   0.000014
    34  H    0.000016  -0.000010   0.008576  -0.035545  -0.003726  -0.000060
    35  H   -0.000229  -0.000155  -0.002577  -0.035618   0.006847  -0.000238
    36  H    0.006763  -0.014090  -0.048662   0.006293   0.000032   0.000756
               7          8          9         10         11         12
     1  C   -0.000274   0.000578   0.000000  -0.000001   0.000003  -0.000027
     2  C   -0.047055   0.006509   0.000000   0.000000  -0.000075  -0.000265
     3  C    0.211772  -0.082055  -0.000001   0.000017   0.000191   0.012098
     4  C   -0.061660  -0.002837   0.000000   0.000001  -0.000012  -0.001143
     5  C    0.004742  -0.000012   0.000000   0.000000   0.000008   0.000283
     6  O   -0.036176   0.004693  -0.000001   0.000001   0.000008  -0.001098
     7  N    7.078074   0.231691   0.000073  -0.000272  -0.003675  -0.059981
     8  C    0.231691   5.375914  -0.001765   0.010157  -0.086113   0.270064
     9  C    0.000073  -0.001765   5.060719   0.433424  -0.004385  -0.060294
    10  C   -0.000272   0.010157   0.433424   5.190772   0.477367  -0.030738
    11  C   -0.003675  -0.086113  -0.004385   0.477367   4.782012   0.238687
    12  C   -0.059981   0.270064  -0.060294  -0.030738   0.238687   5.741194
    13  C    0.008258  -0.071499   0.000912  -0.069441   0.051778   0.290989
    14  C   -0.000208   0.012141   0.429161  -0.032774  -0.066262  -0.025098
    15  H    0.000000   0.000028   0.405025  -0.041613   0.006479  -0.002059
    16  H    0.000014  -0.000332  -0.040437   0.392466  -0.050086   0.012119
    17  H    0.000008  -0.000285  -0.041234   0.007163  -0.001387   0.012069
    18  F   -0.002980   0.005088   0.005546  -0.055665   0.315484  -0.084376
    19  F   -0.000258  -0.006194   0.005684  -0.000548   0.005441  -0.073460
    20  H    0.000128   0.000031   0.000000   0.000000   0.000002  -0.000003
    21  H   -0.000244   0.000004   0.000000   0.000000   0.000021  -0.000023
    22  H    0.000909  -0.000055  -0.000002   0.000011  -0.000152   0.000167
    23  H    0.004663  -0.000462   0.000000   0.000000  -0.000001   0.000024
    24  H    0.000045  -0.000351   0.000000  -0.000001   0.000007   0.000075
    25  H   -0.000136   0.003855  -0.000001   0.000002  -0.000126  -0.001045
    26  H    0.000559   0.000101   0.000000   0.000000  -0.000005  -0.000044
    27  H   -0.000645  -0.000086   0.000000   0.000000   0.000001   0.000022
    28  H    0.062672  -0.009184  -0.000001  -0.000030  -0.000450  -0.001842
    29  H   -0.044464   0.385364  -0.000069  -0.000033  -0.016562  -0.038445
    30  H   -0.033985   0.389368  -0.000330   0.000114   0.007708  -0.038762
    31  H   -0.044052  -0.010288   0.000001  -0.000010  -0.000191   0.001236
    32  C    0.005226   0.000072   0.000000   0.000000   0.000000  -0.000011
    33  H   -0.000039  -0.000025   0.000000   0.000000   0.000000  -0.000001
    34  H   -0.000222  -0.000012   0.000000   0.000000   0.000000   0.000000
    35  H    0.000023   0.000015   0.000000   0.000000   0.000000   0.000004
    36  H    0.335494  -0.046389  -0.000043   0.000159   0.005022  -0.015963
              13         14         15         16         17         18
     1  C   -0.000003   0.000000   0.000000   0.000000   0.000000  -0.000114
     2  C    0.000018   0.000000   0.000000   0.000000   0.000000  -0.000032
     3  C   -0.000854   0.000008   0.000000  -0.000001  -0.000001  -0.000060
     4  C    0.000186   0.000002   0.000000   0.000000   0.000000  -0.000002
     5  C   -0.000079  -0.000001   0.000000   0.000000   0.000000   0.000000
     6  O    0.000596   0.000024   0.000000   0.000000   0.000001   0.000000
     7  N    0.008258  -0.000208   0.000000   0.000014   0.000008  -0.002980
     8  C   -0.071499   0.012141   0.000028  -0.000332  -0.000285   0.005088
     9  C    0.000912   0.429161   0.405025  -0.040437  -0.041234   0.005546
    10  C   -0.069441  -0.032774  -0.041613   0.392466   0.007163  -0.055665
    11  C    0.051778  -0.066262   0.006479  -0.050086  -0.001387   0.315484
    12  C    0.290989  -0.025098  -0.002059   0.012119   0.012069  -0.084376
    13  C    4.730583   0.461552   0.006251  -0.001278  -0.048339   0.004792
    14  C    0.461552   5.201496  -0.040691   0.007009   0.392001  -0.000594
    15  H    0.006251  -0.040691   0.445270  -0.006661  -0.006569  -0.000070
    16  H   -0.001278   0.007009  -0.006661   0.449867  -0.000174   0.001486
    17  H   -0.048339   0.392001  -0.006569  -0.000174   0.448992   0.000004
    18  F    0.004792  -0.000594  -0.000070   0.001486   0.000004   9.033025
    19  F    0.313562  -0.055146  -0.000071   0.000004   0.001353  -0.000001
    20  H    0.000000   0.000000   0.000000   0.000000   0.000000  -0.000003
    21  H   -0.000001   0.000000   0.000000   0.000000   0.000000  -0.000001
    22  H   -0.000009   0.000001   0.000000   0.000003   0.000000   0.001242
    23  H    0.000000   0.000000   0.000000   0.000000   0.000000  -0.000001
    24  H   -0.000003   0.000000   0.000000   0.000000   0.000000  -0.000011
    25  H    0.000532   0.000010   0.000000   0.000000   0.000001  -0.000001
    26  H    0.000015   0.000000   0.000000   0.000000   0.000000   0.000000
    27  H   -0.000014   0.000000   0.000000   0.000000   0.000000   0.000000
    28  H    0.001491  -0.000135   0.000000   0.000001   0.000000  -0.000021
    29  H    0.007248  -0.000184   0.000002  -0.000018   0.000016   0.004920
    30  H   -0.015727   0.001771   0.000005   0.000007  -0.000064   0.000184
    31  H    0.000049  -0.000003   0.000000   0.000000   0.000000  -0.000080
    32  C    0.000002   0.000000   0.000000   0.000000   0.000000   0.000000
    33  H    0.000000   0.000000   0.000000   0.000000   0.000000   0.000000
    34  H   -0.000001   0.000000   0.000000   0.000000   0.000000   0.000000
    35  H   -0.000001   0.000000   0.000000   0.000000   0.000000   0.000000
    36  H   -0.000498   0.000002   0.000002   0.000001  -0.000001   0.009677
              19         20         21         22         23         24
     1  C    0.000000   0.393766   0.386139   0.384329  -0.041161  -0.046168
     2  C    0.000000  -0.037305  -0.043187  -0.038298   0.400705   0.388063
     3  C    0.000046   0.007670  -0.004767  -0.005973  -0.045197  -0.034620
     4  C   -0.000093  -0.000200  -0.000263   0.000004  -0.004138  -0.010917
     5  C   -0.000013   0.000008   0.000009  -0.000041  -0.000565   0.003374
     6  O   -0.000057   0.000002  -0.000002  -0.000014  -0.000094   0.002101
     7  N   -0.000258   0.000128  -0.000244   0.000909   0.004663   0.000045
     8  C   -0.006194   0.000031   0.000004  -0.000055  -0.000462  -0.000351
     9  C    0.005684   0.000000   0.000000  -0.000002   0.000000   0.000000
    10  C   -0.000548   0.000000   0.000000   0.000011   0.000000  -0.000001
    11  C    0.005441   0.000002   0.000021  -0.000152  -0.000001   0.000007
    12  C   -0.073460  -0.000003  -0.000023   0.000167   0.000024   0.000075
    13  C    0.313562   0.000000  -0.000001  -0.000009   0.000000  -0.000003
    14  C   -0.055146   0.000000   0.000000   0.000001   0.000000   0.000000
    15  H   -0.000071   0.000000   0.000000   0.000000   0.000000   0.000000
    16  H    0.000004   0.000000   0.000000   0.000003   0.000000   0.000000
    17  H    0.001353   0.000000   0.000000   0.000000   0.000000   0.000000
    18  F   -0.000001  -0.000003  -0.000001   0.001242  -0.000001  -0.000011
    19  F    9.026275   0.000000   0.000000   0.000000   0.000000   0.000000
    20  H    0.000000   0.464652  -0.026564  -0.025870  -0.006019  -0.003788
    21  H    0.000000  -0.026564   0.481403  -0.028074  -0.004621   0.007568
    22  H    0.000000  -0.025870  -0.028074   0.483508   0.007296  -0.006714
    23  H    0.000000  -0.006019  -0.004621   0.007296   0.471033  -0.028079
    24  H    0.000000  -0.003788   0.007568  -0.006714  -0.028079   0.486188
    25  H   -0.000147   0.000018  -0.000044   0.000016   0.000277  -0.000745
    26  H   -0.000001   0.000019  -0.000028   0.000054   0.000497  -0.005711
    27  H    0.000002  -0.000001   0.000002  -0.000003  -0.000171   0.000437
    28  H    0.001274  -0.000018   0.000010  -0.000055  -0.000025   0.002163
    29  H    0.000078  -0.000028   0.000045   0.000010   0.000036   0.000076
    30  H    0.014879   0.000003   0.000006   0.000002  -0.000001  -0.000053
    31  H    0.000002  -0.000268   0.006029  -0.000781  -0.002091   0.008245
    32  C    0.000000  -0.000004   0.000031  -0.000020   0.000432   0.000491
    33  H    0.000000   0.000026   0.000038  -0.000014   0.001660  -0.000011
    34  H    0.000000  -0.000001  -0.000005   0.000002   0.000219  -0.000059
    35  H    0.000000   0.000003   0.000016   0.000005   0.000284   0.000088
    36  H   -0.000037  -0.000184  -0.000577   0.006615   0.000633  -0.000277
              25         26         27         28         29         30
     1  C   -0.000203   0.000318   0.000011  -0.000187  -0.000464   0.000056
     2  C    0.008461   0.009489  -0.000693  -0.000175   0.001048  -0.000159
     3  C   -0.070109  -0.023279   0.010232  -0.000292  -0.006349  -0.002501
     4  C    0.410560  -0.033558  -0.036945  -0.008930  -0.001060   0.003844
     5  C   -0.051106   0.374453   0.393653  -0.057910  -0.000069   0.000052
     6  O    0.008255  -0.042953  -0.031089   0.258022  -0.000124   0.001278
     7  N   -0.000136   0.000559  -0.000645   0.062672  -0.044464  -0.033985
     8  C    0.003855   0.000101  -0.000086  -0.009184   0.385364   0.389368
     9  C   -0.000001   0.000000   0.000000  -0.000001  -0.000069  -0.000330
    10  C    0.000002   0.000000   0.000000  -0.000030  -0.000033   0.000114
    11  C   -0.000126  -0.000005   0.000001  -0.000450  -0.016562   0.007708
    12  C   -0.001045  -0.000044   0.000022  -0.001842  -0.038445  -0.038762
    13  C    0.000532   0.000015  -0.000014   0.001491   0.007248  -0.015727
    14  C    0.000010   0.000000   0.000000  -0.000135  -0.000184   0.001771
    15  H    0.000000   0.000000   0.000000   0.000000   0.000002   0.000005
    16  H    0.000000   0.000000   0.000000   0.000001  -0.000018   0.000007
    17  H    0.000001   0.000000   0.000000   0.000000   0.000016  -0.000064
    18  F   -0.000001   0.000000   0.000000  -0.000021   0.004920   0.000184
    19  F   -0.000147  -0.000001   0.000002   0.001274   0.000078   0.014879
    20  H    0.000018   0.000019  -0.000001  -0.000018  -0.000028   0.000003
    21  H   -0.000044  -0.000028   0.000002   0.000010   0.000045   0.000006
    22  H    0.000016   0.000054  -0.000003  -0.000055   0.000010   0.000002
    23  H    0.000277   0.000497  -0.000171  -0.000025   0.000036  -0.000001
    24  H   -0.000745  -0.005711   0.000437   0.002163   0.000076  -0.000053
    25  H    0.508430   0.010685  -0.012220  -0.000502   0.000943   0.001363
    26  H    0.010685   0.555895  -0.049355  -0.001004   0.000023  -0.000034
    27  H   -0.012220  -0.049355   0.509594   0.005115  -0.000016   0.000135
    28  H   -0.000502  -0.001004   0.005115   0.342141   0.001733  -0.002881
    29  H    0.000943   0.000023  -0.000016   0.001733   0.498280  -0.036995
    30  H    0.001363  -0.000034   0.000135  -0.002881  -0.036995   0.441291
    31  H   -0.006878  -0.000614  -0.000168   0.002229   0.009915  -0.003395
    32  C   -0.036011   0.000811  -0.004567  -0.000936   0.000072   0.000089
    33  H    0.008124   0.005258  -0.001533  -0.000003   0.000014  -0.000021
    34  H   -0.008577  -0.001174   0.005442  -0.000073  -0.000015   0.000080
    35  H   -0.004510  -0.000491  -0.000044   0.000129   0.000014  -0.000052
    36  H   -0.000632  -0.000290   0.000069  -0.001313  -0.005239   0.006252
              31         32         33         34         35         36
     1  C   -0.011726  -0.000011   0.000133   0.000016  -0.000229   0.006763
     2  C   -0.039553  -0.007133   0.002634  -0.000010  -0.000155  -0.014090
     3  C    0.414348  -0.076636  -0.010108   0.008576  -0.002577  -0.048662
     4  C   -0.065532   0.289697  -0.036832  -0.035545  -0.035618   0.006293
     5  C    0.007111  -0.076872  -0.006068  -0.003726   0.006847   0.000032
     6  O   -0.000643   0.005733   0.000014  -0.000060  -0.000238   0.000756
     7  N   -0.044052   0.005226  -0.000039  -0.000222   0.000023   0.335494
     8  C   -0.010288   0.000072  -0.000025  -0.000012   0.000015  -0.046389
     9  C    0.000001   0.000000   0.000000   0.000000   0.000000  -0.000043
    10  C   -0.000010   0.000000   0.000000   0.000000   0.000000   0.000159
    11  C   -0.000191   0.000000   0.000000   0.000000   0.000000   0.005022
    12  C    0.001236  -0.000011  -0.000001   0.000000   0.000004  -0.015963
    13  C    0.000049   0.000002   0.000000  -0.000001  -0.000001  -0.000498
    14  C   -0.000003   0.000000   0.000000   0.000000   0.000000   0.000002
    15  H    0.000000   0.000000   0.000000   0.000000   0.000000   0.000002
    16  H    0.000000   0.000000   0.000000   0.000000   0.000000   0.000001
    17  H    0.000000   0.000000   0.000000   0.000000   0.000000  -0.000001
    18  F   -0.000080   0.000000   0.000000   0.000000   0.000000   0.009677
    19  F    0.000002   0.000000   0.000000   0.000000   0.000000  -0.000037
    20  H   -0.000268  -0.000004   0.000026  -0.000001   0.000003  -0.000184
    21  H    0.006029   0.000031   0.000038  -0.000005   0.000016  -0.000577
    22  H   -0.000781  -0.000020  -0.000014   0.000002   0.000005   0.006615
    23  H   -0.002091   0.000432   0.001660   0.000219   0.000284   0.000633
    24  H    0.008245   0.000491  -0.000011  -0.000059   0.000088  -0.000277
    25  H   -0.006878  -0.036011   0.008124  -0.008577  -0.004510  -0.000632
    26  H   -0.000614   0.000811   0.005258  -0.001174  -0.000491  -0.000290
    27  H   -0.000168  -0.004567  -0.001533   0.005442  -0.000044   0.000069
    28  H    0.002229  -0.000936  -0.000003  -0.000073   0.000129  -0.001313
    29  H    0.009915   0.000072   0.000014  -0.000015   0.000014  -0.005239
    30  H   -0.003395   0.000089  -0.000021   0.000080  -0.000052   0.006252
    31  H    0.511157  -0.003267  -0.000444  -0.000277   0.005637   0.001555
    32  C   -0.003267   5.414063   0.386235   0.388935   0.380602  -0.000274
    33  H   -0.000444   0.386235   0.480026  -0.028986  -0.027641  -0.000021
    34  H   -0.000277   0.388935  -0.028986   0.467009  -0.025441   0.000028
    35  H    0.005637   0.380602  -0.027641  -0.025441   0.474194  -0.000028
    36  H    0.001555  -0.000274  -0.000021   0.000028  -0.000028   0.403483
 Mulliken charges:
               1
     1  C   -0.662061
     2  C   -0.480791
     3  C   -0.099558
     4  C   -0.317293
     5  C   -0.157038
     6  O   -0.626941
     7  N   -0.608030
     8  C   -0.377728
     9  C   -0.191982
    10  C   -0.280527
    11  C    0.339264
    12  C   -0.144356
    13  C    0.328930
    14  C   -0.284081
    15  H    0.234672
    16  H    0.236010
    17  H    0.236444
    18  F   -0.237438
    19  F   -0.232574
    20  H    0.233927
    21  H    0.227078
    22  H    0.221901
    23  H    0.244868
    24  H    0.238589
    25  H    0.231457
    26  H    0.200363
    27  H    0.212833
    28  H    0.408986
    29  H    0.240299
    30  H    0.266473
    31  H    0.222747
    32  C   -0.666750
    33  H    0.227585
    34  H    0.233877
    35  H    0.229163
    36  H    0.351680
 Sum of Mulliken charges =   0.00000
 Mulliken charges with hydrogens summed into heavy atoms:
               1
     1  C    0.020846
     2  C    0.002665
     3  C    0.123189
     4  C   -0.085836
     5  C    0.256158
     6  O   -0.217955
     7  N   -0.256350
     8  C    0.129044
     9  C    0.042690
    10  C   -0.044517
    11  C    0.339264
    12  C   -0.144356
    13  C    0.328930
    14  C   -0.047637
    18  F   -0.237438
    19  F   -0.232574
    32  C    0.023875
 Electronic spatial extent (au):  <R**2>=           4946.8907
 Charge=              0.0000 electrons
 Dipole moment (field-independent basis, Debye):
    X=             -0.9741    Y=              3.1261    Z=             -1.9702  Tot=              3.8214
 Quadrupole moment (field-independent basis, Debye-Ang):
   XX=            -82.5258   YY=           -106.9037   ZZ=           -106.3883
   XY=              3.4641   XZ=             -6.4807   YZ=              5.9971
 Traceless Quadrupole moment (field-independent basis, Debye-Ang):
   XX=             16.0801   YY=             -8.2977   ZZ=             -7.7824
   XY=              3.4641   XZ=             -6.4807   YZ=              5.9971
 Octapole moment (field-independent basis, Debye-Ang**2):
  XXX=            -70.4508  YYY=              4.1737  ZZZ=            -13.6176  XYY=             -8.1244
  XXY=             -2.9222  XXZ=             23.2030  XZZ=             -3.3079  YZZ=             11.0452
  YYZ=             -5.7418  XYZ=              6.6628
 Hexadecapole moment (field-independent basis, Debye-Ang**3):
 XXXX=          -4140.1892 YYYY=          -1528.7714 ZZZZ=           -466.4676 XXXY=              7.5686
 XXXZ=            -80.6286 YYYX=             -1.4575 YYYZ=             27.4487 ZZZX=             10.5301
 ZZZY=             16.9901 XXYY=           -936.1233 XXZZ=           -863.7615 YYZZ=           -341.6553
 XXYZ=             13.0597 YYXZ=            -18.9875 ZZXY=             10.8293
 N-N= 1.281215742077D+03 E-N=-4.520237929818D+03  KE= 8.333379301776D+02
 1\1\GINC-CPU-E-805\SP\RmPW1PW91\6-311G(d)\C13H19F2N1O1\AH809\04-Mar-20
 19\0\\# mPW1PW91/6-311g(d) nmr=giao scrf=(solvent=chloroform)\\AT3_2gi
 np002\\0,1\C,0,-2.265973,-0.136775,-0.6358\C,0,-2.078767,-0.020155,0.8
 7476\C,0,-2.864781,-1.084304,1.681277\C,0,-2.433675,-1.142352,3.182924
 \C,0,-2.65392,0.173383,3.949364\O,0,-4.029365,0.527527,4.004859\N,0,-4
 .315304,-0.809872,1.571297\C,0,-5.122391,-2.032171,1.720296\C,0,-9.339
 313,-1.123599,1.473105\C,0,-8.540605,-1.06794,0.332342\C,0,-7.1816,-1.
 365741,0.423939\C,0,-6.589601,-1.722081,1.637607\C,0,-7.40767,-1.77426
 7,2.766834\C,0,-8.769032,-1.47923,2.6945\H,0,-10.399158,-0.890265,1.41
 1957\H,0,-8.965114,-0.791764,-0.628175\H,0,-9.373671,-1.528559,3.59537
 5\F,0,-6.432479,-1.30201,-0.687218\F,0,-6.892946,-2.127357,3.953189\H,
 0,-1.605405,0.570639,-1.147966\H,0,-2.015628,-1.143615,-0.984658\H,0,-
 3.290047,0.091821,-0.943187\H,0,-1.006535,-0.117975,1.072604\H,0,-2.36
 5445,0.99124,1.186962\H,0,-3.049505,-1.908643,3.671568\H,0,-2.10163,1.
 003041,3.497746\H,0,-2.305005,0.074742,4.98278\H,0,-4.421135,0.251931,
 3.147124\H,0,-4.872387,-2.753499,0.931652\H,0,-4.907555,-2.525018,2.67
 4179\H,0,-2.644527,-2.058503,1.223392\C,0,-0.977928,-1.594979,3.342042
 \H,0,-0.269383,-0.825277,3.021855\H,0,-0.762225,-1.818131,4.392902\H,0
 ,-0.785289,-2.505291,2.765071\H,0,-4.524258,-0.43564,0.643568\\Version
 =ES64L-G09RevD.01\State=1-A\HF=-836.4659802\RMSD=6.665e-09\Dipole=-0.1
 149711,-0.7066088,-1.3220776\Quadrupole=13.1539773,-5.9054581,-7.24851
 92,-1.4417089,0.3099025,-4.9562445\PG=C01 [X(C13H19F2N1O1)]\\@


 I HAVE NOT FAILED, I HAVE ONLY DISCOVERED 10,000
 WAYS THAT DIDN'T WORK.  -- THOMAS A. EDISON
 Job cpu time:       0 days  0 hours 16 minutes 50.9 seconds.
 File lengths (MBytes):  RWF=    186 Int=      0 D2E=      0 Chk=     10 Scr=      1
 Normal termination of Gaussian 09 at Mon Mar  4 11:28:50 2019.
