 Entering Gaussian System, Link 0=/usr/local/Cluster-Apps/gaussian/g09/g09
 Initial command:
 /usr/local/Cluster-Apps/gaussian/g09/l1.exe "/home/ah809/rds/hpc-work/04Mar1111AT3/Gau-402694.inp" -scrdir="/home/ah809/rds/hpc-work/04Mar1111AT3/"
 Entering Link 1 = /usr/local/Cluster-Apps/gaussian/g09/l1.exe PID=    402711.
  
 Copyright (c) 1988,1990,1992,1993,1995,1998,2003,2009,2013,
            Gaussian, Inc.  All Rights Reserved.
  
 This is part of the Gaussian(R) 09 program.  It is based on
 the Gaussian(R) 03 system (copyright 2003, Gaussian, Inc.),
 the Gaussian(R) 98 system (copyright 1998, Gaussian, Inc.),
 the Gaussian(R) 94 system (copyright 1995, Gaussian, Inc.),
 the Gaussian 92(TM) system (copyright 1992, Gaussian, Inc.),
 the Gaussian 90(TM) system (copyright 1990, Gaussian, Inc.),
 the Gaussian 88(TM) system (copyright 1988, Gaussian, Inc.),
 the Gaussian 86(TM) system (copyright 1986, Carnegie Mellon
 University), and the Gaussian 82(TM) system (copyright 1983,
 Carnegie Mellon University). Gaussian is a federally registered
 trademark of Gaussian, Inc.
  
 This software contains proprietary and confidential information,
 including trade secrets, belonging to Gaussian, Inc.
  
 This software is provided under written license and may be
 used, copied, transmitted, or stored only in accord with that
 written license.
  
 The following legend is applicable only to US Government
 contracts under FAR:
  
                    RESTRICTED RIGHTS LEGEND
  
 Use, reproduction and disclosure by the US Government is
 subject to restrictions as set forth in subparagraphs (a)
 and (c) of the Commercial Computer Software - Restricted
 Rights clause in FAR 52.227-19.
  
 Gaussian, Inc.
 340 Quinnipiac St., Bldg. 40, Wallingford CT 06492
  
  
 ---------------------------------------------------------------
 Warning -- This program may not be used in any manner that
 competes with the business of Gaussian, Inc. or will provide
 assistance to any competitor of Gaussian, Inc.  The licensee
 of this program is prohibited from giving any competitor of
 Gaussian, Inc. access to this program.  By using this program,
 the user acknowledges that Gaussian, Inc. is engaged in the
 business of creating and licensing software in the field of
 computational chemistry and represents and warrants to the
 licensee that it is not a competitor of Gaussian, Inc. and that
 it will not use this program in any manner prohibited above.
 ---------------------------------------------------------------
  

 Cite this work as:
 Gaussian 09, Revision D.01,
 M. J. Frisch, G. W. Trucks, H. B. Schlegel, G. E. Scuseria, 
 M. A. Robb, J. R. Cheeseman, G. Scalmani, V. Barone, B. Mennucci, 
 G. A. Petersson, H. Nakatsuji, M. Caricato, X. Li, H. P. Hratchian, 
 A. F. Izmaylov, J. Bloino, G. Zheng, J. L. Sonnenberg, M. Hada, 
 M. Ehara, K. Toyota, R. Fukuda, J. Hasegawa, M. Ishida, T. Nakajima, 
 Y. Honda, O. Kitao, H. Nakai, T. Vreven, J. A. Montgomery, Jr., 
 J. E. Peralta, F. Ogliaro, M. Bearpark, J. J. Heyd, E. Brothers, 
 K. N. Kudin, V. N. Staroverov, T. Keith, R. Kobayashi, J. Normand, 
 K. Raghavachari, A. Rendell, J. C. Burant, S. S. Iyengar, J. Tomasi, 
 M. Cossi, N. Rega, J. M. Millam, M. Klene, J. E. Knox, J. B. Cross, 
 V. Bakken, C. Adamo, J. Jaramillo, R. Gomperts, R. E. Stratmann, 
 O. Yazyev, A. J. Austin, R. Cammi, C. Pomelli, J. W. Ochterski, 
 R. L. Martin, K. Morokuma, V. G. Zakrzewski, G. A. Voth, 
 P. Salvador, J. J. Dannenberg, S. Dapprich, A. D. Daniels, 
 O. Farkas, J. B. Foresman, J. V. Ortiz, J. Cioslowski, 
 and D. J. Fox, Gaussian, Inc., Wallingford CT, 2013.
 
 ******************************************
 Gaussian 09:  ES64L-G09RevD.01 24-Apr-2013
                 4-Mar-2019 
 ******************************************
 %nprocshared=8
 Will use up to    8 processors via shared memory.
 %mem=6000MB
 %chk=AT3_1ginp006.chk
 -------------------------------------------------------
 # mPW1PW91/6-311g(d) nmr=giao scrf=(solvent=chloroform)
 -------------------------------------------------------
 1/38=1/1;
 2/12=2,17=6,18=5,40=1/2;
 3/5=4,6=6,7=1,11=2,16=1,25=1,30=1,70=2201,72=7,74=-7/1,2,8,3;
 4//1;
 5/5=2,38=5,53=7/2;
 8/6=1,10=90,11=11/1;
 10/13=100,45=16/2;
 6/7=2,8=2,9=2,10=2,28=1/1;
 99/9=1/99;
 ------------
 AT3_1ginp006
 ------------
 Symbolic Z-matrix:
 Charge =  0 Multiplicity = 1
 C                    -1.60783  -0.81264   2.2557 
 C                    -0.18418  -0.4319    2.6422 
 C                     0.18923   1.05726   2.4365 
 C                    -0.68776   2.04728   3.2743 
 C                    -0.1906    3.50279   3.14136 
 O                    -0.41724   4.01528   1.83501 
 N                     0.12486   1.45994   1.01496 
 C                     1.18726   0.91009   0.16485 
 C                     5.04038   2.72322   0.88752 
 C                     4.77152   1.43783   1.3547 
 C                     3.52641   0.85833   1.11262 
 C                     2.52965   1.53526   0.40838 
 C                     2.82089   2.81987  -0.05414 
 C                     4.05977   3.41577   0.17928 
 H                     6.00752   3.18301   1.0737 
 H                     5.52202   0.88192   1.90871 
 H                     4.24799   4.41799  -0.19442 
 F                     3.2928   -0.37714   1.5791 
 F                     1.90228   3.50404  -0.75094 
 H                    -1.7943   -0.6532    1.18997 
 H                    -1.775    -1.87518   2.46174 
 H                    -2.34819  -0.24674   2.82761 
 H                    -0.02085  -0.70626   3.69091 
 H                     0.50727  -1.0699    2.07975 
 H                    -1.71788   2.01134   2.89555 
 H                     0.87945   3.5789    3.36344 
 H                    -0.72356   4.15969   3.83643 
 H                    -0.08091   3.32577   1.22085 
 H                     1.23909  -0.18176   0.2317 
 H                     0.91527   1.1097   -0.87997 
 H                     1.21755   1.1825    2.79774 
 C                    -0.70876   1.68155   4.76361 
 H                     0.30626   1.61834   5.16998 
 H                    -1.25772   2.43265   5.34224 
 H                    -1.20997   0.72489   4.93651 
 H                    -0.77767   1.18009   0.62796 
 
                          Input orientation:                          
 ---------------------------------------------------------------------
 Center     Atomic      Atomic             Coordinates (Angstroms)
 Number     Number       Type             X           Y           Z
 ---------------------------------------------------------------------
      1          6           0       -1.607827   -0.812640    2.255697
      2          6           0       -0.184175   -0.431896    2.642203
      3          6           0        0.189227    1.057255    2.436496
      4          6           0       -0.687759    2.047277    3.274299
      5          6           0       -0.190598    3.502786    3.141359
      6          8           0       -0.417242    4.015277    1.835012
      7          7           0        0.124855    1.459943    1.014958
      8          6           0        1.187256    0.910085    0.164850
      9          6           0        5.040375    2.723224    0.887517
     10          6           0        4.771520    1.437829    1.354701
     11          6           0        3.526409    0.858328    1.112617
     12          6           0        2.529647    1.535255    0.408380
     13          6           0        2.820888    2.819865   -0.054137
     14          6           0        4.059772    3.415765    0.179278
     15          1           0        6.007524    3.183010    1.073702
     16          1           0        5.522019    0.881920    1.908708
     17          1           0        4.247990    4.417987   -0.194423
     18          9           0        3.292799   -0.377141    1.579098
     19          9           0        1.902279    3.504042   -0.750942
     20          1           0       -1.794304   -0.653199    1.189972
     21          1           0       -1.774997   -1.875180    2.461736
     22          1           0       -2.348191   -0.246742    2.827612
     23          1           0       -0.020852   -0.706262    3.690912
     24          1           0        0.507269   -1.069900    2.079750
     25          1           0       -1.717881    2.011343    2.895549
     26          1           0        0.879450    3.578899    3.363437
     27          1           0       -0.723561    4.159692    3.836432
     28          1           0       -0.080914    3.325771    1.220850
     29          1           0        1.239087   -0.181757    0.231702
     30          1           0        0.915274    1.109696   -0.879970
     31          1           0        1.217554    1.182504    2.797740
     32          6           0       -0.708759    1.681552    4.763606
     33          1           0        0.306261    1.618341    5.169983
     34          1           0       -1.257721    2.432653    5.342240
     35          1           0       -1.209973    0.724889    4.936506
     36          1           0       -0.777672    1.180092    0.627963
 ---------------------------------------------------------------------
                    Distance matrix (angstroms):
                    1          2          3          4          5
     1  C    0.000000
     2  C    1.523528   0.000000
     3  C    2.599730   1.548972   0.000000
     4  C    3.172255   2.607574   1.565619   0.000000
     5  C    4.627725   3.966222   2.573270   1.543810   0.000000
     6  O    4.990316   4.525840   3.078877   2.453110   1.421463
     7  N    3.115486   2.514454   1.478875   2.471826   2.965518
     8  C    3.892546   3.133531   2.485578   3.804939   4.180931
     9  C    7.653290   6.350561   5.358024   6.242207   5.748965
    10  C    6.824403   5.450912   4.723614   5.818936   5.663816
    11  C    5.518980   4.215773   3.595693   4.883204   4.992504
    12  C    5.103321   4.027962   3.133577   4.339051   4.328982
    13  C    6.176078   5.184072   4.029353   4.897549   4.443717
    14  C    7.369708   6.235510   5.063469   5.830177   5.181423
    15  H    8.680778   7.339270   6.342604   7.138580   6.541726
    16  H    7.336664   5.901252   5.361714   6.464073   6.404870
    17  H    8.225153   7.156249   5.889806   6.481814   5.627264
    18  F    4.966244   3.636281   3.524880   4.959471   5.443211
    19  F    6.324118   5.599851   4.368189   5.003302   4.419292
    20  H    1.093602   2.179556   2.900667   3.586284   4.863332
    21  H    1.095166   2.155540   3.529588   4.150664   5.647542
    22  H    1.093374   2.179822   2.879561   2.866895   4.337350
    23  H    2.142346   1.096240   2.174324   2.863618   4.248165
    24  H    2.137936   1.096128   2.180185   3.545678   4.745892
    25  H    2.897655   2.895834   2.181301   1.098132   2.148818
    26  H    5.167132   4.211645   2.773863   2.193161   1.095497
    27  H    5.291950   4.774914   3.523935   2.186223   1.094852
    28  H    4.530874   4.018827   2.587844   2.493885   1.931766
    29  H    3.549576   2.810473   2.738334   4.235413   4.907745
    30  H    4.460249   3.998874   3.395415   4.550464   4.808422
    31  H    3.501027   2.143671   1.097106   2.145963   2.735813
    32  C    3.649510   3.040099   2.571297   1.533699   2.493405
    33  H    4.250466   3.291454   2.792931   2.183044   2.813062
    34  H    4.492354   4.080238   3.525440   2.179392   2.669796
    35  H    3.115930   2.766630   2.884142   2.187316   3.460981
    36  H    2.703638   2.647245   2.054452   2.786250   3.472279
                    6          7          8          9         10
     6  O    0.000000
     7  N    2.737899   0.000000
     8  C    3.873767   1.467557   0.000000
     9  C    5.687946   5.076855   4.319288   0.000000
    10  C    5.813535   4.659121   3.813294   1.393838   0.000000
    11  C    5.102996   3.455727   2.524397   2.412592   1.394535
    12  C    4.107304   2.481256   1.500719   2.818616   2.435366
    13  C    3.934893   3.203271   2.522691   2.412918   2.774854
    14  C    4.810876   4.472938   3.811822   1.393843   2.408409
    15  H    6.523027   6.130106   5.406217   1.086943   2.156924
    16  H    6.715518   5.501116   4.672473   2.159910   1.085913
    17  H    5.103447   5.216596   4.669320   2.161178   3.399296
    18  F    5.755279   3.705267   2.844356   3.625544   2.351826
    19  F    3.511224   3.233571   2.842278   3.625172   4.115278
    20  H    4.909893   2.859925   3.519152   7.629191   6.892719
    21  H    6.077316   4.101908   4.669939   8.370949   7.420137
    22  H    4.783161   3.509194   4.574706   8.196071   7.463078
    23  H    5.088656   3.445926   4.062661   6.725802   5.746463
    24  H    5.174325   2.771304   2.837176   6.029781   4.999824
    25  H    2.613839   2.690045   4.136340   7.086113   6.694435
    26  H    2.051321   3.251883   4.177113   4.916875   4.875183
    27  H    2.029869   3.996144   5.262289   6.631930   6.615394
    28  H    0.982716   1.888398   2.925565   5.167376   5.208489
    29  H    4.788436   2.133116   1.095114   4.828954   4.045030
    30  H    4.193939   2.082832   1.097938   4.769061   4.469011
    31  H    3.409400   2.109331   2.647119   4.542767   3.844246
    32  C    3.756051   3.846607   5.033745   7.011540   6.458598
    33  H    4.170227   4.161998   5.131192   6.478589   5.876010
    34  H    3.938496   4.645756   5.924651   7.719780   7.296704
    35  H    4.590680   4.207209   5.343192   7.710675   7.008271
    36  H    3.102443   1.021096   2.036742   6.024807   5.602509
                   11         12         13         14         15
    11  C    0.000000
    12  C    1.395605   0.000000
    13  C    2.388870   1.396054   0.000000
    14  C    2.774181   2.435177   1.394422   0.000000
    15  H    3.400234   3.905557   3.399786   2.155901   0.000000
    16  H    2.148669   3.410590   3.860635   3.398450   2.495589
    17  H    3.860078   3.409724   2.147160   1.086060   2.495850
    18  F    1.341105   2.368595   3.620912   4.115080   4.505533
    19  F    3.620836   2.369333   1.340701   2.351144   4.503934
    20  H    5.531789   4.908846   5.908467   7.200568   8.694742
    21  H    6.115316   5.863216   7.035284   8.200503   9.385071
    22  H    6.218787   5.729005   6.665428   7.841532   9.200944
    23  H    4.656029   4.722760   5.876602   6.780426   7.636592
    24  H    3.710609   3.697340   5.003656   6.029367   7.025111
    25  H    5.657815   4.945115   5.473096   6.536957   8.023329
    26  H    4.412946   3.953732   4.003140   4.503324   5.629987
    27  H    6.031618   5.405791   5.430910   6.066999   7.341259
    28  H    4.371815   3.268193   3.209671   4.270627   6.091889
    29  H    2.662636   2.155201   3.404928   4.571780   5.896492
    30  H    3.294179   2.108826   2.690361   4.040771   5.834936
    31  H    2.876724   2.748647   3.658529   4.463407   5.469748
    32  C    5.651908   5.429242   6.079869   6.838307   7.808856
    33  H    5.235379   5.255779   5.921017   6.498209   7.192504
    34  H    6.576938   6.284302   6.775387   7.476524   8.459742
    35  H    6.088780   5.928354   6.748576   7.592249   8.547273
    36  H    4.343217   3.333574   4.012948   5.347936   7.088670
                   16         17         18         19         20
    16  H    0.000000
    17  H    4.306980   0.000000
    18  F    2.581337   5.201059   0.000000
    19  F    5.201133   2.578249   4.735632   0.000000
    20  H    7.510110   8.008920   5.109427   5.891903   0.000000
    21  H    7.820095   9.106893   5.357773   7.264963   1.763801
    22  H    8.003653   8.625659   5.778976   6.703799   1.775912
    23  H    6.035064   7.718599   3.943141   6.415229   3.066374
    24  H    5.383918   7.020097   2.913717   5.556961   2.502515
    25  H    7.393619   7.136629   5.704806   5.350757   3.164588
    26  H    5.562677   4.970865   4.965720   4.240271   5.457432
    27  H    7.312125   6.405531   6.466031   5.326248   5.595906
    28  H    6.151294   4.683518   5.022135   2.802285   4.332304
    29  H    4.720939   5.512960   2.464018   3.871760   3.215898
    30  H    5.389871   4.745710   3.729655   2.593014   3.838525
    31  H    4.405581   5.348358   2.867791   4.295525   3.876340
    32  C    6.900177   7.525921   5.512874   6.367828   4.404581
    33  H    6.195350   7.221641   5.078958   6.415645   5.041107
    34  H    7.756210   8.056615   6.539374   6.946966   5.201128
    35  H    7.383220   8.351932   5.723776   7.053855   4.034487
    36  H    6.435474   6.034696   4.460759   3.805819   2.170334
                   21         22         23         24         25
    21  H    0.000000
    22  H    1.764717   0.000000
    23  H    2.440137   2.524471   0.000000
    24  H    2.450128   3.064399   1.734067   0.000000
    25  H    3.911076   2.345390   3.301195   3.887271   0.000000
    26  H    6.132384   5.033915   4.390944   4.837117   3.069573
    27  H    6.278136   4.803520   4.918586   5.652389   2.547418
    28  H    5.608886   4.526044   4.728859   4.517255   2.685516
    29  H    4.114053   4.428491   3.718694   2.177071   4.544164
    30  H    5.226284   5.122137   5.006695   3.698249   4.690524
    31  H    4.291584   3.841637   2.428753   2.468469   3.051773
    32  C    4.368731   3.186554   2.706574   4.031414   2.148657
    33  H    4.885788   4.001419   2.774605   4.100803   3.069960
    34  H    5.207908   3.832967   3.756264   5.101657   2.524984
    35  H    3.633744   2.585931   2.239131   3.785663   2.465449
    36  H    3.700279   3.056279   3.675971   2.970054   2.591702
                   26         27         28         29         30
    26  H    0.000000
    27  H    1.769375   0.000000
    28  H    2.361578   2.819519   0.000000
    29  H    4.907101   5.974466   3.876025   0.000000
    30  H    4.909659   5.850872   3.211981   1.734509   0.000000
    31  H    2.485364   3.702763   2.960776   2.906239   3.690830
    32  C    2.843028   2.645949   3.955852   5.272967   5.900377
    33  H    2.726892   3.049157   4.319823   5.338271   6.101766
    34  H    3.130023   2.352753   4.378172   6.259935   6.722203
    35  H    3.871125   3.639317   4.673913   5.380993   6.204526
    36  H    3.997893   4.378952   2.332579   2.465557   2.268234
                   31         32         33         34         35
    31  H    0.000000
    32  C    2.797206   0.000000
    33  H    2.578361   1.095173   0.000000
    34  H    3.763554   1.095595   1.771670   0.000000
    35  H    3.267510   1.093761   1.775312   1.755949   0.000000
    36  H    2.947688   4.166504   4.690087   4.901404   4.354037
                   36
    36  H    0.000000
 Stoichiometry    C13H19F2NO
 Framework group  C1[X(C13H19F2NO)]
 Deg. of freedom   102
 Full point group                 C1      NOp   1
 Largest Abelian subgroup         C1      NOp   1
 Largest concise Abelian subgroup C1      NOp   1
                         Standard orientation:                         
 ---------------------------------------------------------------------
 Center     Atomic      Atomic             Coordinates (Angstroms)
 Number     Number       Type             X           Y           Z
 ---------------------------------------------------------------------
      1          6           0       -3.388144   -1.643278   -1.171355
      2          6           0       -2.272077   -1.676327   -0.134803
      3          6           0       -1.535358   -0.333789    0.097906
      4          6           0       -2.467742    0.814946    0.609992
      5          6           0       -1.666868    2.088564    0.956179
      6          8           0       -1.133095    2.703220   -0.209086
      7          7           0       -0.832094    0.137079   -1.114849
      8          6           0        0.359274   -0.637191   -1.482098
      9          6           0        3.701104    0.041559    1.168886
     10          6           0        2.974036   -1.145076    1.246690
     11          6           0        1.899566   -1.357850    0.383574
     12          6           0        1.526029   -0.406603   -0.566855
     13          6           0        2.269857    0.773060   -0.630728
     14          6           0        3.346629    1.003687    0.224717
     15          1           0        4.538660    0.216209    1.839290
     16          1           0        3.234113   -1.906893    1.975526
     17          1           0        3.899686    1.935081    0.146228
     18          9           0        1.213694   -2.505851    0.484736
     19          9           0        1.961165    1.709997   -1.538658
     20          1           0       -3.009688   -1.390319   -2.165713
     21          1           0       -3.856973   -2.630559   -1.241102
     22          1           0       -4.169383   -0.926925   -0.903082
     23          1           0       -2.687009   -2.032884    0.815166
     24          1           0       -1.552633   -2.449400   -0.428496
     25          1           0       -3.176946    1.074001   -0.187387
     26          1           0       -0.840871    1.864761    1.640106
     27          1           0       -2.309454    2.831194    1.440208
     28          1           0       -0.703811    1.978144   -0.714764
     29          1           0        0.137079   -1.704879   -1.581838
     30          1           0        0.663416   -0.323637   -2.489396
     31          1           0       -0.800201   -0.505600    0.893937
     32          6           0       -3.268039    0.399372    1.850578
     33          1           0       -2.606126    0.047670    2.649065
     34          1           0       -3.849019    1.242349    2.240683
     35          1           0       -3.983931   -0.394975    1.620740
     36          1           0       -1.480828    0.127605   -1.903323
 ---------------------------------------------------------------------
 Rotational constants (GHZ):      0.6345199      0.3265827      0.2772882
 Standard basis: 6-311G(d) (5D, 7F)
 There are   380 symmetry adapted cartesian basis functions of A   symmetry.
 There are   363 symmetry adapted basis functions of A   symmetry.
   363 basis functions,   639 primitive gaussians,   380 cartesian basis functions
    65 alpha electrons       65 beta electrons
       nuclear repulsion energy      1311.3229127458 Hartrees.
 NAtoms=   36 NActive=   36 NUniq=   36 SFac= 1.00D+00 NAtFMM=   60 NAOKFM=F Big=F
 Integral buffers will be    131072 words long.
 Raffenetti 2 integral format.
 Two-electron integral symmetry is turned on.
 ------------------------------------------------------------------------------
 Polarizable Continuum Model (PCM)
 =================================
 Model                : PCM (using non-symmetric T matrix).
 Atomic radii         : UFF (Universal Force Field).
 Polarization charges : Total charges.
 Charge compensation  : None.
 Solution method      : On-the-fly selection.
 Cavity type          : Scaled VdW (van der Waals Surface) (Alpha=1.100).
 Cavity algorithm     : GePol (No added spheres)
                        Default sphere list used, NSphG=   36.
                        Lebedev-Laikov grids with approx.  5.0 points / Ang**2.
                        Smoothing algorithm: Karplus/York (Gamma=1.0000).
                        Polarization charges: spherical gaussians, with
                                              point-specific exponents (IZeta= 3).
                        Self-potential: point-specific (ISelfS= 7).
                        Self-field    : sphere-specific E.n sum rule (ISelfD= 2).
 Solvent              : Chloroform, Eps=   4.711300 Eps(inf)=   2.090627
 ------------------------------------------------------------------------------
 One-electron integrals computed using PRISM.
 NBasis=   363 RedAO= T EigKep=  2.44D-04  NBF=   363
 NBsUse=   363 1.00D-06 EigRej= -1.00D+00 NBFU=   363
 ExpMin= 1.03D-01 ExpMax= 1.14D+04 ExpMxC= 1.72D+03 IAcc=1 IRadAn=         1 AccDes= 0.00D+00
 Harris functional with IExCor=  908 and IRadAn=       1 diagonalized for initial guess.
 HarFok:  IExCor=  908 AccDes= 0.00D+00 IRadAn=         1 IDoV= 1 UseB2=F ITyADJ=14
 ICtDFT=  3500011 ScaDFX=  1.000000  1.000000  1.000000  1.000000
 FoFCou: FMM=F IPFlag=           0 FMFlag=      100000 FMFlg1=           0
         NFxFlg=           0 DoJE=T BraDBF=F KetDBF=T FulRan=T
         wScrn=  0.000000 ICntrl=     500 IOpCl=  0 I1Cent=   200000004 NGrid=           0
         NMat0=    1 NMatS0=      1 NMatT0=    0 NMatD0=    1 NMtDS0=    0 NMtDT0=    0
 Petite list used in FoFCou.
 Requested convergence on RMS density matrix=1.00D-08 within 128 cycles.
 Requested convergence on MAX density matrix=1.00D-06.
 Requested convergence on             energy=1.00D-06.
 No special actions if energy rises.
 Inv3:  Mode=1 IEnd=    17875443.
 Iteration    1 A*A^-1 deviation from unit magnitude is 5.55D-15 for   2439.
 Iteration    1 A*A^-1 deviation from orthogonality  is 5.07D-15 for   2401      5.
 Iteration    1 A^-1*A deviation from unit magnitude is 4.88D-15 for   2430.
 Iteration    1 A^-1*A deviation from orthogonality  is 9.81D-13 for   2410   2387.
 Error on total polarization charges =  0.00929
 SCF Done:  E(RmPW1PW91) =  -836.466387956     A.U. after   12 cycles
            NFock= 12  Conv=0.72D-08     -V/T= 2.0038
 DoSCS=F DFT=T ScalE2(SS,OS)=  1.000000  1.000000
 Range of M.O.s used for correlation:     1   363
 NBasis=   363 NAE=    65 NBE=    65 NFC=     0 NFV=     0
 NROrb=    363 NOA=    65 NOB=    65 NVA=   298 NVB=   298

 **** Warning!!: The largest alpha MO coefficient is  0.12229567D+02

 NEqPCM:  Using equilibrium solvation (IEInf=0, Eps=   4.7113, EpsInf=   2.0906)
          Differentiating once with respect to magnetic field using GIAOs.
          Electric field/nuclear overlap derivatives assumed to be zero.
 FoFJK:  IHMeth= 1 ICntrl=    6127 DoSepK=F KAlg= 0 I1Cent=   0 FoldK=F
 IRaf=         1 NMat=   1 IRICut=       1 DoRegI=T DoRafI=F ISym2E= 0.
          There are     3 degrees of freedom in the 1st order CPHF.  IDoFFX=0 NUNeed=     3.
      3 vectors produced by pass  0 Test12= 6.46D-13 3.33D-08 XBig12= 3.60D+01 1.68D+00.
 AX will form     3 AO Fock derivatives at one time.
      3 vectors produced by pass  1 Test12= 6.46D-13 3.33D-08 XBig12= 1.08D-01 1.44D-01.
      3 vectors produced by pass  2 Test12= 6.46D-13 3.33D-08 XBig12= 5.16D-04 6.62D-03.
      3 vectors produced by pass  3 Test12= 6.46D-13 3.33D-08 XBig12= 1.18D-06 2.24D-04.
      3 vectors produced by pass  4 Test12= 6.46D-13 3.33D-08 XBig12= 3.26D-09 1.41D-05.
      3 vectors produced by pass  5 Test12= 6.46D-13 3.33D-08 XBig12= 1.30D-11 8.22D-07.
      1 vectors produced by pass  6 Test12= 6.46D-13 3.33D-08 XBig12= 3.69D-14 4.76D-08.
 InvSVY:  IOpt=1 It=  1 EMax= 1.78D-15
 Solved reduced A of dimension    19 with     3 vectors.
 Calculating GIAO nuclear magnetic shielding tensors.
 SCF GIAO Magnetic shielding tensor (ppm):
      1  C    Isotropic =   181.9032   Anisotropy =    12.1316
   XX=   185.3803   YX=    -1.0498   ZX=     7.2003
   XY=    -1.5833   YY=   180.2979   ZY=     0.3581
   XZ=     6.0267   YZ=    -0.7813   ZZ=   180.0314
   Eigenvalues:   175.5051   180.2136   189.9910
      2  C    Isotropic =   167.6939   Anisotropy =    21.6378
   XX=   166.8943   YX=    10.3549   ZX=    11.4272
   XY=     8.0070   YY=   168.3735   ZY=    -1.4980
   XZ=     9.8840   YZ=     3.6417   ZZ=   167.8140
   Eigenvalues:   153.8879   167.0748   182.1191
      3  C    Isotropic =   124.7963   Anisotropy =    30.7448
   XX=   123.4769   YX=    -4.8518   ZX=   -17.4162
   XY=    -3.0861   YY=   124.0757   ZY=     7.1666
   XZ=   -16.5975   YZ=     7.2897   ZZ=   126.8363
   Eigenvalues:   107.8130   121.2831   145.2928
      4  C    Isotropic =   148.1896   Anisotropy =    15.0843
   XX=   140.2523   YX=    -1.8301   ZX=     3.8542
   XY=     9.4224   YY=   152.1763   ZY=    -5.0700
   XZ=    -9.3310   YZ=    -4.7240   ZZ=   152.1402
   Eigenvalues:   139.0027   147.3203   158.2458
      5  C    Isotropic =   114.3858   Anisotropy =    54.2069
   XX=   103.8501   YX=    22.2494   ZX=   -22.0921
   XY=    19.2635   YY=   117.2395   ZY=   -15.0893
   XZ=   -15.5558   YZ=   -12.9724   ZZ=   122.0679
   Eigenvalues:    86.7434   105.8903   150.5238
      6  O    Isotropic =   285.8625   Anisotropy =    75.8559
   XX=   268.3920   YX=    11.6994   ZX=    -9.3829
   XY=    -0.3560   YY=   326.3615   ZY=    27.0984
   XZ=    -1.2976   YZ=    26.7990   ZZ=   262.8339
   Eigenvalues:   250.2460   270.9084   336.4331
      7  N    Isotropic =   206.5863   Anisotropy =    55.5742
   XX=   227.7525   YX=   -22.5413   ZX=    11.1775
   XY=   -30.6721   YY=   187.9607   ZY=    -0.9455
   XZ=     7.0991   YZ=    -7.4910   ZZ=   204.0458
   Eigenvalues:   174.6299   201.4932   243.6358
      8  C    Isotropic =   151.6687   Anisotropy =    48.8116
   XX=   171.1499   YX=   -19.2153   ZX=    -6.3452
   XY=   -20.3103   YY=   140.7390   ZY=    11.7054
   XZ=    -7.2443   YZ=    12.8730   ZZ=   143.1172
   Eigenvalues:   126.4752   144.3212   184.2098
      9  C    Isotropic =    53.6318   Anisotropy =   187.3239
   XX=    37.4864   YX=   -48.8459   ZX=  -101.2660
   XY=   -47.7750   YY=    59.6222   ZY=    31.0209
   XZ=  -101.2584   YZ=    30.7555   ZZ=    63.7868
   Eigenvalues:   -54.0325    36.4134   178.5144
     10  C    Isotropic =    71.7179   Anisotropy =   147.7274
   XX=    97.2401   YX=   -22.9798   ZX=   -54.4239
   XY=   -17.0314   YY=    42.2239   ZY=    66.1925
   XZ=   -58.2005   YZ=    61.0854   ZZ=    75.6897
   Eigenvalues:   -10.9202    55.8711   170.2029
     11  C    Isotropic =    19.0263   Anisotropy =   101.7057
   XX=    30.0719   YX=   -61.1742   ZX=   -14.9949
   XY=   -57.2394   YY=   -29.6311   ZY=    21.1856
   XZ=   -15.1622   YZ=    23.0501   ZZ=    56.6382
   Eigenvalues:   -67.0875    37.3364    86.8301
     12  C    Isotropic =    68.5639   Anisotropy =   139.9782
   XX=    74.3900   YX=   -38.6478   ZX=   -56.8055
   XY=   -39.0718   YY=    53.0036   ZY=    38.4942
   XZ=   -56.8048   YZ=    41.8732   ZZ=    78.2982
   Eigenvalues:    19.5052    24.3038   161.8827
     13  C    Isotropic =    18.4496   Anisotropy =   101.5555
   XX=    49.9272   YX=     6.1553   ZX=   -40.1011
   XY=    -0.2552   YY=    -8.8134   ZY=    61.7458
   XZ=   -31.2252   YZ=    62.1610   ZZ=    14.2351
   Eigenvalues:   -65.9679    35.1634    86.1533
     14  C    Isotropic =    69.8825   Anisotropy =   149.8951
   XX=    83.9067   YX=   -56.1463   ZX=   -45.3345
   XY=   -61.6990   YY=    22.5102   ZY=    36.1549
   XZ=   -42.0665   YZ=    41.6011   ZZ=   103.2307
   Eigenvalues:   -14.4344    54.2694   169.8126
     15  H    Isotropic =    24.4660   Anisotropy =     3.0938
   XX=    24.3877   YX=     1.3284   ZX=     1.9105
   XY=     1.3351   YY=    25.4649   ZY=    -1.7437
   XZ=     1.8812   YZ=    -1.7227   ZZ=    23.5456
   Eigenvalues:    20.9636    25.9060    26.5286
     16  H    Isotropic =    25.1997   Anisotropy =     5.0229
   XX=    26.3068   YX=     1.2463   ZX=     3.1993
   XY=     1.4257   YY=    25.1108   ZY=    -1.0717
   XZ=     2.9072   YZ=    -1.0860   ZZ=    24.1815
   Eigenvalues:    21.2901    25.7606    28.5483
     17  H    Isotropic =    25.0677   Anisotropy =     5.0604
   XX=    26.2326   YX=     1.5226   ZX=     2.9318
   XY=     1.1380   YY=    24.5048   ZY=    -1.3809
   XZ=     2.9297   YZ=    -1.1064   ZZ=    24.4657
   Eigenvalues:    21.2861    25.4756    28.4413
     18  F    Isotropic =   300.9420   Anisotropy =   126.7923
   XX=   305.3208   YX=   -21.1958   ZX=   -66.3407
   XY=   -12.1926   YY=   304.0361   ZY=    40.2336
   XZ=   -66.9945   YZ=    38.7487   ZZ=   293.4692
   Eigenvalues:   227.5917   289.7641   385.4702
     19  F    Isotropic =   300.7005   Anisotropy =   143.8407
   XX=   283.0392   YX=   -38.1706   ZX=   -73.7842
   XY=   -55.1306   YY=   280.8654   ZY=    14.0419
   XZ=   -61.2746   YZ=    14.4068   ZZ=   338.1970
   Eigenvalues:   219.6209   285.8864   396.5943
     20  H    Isotropic =    31.3730   Anisotropy =     7.7559
   XX=    30.3500   YX=     1.9023   ZX=     1.2151
   XY=     2.1690   YY=    27.3407   ZY=    -0.0755
   XZ=     0.4703   YZ=    -0.3236   ZZ=    36.4282
   Eigenvalues:    26.2831    31.2923    36.5436
     21  H    Isotropic =    31.1507   Anisotropy =    11.7339
   XX=    31.2625   YX=     5.2971   ZX=     2.5490
   XY=     4.8754   YY=    34.3244   ZY=     1.7310
   XZ=     2.7225   YZ=     2.0598   ZZ=    27.8651
   Eigenvalues:    26.2621    28.2166    38.9733
     22  H    Isotropic =    31.3474   Anisotropy =     8.3155
   XX=    35.8466   YX=    -2.6638   ZX=     1.2720
   XY=    -2.5738   YY=    30.0668   ZY=     2.5643
   XZ=     1.5435   YZ=     1.8289   ZZ=    28.1289
   Eigenvalues:    25.9801    31.1710    36.8911
     23  H    Isotropic =    30.6545   Anisotropy =     7.3078
   XX=    28.2029   YX=     1.9886   ZX=    -1.1053
   XY=     2.0394   YY=    30.8470   ZY=    -2.6074
   XZ=    -1.7969   YZ=    -2.7889   ZZ=    32.9136
   Eigenvalues:    27.1158    29.3214    35.5264
     24  H    Isotropic =    29.9230   Anisotropy =     7.6996
   XX=    32.9048   YX=    -1.7135   ZX=     0.9542
   XY=    -2.8364   YY=    32.6431   ZY=     0.9715
   XZ=     0.7759   YZ=     0.3071   ZZ=    24.2210
   Eigenvalues:    24.0440    30.6689    35.0560
     25  H    Isotropic =    30.4306   Anisotropy =     4.4717
   XX=    31.8192   YX=    -1.8013   ZX=     2.1138
   XY=    -1.8701   YY=    29.9086   ZY=    -0.1057
   XZ=     0.6855   YZ=    -0.4783   ZZ=    29.5640
   Eigenvalues:    28.4660    29.4141    33.4117
     26  H    Isotropic =    28.7935   Anisotropy =     3.1496
   XX=    28.6064   YX=     1.6576   ZX=    -0.6371
   XY=     0.6178   YY=    26.8977   ZY=    -0.1281
   XZ=     0.7386   YZ=     0.5417   ZZ=    30.8765
   Eigenvalues:    26.3235    29.1638    30.8933
     27  H    Isotropic =    28.7060   Anisotropy =     6.8104
   XX=    26.4570   YX=    -1.1577   ZX=    -3.3185
   XY=     0.0338   YY=    31.3431   ZY=     1.3891
   XZ=    -4.5882   YZ=     2.3729   ZZ=    28.3178
   Eigenvalues:    23.2572    29.6145    33.2462
     28  H    Isotropic =    27.6508   Anisotropy =    22.9428
   XX=    22.9197   YX=    -5.5420   ZX=    -7.1861
   XY=    -4.7494   YY=    36.7668   ZY=     6.1203
   XZ=    -8.9170   YZ=     7.6154   ZZ=    23.2661
   Eigenvalues:    14.9663    25.0402    42.9460
     29  H    Isotropic =    28.1810   Anisotropy =     6.3246
   XX=    28.4046   YX=    -2.3427   ZX=     0.0674
   XY=    -0.1640   YY=    31.3381   ZY=     1.4989
   XZ=     1.0826   YZ=     3.3359   ZZ=    24.8004
   Eigenvalues:    23.8068    28.3388    32.3975
     30  H    Isotropic =    28.4619   Anisotropy =     7.9735
   XX=    28.3966   YX=     0.9345   ZX=    -3.1099
   XY=     0.5392   YY=    24.1807   ZY=     0.9807
   XZ=    -1.4319   YZ=    -0.9993   ZZ=    32.8084
   Eigenvalues:    24.0376    27.5705    33.7775
     31  H    Isotropic =    29.6849   Anisotropy =     5.9881
   XX=    33.6006   YX=     0.7065   ZX=     0.5929
   XY=    -2.1261   YY=    26.7456   ZY=     0.0560
   XZ=    -0.9260   YZ=    -0.6524   ZZ=    28.7087
   Eigenvalues:    26.6256    28.7523    33.6770
     32  C    Isotropic =   172.4468   Anisotropy =    26.4731
   XX=   168.1130   YX=    -0.4985   ZX=   -12.5254
   XY=     1.3626   YY=   170.2664   ZY=    -2.1335
   XZ=   -17.7502   YZ=    -4.7753   ZZ=   178.9610
   Eigenvalues:   157.2467   169.9982   190.0956
     33  H    Isotropic =    31.8803   Anisotropy =     8.1349
   XX=    30.2286   YX=    -0.5516   ZX=     0.2058
   XY=    -1.4067   YY=    28.7061   ZY=    -2.0561
   XZ=     0.4279   YZ=    -2.2991   ZZ=    36.7062
   Eigenvalues:    27.8313    30.5061    37.3036
     34  H    Isotropic =    31.5444   Anisotropy =    11.0277
   XX=    32.4403   YX=    -3.5662   ZX=    -4.3652
   XY=    -3.0439   YY=    31.3870   ZY=     2.2339
   XZ=    -5.2477   YZ=     3.0911   ZZ=    30.8057
   Eigenvalues:    26.7442    28.9927    38.8962
     35  H    Isotropic =    31.1697   Anisotropy =     8.1661
   XX=    33.0151   YX=     3.9035   ZX=    -2.5674
   XY=     3.9957   YY=    30.9937   ZY=     1.6665
   XZ=    -3.7497   YZ=     0.5423   ZZ=    29.5003
   Eigenvalues:    25.6766    31.2187    36.6138
     36  H    Isotropic =    30.7899   Anisotropy =    10.7794
   XX=    33.8581   YX=    -0.0653   ZX=     4.3753
   XY=    -0.4837   YY=    24.5456   ZY=    -2.4518
   XZ=     3.4502   YZ=    -0.9880   ZZ=    33.9659
   Eigenvalues:    24.2206    30.1729    37.9762
 End of Minotr F.D. properties file   721 does not exist.
 End of Minotr F.D. properties file   722 does not exist.
 End of Minotr F.D. properties file   788 does not exist.

 **********************************************************************

            Population analysis using the SCF density.

 **********************************************************************

 Orbital symmetries:
       Occupied  (A) (A) (A) (A) (A) (A) (A) (A) (A) (A) (A) (A)
                 (A) (A) (A) (A) (A) (A) (A) (A) (A) (A) (A) (A)
                 (A) (A) (A) (A) (A) (A) (A) (A) (A) (A) (A) (A)
                 (A) (A) (A) (A) (A) (A) (A) (A) (A) (A) (A) (A)
                 (A) (A) (A) (A) (A) (A) (A) (A) (A) (A) (A) (A)
                 (A) (A) (A) (A) (A)
       Virtual   (A) (A) (A) (A) (A) (A) (A) (A) (A) (A) (A) (A)
                 (A) (A) (A) (A) (A) (A) (A) (A) (A) (A) (A) (A)
                 (A) (A) (A) (A) (A) (A) (A) (A) (A) (A) (A) (A)
                 (A) (A) (A) (A) (A) (A) (A) (A) (A) (A) (A) (A)
                 (A) (A) (A) (A) (A) (A) (A) (A) (A) (A) (A) (A)
                 (A) (A) (A) (A) (A) (A) (A) (A) (A) (A) (A) (A)
                 (A) (A) (A) (A) (A) (A) (A) (A) (A) (A) (A) (A)
                 (A) (A) (A) (A) (A) (A) (A) (A) (A) (A) (A) (A)
                 (A) (A) (A) (A) (A) (A) (A) (A) (A) (A) (A) (A)
                 (A) (A) (A) (A) (A) (A) (A) (A) (A) (A) (A) (A)
                 (A) (A) (A) (A) (A) (A) (A) (A) (A) (A) (A) (A)
                 (A) (A) (A) (A) (A) (A) (A) (A) (A) (A) (A) (A)
                 (A) (A) (A) (A) (A) (A) (A) (A) (A) (A) (A) (A)
                 (A) (A) (A) (A) (A) (A) (A) (A) (A) (A) (A) (A)
                 (A) (A) (A) (A) (A) (A) (A) (A) (A) (A) (A) (A)
                 (A) (A) (A) (A) (A) (A) (A) (A) (A) (A) (A) (A)
                 (A) (A) (A) (A) (A) (A) (A) (A) (A) (A) (A) (A)
                 (A) (A) (A) (A) (A) (A) (A) (A) (A) (A) (A) (A)
                 (A) (A) (A) (A) (A) (A) (A) (A) (A) (A) (A) (A)
                 (A) (A) (A) (A) (A) (A) (A) (A) (A) (A) (A) (A)
                 (A) (A) (A) (A) (A) (A) (A) (A) (A) (A) (A) (A)
                 (A) (A) (A) (A) (A) (A) (A) (A) (A) (A) (A) (A)
                 (A) (A) (A) (A) (A) (A) (A) (A) (A) (A) (A) (A)
                 (A) (A) (A) (A) (A) (A) (A) (A) (A) (A) (A) (A)
                 (A) (A) (A) (A) (A) (A) (A) (A) (A) (A)
 The electronic state is 1-A.
 Alpha  occ. eigenvalues --  -24.80585 -24.80389 -19.17370 -14.39609 -10.33960
 Alpha  occ. eigenvalues --  -10.33910 -10.27408 -10.26836 -10.26619 -10.26161
 Alpha  occ. eigenvalues --  -10.26120 -10.25303 -10.25258 -10.23614 -10.22852
 Alpha  occ. eigenvalues --  -10.22207 -10.22007  -1.27841  -1.27597  -1.02167
 Alpha  occ. eigenvalues --   -0.95089  -0.90628  -0.83241  -0.80500  -0.78727
 Alpha  occ. eigenvalues --   -0.78260  -0.72374  -0.68735  -0.68173  -0.66120
 Alpha  occ. eigenvalues --   -0.64234  -0.61979  -0.59100  -0.58125  -0.56001
 Alpha  occ. eigenvalues --   -0.52566  -0.52047  -0.51750  -0.51016  -0.50032
 Alpha  occ. eigenvalues --   -0.49600  -0.48794  -0.47056  -0.46814  -0.45297
 Alpha  occ. eigenvalues --   -0.44414  -0.43815  -0.42788  -0.41939  -0.41614
 Alpha  occ. eigenvalues --   -0.41245  -0.39710  -0.39271  -0.38209  -0.37863
 Alpha  occ. eigenvalues --   -0.36928  -0.36535  -0.35917  -0.34985  -0.33187
 Alpha  occ. eigenvalues --   -0.32589  -0.27782  -0.26866  -0.26353  -0.24773
 Alpha virt. eigenvalues --   -0.02339  -0.01025   0.04769   0.05803   0.06184
 Alpha virt. eigenvalues --    0.07314   0.08247   0.10138   0.10285   0.10847
 Alpha virt. eigenvalues --    0.11271   0.11380   0.12372   0.13081   0.13290
 Alpha virt. eigenvalues --    0.14069   0.14345   0.14929   0.15892   0.16495
 Alpha virt. eigenvalues --    0.17379   0.18102   0.18478   0.19468   0.20857
 Alpha virt. eigenvalues --    0.21425   0.21468   0.24076   0.24204   0.24450
 Alpha virt. eigenvalues --    0.24849   0.25606   0.26614   0.27738   0.29300
 Alpha virt. eigenvalues --    0.32320   0.32700   0.33612   0.35119   0.35262
 Alpha virt. eigenvalues --    0.36581   0.37356   0.37681   0.38437   0.39153
 Alpha virt. eigenvalues --    0.39673   0.40729   0.41333   0.41777   0.42477
 Alpha virt. eigenvalues --    0.42678   0.43498   0.44905   0.45767   0.46316
 Alpha virt. eigenvalues --    0.47792   0.48385   0.50064   0.50774   0.51493
 Alpha virt. eigenvalues --    0.52861   0.53274   0.53821   0.54530   0.55963
 Alpha virt. eigenvalues --    0.56432   0.57125   0.57982   0.58828   0.59278
 Alpha virt. eigenvalues --    0.60148   0.60866   0.61273   0.61480   0.61578
 Alpha virt. eigenvalues --    0.62275   0.62707   0.62928   0.64055   0.64359
 Alpha virt. eigenvalues --    0.65081   0.65200   0.66089   0.66939   0.67020
 Alpha virt. eigenvalues --    0.68012   0.68664   0.70252   0.71005   0.71404
 Alpha virt. eigenvalues --    0.72108   0.73996   0.74708   0.76248   0.77871
 Alpha virt. eigenvalues --    0.79170   0.79849   0.82521   0.83313   0.85463
 Alpha virt. eigenvalues --    0.88410   0.89579   0.91814   0.93329   0.94174
 Alpha virt. eigenvalues --    0.95167   0.95581   0.97500   0.99344   1.00469
 Alpha virt. eigenvalues --    1.03045   1.03611   1.04428   1.07048   1.07426
 Alpha virt. eigenvalues --    1.09507   1.11195   1.12951   1.13648   1.15241
 Alpha virt. eigenvalues --    1.17585   1.18932   1.19801   1.20032   1.23333
 Alpha virt. eigenvalues --    1.25544   1.27713   1.27968   1.28867   1.31600
 Alpha virt. eigenvalues --    1.33436   1.35323   1.38483   1.39426   1.41499
 Alpha virt. eigenvalues --    1.44936   1.46625   1.47249   1.49744   1.50426
 Alpha virt. eigenvalues --    1.52153   1.53626   1.54160   1.54331   1.55404
 Alpha virt. eigenvalues --    1.56625   1.57235   1.59084   1.59773   1.61036
 Alpha virt. eigenvalues --    1.62023   1.62568   1.65184   1.65745   1.66980
 Alpha virt. eigenvalues --    1.68030   1.68697   1.70161   1.72259   1.73787
 Alpha virt. eigenvalues --    1.74317   1.76356   1.77709   1.79447   1.82601
 Alpha virt. eigenvalues --    1.84160   1.85454   1.86522   1.88898   1.89679
 Alpha virt. eigenvalues --    1.90377   1.91191   1.91528   1.95501   1.95961
 Alpha virt. eigenvalues --    1.97158   1.97756   1.98908   1.99939   2.04096
 Alpha virt. eigenvalues --    2.10227   2.11562   2.13548   2.17322   2.18710
 Alpha virt. eigenvalues --    2.24493   2.25240   2.26002   2.27308   2.27972
 Alpha virt. eigenvalues --    2.29947   2.31393   2.35630   2.39183   2.40427
 Alpha virt. eigenvalues --    2.41625   2.42543   2.43902   2.46473   2.47859
 Alpha virt. eigenvalues --    2.49009   2.51219   2.52221   2.53282   2.54598
 Alpha virt. eigenvalues --    2.56733   2.57371   2.57814   2.61405   2.65814
 Alpha virt. eigenvalues --    2.67676   2.68894   2.70646   2.71437   2.72867
 Alpha virt. eigenvalues --    2.76789   2.82268   2.84752   2.86313   2.91030
 Alpha virt. eigenvalues --    2.92361   2.93572   2.97499   2.99426   3.05119
 Alpha virt. eigenvalues --    3.07155   3.07437   3.08938   3.10416   3.12000
 Alpha virt. eigenvalues --    3.12851   3.16642   3.17371   3.21403   3.21674
 Alpha virt. eigenvalues --    3.23563   3.25888   3.27984   3.28621   3.29063
 Alpha virt. eigenvalues --    3.31272   3.32829   3.35398   3.38751   3.39564
 Alpha virt. eigenvalues --    3.44709   3.48065   3.50653   3.60113   3.64294
 Alpha virt. eigenvalues --    3.75334   3.79463   3.79893   3.79899   3.81089
 Alpha virt. eigenvalues --    3.86768   3.90047   3.96031   3.96741   3.99819
 Alpha virt. eigenvalues --    4.00321   4.06094   4.08451   4.10600   4.12685
 Alpha virt. eigenvalues --    4.18377   4.21585   4.47883   4.75269   4.76980
 Alpha virt. eigenvalues --    4.78685   4.80774   4.95263   5.08105   5.47359
 Alpha virt. eigenvalues --    6.13832   6.16318   6.31765   6.33341   6.56863
 Alpha virt. eigenvalues --    6.59866  23.29738  23.47206  23.58756  23.69315
 Alpha virt. eigenvalues --   23.73858  23.78984  23.82478  23.84046  23.86947
 Alpha virt. eigenvalues --   23.89982  24.08715  24.10931  24.19323  35.57500
 Alpha virt. eigenvalues --   50.01437  66.89960  66.90393
          Condensed to atoms (all electrons):
               1          2          3          4          5          6
     1  C    5.384870   0.274224  -0.072296  -0.002524  -0.000197  -0.000046
     2  C    0.274224   5.400380   0.321483  -0.075474   0.006535  -0.000083
     3  C   -0.072296   0.321483   5.357909   0.301683  -0.069881   0.001000
     4  C   -0.002524  -0.075474   0.301683   5.420233   0.338166  -0.055378
     5  C   -0.000197   0.006535  -0.069881   0.338166   5.064777   0.252207
     6  O   -0.000046  -0.000083   0.001000  -0.055378   0.252207   8.250321
     7  N   -0.001569  -0.072367   0.250617  -0.070375   0.008754  -0.036628
     8  C   -0.000632  -0.002524  -0.090918   0.010043  -0.000925   0.000530
     9  C    0.000000  -0.000002   0.000033   0.000004  -0.000015  -0.000009
    10  C    0.000000   0.000005  -0.000379   0.000001  -0.000010   0.000005
    11  C   -0.000021  -0.000219  -0.001463   0.000395  -0.000131  -0.000007
    12  C    0.000133  -0.001259  -0.009449  -0.000608   0.000964   0.000077
    13  C    0.000003   0.000009   0.000896  -0.000386   0.001000   0.001533
    14  C    0.000000   0.000005  -0.000054  -0.000022   0.000089   0.000065
    15  H    0.000000   0.000000   0.000000   0.000000   0.000000   0.000000
    16  H    0.000000   0.000002  -0.000002  -0.000001   0.000000   0.000000
    17  H    0.000000   0.000000   0.000003  -0.000001   0.000007   0.000026
    18  F    0.000036  -0.001016   0.001032   0.000043  -0.000001   0.000000
    19  F    0.000000   0.000000  -0.000074   0.000013  -0.000255  -0.000424
    20  H    0.382663  -0.045001  -0.003913  -0.000487  -0.000101  -0.000017
    21  H    0.393454  -0.035325   0.007337  -0.000153   0.000009   0.000000
    22  H    0.386778  -0.038514  -0.006462   0.004562   0.000358  -0.000069
    23  H   -0.041429   0.392272  -0.035430  -0.007318  -0.000111   0.000021
    24  H   -0.045777   0.404751  -0.041985   0.007531  -0.000176   0.000014
    25  H    0.002636  -0.004858  -0.062539   0.392287  -0.049360   0.012015
    26  H   -0.000042   0.000120  -0.015949  -0.045251   0.371941  -0.040505
    27  H    0.000014  -0.000307   0.009113  -0.037506   0.392994  -0.029636
    28  H   -0.000066   0.001739  -0.000261  -0.004451  -0.060397   0.258020
    29  H    0.000496   0.005861  -0.006740  -0.000765   0.000047  -0.000169
    30  H   -0.000087  -0.000310   0.006947  -0.000245   0.000044   0.000116
    31  H    0.008034  -0.055341   0.399587  -0.038541  -0.007079   0.000380
    32  C   -0.003999   0.000176  -0.078209   0.286507  -0.075207   0.005473
    33  H    0.000311  -0.001627  -0.005955  -0.039556  -0.004074  -0.000087
    34  H   -0.000059  -0.000094   0.008408  -0.038614  -0.005979   0.000060
    35  H    0.000618  -0.000211  -0.006039  -0.028790   0.006324  -0.000241
    36  H    0.006214  -0.007843  -0.050950  -0.004344   0.000107   0.003409
               7          8          9         10         11         12
     1  C   -0.001569  -0.000632   0.000000   0.000000  -0.000021   0.000133
     2  C   -0.072367  -0.002524  -0.000002   0.000005  -0.000219  -0.001259
     3  C    0.250617  -0.090918   0.000033  -0.000379  -0.001463  -0.009449
     4  C   -0.070375   0.010043   0.000004   0.000001   0.000395  -0.000608
     5  C    0.008754  -0.000925  -0.000015  -0.000010  -0.000131   0.000964
     6  O   -0.036628   0.000530  -0.000009   0.000005  -0.000007   0.000077
     7  N    7.037107   0.272262   0.000045  -0.000215  -0.001473  -0.073744
     8  C    0.272262   5.316823  -0.001263   0.009414  -0.082530   0.263830
     9  C    0.000045  -0.001263   5.064454   0.425858   0.001424  -0.059822
    10  C   -0.000215   0.009414   0.425858   5.211827   0.465022  -0.029475
    11  C   -0.001473  -0.082530   0.001424   0.465022   4.755059   0.284471
    12  C   -0.073744   0.263830  -0.059822  -0.029475   0.284471   5.806498
    13  C    0.005236  -0.076602  -0.001719  -0.064480   0.049653   0.245162
    14  C   -0.000191   0.008131   0.426345  -0.030315  -0.069605  -0.030313
    15  H   -0.000001   0.000032   0.405705  -0.041115   0.006165  -0.002117
    16  H    0.000008  -0.000296  -0.041348   0.392885  -0.049225   0.012230
    17  H    0.000016  -0.000308  -0.041284   0.007250  -0.001455   0.012432
    18  F   -0.000273  -0.004766   0.005666  -0.056851   0.310462  -0.075916
    19  F   -0.001352   0.004343   0.005643  -0.000624   0.005033  -0.082480
    20  H    0.004653   0.000988   0.000000   0.000000   0.000019   0.000108
    21  H    0.000005  -0.000087   0.000000   0.000000   0.000000   0.000006
    22  H    0.000041   0.000055   0.000000   0.000000   0.000001  -0.000007
    23  H    0.005579   0.000260   0.000000   0.000000   0.000105   0.000057
    24  H   -0.004041   0.002872  -0.000010   0.000110   0.000131  -0.001720
    25  H    0.001160  -0.000569   0.000001  -0.000002  -0.000003   0.000061
    26  H    0.000907  -0.000278   0.000122  -0.000052   0.000201   0.000632
    27  H   -0.000475   0.000045  -0.000001   0.000000   0.000002   0.000008
    28  H    0.054672  -0.000957  -0.000037   0.000046  -0.000419  -0.008039
    29  H   -0.043284   0.411153  -0.000176   0.000624  -0.015766  -0.063466
    30  H   -0.030865   0.397572  -0.000131  -0.000078   0.005833  -0.037800
    31  H   -0.031566  -0.011995  -0.000011  -0.000709  -0.002692   0.001843
    32  C    0.005000  -0.000327   0.000000  -0.000001   0.000000   0.000024
    33  H    0.000028  -0.000018   0.000000   0.000002   0.000004   0.000013
    34  H   -0.000214   0.000019   0.000000   0.000000   0.000000  -0.000002
    35  H   -0.000146  -0.000017   0.000000   0.000000   0.000000   0.000002
    36  H    0.333208  -0.047094   0.000001   0.000019  -0.000206   0.011397
              13         14         15         16         17         18
     1  C    0.000003   0.000000   0.000000   0.000000   0.000000   0.000036
     2  C    0.000009   0.000005   0.000000   0.000002   0.000000  -0.001016
     3  C    0.000896  -0.000054   0.000000  -0.000002   0.000003   0.001032
     4  C   -0.000386  -0.000022   0.000000  -0.000001  -0.000001   0.000043
     5  C    0.001000   0.000089   0.000000   0.000000   0.000007  -0.000001
     6  O    0.001533   0.000065   0.000000   0.000000   0.000026   0.000000
     7  N    0.005236  -0.000191  -0.000001   0.000008   0.000016  -0.000273
     8  C   -0.076602   0.008131   0.000032  -0.000296  -0.000308  -0.004766
     9  C   -0.001719   0.426345   0.405705  -0.041348  -0.041284   0.005666
    10  C   -0.064480  -0.030315  -0.041115   0.392885   0.007250  -0.056851
    11  C    0.049653  -0.069605   0.006165  -0.049225  -0.001455   0.310462
    12  C    0.245162  -0.030313  -0.002117   0.012230   0.012432  -0.075916
    13  C    4.741553   0.473282   0.006488  -0.001455  -0.049887   0.005050
    14  C    0.473282   5.203978  -0.041685   0.007265   0.392769  -0.000566
    15  H    0.006488  -0.041685   0.445312  -0.006619  -0.006718  -0.000070
    16  H   -0.001455   0.007265  -0.006619   0.450334  -0.000171   0.001193
    17  H   -0.049887   0.392769  -0.006718  -0.000171   0.448843   0.000004
    18  F    0.005050  -0.000566  -0.000070   0.001193   0.000004   9.036573
    19  F    0.312853  -0.056030  -0.000070   0.000004   0.001445  -0.000001
    20  H   -0.000003   0.000000   0.000000   0.000000   0.000000  -0.000006
    21  H    0.000000   0.000000   0.000000   0.000000   0.000000  -0.000002
    22  H    0.000000   0.000000   0.000000   0.000000   0.000000   0.000000
    23  H   -0.000001   0.000000   0.000000   0.000000   0.000000  -0.000104
    24  H   -0.000085   0.000004   0.000000   0.000001   0.000000   0.004712
    25  H   -0.000047  -0.000002   0.000000   0.000000   0.000000   0.000000
    26  H   -0.000169  -0.000038   0.000002  -0.000002  -0.000016  -0.000017
    27  H    0.000023   0.000003   0.000000   0.000000   0.000000   0.000000
    28  H   -0.000457  -0.000189   0.000002   0.000000   0.000002  -0.000003
    29  H    0.007601   0.000039   0.000001  -0.000041   0.000013   0.006762
    30  H   -0.012586   0.000603   0.000002   0.000014  -0.000030   0.000158
    31  H    0.000450  -0.000046   0.000004  -0.000010  -0.000004   0.004419
    32  C    0.000005   0.000000   0.000000   0.000000   0.000000  -0.000001
    33  H   -0.000003  -0.000001   0.000000   0.000000   0.000000  -0.000010
    34  H    0.000000   0.000000   0.000000   0.000000   0.000000   0.000000
    35  H    0.000000   0.000000   0.000000   0.000000   0.000000   0.000000
    36  H   -0.000138   0.000011   0.000000  -0.000001  -0.000001  -0.000033
              19         20         21         22         23         24
     1  C    0.000000   0.382663   0.393454   0.386778  -0.041429  -0.045777
     2  C    0.000000  -0.045001  -0.035325  -0.038514   0.392272   0.404751
     3  C   -0.000074  -0.003913   0.007337  -0.006462  -0.035430  -0.041985
     4  C    0.000013  -0.000487  -0.000153   0.004562  -0.007318   0.007531
     5  C   -0.000255  -0.000101   0.000009   0.000358  -0.000111  -0.000176
     6  O   -0.000424  -0.000017   0.000000  -0.000069   0.000021   0.000014
     7  N   -0.001352   0.004653   0.000005   0.000041   0.005579  -0.004041
     8  C    0.004343   0.000988  -0.000087   0.000055   0.000260   0.002872
     9  C    0.005643   0.000000   0.000000   0.000000   0.000000  -0.000010
    10  C   -0.000624   0.000000   0.000000   0.000000   0.000000   0.000110
    11  C    0.005033   0.000019   0.000000   0.000001   0.000105   0.000131
    12  C   -0.082480   0.000108   0.000006  -0.000007   0.000057  -0.001720
    13  C    0.312853  -0.000003   0.000000   0.000000  -0.000001  -0.000085
    14  C   -0.056030   0.000000   0.000000   0.000000   0.000000   0.000004
    15  H   -0.000070   0.000000   0.000000   0.000000   0.000000   0.000000
    16  H    0.000004   0.000000   0.000000   0.000000   0.000000   0.000001
    17  H    0.001445   0.000000   0.000000   0.000000   0.000000   0.000000
    18  F   -0.000001  -0.000006  -0.000002   0.000000  -0.000104   0.004712
    19  F    9.028340   0.000001   0.000000   0.000000   0.000000   0.000000
    20  H    0.000001   0.493898  -0.027031  -0.027182   0.008172  -0.005854
    21  H    0.000000  -0.027031   0.464786  -0.027056  -0.005220  -0.004848
    22  H    0.000000  -0.027182  -0.027056   0.472271  -0.005004   0.006804
    23  H    0.000000   0.008172  -0.005220  -0.005004   0.484295  -0.031956
    24  H    0.000000  -0.005854  -0.004848   0.006804  -0.031956   0.480160
    25  H    0.000002  -0.000812   0.000164  -0.001713  -0.000229  -0.000300
    26  H   -0.000013  -0.000012   0.000002  -0.000061  -0.000036  -0.000022
    27  H   -0.000005   0.000008  -0.000001   0.000051   0.000015   0.000013
    28  H    0.009544  -0.000127   0.000004  -0.000018  -0.000106  -0.000053
    29  H    0.000133  -0.000901   0.000036  -0.000078  -0.000630   0.000484
    30  H    0.006444   0.000124  -0.000003   0.000012   0.000024   0.000190
    31  H    0.000054  -0.000131  -0.000193  -0.000249  -0.002532  -0.005490
    32  C    0.000000   0.000093  -0.000028  -0.000637   0.001448   0.000104
    33  H    0.000000  -0.000015   0.000015  -0.000120   0.000201  -0.000218
    34  H    0.000000   0.000026  -0.000007   0.000058   0.000457   0.000011
    35  H    0.000000  -0.000041  -0.000032   0.002748  -0.001474   0.000357
    36  H   -0.000362   0.003943   0.000028  -0.000510   0.000145  -0.000587
              25         26         27         28         29         30
     1  C    0.002636  -0.000042   0.000014  -0.000066   0.000496  -0.000087
     2  C   -0.004858   0.000120  -0.000307   0.001739   0.005861  -0.000310
     3  C   -0.062539  -0.015949   0.009113  -0.000261  -0.006740   0.006947
     4  C    0.392287  -0.045251  -0.037506  -0.004451  -0.000765  -0.000245
     5  C   -0.049360   0.371941   0.392994  -0.060397   0.000047   0.000044
     6  O    0.012015  -0.040505  -0.029636   0.258020  -0.000169   0.000116
     7  N    0.001160   0.000907  -0.000475   0.054672  -0.043284  -0.030865
     8  C   -0.000569  -0.000278   0.000045  -0.000957   0.411153   0.397572
     9  C    0.000001   0.000122  -0.000001  -0.000037  -0.000176  -0.000131
    10  C   -0.000002  -0.000052   0.000000   0.000046   0.000624  -0.000078
    11  C   -0.000003   0.000201   0.000002  -0.000419  -0.015766   0.005833
    12  C    0.000061   0.000632   0.000008  -0.008039  -0.063466  -0.037800
    13  C   -0.000047  -0.000169   0.000023  -0.000457   0.007601  -0.012586
    14  C   -0.000002  -0.000038   0.000003  -0.000189   0.000039   0.000603
    15  H    0.000000   0.000002   0.000000   0.000002   0.000001   0.000002
    16  H    0.000000  -0.000002   0.000000   0.000000  -0.000041   0.000014
    17  H    0.000000  -0.000016   0.000000   0.000002   0.000013  -0.000030
    18  F    0.000000  -0.000017   0.000000  -0.000003   0.006762   0.000158
    19  F    0.000002  -0.000013  -0.000005   0.009544   0.000133   0.006444
    20  H   -0.000812  -0.000012   0.000008  -0.000127  -0.000901   0.000124
    21  H    0.000164   0.000002  -0.000001   0.000004   0.000036  -0.000003
    22  H   -0.001713  -0.000061   0.000051  -0.000018  -0.000078   0.000012
    23  H   -0.000229  -0.000036   0.000015  -0.000106  -0.000630   0.000024
    24  H   -0.000300  -0.000022   0.000013  -0.000053   0.000484   0.000190
    25  H    0.518243   0.011656  -0.009794  -0.000023   0.000038   0.000009
    26  H    0.011656   0.559846  -0.045846  -0.001224   0.000017   0.000020
    27  H   -0.009794  -0.045846   0.502978   0.004783  -0.000003   0.000000
    28  H   -0.000023  -0.001224   0.004783   0.341315   0.001152  -0.001428
    29  H    0.000038   0.000017  -0.000003   0.001152   0.482435  -0.033263
    30  H    0.000009   0.000020   0.000000  -0.001428  -0.033263   0.451279
    31  H    0.007018   0.004694  -0.000223  -0.000180  -0.000829  -0.000083
    32  C   -0.035906   0.001266  -0.005286  -0.001114   0.000010   0.000011
    33  H    0.008186   0.004370  -0.001152   0.000037   0.000004   0.000001
    34  H   -0.005294  -0.001078   0.006629  -0.000107  -0.000002   0.000000
    35  H   -0.007604  -0.000560   0.000068   0.000079   0.000001   0.000000
    36  H    0.003422   0.000310  -0.000033  -0.003456  -0.000746  -0.005985
              31         32         33         34         35         36
     1  C    0.008034  -0.003999   0.000311  -0.000059   0.000618   0.006214
     2  C   -0.055341   0.000176  -0.001627  -0.000094  -0.000211  -0.007843
     3  C    0.399587  -0.078209  -0.005955   0.008408  -0.006039  -0.050950
     4  C   -0.038541   0.286507  -0.039556  -0.038614  -0.028790  -0.004344
     5  C   -0.007079  -0.075207  -0.004074  -0.005979   0.006324   0.000107
     6  O    0.000380   0.005473  -0.000087   0.000060  -0.000241   0.003409
     7  N   -0.031566   0.005000   0.000028  -0.000214  -0.000146   0.333208
     8  C   -0.011995  -0.000327  -0.000018   0.000019  -0.000017  -0.047094
     9  C   -0.000011   0.000000   0.000000   0.000000   0.000000   0.000001
    10  C   -0.000709  -0.000001   0.000002   0.000000   0.000000   0.000019
    11  C   -0.002692   0.000000   0.000004   0.000000   0.000000  -0.000206
    12  C    0.001843   0.000024   0.000013  -0.000002   0.000002   0.011397
    13  C    0.000450   0.000005  -0.000003   0.000000   0.000000  -0.000138
    14  C   -0.000046   0.000000  -0.000001   0.000000   0.000000   0.000011
    15  H    0.000004   0.000000   0.000000   0.000000   0.000000   0.000000
    16  H   -0.000010   0.000000   0.000000   0.000000   0.000000  -0.000001
    17  H   -0.000004   0.000000   0.000000   0.000000   0.000000  -0.000001
    18  F    0.004419  -0.000001  -0.000010   0.000000   0.000000  -0.000033
    19  F    0.000054   0.000000   0.000000   0.000000   0.000000  -0.000362
    20  H   -0.000131   0.000093  -0.000015   0.000026  -0.000041   0.003943
    21  H   -0.000193  -0.000028   0.000015  -0.000007  -0.000032   0.000028
    22  H   -0.000249  -0.000637  -0.000120   0.000058   0.002748  -0.000510
    23  H   -0.002532   0.001448   0.000201   0.000457  -0.001474   0.000145
    24  H   -0.005490   0.000104  -0.000218   0.000011   0.000357  -0.000587
    25  H    0.007018  -0.035906   0.008186  -0.005294  -0.007604   0.003422
    26  H    0.004694   0.001266   0.004370  -0.001078  -0.000560   0.000310
    27  H   -0.000223  -0.005286  -0.001152   0.006629   0.000068  -0.000033
    28  H   -0.000180  -0.001114   0.000037  -0.000107   0.000079  -0.003456
    29  H   -0.000829   0.000010   0.000004  -0.000002   0.000001  -0.000746
    30  H   -0.000083   0.000011   0.000001   0.000000   0.000000  -0.005985
    31  H    0.469631  -0.001841   0.005097  -0.000324  -0.000463   0.006590
    32  C   -0.001841   5.420346   0.381714   0.391568   0.382415   0.000327
    33  H    0.005097   0.381714   0.481610  -0.027575  -0.026852   0.000021
    34  H   -0.000324   0.391568  -0.027575   0.468137  -0.027523   0.000007
    35  H   -0.000463   0.382415  -0.026852  -0.027523   0.470290  -0.000061
    36  H    0.006590   0.000327   0.000021   0.000007  -0.000061   0.408013
 Mulliken charges:
               1
     1  C   -0.671743
     2  C   -0.465188
     3  C   -0.107101
     4  C   -0.310681
     5  C   -0.170424
     6  O   -0.621974
     7  N   -0.610519
     8  C   -0.376267
     9  C   -0.189477
    10  C   -0.288761
    11  C    0.341231
    12  C   -0.163731
    13  C    0.357223
    14  C   -0.283531
    15  H    0.234680
    16  H    0.235236
    17  H    0.237068
    18  F   -0.236472
    19  F   -0.232161
    20  H    0.216939
    21  H    0.234140
    22  H    0.233941
    23  H    0.238531
    24  H    0.234873
    25  H    0.222158
    26  H    0.195065
    27  H    0.213519
    28  H    0.411718
    29  H    0.249948
    30  H    0.253490
    31  H    0.252731
    32  C   -0.673933
    33  H    0.225649
    34  H    0.231492
    35  H    0.237153
    36  H    0.345179
 Sum of Mulliken charges =   0.00000
 Mulliken charges with hydrogens summed into heavy atoms:
               1
     1  C    0.013276
     2  C    0.008217
     3  C    0.145630
     4  C   -0.088523
     5  C    0.238159
     6  O   -0.210256
     7  N   -0.265340
     8  C    0.127171
     9  C    0.045203
    10  C   -0.053525
    11  C    0.341231
    12  C   -0.163731
    13  C    0.357223
    14  C   -0.046463
    18  F   -0.236472
    19  F   -0.232161
    32  C    0.020361
 Electronic spatial extent (au):  <R**2>=           4364.3050
 Charge=              0.0000 electrons
 Dipole moment (field-independent basis, Debye):
    X=              0.8280    Y=             -3.7456    Z=              0.7192  Tot=              3.9028
 Quadrupole moment (field-independent basis, Debye-Ang):
   XX=            -89.5729   YY=           -115.6537   ZZ=            -96.1826
   XY=              5.2622   XZ=              5.5446   YZ=              3.8163
 Traceless Quadrupole moment (field-independent basis, Debye-Ang):
   XX=             10.8968   YY=            -15.1840   ZZ=              4.2872
   XY=              5.2622   XZ=              5.5446   YZ=              3.8163
 Octapole moment (field-independent basis, Debye-Ang**2):
  XXX=             41.5555  YYY=            -32.3831  ZZZ=            -17.7916  XYY=             14.9696
  XXY=              8.5230  XXZ=             25.4078  XZZ=              7.5075  YZZ=             -3.8067
  YYZ=              7.0681  XYZ=             -7.0361
 Hexadecapole moment (field-independent basis, Debye-Ang**3):
 XXXX=          -3399.6620 YYYY=          -1469.0509 ZZZZ=           -781.2098 XXXY=             43.9917
 XXXZ=             95.5696 YYYX=             50.9789 YYYZ=             -1.2965 ZZZX=             16.8145
 ZZZY=            -36.9671 XXYY=           -787.4081 XXZZ=           -695.7956 YYZZ=           -349.6682
 XXYZ=             -7.2584 YYXZ=             -7.3501 ZZXY=            -26.8234
 N-N= 1.311322912746D+03 E-N=-4.580547687680D+03  KE= 8.333260638083D+02
 1\1\GINC-CPU-E-804\SP\RmPW1PW91\6-311G(d)\C13H19F2N1O1\AH809\04-Mar-20
 19\0\\# mPW1PW91/6-311g(d) nmr=giao scrf=(solvent=chloroform)\\AT3_1gi
 np006\\0,1\C,0,-1.607827,-0.81264,2.255697\C,0,-0.184175,-0.431896,2.6
 42203\C,0,0.189227,1.057255,2.436496\C,0,-0.687759,2.047277,3.274299\C
 ,0,-0.190598,3.502786,3.141359\O,0,-0.417242,4.015277,1.835012\N,0,0.1
 24855,1.459943,1.014958\C,0,1.187256,0.910085,0.16485\C,0,5.040375,2.7
 23224,0.887517\C,0,4.77152,1.437829,1.354701\C,0,3.526409,0.858328,1.1
 12617\C,0,2.529647,1.535255,0.40838\C,0,2.820888,2.819865,-0.054137\C,
 0,4.059772,3.415765,0.179278\H,0,6.007524,3.18301,1.073702\H,0,5.52201
 9,0.88192,1.908708\H,0,4.24799,4.417987,-0.194423\F,0,3.292799,-0.3771
 41,1.579098\F,0,1.902279,3.504042,-0.750942\H,0,-1.794304,-0.653199,1.
 189972\H,0,-1.774997,-1.87518,2.461736\H,0,-2.348191,-0.246742,2.82761
 2\H,0,-0.020852,-0.706262,3.690912\H,0,0.507269,-1.0699,2.07975\H,0,-1
 .717881,2.011343,2.895549\H,0,0.87945,3.578899,3.363437\H,0,-0.723561,
 4.159692,3.836432\H,0,-0.080914,3.325771,1.22085\H,0,1.239087,-0.18175
 7,0.231702\H,0,0.915274,1.109696,-0.87997\H,0,1.217554,1.182504,2.7977
 4\C,0,-0.708759,1.681552,4.763606\H,0,0.306261,1.618341,5.169983\H,0,-
 1.257721,2.432653,5.34224\H,0,-1.209973,0.724889,4.936506\H,0,-0.77767
 2,1.180092,0.627963\\Version=ES64L-G09RevD.01\State=1-A\HF=-836.466388
 \RMSD=7.222e-09\Dipole=0.7990815,-1.3009234,0.1636609\Quadrupole=6.402
 9291,-7.1673104,0.7643813,9.6966835,-0.318017,1.1680606\PG=C01 [X(C13H
 19F2N1O1)]\\@


      SCIENCE SANS CONSCIENCE N'EST QUE RUINE DE L'AME.

                                                  -- RABELAIS
 Job cpu time:       0 days  0 hours 17 minutes 51.5 seconds.
 File lengths (MBytes):  RWF=    177 Int=      0 D2E=      0 Chk=     10 Scr=      1
 Normal termination of Gaussian 09 at Mon Mar  4 11:29:49 2019.
