 Entering Gaussian System, Link 0=/usr/local/Cluster-Apps/gaussian/g09/g09
 Initial command:
 /usr/local/Cluster-Apps/gaussian/g09/l1.exe "/home/ah809/rds/hpc-work/04Mar1111AT3/Gau-126807.inp" -scrdir="/home/ah809/rds/hpc-work/04Mar1111AT3/"
 Entering Link 1 = /usr/local/Cluster-Apps/gaussian/g09/l1.exe PID=    126812.
  
 Copyright (c) 1988,1990,1992,1993,1995,1998,2003,2009,2013,
            Gaussian, Inc.  All Rights Reserved.
  
 This is part of the Gaussian(R) 09 program.  It is based on
 the Gaussian(R) 03 system (copyright 2003, Gaussian, Inc.),
 the Gaussian(R) 98 system (copyright 1998, Gaussian, Inc.),
 the Gaussian(R) 94 system (copyright 1995, Gaussian, Inc.),
 the Gaussian 92(TM) system (copyright 1992, Gaussian, Inc.),
 the Gaussian 90(TM) system (copyright 1990, Gaussian, Inc.),
 the Gaussian 88(TM) system (copyright 1988, Gaussian, Inc.),
 the Gaussian 86(TM) system (copyright 1986, Carnegie Mellon
 University), and the Gaussian 82(TM) system (copyright 1983,
 Carnegie Mellon University). Gaussian is a federally registered
 trademark of Gaussian, Inc.
  
 This software contains proprietary and confidential information,
 including trade secrets, belonging to Gaussian, Inc.
  
 This software is provided under written license and may be
 used, copied, transmitted, or stored only in accord with that
 written license.
  
 The following legend is applicable only to US Government
 contracts under FAR:
  
                    RESTRICTED RIGHTS LEGEND
  
 Use, reproduction and disclosure by the US Government is
 subject to restrictions as set forth in subparagraphs (a)
 and (c) of the Commercial Computer Software - Restricted
 Rights clause in FAR 52.227-19.
  
 Gaussian, Inc.
 340 Quinnipiac St., Bldg. 40, Wallingford CT 06492
  
  
 ---------------------------------------------------------------
 Warning -- This program may not be used in any manner that
 competes with the business of Gaussian, Inc. or will provide
 assistance to any competitor of Gaussian, Inc.  The licensee
 of this program is prohibited from giving any competitor of
 Gaussian, Inc. access to this program.  By using this program,
 the user acknowledges that Gaussian, Inc. is engaged in the
 business of creating and licensing software in the field of
 computational chemistry and represents and warrants to the
 licensee that it is not a competitor of Gaussian, Inc. and that
 it will not use this program in any manner prohibited above.
 ---------------------------------------------------------------
  

 Cite this work as:
 Gaussian 09, Revision D.01,
 M. J. Frisch, G. W. Trucks, H. B. Schlegel, G. E. Scuseria, 
 M. A. Robb, J. R. Cheeseman, G. Scalmani, V. Barone, B. Mennucci, 
 G. A. Petersson, H. Nakatsuji, M. Caricato, X. Li, H. P. Hratchian, 
 A. F. Izmaylov, J. Bloino, G. Zheng, J. L. Sonnenberg, M. Hada, 
 M. Ehara, K. Toyota, R. Fukuda, J. Hasegawa, M. Ishida, T. Nakajima, 
 Y. Honda, O. Kitao, H. Nakai, T. Vreven, J. A. Montgomery, Jr., 
 J. E. Peralta, F. Ogliaro, M. Bearpark, J. J. Heyd, E. Brothers, 
 K. N. Kudin, V. N. Staroverov, T. Keith, R. Kobayashi, J. Normand, 
 K. Raghavachari, A. Rendell, J. C. Burant, S. S. Iyengar, J. Tomasi, 
 M. Cossi, N. Rega, J. M. Millam, M. Klene, J. E. Knox, J. B. Cross, 
 V. Bakken, C. Adamo, J. Jaramillo, R. Gomperts, R. E. Stratmann, 
 O. Yazyev, A. J. Austin, R. Cammi, C. Pomelli, J. W. Ochterski, 
 R. L. Martin, K. Morokuma, V. G. Zakrzewski, G. A. Voth, 
 P. Salvador, J. J. Dannenberg, S. Dapprich, A. D. Daniels, 
 O. Farkas, J. B. Foresman, J. V. Ortiz, J. Cioslowski, 
 and D. J. Fox, Gaussian, Inc., Wallingford CT, 2013.
 
 ******************************************
 Gaussian 09:  ES64L-G09RevD.01 24-Apr-2013
                 4-Mar-2019 
 ******************************************
 %nprocshared=8
 Will use up to    8 processors via shared memory.
 %mem=6000MB
 %chk=AT3_1ginp001.chk
 -------------------------------------------------------
 # mPW1PW91/6-311g(d) nmr=giao scrf=(solvent=chloroform)
 -------------------------------------------------------
 1/38=1/1;
 2/12=2,17=6,18=5,40=1/2;
 3/5=4,6=6,7=1,11=2,16=1,25=1,30=1,70=2201,72=7,74=-7/1,2,8,3;
 4//1;
 5/5=2,38=5,53=7/2;
 8/6=1,10=90,11=11/1;
 10/13=100,45=16/2;
 6/7=2,8=2,9=2,10=2,28=1/1;
 99/9=1/99;
 ------------
 AT3_1ginp001
 ------------
 Symbolic Z-matrix:
 Charge =  0 Multiplicity = 1
 C                    -2.01827   0.5516    0.54875 
 C                    -1.22963  -0.08169   1.68805 
 C                    -0.38216   0.89833   2.53635 
 C                    -1.22895   1.9923    3.26886 
 C                    -0.35899   2.86066   4.20326 
 O                     0.54608   3.67442   3.46809 
 N                     0.66797   1.56802   1.74243 
 C                     1.73342   0.66478   1.29937 
 C                     4.94283   2.92762  -0.49863 
 C                     5.05995   2.46508   0.81138 
 C                     4.02208   1.7305    1.38439 
 C                     2.85681   1.43984   0.67394 
 C                     2.75844   1.91471  -0.6354 
 C                     3.7858    2.65024  -1.22472 
 H                     5.74711   3.50364  -0.94902 
 H                     5.9519    2.67334   1.39493 
 H                     3.67354   3.00503  -2.24485 
 F                     4.16664   1.29322   2.64361 
 F                     1.65234   1.66503  -1.35203 
 H                    -1.35923   1.02033  -0.18759 
 H                    -2.59719  -0.21794   0.02725 
 H                    -2.72372   1.3031    0.9136 
 H                    -1.9263   -0.6211    2.34011 
 H                    -0.58397  -0.86244   1.26877 
 H                    -1.67011   2.6571    2.51424 
 H                     0.21805   2.24024   4.89757 
 H                    -0.98293   3.53606   4.79762 
 H                     0.9598    3.07355   2.80975 
 H                     2.11892   0.08537   2.14701 
 H                     1.36106  -0.06088   0.56715 
 H                     0.10933   0.30551   3.32038 
 C                    -2.36641   1.38437   4.09839 
 H                    -2.8911    2.15905   4.66839 
 H                    -3.11463   0.90194   3.46292 
 H                    -1.98571   0.64264   4.8085 
 H                     0.2496    2.00595   0.91821 
 
                          Input orientation:                          
 ---------------------------------------------------------------------
 Center     Atomic      Atomic             Coordinates (Angstroms)
 Number     Number       Type             X           Y           Z
 ---------------------------------------------------------------------
      1          6           0       -2.018268    0.551596    0.548750
      2          6           0       -1.229634   -0.081686    1.688046
      3          6           0       -0.382155    0.898329    2.536349
      4          6           0       -1.228950    1.992301    3.268862
      5          6           0       -0.358993    2.860661    4.203262
      6          8           0        0.546077    3.674424    3.468088
      7          7           0        0.667970    1.568015    1.742432
      8          6           0        1.733422    0.664780    1.299374
      9          6           0        4.942830    2.927622   -0.498633
     10          6           0        5.059952    2.465078    0.811375
     11          6           0        4.022078    1.730498    1.384387
     12          6           0        2.856810    1.439844    0.673941
     13          6           0        2.758444    1.914713   -0.635395
     14          6           0        3.785798    2.650241   -1.224724
     15          1           0        5.747111    3.503637   -0.949018
     16          1           0        5.951896    2.673339    1.394934
     17          1           0        3.673539    3.005032   -2.244848
     18          9           0        4.166645    1.293218    2.643612
     19          9           0        1.652337    1.665027   -1.352026
     20          1           0       -1.359227    1.020330   -0.187592
     21          1           0       -2.597194   -0.217941    0.027245
     22          1           0       -2.723718    1.303101    0.913602
     23          1           0       -1.926298   -0.621103    2.340108
     24          1           0       -0.583972   -0.862443    1.268773
     25          1           0       -1.670108    2.657101    2.514244
     26          1           0        0.218045    2.240242    4.897572
     27          1           0       -0.982931    3.536055    4.797617
     28          1           0        0.959797    3.073545    2.809751
     29          1           0        2.118920    0.085373    2.147007
     30          1           0        1.361064   -0.060878    0.567149
     31          1           0        0.109334    0.305512    3.320381
     32          6           0       -2.366409    1.384371    4.098391
     33          1           0       -2.891100    2.159050    4.668394
     34          1           0       -3.114628    0.901938    3.462923
     35          1           0       -1.985710    0.642642    4.808500
     36          1           0        0.249599    2.005951    0.918208
 ---------------------------------------------------------------------
                    Distance matrix (angstroms):
                    1          2          3          4          5
     1  C    0.000000
     2  C    1.523478   0.000000
     3  C    2.597622   1.548634   0.000000
     4  C    3.177682   2.607758   1.565379   0.000000
     5  C    4.630381   3.967585   2.574856   1.544013   0.000000
     6  O    4.985023   4.519963   3.071881   2.453559   1.421915
     7  N    3.110283   2.515029   1.477006   2.471500   2.963321
     8  C    3.827718   3.080256   2.461771   3.796952   4.199126
     9  C    7.429630   7.206720   6.456362   7.291071   7.086722
    10  C    7.337001   6.842036   5.920031   6.768534   6.405181
    11  C    6.210787   5.563874   4.627828   5.585077   5.330770
    12  C    4.956919   4.476884   3.775274   4.871577   4.981588
    13  C    5.106590   5.028792   4.577812   5.581089   5.833167
    14  C    6.421581   6.411101   5.881046   6.765567   6.832759
    15  H    8.441503   8.275483   7.516869   8.290963   8.015230
    16  H    8.291039   7.697431   6.676353   7.452514   6.910073
    17  H    6.798544   7.002613   6.614129   7.447216   7.606595
    18  F    6.572032   5.650070   4.567168   5.476504   5.036942
    19  F    4.280890   4.538590   4.454935   5.455413   6.027953
    20  H    1.093730   2.179278   2.896448   3.592878   4.864862
    21  H    1.095130   2.155701   3.528181   4.155158   5.650350
    22  H    1.093406   2.179377   2.877510   2.873426   4.340482
    23  H    2.143046   1.096128   2.175215   2.859853   4.248584
    24  H    2.138959   1.096472   2.178944   3.544844   4.745877
    25  H    2.901299   2.894404   2.180044   1.098193   2.147846
    26  H    5.173478   4.217604   2.781429   2.192707   1.095426
    27  H    5.294506   4.776855   3.525885   2.186503   1.094858
    28  H    4.510125   4.000914   2.570437   2.484046   1.930388
    29  H    4.459609   3.383987   2.658545   4.012875   4.250936
    30  H    3.434436   2.822864   2.799400   4.268837   4.971449
    31  H    3.502740   2.146456   1.098954   2.153814   2.743646
    32  C    3.662604   3.041602   2.571668   1.533463   2.494023
    33  H    4.507462   4.082137   3.525598   2.179275   2.668365
    34  H    3.133233   2.769640   2.885301   2.186855   3.460957
    35  H    4.260847   3.291434   2.792747   2.182831   2.816404
    36  H    2.719351   2.671892   2.060175   2.777025   3.448549
                    6          7          8          9         10
     6  O    0.000000
     7  N    2.725749   0.000000
     8  C    3.895005   1.465374   0.000000
     9  C    5.968587   5.014512   4.318979   0.000000
    10  C    5.375473   4.578329   3.813793   1.394197   0.000000
    11  C    4.494802   3.377075   2.526050   2.413846   1.394680
    12  C    4.259119   2.439082   1.501297   2.817782   2.433891
    13  C    4.982943   3.185018   2.521177   2.411686   2.773623
    14  C    5.793723   4.438027   3.811217   1.393869   2.409036
    15  H    6.825742   6.065328   5.405930   1.086972   2.156334
    16  H    5.875629   5.409470   4.673218   2.160664   1.086038
    17  H    6.547270   5.195851   4.669298   2.160176   3.399146
    18  F    4.411169   3.623309   2.849997   3.625940   2.351243
    19  F    5.338070   3.248701   2.834959   3.626261   4.114879
    20  H    4.902897   2.852101   3.449922   6.591694   6.655155
    21  H    6.072072   4.097902   4.599102   8.186762   8.151401
    22  H    4.779135   3.501526   4.519112   7.963004   7.870588
    23  H    5.082965   3.446691   4.016239   8.236311   7.789045
    24  H    5.166929   2.774678   2.775547   6.930646   6.567761
    25  H    2.618442   2.692287   4.126653   7.271971   6.944807
    26  H    2.051318   3.257181   4.210164   7.205214   6.339686
    27  H    2.030926   3.991593   5.278304   7.970891   7.318029
    28  H    0.982663   1.868409   2.946504   5.179889   4.601631
    29  H    4.135260   2.113567   1.096724   4.801277   4.012054
    30  H    4.799180   2.124844   1.096076   4.784984   4.485741
    31  H    3.400313   2.096643   2.617481   6.694999   5.955456
    32  C    3.758218   3.846001   5.016066   8.771501   8.192877
    33  H    3.943511   4.645165   5.913488   9.415908   8.842481
    34  H    4.592109   4.208538   5.314205   9.204344   8.734865
    35  H    4.171133   4.159219   5.113355   9.021722   8.302989
    36  H    3.061632   1.022823   2.036113   4.988320   4.833395
                   11         12         13         14         15
    11  C    0.000000
    12  C    1.395372   0.000000
    13  C    2.389608   1.396258   0.000000
    14  C    2.776547   2.435777   1.394190   0.000000
    15  H    3.400668   3.904751   3.399290   2.156629   0.000000
    16  H    2.147850   3.408944   3.859519   3.399283   2.495084
    17  H    3.862287   3.411186   2.148612   1.085878   2.495493
    18  F    1.340806   2.369973   3.622316   4.117108   4.504533
    19  F    3.620485   2.367700   1.341408   2.353404   4.506670
    20  H    5.651009   4.323563   4.237412   5.495774   7.566150
    21  H    7.032283   5.736953   5.802600   7.108902   9.188616
    22  H    6.775697   5.587345   5.729534   6.982909   8.947997
    23  H    6.467349   5.468248   6.101704   7.485837   9.311983
    24  H    5.287004   4.182503   4.744491   6.136071   8.003990
    25  H    5.876747   5.036012   5.484837   6.614139   8.229577
    26  H    5.203170   5.044083   6.096993   7.097850   8.145511
    27  H    6.321415   6.011856   6.792956   7.732660   8.849764
    28  H    3.634969   3.290793   4.055497   4.943931   6.101778
    29  H    2.628695   2.132838   3.390758   4.552538   5.868021
    30  H    3.310272   2.121515   2.702174   4.054665   5.851661
    31  H    4.592192   3.979821   5.025483   6.298581   7.761463
    32  C    6.949704   6.245955   6.996721   8.233324   9.787586
    33  H    7.665533   7.036432   7.752885   8.919141  10.391435
    34  H    7.479264   6.612551   7.232904   8.523290  10.235452
    35  H    7.000107   6.417173   7.332200   8.587232  10.056382
    36  H    3.811141   2.679122   2.952340   4.184731   5.996018
                   16         17         18         19         20
    16  H    0.000000
    17  H    4.306848   0.000000
    18  F    2.578963   5.202932   0.000000
    19  F    5.200836   2.584183   4.735516   0.000000
    20  H    7.660897   5.787925   6.214937   3.292576   0.000000
    21  H    9.127815   7.407567   7.408002   4.848347   1.764095
    22  H    8.796335   7.334662   7.104234   4.941044   1.776070
    23  H    8.591428   8.094989   6.393801   5.627155   3.066780
    24  H    7.432042   6.740126   5.394944   4.272911   2.503368
    25  H    7.703769   7.164117   5.995381   5.193351   3.174206
    26  H    6.732985   7.971167   4.644204   6.437821   5.462130
    27  H    7.772667   8.459374   6.015662   6.947193   5.596676
    28  H    5.204126   5.737426   3.671654   4.447912   4.310177
    29  H    4.685604   5.498149   2.428721   3.867330   4.292086
    30  H    5.407117   4.759692   3.743870   2.597464   3.023016
    31  H    6.591622   7.138819   4.230290   5.104951   3.869562
    32  C    8.841059   8.907536   6.693690   6.777620   4.417759
    33  H    9.443443   9.570950   7.393319   7.558593   5.217654
    34  H    9.466588   9.114871   7.337664   6.818357   4.052371
    35  H    8.875909   9.346534   6.554499   7.227222   5.049363
    36  H    5.760978   4.767227   4.339154   2.690328   2.186907
                   21         22         23         24         25
    21  H    0.000000
    22  H    1.764995   0.000000
    23  H    2.441716   2.524551   0.000000
    24  H    2.451497   3.065002   1.734313   0.000000
    25  H    3.912866   2.346373   3.292807   3.888197   0.000000
    26  H    6.139081   5.040260   4.396149   4.841288   3.069063
    27  H    6.281304   4.806454   4.920493   5.653202   2.541371
    28  H    5.588238   4.505345   4.711744   4.499982   2.679020
    29  H    5.179490   5.143471   4.110983   2.995876   4.594059
    30  H    3.997996   4.320407   3.776769   2.217645   4.512936
    31  H    4.294653   3.848890   2.441997   2.460465   3.057162
    32  C    4.381198   3.205800   2.703180   4.028895   2.148069
    33  H    5.222713   3.854754   3.752467   5.099969   2.525715
    34  H    3.650445   2.610130   2.234389   3.785704   2.463174
    35  H    4.896419   4.018842   2.773723   4.093876   3.069407
    36  H    3.720718   3.055263   3.695638   3.007561   2.580039
                   26         27         28         29         30
    26  H    0.000000
    27  H    1.769595   0.000000
    28  H    2.367190   2.817751   0.000000
    29  H    3.977737   5.343634   3.272914   0.000000
    30  H    5.035296   6.027363   3.874905   1.758319   0.000000
    31  H    2.498505   3.716406   2.940414   2.337457   3.046532
    32  C    2.837359   2.651919   3.946840   5.060975   5.334086
    33  H    3.118637   2.356682   4.372672   5.979785   6.311037
    34  H    3.867297   3.641993   4.662987   5.457879   5.417042
    35  H    2.723379   3.062274   4.310487   4.923625   5.448385
    36  H    3.986380   4.348582   2.285186   2.948377   2.372842
                   31         32         33         34         35
    31  H    0.000000
    32  C    2.810434   0.000000
    33  H    3.775625   1.095596   0.000000
    34  H    3.281764   1.093797   1.755977   0.000000
    35  H    2.591788   1.095148   1.771681   1.775463   0.000000
    36  H    2.946456   4.164544   4.894009   4.360326   4.689306
                   36
    36  H    0.000000
 Stoichiometry    C13H19F2NO
 Framework group  C1[X(C13H19F2NO)]
 Deg. of freedom   102
 Full point group                 C1      NOp   1
 Largest Abelian subgroup         C1      NOp   1
 Largest concise Abelian subgroup C1      NOp   1
                         Standard orientation:                         
 ---------------------------------------------------------------------
 Center     Atomic      Atomic             Coordinates (Angstroms)
 Number     Number       Type             X           Y           Z
 ---------------------------------------------------------------------
      1          6           0        2.583308    2.558459   -0.098118
      2          6           0        2.502025    1.517808    1.011577
      3          6           0        2.035641    0.108671    0.569890
      4          6           0        2.985145   -0.571415   -0.472385
      5          6           0        2.552949   -2.021112   -0.781516
      6          8           0        1.317349   -2.059635   -1.484120
      7          7           0        0.663236    0.114636    0.023985
      8          6           0       -0.366037    0.394462    1.028782
      9          6           0       -4.293576   -0.195207   -0.668366
     10          6           0       -3.727966   -1.175129    0.146265
     11          6           0       -2.461452   -0.976311    0.695400
     12          6           0       -1.736878    0.190975    0.451478
     13          6           0       -2.320112    1.158371   -0.369205
     14          6           0       -3.585144    0.977119   -0.926527
     15          1           0       -5.278825   -0.346416   -1.101872
     16          1           0       -4.262285   -2.096877    0.356888
     17          1           0       -4.006492    1.750541   -1.561677
     18          9           0       -1.946681   -1.933638    1.480445
     19          9           0       -1.655261    2.292370   -0.636402
     20          1           0        1.604931    2.744870   -0.550087
     21          1           0        2.941233    3.508861    0.311683
     22          1           0        3.279369    2.256885   -0.885575
     23          1           0        3.482675    1.443130    1.495565
     24          1           0        1.836510    1.899641    1.794868
     25          1           0        2.937798   -0.004127   -1.411518
     26          1           0        2.447696   -2.607871    0.137503
     27          1           0        3.294077   -2.520399   -1.414095
     28          1           0        0.721338   -1.450214   -0.995240
     29          1           0       -0.236989   -0.260221    1.899150
     30          1           0       -0.292771    1.424078    1.397439
     31          1           0        2.043814   -0.529699    1.464383
     32          6           0        4.443095   -0.595233    0.002297
     33          1           0        5.073764   -1.149774   -0.701318
     34          1           0        4.860908    0.413358    0.069894
     35          1           0        4.532046   -1.072902    0.983760
     36          1           0        0.591245    0.814420   -0.718503
 ---------------------------------------------------------------------
 Rotational constants (GHZ):      0.7273381      0.2695287      0.2275289
 Standard basis: 6-311G(d) (5D, 7F)
 There are   380 symmetry adapted cartesian basis functions of A   symmetry.
 There are   363 symmetry adapted basis functions of A   symmetry.
   363 basis functions,   639 primitive gaussians,   380 cartesian basis functions
    65 alpha electrons       65 beta electrons
       nuclear repulsion energy      1279.3602757950 Hartrees.
 NAtoms=   36 NActive=   36 NUniq=   36 SFac= 1.00D+00 NAtFMM=   60 NAOKFM=F Big=F
 Integral buffers will be    131072 words long.
 Raffenetti 2 integral format.
 Two-electron integral symmetry is turned on.
 ------------------------------------------------------------------------------
 Polarizable Continuum Model (PCM)
 =================================
 Model                : PCM (using non-symmetric T matrix).
 Atomic radii         : UFF (Universal Force Field).
 Polarization charges : Total charges.
 Charge compensation  : None.
 Solution method      : On-the-fly selection.
 Cavity type          : Scaled VdW (van der Waals Surface) (Alpha=1.100).
 Cavity algorithm     : GePol (No added spheres)
                        Default sphere list used, NSphG=   36.
                        Lebedev-Laikov grids with approx.  5.0 points / Ang**2.
                        Smoothing algorithm: Karplus/York (Gamma=1.0000).
                        Polarization charges: spherical gaussians, with
                                              point-specific exponents (IZeta= 3).
                        Self-potential: point-specific (ISelfS= 7).
                        Self-field    : sphere-specific E.n sum rule (ISelfD= 2).
 Solvent              : Chloroform, Eps=   4.711300 Eps(inf)=   2.090627
 ------------------------------------------------------------------------------
 One-electron integrals computed using PRISM.
 NBasis=   363 RedAO= T EigKep=  2.47D-04  NBF=   363
 NBsUse=   363 1.00D-06 EigRej= -1.00D+00 NBFU=   363
 ExpMin= 1.03D-01 ExpMax= 1.14D+04 ExpMxC= 1.72D+03 IAcc=1 IRadAn=         1 AccDes= 0.00D+00
 Harris functional with IExCor=  908 and IRadAn=       1 diagonalized for initial guess.
 HarFok:  IExCor=  908 AccDes= 0.00D+00 IRadAn=         1 IDoV= 1 UseB2=F ITyADJ=14
 ICtDFT=  3500011 ScaDFX=  1.000000  1.000000  1.000000  1.000000
 FoFCou: FMM=F IPFlag=           0 FMFlag=      100000 FMFlg1=           0
         NFxFlg=           0 DoJE=T BraDBF=F KetDBF=T FulRan=T
         wScrn=  0.000000 ICntrl=     500 IOpCl=  0 I1Cent=   200000004 NGrid=           0
         NMat0=    1 NMatS0=      1 NMatT0=    0 NMatD0=    1 NMtDS0=    0 NMtDT0=    0
 Petite list used in FoFCou.
 Requested convergence on RMS density matrix=1.00D-08 within 128 cycles.
 Requested convergence on MAX density matrix=1.00D-06.
 Requested convergence on             energy=1.00D-06.
 No special actions if energy rises.
 Inv3:  Mode=1 IEnd=    18750000.
 Iteration    1 A*A^-1 deviation from unit magnitude is 4.88D-15 for    624.
 Iteration    1 A*A^-1 deviation from orthogonality  is 2.44D-15 for   2499      1.
 Iteration    1 A^-1*A deviation from unit magnitude is 4.44D-15 for    305.
 Iteration    1 A^-1*A deviation from orthogonality  is 2.57D-13 for   2478   2474.
 Error on total polarization charges =  0.00963
 SCF Done:  E(RmPW1PW91) =  -836.466734629     A.U. after   12 cycles
            NFock= 12  Conv=0.72D-08     -V/T= 2.0037
 DoSCS=F DFT=T ScalE2(SS,OS)=  1.000000  1.000000
 Range of M.O.s used for correlation:     1   363
 NBasis=   363 NAE=    65 NBE=    65 NFC=     0 NFV=     0
 NROrb=    363 NOA=    65 NOB=    65 NVA=   298 NVB=   298

 **** Warning!!: The largest alpha MO coefficient is  0.13209401D+02

 NEqPCM:  Using equilibrium solvation (IEInf=0, Eps=   4.7113, EpsInf=   2.0906)
          Differentiating once with respect to magnetic field using GIAOs.
          Electric field/nuclear overlap derivatives assumed to be zero.
 FoFJK:  IHMeth= 1 ICntrl=    6127 DoSepK=F KAlg= 0 I1Cent=   0 FoldK=F
 IRaf=         1 NMat=   1 IRICut=       1 DoRegI=T DoRafI=F ISym2E= 0.
          There are     3 degrees of freedom in the 1st order CPHF.  IDoFFX=0 NUNeed=     3.
      3 vectors produced by pass  0 Test12= 6.46D-13 3.33D-08 XBig12= 4.42D+01 1.91D+00.
 AX will form     3 AO Fock derivatives at one time.
      3 vectors produced by pass  1 Test12= 6.46D-13 3.33D-08 XBig12= 1.20D-01 1.59D-01.
      3 vectors produced by pass  2 Test12= 6.46D-13 3.33D-08 XBig12= 6.15D-04 7.24D-03.
      3 vectors produced by pass  3 Test12= 6.46D-13 3.33D-08 XBig12= 1.47D-06 2.46D-04.
      3 vectors produced by pass  4 Test12= 6.46D-13 3.33D-08 XBig12= 3.32D-09 1.32D-05.
      3 vectors produced by pass  5 Test12= 6.46D-13 3.33D-08 XBig12= 1.40D-11 6.71D-07.
 InvSVY:  IOpt=1 It=  1 EMax= 1.78D-15
 Solved reduced A of dimension    18 with     3 vectors.
 Calculating GIAO nuclear magnetic shielding tensors.
 SCF GIAO Magnetic shielding tensor (ppm):
      1  C    Isotropic =   182.2754   Anisotropy =    10.4729
   XX=   177.1014   YX=     1.6464   ZX=    -2.2773
   XY=     0.4887   YY=   183.9622   ZY=    -4.0173
   XZ=    -2.1900   YZ=    -3.6010   ZZ=   185.7625
   Eigenvalues:   176.5559   181.0129   189.2573
      2  C    Isotropic =   166.8086   Anisotropy =    21.2741
   XX=   156.7516   YX=     4.5134   ZX=     2.8317
   XY=     4.9853   YY=   178.9705   ZY=    -2.4836
   XZ=     6.1483   YZ=    -7.4860   ZZ=   164.7038
   Eigenvalues:   153.1260   166.3085   180.9914
      3  C    Isotropic =   118.9643   Anisotropy =    34.4316
   XX=   139.0311   YX=   -11.4347   ZX=    -1.3517
   XY=    -7.3666   YY=   110.1071   ZY=    -0.4388
   XZ=    -2.1595   YZ=     1.6523   ZZ=   107.7546
   Eigenvalues:   107.3009   107.6732   141.9187
      4  C    Isotropic =   147.8026   Anisotropy =    15.0159
   XX=   149.8126   YX=     0.6711   ZX=     1.9864
   XY=    -1.8864   YY=   146.9450   ZY=     0.5525
   XZ=    16.1869   YZ=     6.8678   ZZ=   146.6503
   Eigenvalues:   137.8380   147.7567   157.8132
      5  C    Isotropic =   114.0944   Anisotropy =    54.7185
   XX=   134.8779   YX=     7.1877   ZX=    27.5522
   XY=    11.5172   YY=   109.2275   ZY=    10.4546
   XZ=    20.5354   YZ=     8.0823   ZZ=    98.1777
   Eigenvalues:    85.4660   106.2437   150.5734
      6  O    Isotropic =   286.6983   Anisotropy =    77.2908
   XX=   271.8532   YX=    -2.7865   ZX=    -1.3947
   XY=    -6.2641   YY=   319.0430   ZY=    37.9208
   XZ=   -15.3517   YZ=    32.5718   ZZ=   269.1987
   Eigenvalues:   249.6211   272.2484   338.2255
      7  N    Isotropic =   204.3273   Anisotropy =    42.0251
   XX=   227.6717   YX=    -9.2268   ZX=     8.6658
   XY=    -8.1820   YY=   164.3384   ZY=    -6.1594
   XZ=   -22.5327   YZ=    -4.6915   ZZ=   220.9717
   Eigenvalues:   162.4779   218.1600   232.3440
      8  C    Isotropic =   148.3201   Anisotropy =    50.5213
   XX=   162.1826   YX=    -5.3446   ZX=   -18.8820
   XY=   -11.3897   YY=   124.8260   ZY=     5.1191
   XZ=   -21.8037   YZ=     3.7764   ZZ=   157.9517
   Eigenvalues:   123.0371   139.9222   182.0010
      9  C    Isotropic =    54.1147   Anisotropy =   186.6036
   XX=   -12.7542   YX=   -36.7376   ZX=   -80.3597
   XY=   -36.2287   YY=    60.9617   ZY=    43.5320
   XZ=   -79.4574   YZ=    43.0847   ZZ=   114.1366
   Eigenvalues:   -53.3140    37.1410   178.5171
     10  C    Isotropic =    70.2922   Anisotropy =   149.5440
   XX=    60.6391   YX=   -43.3015   ZX=   -34.5766
   XY=   -51.0104   YY=    25.0751   ZY=    50.3365
   XZ=   -30.2440   YZ=    54.1873   ZZ=   125.1626
   Eigenvalues:   -13.1000    53.9885   169.9882
     11  C    Isotropic =    19.9017   Anisotropy =   100.0256
   XX=    31.5869   YX=    21.1624   ZX=   -41.4678
   XY=    15.0668   YY=    -9.1048   ZY=    59.6369
   XZ=   -34.0009   YZ=    57.0044   ZZ=    37.2229
   Eigenvalues:   -63.0108    36.1304    86.5854
     12  C    Isotropic =    66.5833   Anisotropy =   140.5052
   XX=    46.2272   YX=   -25.4077   ZX=   -49.5910
   XY=   -25.3771   YY=    45.6262   ZY=    47.2841
   XZ=   -47.4465   YZ=    48.6776   ZZ=   107.8965
   Eigenvalues:    18.9638    20.5326   160.2534
     13  C    Isotropic =    19.7025   Anisotropy =    97.7230
   XX=    23.7731   YX=   -53.4122   ZX=    -4.3744
   XY=   -46.3880   YY=   -26.2144   ZY=    35.2137
   XZ=    -5.4562   YZ=    37.0118   ZZ=    61.5487
   Eigenvalues:   -63.5973    37.8536    84.8511
     14  C    Isotropic =    70.9411   Anisotropy =   148.5560
   XX=    67.6289   YX=    -7.0528   ZX=   -49.8548
   XY=     0.1837   YY=    39.5068   ZY=    69.7610
   XZ=   -54.7517   YZ=    66.6789   ZZ=   105.6876
   Eigenvalues:   -12.4641    55.3090   169.9784
     15  H    Isotropic =    24.5163   Anisotropy =     3.1984
   XX=    25.2200   YX=     0.9138   ZX=     1.4847
   XY=     0.8998   YY=    25.5609   ZY=    -2.0235
   XZ=     1.5496   YZ=    -2.0586   ZZ=    22.7679
   Eigenvalues:    20.9599    25.9404    26.6486
     16  H    Isotropic =    25.1726   Anisotropy =     4.8997
   XX=    27.4577   YX=     1.1869   ZX=     2.1694
   XY=     0.7372   YY=    24.8338   ZY=    -1.6368
   XZ=     2.2925   YZ=    -1.5098   ZZ=    23.2264
   Eigenvalues:    21.3173    25.7614    28.4391
     17  H    Isotropic =    25.1940   Anisotropy =     5.1157
   XX=    27.6126   YX=     0.9911   ZX=     2.3701
   XY=     1.2534   YY=    25.0372   ZY=    -1.2997
   XZ=     2.1121   YZ=    -1.4063   ZZ=    22.9321
   Eigenvalues:    21.2788    25.6987    28.6045
     18  F    Isotropic =   300.4898   Anisotropy =   127.9320
   XX=   259.8158   YX=   -43.9840   ZX=   -40.6444
   XY=   -46.2480   YY=   286.6162   ZY=    28.1507
   XZ=   -36.0926   YZ=    23.8996   ZZ=   355.0373
   Eigenvalues:   224.0743   291.6172   385.7778
     19  F    Isotropic =   305.7803   Anisotropy =   127.4337
   XX=   268.9415   YX=   -13.5812   ZX=   -53.8390
   XY=     4.1169   YY=   317.9684   ZY=    40.1529
   XZ=   -52.6660   YZ=    59.3845   ZZ=   330.4310
   Eigenvalues:   232.0185   294.5863   390.7361
     20  H    Isotropic =    31.1929   Anisotropy =     8.1411
   XX=    34.0096   YX=    -0.7328   ZX=     2.9629
   XY=    -1.3077   YY=    31.3898   ZY=    -3.6889
   XZ=     3.2551   YZ=    -3.4512   ZZ=    28.1793
   Eigenvalues:    25.3349    31.6234    36.6203
     21  H    Isotropic =    31.1335   Anisotropy =    11.5408
   XX=    27.8600   YX=     3.3522   ZX=     0.8322
   XY=     3.5350   YY=    37.6048   ZY=     1.2132
   XZ=     0.6222   YZ=     0.8059   ZZ=    27.9356
   Eigenvalues:    26.6389    27.9341    38.8273
     22  H    Isotropic =    31.3328   Anisotropy =     7.9829
   XX=    30.7897   YX=     0.1467   ZX=    -4.7125
   XY=    -0.0178   YY=    31.1916   ZY=    -1.5875
   XZ=    -5.3530   YZ=    -0.9423   ZZ=    32.0171
   Eigenvalues:    26.2057    31.1380    36.6547
     23  H    Isotropic =    30.6015   Anisotropy =     7.7578
   XX=    32.2563   YX=    -0.0894   ZX=     4.3334
   XY=    -0.1169   YY=    29.5652   ZY=     0.6037
   XZ=     4.6458   YZ=     0.8734   ZZ=    29.9831
   Eigenvalues:    26.3577    29.6734    35.7734
     24  H    Isotropic =    30.0261   Anisotropy =     6.6044
   XX=    28.8073   YX=     1.1466   ZX=    -2.5443
   XY=     0.5051   YY=    29.3120   ZY=     2.6319
   XZ=    -3.2941   YZ=     2.5924   ZZ=    31.9591
   Eigenvalues:    25.7382    29.9111    34.4291
     25  H    Isotropic =    30.3768   Anisotropy =     3.3807
   XX=    29.6277   YX=     0.0647   ZX=    -1.3469
   XY=    -1.1038   YY=    29.5836   ZY=    -1.1202
   XZ=    -1.2355   YZ=    -0.6863   ZZ=    31.9191
   Eigenvalues:    28.3968    30.1030    32.6306
     26  H    Isotropic =    28.2214   Anisotropy =     4.9775
   XX=    28.6477   YX=    -0.9056   ZX=     3.8065
   XY=     0.3126   YY=    29.6419   ZY=    -1.8913
   XZ=     1.2635   YZ=    -2.2775   ZZ=    26.3746
   Eigenvalues:    24.2372    28.8873    31.5397
     27  H    Isotropic =    28.5550   Anisotropy =     6.7193
   XX=    30.9263   YX=    -2.2615   ZX=    -0.6156
   XY=    -1.9516   YY=    28.7641   ZY=     3.7141
   XZ=     0.6187   YZ=     4.1090   ZZ=    25.9744
   Eigenvalues:    23.0210    29.6093    33.0345
     28  H    Isotropic =    27.7490   Anisotropy =    25.3294
   XX=    31.1014   YX=    -7.8694   ZX=    -4.2967
   XY=    -8.0439   YY=    29.4988   ZY=    11.5503
   XZ=    -4.9937   YZ=    12.1971   ZZ=    22.6468
   Eigenvalues:    13.6333    24.9785    44.6352
     29  H    Isotropic =    28.7083   Anisotropy =     7.4106
   XX=    29.6893   YX=     2.5558   ZX=    -1.8568
   XY=     2.6236   YY=    26.1924   ZY=    -2.6637
   XZ=    -0.0115   YZ=    -4.6825   ZZ=    30.2433
   Eigenvalues:    23.4832    28.9931    33.6487
     30  H    Isotropic =    28.1322   Anisotropy =     5.1420
   XX=    29.6928   YX=    -1.4011   ZX=    -1.8823
   XY=     0.3527   YY=    28.9933   ZY=     2.7401
   XZ=     0.5967   YZ=     4.2798   ZZ=    25.7104
   Eigenvalues:    23.4659    29.3704    31.5602
     31  H    Isotropic =    29.2988   Anisotropy =     2.8528
   XX=    29.7975   YX=    -0.0461   ZX=     1.3670
   XY=    -0.0403   YY=    29.5184   ZY=    -1.8552
   XZ=    -0.6149   YZ=    -2.2374   ZZ=    28.5805
   Eigenvalues:    26.9251    29.7706    31.2007
     32  C    Isotropic =   172.6214   Anisotropy =    26.1607
   XX=   188.2935   YX=    -1.7401   ZX=     4.6195
   XY=    -5.7699   YY=   163.2302   ZY=     3.9844
   XZ=     7.5057   YZ=     6.8784   ZZ=   166.3406
   Eigenvalues:   157.6677   170.1347   190.0619
     33  H    Isotropic =    31.4552   Anisotropy =    10.6872
   XX=    35.6458   YX=    -3.1386   ZX=    -3.7081
   XY=    -2.8794   YY=    29.2186   ZY=     2.6472
   XZ=    -2.7537   YZ=     2.4986   ZZ=    29.5011
   Eigenvalues:    26.7828    29.0027    38.5800
     34  H    Isotropic =    31.1165   Anisotropy =     7.9374
   XX=    34.6385   YX=     2.9275   ZX=     0.2654
   XY=     1.8057   YY=    32.9584   ZY=     0.7921
   XZ=     0.4190   YZ=     1.7642   ZZ=    25.7525
   Eigenvalues:    25.5320    31.4094    36.4081
     35  H    Isotropic =    31.7223   Anisotropy =     8.8155
   XX=    32.3265   YX=    -2.1841   ZX=     3.7440
   XY=    -2.0431   YY=    29.5567   ZY=    -2.6473
   XZ=     2.8189   YZ=    -2.8111   ZZ=    33.2836
   Eigenvalues:    28.0588    29.5088    37.5993
     36  H    Isotropic =    30.8821   Anisotropy =     7.3508
   XX=    33.5419   YX=    -1.7443   ZX=     0.8540
   XY=    -1.1030   YY=    28.5094   ZY=    -4.4983
   XZ=    -0.6902   YZ=    -6.8902   ZZ=    30.5950
   Eigenvalues:    23.6528    33.2109    35.7826
 End of Minotr F.D. properties file   721 does not exist.
 End of Minotr F.D. properties file   722 does not exist.
 End of Minotr F.D. properties file   788 does not exist.

 **********************************************************************

            Population analysis using the SCF density.

 **********************************************************************

 Orbital symmetries:
       Occupied  (A) (A) (A) (A) (A) (A) (A) (A) (A) (A) (A) (A)
                 (A) (A) (A) (A) (A) (A) (A) (A) (A) (A) (A) (A)
                 (A) (A) (A) (A) (A) (A) (A) (A) (A) (A) (A) (A)
                 (A) (A) (A) (A) (A) (A) (A) (A) (A) (A) (A) (A)
                 (A) (A) (A) (A) (A) (A) (A) (A) (A) (A) (A) (A)
                 (A) (A) (A) (A) (A)
       Virtual   (A) (A) (A) (A) (A) (A) (A) (A) (A) (A) (A) (A)
                 (A) (A) (A) (A) (A) (A) (A) (A) (A) (A) (A) (A)
                 (A) (A) (A) (A) (A) (A) (A) (A) (A) (A) (A) (A)
                 (A) (A) (A) (A) (A) (A) (A) (A) (A) (A) (A) (A)
                 (A) (A) (A) (A) (A) (A) (A) (A) (A) (A) (A) (A)
                 (A) (A) (A) (A) (A) (A) (A) (A) (A) (A) (A) (A)
                 (A) (A) (A) (A) (A) (A) (A) (A) (A) (A) (A) (A)
                 (A) (A) (A) (A) (A) (A) (A) (A) (A) (A) (A) (A)
                 (A) (A) (A) (A) (A) (A) (A) (A) (A) (A) (A) (A)
                 (A) (A) (A) (A) (A) (A) (A) (A) (A) (A) (A) (A)
                 (A) (A) (A) (A) (A) (A) (A) (A) (A) (A) (A) (A)
                 (A) (A) (A) (A) (A) (A) (A) (A) (A) (A) (A) (A)
                 (A) (A) (A) (A) (A) (A) (A) (A) (A) (A) (A) (A)
                 (A) (A) (A) (A) (A) (A) (A) (A) (A) (A) (A) (A)
                 (A) (A) (A) (A) (A) (A) (A) (A) (A) (A) (A) (A)
                 (A) (A) (A) (A) (A) (A) (A) (A) (A) (A) (A) (A)
                 (A) (A) (A) (A) (A) (A) (A) (A) (A) (A) (A) (A)
                 (A) (A) (A) (A) (A) (A) (A) (A) (A) (A) (A) (A)
                 (A) (A) (A) (A) (A) (A) (A) (A) (A) (A) (A) (A)
                 (A) (A) (A) (A) (A) (A) (A) (A) (A) (A) (A) (A)
                 (A) (A) (A) (A) (A) (A) (A) (A) (A) (A) (A) (A)
                 (A) (A) (A) (A) (A) (A) (A) (A) (A) (A) (A) (A)
                 (A) (A) (A) (A) (A) (A) (A) (A) (A) (A) (A) (A)
                 (A) (A) (A) (A) (A) (A) (A) (A) (A) (A) (A) (A)
                 (A) (A) (A) (A) (A) (A) (A) (A) (A) (A)
 The electronic state is 1-A.
 Alpha  occ. eigenvalues --  -24.80836 -24.80388 -19.17352 -14.39740 -10.33972
 Alpha  occ. eigenvalues --  -10.33912 -10.27436 -10.27038 -10.26621 -10.26227
 Alpha  occ. eigenvalues --  -10.26095 -10.25331 -10.25271 -10.23726 -10.22993
 Alpha  occ. eigenvalues --  -10.22228 -10.22084  -1.28065  -1.27657  -1.02205
 Alpha  occ. eigenvalues --   -0.95381  -0.90664  -0.83460  -0.80395  -0.78760
 Alpha  occ. eigenvalues --   -0.78327  -0.72321  -0.68656  -0.68192  -0.66206
 Alpha  occ. eigenvalues --   -0.64539  -0.62182  -0.59317  -0.58286  -0.55990
 Alpha  occ. eigenvalues --   -0.52394  -0.52218  -0.52102  -0.51062  -0.49809
 Alpha  occ. eigenvalues --   -0.49531  -0.49023  -0.47170  -0.46749  -0.45282
 Alpha  occ. eigenvalues --   -0.44879  -0.43810  -0.42597  -0.41993  -0.41624
 Alpha  occ. eigenvalues --   -0.41562  -0.39752  -0.39151  -0.38582  -0.38027
 Alpha  occ. eigenvalues --   -0.37069  -0.36590  -0.35915  -0.35167  -0.33269
 Alpha  occ. eigenvalues --   -0.32688  -0.27708  -0.26889  -0.26349  -0.24949
 Alpha virt. eigenvalues --   -0.02204  -0.01051   0.04628   0.05846   0.06250
 Alpha virt. eigenvalues --    0.07123   0.08357   0.09848   0.10438   0.10903
 Alpha virt. eigenvalues --    0.11274   0.11438   0.12608   0.12954   0.13264
 Alpha virt. eigenvalues --    0.13455   0.14651   0.15226   0.15627   0.16407
 Alpha virt. eigenvalues --    0.17135   0.17681   0.18257   0.19325   0.20974
 Alpha virt. eigenvalues --    0.21217   0.22597   0.23043   0.24049   0.24362
 Alpha virt. eigenvalues --    0.24933   0.25567   0.25891   0.28328   0.29359
 Alpha virt. eigenvalues --    0.32426   0.32740   0.33358   0.34481   0.35105
 Alpha virt. eigenvalues --    0.35989   0.37109   0.37717   0.38433   0.39190
 Alpha virt. eigenvalues --    0.39614   0.39978   0.41307   0.41480   0.42311
 Alpha virt. eigenvalues --    0.42494   0.43566   0.44181   0.45657   0.46815
 Alpha virt. eigenvalues --    0.48326   0.49170   0.49404   0.51032   0.51711
 Alpha virt. eigenvalues --    0.52574   0.53177   0.54460   0.55537   0.56075
 Alpha virt. eigenvalues --    0.56663   0.56772   0.57533   0.58239   0.58954
 Alpha virt. eigenvalues --    0.59021   0.60290   0.60936   0.61492   0.61847
 Alpha virt. eigenvalues --    0.62318   0.62906   0.63324   0.63617   0.64498
 Alpha virt. eigenvalues --    0.64700   0.65038   0.65402   0.66502   0.66710
 Alpha virt. eigenvalues --    0.67545   0.68262   0.68780   0.70209   0.71435
 Alpha virt. eigenvalues --    0.71941   0.73114   0.74175   0.75145   0.76816
 Alpha virt. eigenvalues --    0.78576   0.79912   0.82205   0.82254   0.85754
 Alpha virt. eigenvalues --    0.88283   0.89899   0.91491   0.91952   0.94666
 Alpha virt. eigenvalues --    0.96018   0.97258   0.98772   0.99121   1.00732
 Alpha virt. eigenvalues --    1.01141   1.04726   1.05221   1.07140   1.07901
 Alpha virt. eigenvalues --    1.09354   1.10210   1.12209   1.13592   1.14105
 Alpha virt. eigenvalues --    1.16378   1.18843   1.19014   1.20340   1.22761
 Alpha virt. eigenvalues --    1.24897   1.26768   1.28338   1.28838   1.30295
 Alpha virt. eigenvalues --    1.33320   1.34141   1.36025   1.38889   1.42604
 Alpha virt. eigenvalues --    1.44093   1.45945   1.47109   1.49421   1.49757
 Alpha virt. eigenvalues --    1.51691   1.53351   1.53937   1.54264   1.55342
 Alpha virt. eigenvalues --    1.56098   1.57298   1.58304   1.59068   1.60030
 Alpha virt. eigenvalues --    1.62421   1.63460   1.64109   1.65361   1.66038
 Alpha virt. eigenvalues --    1.67466   1.67990   1.69706   1.71595   1.73403
 Alpha virt. eigenvalues --    1.74110   1.75808   1.77802   1.81197   1.82370
 Alpha virt. eigenvalues --    1.83986   1.84552   1.85809   1.88177   1.89174
 Alpha virt. eigenvalues --    1.89564   1.89971   1.91787   1.94765   1.95580
 Alpha virt. eigenvalues --    1.95832   1.97334   1.99668   2.02648   2.03258
 Alpha virt. eigenvalues --    2.08137   2.11401   2.12476   2.17973   2.19128
 Alpha virt. eigenvalues --    2.21830   2.24842   2.25830   2.27415   2.27821
 Alpha virt. eigenvalues --    2.29540   2.31191   2.37458   2.39174   2.40577
 Alpha virt. eigenvalues --    2.41705   2.43076   2.43759   2.46293   2.47092
 Alpha virt. eigenvalues --    2.48718   2.50637   2.51800   2.52291   2.53953
 Alpha virt. eigenvalues --    2.54905   2.57298   2.58229   2.60511   2.65562
 Alpha virt. eigenvalues --    2.67101   2.67735   2.69678   2.71970   2.73222
 Alpha virt. eigenvalues --    2.76997   2.83174   2.84322   2.86047   2.90075
 Alpha virt. eigenvalues --    2.91133   2.94013   2.97317   2.99046   3.05520
 Alpha virt. eigenvalues --    3.06276   3.07371   3.08609   3.09631   3.11060
 Alpha virt. eigenvalues --    3.13888   3.15373   3.16703   3.21072   3.21587
 Alpha virt. eigenvalues --    3.23394   3.25905   3.26018   3.28626   3.29097
 Alpha virt. eigenvalues --    3.30015   3.31837   3.33429   3.38328   3.39683
 Alpha virt. eigenvalues --    3.47148   3.47606   3.51646   3.60152   3.64632
 Alpha virt. eigenvalues --    3.75486   3.79087   3.79550   3.79817   3.80513
 Alpha virt. eigenvalues --    3.86823   3.88915   3.95752   3.96290   3.99540
 Alpha virt. eigenvalues --    4.00252   4.07341   4.08977   4.10833   4.12641
 Alpha virt. eigenvalues --    4.18697   4.21892   4.48881   4.75175   4.77110
 Alpha virt. eigenvalues --    4.78561   4.80738   4.95018   5.08084   5.46491
 Alpha virt. eigenvalues --    6.12527   6.14463   6.31004   6.32468   6.56372
 Alpha virt. eigenvalues --    6.59360  23.30026  23.47531  23.58445  23.69229
 Alpha virt. eigenvalues --   23.73142  23.78807  23.79958  23.82731  23.86774
 Alpha virt. eigenvalues --   23.89811  24.08693  24.11027  24.19294  35.57508
 Alpha virt. eigenvalues --   50.01133  66.89167  66.89449
          Condensed to atoms (all electrons):
               1          2          3          4          5          6
     1  C    5.384169   0.274977  -0.072219  -0.002850  -0.000194  -0.000047
     2  C    0.274977   5.412369   0.317504  -0.073897   0.006491  -0.000113
     3  C   -0.072219   0.317504   5.317453   0.306875  -0.070572  -0.000529
     4  C   -0.002850  -0.073897   0.306875   5.414006   0.339404  -0.054186
     5  C   -0.000194   0.006491  -0.070572   0.339404   5.053549   0.252920
     6  O   -0.000047  -0.000113  -0.000529  -0.054186   0.252920   8.255986
     7  N   -0.000592  -0.071653   0.252249  -0.068605   0.007337  -0.038402
     8  C   -0.000777  -0.007042  -0.083642   0.009321  -0.000329   0.001048
     9  C    0.000000   0.000000  -0.000002   0.000000   0.000000   0.000000
    10  C    0.000000   0.000000   0.000007   0.000000   0.000002   0.000003
    11  C   -0.000002   0.000062  -0.000379  -0.000050   0.000057  -0.000173
    12  C   -0.000050   0.000071   0.009331  -0.000146  -0.000061   0.000318
    13  C   -0.000031  -0.000128  -0.000057   0.000024  -0.000008   0.000039
    14  C   -0.000002  -0.000002   0.000025   0.000000   0.000000   0.000001
    15  H    0.000000   0.000000   0.000000   0.000000   0.000000   0.000000
    16  H    0.000000   0.000000   0.000000   0.000000   0.000000   0.000000
    17  H    0.000000   0.000000  -0.000001   0.000000   0.000000   0.000000
    18  F    0.000000   0.000002  -0.000070   0.000000  -0.000012  -0.000005
    19  F   -0.000274  -0.000092   0.000088   0.000000   0.000000   0.000000
    20  H    0.382069  -0.044915  -0.003021  -0.000699  -0.000084  -0.000032
    21  H    0.393258  -0.035305   0.007266  -0.000128   0.000008   0.000000
    22  H    0.387637  -0.039601  -0.005842   0.004200   0.000337  -0.000071
    23  H   -0.040333   0.390973  -0.035189  -0.007575  -0.000108   0.000022
    24  H   -0.046165   0.407939  -0.043222   0.007280  -0.000175   0.000010
    25  H    0.002592  -0.004799  -0.063380   0.391884  -0.048555   0.011739
    26  H   -0.000047   0.000184  -0.016615  -0.046385   0.375984  -0.041054
    27  H    0.000019  -0.000333   0.009120  -0.036391   0.391249  -0.029232
    28  H   -0.000085   0.002104   0.001672  -0.005947  -0.057754   0.255520
    29  H    0.000138  -0.001984  -0.003060   0.000354   0.000078   0.000388
    30  H    0.000625   0.004965  -0.002217  -0.000832   0.000024  -0.000171
    31  H    0.007792  -0.055850   0.405211  -0.038141  -0.006610   0.000384
    32  C   -0.003706  -0.000423  -0.078956   0.289512  -0.074786   0.005394
    33  H   -0.000063  -0.000070   0.008460  -0.038446  -0.005928   0.000058
    34  H    0.000669  -0.000345  -0.006026  -0.028931   0.006278  -0.000237
    35  H    0.000314  -0.001646  -0.006231  -0.040037  -0.004114  -0.000091
    36  H    0.005878  -0.008773  -0.046548  -0.002757  -0.000270   0.004796
               7          8          9         10         11         12
     1  C   -0.000592  -0.000777   0.000000   0.000000  -0.000002  -0.000050
     2  C   -0.071653  -0.007042   0.000000   0.000000   0.000062   0.000071
     3  C    0.252249  -0.083642  -0.000002   0.000007  -0.000379   0.009331
     4  C   -0.068605   0.009321   0.000000   0.000000  -0.000050  -0.000146
     5  C    0.007337  -0.000329   0.000000   0.000002   0.000057  -0.000061
     6  O   -0.038402   0.001048   0.000000   0.000003  -0.000173   0.000318
     7  N    7.059207   0.260227   0.000058  -0.000086   0.010983  -0.077505
     8  C    0.260227   5.297606  -0.001459   0.010212  -0.073726   0.295245
     9  C    0.000058  -0.001459   5.060505   0.430077  -0.001912  -0.058361
    10  C   -0.000086   0.010212   0.430077   5.199605   0.469926  -0.029632
    11  C    0.010983  -0.073726  -0.001912   0.469926   4.727463   0.282594
    12  C   -0.077505   0.295245  -0.058361  -0.029632   0.282594   5.752058
    13  C   -0.005385  -0.088462  -0.005096  -0.063942   0.044431   0.253899
    14  C   -0.000262   0.009618   0.434037  -0.034393  -0.066645  -0.034449
    15  H   -0.000001   0.000031   0.404744  -0.040532   0.006080  -0.001984
    16  H    0.000012  -0.000308  -0.041031   0.391925  -0.048471   0.012027
    17  H    0.000013  -0.000328  -0.040507   0.007029  -0.001267   0.012099
    18  F   -0.000429  -0.002580   0.005684  -0.055492   0.318774  -0.077157
    19  F   -0.001461   0.003549   0.005562  -0.000589   0.004754  -0.084579
    20  H    0.003689   0.001662  -0.000003   0.000001  -0.000036  -0.000324
    21  H    0.000029  -0.000111   0.000000   0.000000   0.000000   0.000002
    22  H   -0.000065   0.000084   0.000000   0.000000   0.000000   0.000003
    23  H    0.005589   0.000274   0.000000   0.000000  -0.000003   0.000028
    24  H   -0.003853   0.003403   0.000000   0.000000  -0.000035   0.000415
    25  H    0.001357  -0.000603   0.000000   0.000000   0.000007   0.000109
    26  H    0.001323  -0.000021   0.000000  -0.000001   0.000009  -0.000029
    27  H   -0.000534   0.000043   0.000000   0.000000  -0.000002   0.000000
    28  H    0.061886  -0.004558  -0.000023  -0.000044   0.001813  -0.002905
    29  H   -0.034365   0.389871  -0.000282   0.001356  -0.016845  -0.033451
    30  H   -0.046916   0.394101  -0.000130  -0.000106   0.009279  -0.048190
    31  H   -0.034736  -0.007970   0.000001  -0.000006   0.000050   0.000019
    32  C    0.005063  -0.000263   0.000000   0.000000   0.000000   0.000006
    33  H   -0.000213   0.000019   0.000000   0.000000   0.000000   0.000000
    34  H   -0.000166  -0.000018   0.000000   0.000000   0.000000   0.000000
    35  H    0.000050  -0.000027   0.000000   0.000000   0.000000   0.000001
    36  H    0.322820  -0.040269   0.000002  -0.000023  -0.000492  -0.012296
              13         14         15         16         17         18
     1  C   -0.000031  -0.000002   0.000000   0.000000   0.000000   0.000000
     2  C   -0.000128  -0.000002   0.000000   0.000000   0.000000   0.000002
     3  C   -0.000057   0.000025   0.000000   0.000000  -0.000001  -0.000070
     4  C    0.000024   0.000000   0.000000   0.000000   0.000000   0.000000
     5  C   -0.000008   0.000000   0.000000   0.000000   0.000000  -0.000012
     6  O    0.000039   0.000001   0.000000   0.000000   0.000000  -0.000005
     7  N   -0.005385  -0.000262  -0.000001   0.000012   0.000013  -0.000429
     8  C   -0.088462   0.009618   0.000031  -0.000308  -0.000328  -0.002580
     9  C   -0.005096   0.434037   0.404744  -0.041031  -0.040507   0.005684
    10  C   -0.063942  -0.034393  -0.040532   0.391925   0.007029  -0.055492
    11  C    0.044431  -0.066645   0.006080  -0.048471  -0.001267   0.318774
    12  C    0.253899  -0.034449  -0.001984   0.012027   0.012099  -0.077157
    13  C    4.766167   0.479193   0.006257  -0.001309  -0.049820   0.005157
    14  C    0.479193   5.192516  -0.041029   0.007081   0.392348  -0.000556
    15  H    0.006257  -0.041029   0.445135  -0.006556  -0.006616  -0.000071
    16  H   -0.001309   0.007081  -0.006556   0.449447  -0.000176   0.001335
    17  H   -0.049820   0.392348  -0.006616  -0.000176   0.449996   0.000004
    18  F    0.005157  -0.000556  -0.000071   0.001335   0.000004   9.026847
    19  F    0.319029  -0.056333  -0.000070   0.000004   0.001489  -0.000001
    20  H    0.000091   0.000049   0.000000   0.000000   0.000001   0.000000
    21  H    0.000000   0.000000   0.000000   0.000000   0.000000   0.000000
    22  H    0.000008   0.000000   0.000000   0.000000   0.000000   0.000000
    23  H    0.000003   0.000000   0.000000   0.000000   0.000000   0.000000
    24  H    0.000082  -0.000002   0.000000   0.000000   0.000000   0.000000
    25  H   -0.000034  -0.000001   0.000000   0.000000   0.000000   0.000000
    26  H   -0.000006   0.000000   0.000000   0.000000   0.000000   0.000034
    27  H    0.000001   0.000000   0.000000   0.000000   0.000000   0.000000
    28  H   -0.000669   0.000008   0.000000   0.000004   0.000003   0.000899
    29  H    0.007975   0.000086   0.000004  -0.000053   0.000009   0.012535
    30  H   -0.018869   0.000092   0.000002   0.000017  -0.000029   0.000067
    31  H   -0.000023   0.000001   0.000000   0.000000   0.000000  -0.000176
    32  C    0.000000   0.000000   0.000000   0.000000   0.000000   0.000000
    33  H    0.000000   0.000000   0.000000   0.000000   0.000000   0.000000
    34  H    0.000000   0.000000   0.000000   0.000000   0.000000   0.000000
    35  H    0.000000   0.000000   0.000000   0.000000   0.000000   0.000000
    36  H    0.005089  -0.000045   0.000001  -0.000001  -0.000004  -0.000071
              19         20         21         22         23         24
     1  C   -0.000274   0.382069   0.393258   0.387637  -0.040333  -0.046165
     2  C   -0.000092  -0.044915  -0.035305  -0.039601   0.390973   0.407939
     3  C    0.000088  -0.003021   0.007266  -0.005842  -0.035189  -0.043222
     4  C    0.000000  -0.000699  -0.000128   0.004200  -0.007575   0.007280
     5  C    0.000000  -0.000084   0.000008   0.000337  -0.000108  -0.000175
     6  O    0.000000  -0.000032   0.000000  -0.000071   0.000022   0.000010
     7  N   -0.001461   0.003689   0.000029  -0.000065   0.005589  -0.003853
     8  C    0.003549   0.001662  -0.000111   0.000084   0.000274   0.003403
     9  C    0.005562  -0.000003   0.000000   0.000000   0.000000   0.000000
    10  C   -0.000589   0.000001   0.000000   0.000000   0.000000   0.000000
    11  C    0.004754  -0.000036   0.000000   0.000000  -0.000003  -0.000035
    12  C   -0.084579  -0.000324   0.000002   0.000003   0.000028   0.000415
    13  C    0.319029   0.000091   0.000000   0.000008   0.000003   0.000082
    14  C   -0.056333   0.000049   0.000000   0.000000   0.000000  -0.000002
    15  H   -0.000070   0.000000   0.000000   0.000000   0.000000   0.000000
    16  H    0.000004   0.000000   0.000000   0.000000   0.000000   0.000000
    17  H    0.001489   0.000001   0.000000   0.000000   0.000000   0.000000
    18  F   -0.000001   0.000000   0.000000   0.000000   0.000000   0.000000
    19  F    9.029716   0.002808  -0.000013  -0.000007  -0.000001  -0.000130
    20  H    0.002808   0.488298  -0.026691  -0.026738   0.007810  -0.005927
    21  H   -0.000013  -0.026691   0.464388  -0.027054  -0.005125  -0.004807
    22  H   -0.000007  -0.026738  -0.027054   0.471681  -0.005109   0.006849
    23  H   -0.000001   0.007810  -0.005125  -0.005109   0.483151  -0.032483
    24  H   -0.000130  -0.005927  -0.004807   0.006849  -0.032483   0.482580
    25  H   -0.000012  -0.000890   0.000155  -0.001625  -0.000124  -0.000257
    26  H    0.000000  -0.000013   0.000002  -0.000062  -0.000037  -0.000014
    27  H    0.000000   0.000009  -0.000001   0.000053   0.000013   0.000013
    28  H   -0.000060  -0.000143   0.000004   0.000001  -0.000111  -0.000045
    29  H    0.000193   0.000129   0.000002   0.000008   0.000075   0.000470
    30  H    0.006826  -0.000782   0.000012  -0.000099  -0.000390  -0.001278
    31  H   -0.000003  -0.000124  -0.000178  -0.000213  -0.002016  -0.005589
    32  C    0.000000   0.000062  -0.000029  -0.000588   0.001505   0.000138
    33  H    0.000000   0.000023  -0.000005   0.000054   0.000429   0.000007
    34  H    0.000000  -0.000028  -0.000036   0.002665  -0.001487   0.000375
    35  H    0.000000  -0.000014   0.000013  -0.000124   0.000253  -0.000203
    36  H    0.005641   0.003920   0.000010  -0.000578   0.000104  -0.000251
              25         26         27         28         29         30
     1  C    0.002592  -0.000047   0.000019  -0.000085   0.000138   0.000625
     2  C   -0.004799   0.000184  -0.000333   0.002104  -0.001984   0.004965
     3  C   -0.063380  -0.016615   0.009120   0.001672  -0.003060  -0.002217
     4  C    0.391884  -0.046385  -0.036391  -0.005947   0.000354  -0.000832
     5  C   -0.048555   0.375984   0.391249  -0.057754   0.000078   0.000024
     6  O    0.011739  -0.041054  -0.029232   0.255520   0.000388  -0.000171
     7  N    0.001357   0.001323  -0.000534   0.061886  -0.034365  -0.046916
     8  C   -0.000603  -0.000021   0.000043  -0.004558   0.389871   0.394101
     9  C    0.000000   0.000000   0.000000  -0.000023  -0.000282  -0.000130
    10  C    0.000000  -0.000001   0.000000  -0.000044   0.001356  -0.000106
    11  C    0.000007   0.000009  -0.000002   0.001813  -0.016845   0.009279
    12  C    0.000109  -0.000029   0.000000  -0.002905  -0.033451  -0.048190
    13  C   -0.000034  -0.000006   0.000001  -0.000669   0.007975  -0.018869
    14  C   -0.000001   0.000000   0.000000   0.000008   0.000086   0.000092
    15  H    0.000000   0.000000   0.000000   0.000000   0.000004   0.000002
    16  H    0.000000   0.000000   0.000000   0.000004  -0.000053   0.000017
    17  H    0.000000   0.000000   0.000000   0.000003   0.000009  -0.000029
    18  F    0.000000   0.000034   0.000000   0.000899   0.012535   0.000067
    19  F   -0.000012   0.000000   0.000000  -0.000060   0.000193   0.006826
    20  H   -0.000890  -0.000013   0.000009  -0.000143   0.000129  -0.000782
    21  H    0.000155   0.000002  -0.000001   0.000004   0.000002   0.000012
    22  H   -0.001625  -0.000062   0.000053   0.000001   0.000008  -0.000099
    23  H   -0.000124  -0.000037   0.000013  -0.000111   0.000075  -0.000390
    24  H   -0.000257  -0.000014   0.000013  -0.000045   0.000470  -0.001278
    25  H    0.517240   0.011681  -0.009846  -0.001145  -0.000109   0.000064
    26  H    0.011681   0.560083  -0.045813  -0.002939  -0.000305   0.000018
    27  H   -0.009846  -0.045813   0.502427   0.005592   0.000012  -0.000004
    28  H   -0.001145  -0.002939   0.005592   0.344942  -0.001285   0.001536
    29  H   -0.000109  -0.000305   0.000012  -0.001285   0.448002  -0.036963
    30  H    0.000064   0.000018  -0.000004   0.001536  -0.036963   0.504679
    31  H    0.006885   0.004695  -0.000197  -0.000924   0.004261  -0.000728
    32  C   -0.035038   0.001640  -0.005758  -0.001163  -0.000035   0.000016
    33  H   -0.005375  -0.001118   0.006656  -0.000107   0.000004  -0.000003
    34  H   -0.007495  -0.000547   0.000038   0.000094   0.000003  -0.000002
    35  H    0.008195   0.004415  -0.001105   0.000006  -0.000026   0.000003
    36  H    0.003714   0.000412  -0.000084  -0.005496   0.006549  -0.008627
              31         32         33         34         35         36
     1  C    0.007792  -0.003706  -0.000063   0.000669   0.000314   0.005878
     2  C   -0.055850  -0.000423  -0.000070  -0.000345  -0.001646  -0.008773
     3  C    0.405211  -0.078956   0.008460  -0.006026  -0.006231  -0.046548
     4  C   -0.038141   0.289512  -0.038446  -0.028931  -0.040037  -0.002757
     5  C   -0.006610  -0.074786  -0.005928   0.006278  -0.004114  -0.000270
     6  O    0.000384   0.005394   0.000058  -0.000237  -0.000091   0.004796
     7  N   -0.034736   0.005063  -0.000213  -0.000166   0.000050   0.322820
     8  C   -0.007970  -0.000263   0.000019  -0.000018  -0.000027  -0.040269
     9  C    0.000001   0.000000   0.000000   0.000000   0.000000   0.000002
    10  C   -0.000006   0.000000   0.000000   0.000000   0.000000  -0.000023
    11  C    0.000050   0.000000   0.000000   0.000000   0.000000  -0.000492
    12  C    0.000019   0.000006   0.000000   0.000000   0.000001  -0.012296
    13  C   -0.000023   0.000000   0.000000   0.000000   0.000000   0.005089
    14  C    0.000001   0.000000   0.000000   0.000000   0.000000  -0.000045
    15  H    0.000000   0.000000   0.000000   0.000000   0.000000   0.000001
    16  H    0.000000   0.000000   0.000000   0.000000   0.000000  -0.000001
    17  H    0.000000   0.000000   0.000000   0.000000   0.000000  -0.000004
    18  F   -0.000176   0.000000   0.000000   0.000000   0.000000  -0.000071
    19  F   -0.000003   0.000000   0.000000   0.000000   0.000000   0.005641
    20  H   -0.000124   0.000062   0.000023  -0.000028  -0.000014   0.003920
    21  H   -0.000178  -0.000029  -0.000005  -0.000036   0.000013   0.000010
    22  H   -0.000213  -0.000588   0.000054   0.002665  -0.000124  -0.000578
    23  H   -0.002016   0.001505   0.000429  -0.001487   0.000253   0.000104
    24  H   -0.005589   0.000138   0.000007   0.000375  -0.000203  -0.000251
    25  H    0.006885  -0.035038  -0.005375  -0.007495   0.008195   0.003714
    26  H    0.004695   0.001640  -0.001118  -0.000547   0.004415   0.000412
    27  H   -0.000197  -0.005758   0.006656   0.000038  -0.001105  -0.000084
    28  H   -0.000924  -0.001163  -0.000107   0.000094   0.000006  -0.005496
    29  H    0.004261  -0.000035   0.000004   0.000003  -0.000026   0.006549
    30  H   -0.000728   0.000016  -0.000003  -0.000002   0.000003  -0.008627
    31  H    0.472887  -0.001890  -0.000306  -0.000399   0.005048   0.006949
    32  C   -0.001890   5.416173   0.391631   0.382612   0.382185   0.000448
    33  H   -0.000306   0.391631   0.466945  -0.027338  -0.027589   0.000009
    34  H   -0.000399   0.382612  -0.027338   0.469580  -0.026836  -0.000074
    35  H    0.005048   0.382185  -0.027589  -0.026836   0.481845   0.000026
    36  H    0.006949   0.000448   0.000009  -0.000074   0.000026   0.412576
 Mulliken charges:
               1
     1  C   -0.672700
     2  C   -0.470671
     3  C   -0.097485
     4  C   -0.316854
     5  C   -0.164158
     6  O   -0.624283
     7  N   -0.606663
     8  C   -0.363822
     9  C   -0.191864
    10  C   -0.285299
    11  C    0.333756
    12  C   -0.157101
    13  C    0.346396
    14  C   -0.281334
    15  H    0.234603
    16  H    0.236054
    17  H    0.235758
    18  F   -0.234719
    19  F   -0.236032
    20  H    0.219843
    21  H    0.234334
    22  H    0.234196
    23  H    0.239859
    24  H    0.234877
    25  H    0.223667
    26  H    0.194528
    27  H    0.214055
    28  H    0.409319
    29  H    0.256261
    30  H    0.244011
    31  H    0.241897
    32  C   -0.673750
    33  H    0.232268
    34  H    0.237649
    35  H    0.225689
    36  H    0.347716
 Sum of Mulliken charges =   0.00000
 Mulliken charges with hydrogens summed into heavy atoms:
               1
     1  C    0.015672
     2  C    0.004064
     3  C    0.144412
     4  C   -0.093187
     5  C    0.244426
     6  O   -0.214964
     7  N   -0.258947
     8  C    0.136449
     9  C    0.042739
    10  C   -0.049245
    11  C    0.333756
    12  C   -0.157101
    13  C    0.346396
    14  C   -0.045576
    18  F   -0.234719
    19  F   -0.236032
    32  C    0.021857
 Electronic spatial extent (au):  <R**2>=           4976.5118
 Charge=              0.0000 electrons
 Dipole moment (field-independent basis, Debye):
    X=             -0.8624    Y=              2.9430    Z=              1.9138  Tot=              3.6149
 Quadrupole moment (field-independent basis, Debye-Ang):
   XX=            -83.5308   YY=           -108.7629   ZZ=           -105.4351
   XY=              3.7028   XZ=              7.0071   YZ=             -5.1249
 Traceless Quadrupole moment (field-independent basis, Debye-Ang):
   XX=             15.7121   YY=             -9.5200   ZZ=             -6.1921
   XY=              3.7028   XZ=              7.0071   YZ=             -5.1249
 Octapole moment (field-independent basis, Debye-Ang**2):
  XXX=            -67.3180  YYY=              8.5172  ZZZ=             11.0857  XYY=             -8.1387
  XXY=            -13.6915  XXZ=            -25.6052  XZZ=             -6.2573  YZZ=             13.6879
  YYZ=             12.6251  XYZ=             -0.0377
 Hexadecapole moment (field-independent basis, Debye-Ang**3):
 XXXX=          -4289.4721 YYYY=          -1391.2502 ZZZZ=           -546.7223 XXXY=             36.6409
 XXXZ=             86.3869 YYYX=             19.6919 YYYZ=            -40.1469 ZZZX=             -1.8022
 ZZZY=            -45.5598 XXYY=           -951.8333 XXZZ=           -859.6638 YYZZ=           -335.3398
 XXYZ=            -22.5808 YYXZ=             16.8288 ZZXY=            -11.8536
 N-N= 1.279360275795D+03 E-N=-4.516477230221D+03  KE= 8.333489789816D+02
 1\1\GINC-CPU-E-331\SP\RmPW1PW91\6-311G(d)\C13H19F2N1O1\AH809\04-Mar-20
 19\0\\# mPW1PW91/6-311g(d) nmr=giao scrf=(solvent=chloroform)\\AT3_1gi
 np001\\0,1\C,0,-2.018268,0.551596,0.54875\C,0,-1.229634,-0.081686,1.68
 8046\C,0,-0.382155,0.898329,2.536349\C,0,-1.22895,1.992301,3.268862\C,
 0,-0.358993,2.860661,4.203262\O,0,0.546077,3.674424,3.468088\N,0,0.667
 97,1.568015,1.742432\C,0,1.733422,0.66478,1.299374\C,0,4.94283,2.92762
 2,-0.498633\C,0,5.059952,2.465078,0.811375\C,0,4.022078,1.730498,1.384
 387\C,0,2.85681,1.439844,0.673941\C,0,2.758444,1.914713,-0.635395\C,0,
 3.785798,2.650241,-1.224724\H,0,5.747111,3.503637,-0.949018\H,0,5.9518
 96,2.673339,1.394934\H,0,3.673539,3.005032,-2.244848\F,0,4.166645,1.29
 3218,2.643612\F,0,1.652337,1.665027,-1.352026\H,0,-1.359227,1.02033,-0
 .187592\H,0,-2.597194,-0.217941,0.027245\H,0,-2.723718,1.303101,0.9136
 02\H,0,-1.926298,-0.621103,2.340108\H,0,-0.583972,-0.862443,1.268773\H
 ,0,-1.670108,2.657101,2.514244\H,0,0.218045,2.240242,4.897572\H,0,-0.9
 82931,3.536055,4.797617\H,0,0.959797,3.073545,2.809751\H,0,2.11892,0.0
 85373,2.147007\H,0,1.361064,-0.060878,0.567149\H,0,0.109334,0.305512,3
 .320381\C,0,-2.366409,1.384371,4.098391\H,0,-2.8911,2.15905,4.668394\H
 ,0,-3.114628,0.901938,3.462923\H,0,-1.98571,0.642642,4.8085\H,0,0.2495
 99,2.005951,0.918208\\Version=ES64L-G09RevD.01\State=1-A\HF=-836.46673
 46\RMSD=7.165e-09\Dipole=0.0432419,-1.0765474,-0.9283747\Quadrupole=7.
 7442636,-5.8363211,-1.9079425,5.4238763,-5.2505726,-6.8764725\PG=C01 [
 X(C13H19F2N1O1)]\\@


 IT IS NOT EASY TO DESCRIBE
     THE SEA WITH THE MOUTH

                   -- KOKYU
 Job cpu time:       0 days  0 hours 16 minutes 47.0 seconds.
 File lengths (MBytes):  RWF=    182 Int=      0 D2E=      0 Chk=     10 Scr=      1
 Normal termination of Gaussian 09 at Mon Mar  4 11:28:45 2019.
