 Entering Gaussian System, Link 0=/usr/local/Cluster-Apps/gaussian/g09/g09
 Initial command:
 /usr/local/Cluster-Apps/gaussian/g09/l1.exe "/home/ah809/rds/hpc-work/04Mar1111AT3/Gau-88864.inp" -scrdir="/home/ah809/rds/hpc-work/04Mar1111AT3/"
 Entering Link 1 = /usr/local/Cluster-Apps/gaussian/g09/l1.exe PID=     88870.
  
 Copyright (c) 1988,1990,1992,1993,1995,1998,2003,2009,2013,
            Gaussian, Inc.  All Rights Reserved.
  
 This is part of the Gaussian(R) 09 program.  It is based on
 the Gaussian(R) 03 system (copyright 2003, Gaussian, Inc.),
 the Gaussian(R) 98 system (copyright 1998, Gaussian, Inc.),
 the Gaussian(R) 94 system (copyright 1995, Gaussian, Inc.),
 the Gaussian 92(TM) system (copyright 1992, Gaussian, Inc.),
 the Gaussian 90(TM) system (copyright 1990, Gaussian, Inc.),
 the Gaussian 88(TM) system (copyright 1988, Gaussian, Inc.),
 the Gaussian 86(TM) system (copyright 1986, Carnegie Mellon
 University), and the Gaussian 82(TM) system (copyright 1983,
 Carnegie Mellon University). Gaussian is a federally registered
 trademark of Gaussian, Inc.
  
 This software contains proprietary and confidential information,
 including trade secrets, belonging to Gaussian, Inc.
  
 This software is provided under written license and may be
 used, copied, transmitted, or stored only in accord with that
 written license.
  
 The following legend is applicable only to US Government
 contracts under FAR:
  
                    RESTRICTED RIGHTS LEGEND
  
 Use, reproduction and disclosure by the US Government is
 subject to restrictions as set forth in subparagraphs (a)
 and (c) of the Commercial Computer Software - Restricted
 Rights clause in FAR 52.227-19.
  
 Gaussian, Inc.
 340 Quinnipiac St., Bldg. 40, Wallingford CT 06492
  
  
 ---------------------------------------------------------------
 Warning -- This program may not be used in any manner that
 competes with the business of Gaussian, Inc. or will provide
 assistance to any competitor of Gaussian, Inc.  The licensee
 of this program is prohibited from giving any competitor of
 Gaussian, Inc. access to this program.  By using this program,
 the user acknowledges that Gaussian, Inc. is engaged in the
 business of creating and licensing software in the field of
 computational chemistry and represents and warrants to the
 licensee that it is not a competitor of Gaussian, Inc. and that
 it will not use this program in any manner prohibited above.
 ---------------------------------------------------------------
  

 Cite this work as:
 Gaussian 09, Revision D.01,
 M. J. Frisch, G. W. Trucks, H. B. Schlegel, G. E. Scuseria, 
 M. A. Robb, J. R. Cheeseman, G. Scalmani, V. Barone, B. Mennucci, 
 G. A. Petersson, H. Nakatsuji, M. Caricato, X. Li, H. P. Hratchian, 
 A. F. Izmaylov, J. Bloino, G. Zheng, J. L. Sonnenberg, M. Hada, 
 M. Ehara, K. Toyota, R. Fukuda, J. Hasegawa, M. Ishida, T. Nakajima, 
 Y. Honda, O. Kitao, H. Nakai, T. Vreven, J. A. Montgomery, Jr., 
 J. E. Peralta, F. Ogliaro, M. Bearpark, J. J. Heyd, E. Brothers, 
 K. N. Kudin, V. N. Staroverov, T. Keith, R. Kobayashi, J. Normand, 
 K. Raghavachari, A. Rendell, J. C. Burant, S. S. Iyengar, J. Tomasi, 
 M. Cossi, N. Rega, J. M. Millam, M. Klene, J. E. Knox, J. B. Cross, 
 V. Bakken, C. Adamo, J. Jaramillo, R. Gomperts, R. E. Stratmann, 
 O. Yazyev, A. J. Austin, R. Cammi, C. Pomelli, J. W. Ochterski, 
 R. L. Martin, K. Morokuma, V. G. Zakrzewski, G. A. Voth, 
 P. Salvador, J. J. Dannenberg, S. Dapprich, A. D. Daniels, 
 O. Farkas, J. B. Foresman, J. V. Ortiz, J. Cioslowski, 
 and D. J. Fox, Gaussian, Inc., Wallingford CT, 2013.
 
 ******************************************
 Gaussian 09:  ES64L-G09RevD.01 24-Apr-2013
                 4-Mar-2019 
 ******************************************
 %nprocshared=8
 Will use up to    8 processors via shared memory.
 %mem=6000MB
 %chk=AT3_2ginp011.chk
 -------------------------------------------------------
 # mPW1PW91/6-311g(d) nmr=giao scrf=(solvent=chloroform)
 -------------------------------------------------------
 1/38=1/1;
 2/12=2,17=6,18=5,40=1/2;
 3/5=4,6=6,7=1,11=2,16=1,25=1,30=1,70=2201,72=7,74=-7/1,2,8,3;
 4//1;
 5/5=2,38=5,53=7/2;
 8/6=1,10=90,11=11/1;
 10/13=100,45=16/2;
 6/7=2,8=2,9=2,10=2,28=1/1;
 99/9=1/99;
 ------------
 AT3_2ginp011
 ------------
 Symbolic Z-matrix:
 Charge =  0 Multiplicity = 1
 C                    -0.99271  -1.65237   0.364 
 C                    -2.48253  -1.3364    0.3565 
 C                    -3.11929  -1.2942    1.76538 
 C                    -2.44275  -0.27781   2.733 
 C                    -3.03318  -0.40539   4.14973 
 O                    -2.25658   0.33513   5.08842 
 N                    -4.55848  -0.99269   1.67121 
 C                    -5.36808  -2.15381   1.29661 
 C                    -9.5704   -1.15516   1.3781 
 C                    -8.77879  -0.77735   0.29496 
 C                    -7.42429  -1.1081    0.27841 
 C                    -6.83128  -1.8172    1.32488 
 C                    -7.64037  -2.18296   2.40139 
 C                    -8.99717  -1.86072   2.43507 
 H                    -10.62676  -0.90007   1.39992 
 H                    -9.20518  -0.22489  -0.53696 
 H                    -9.59608  -2.16308   3.28907 
 F                    -6.68269  -0.7285   -0.77291 
 F                    -7.12099  -2.86836   3.43014 
 H                    -0.63782  -1.80497  -0.66055 
 H                    -0.40886  -0.83294   0.79266 
 H                    -0.78652  -2.56453   0.93255 
 H                    -2.64588  -0.39194  -0.17571 
 H                    -2.97548  -2.11149  -0.24244 
 H                    -1.37812  -0.53097   2.81619 
 H                    -3.01651  -1.45052   4.47579 
 H                    -4.06844  -0.05189   4.2035 
 H                    -2.50741   1.26944   4.99309 
 H                    -5.11111  -2.51237   0.2931 
 H                    -5.1751   -2.98704   1.98334 
 H                    -2.99044  -2.28678   2.21913 
 C                    -2.50951   1.17646   2.24448 
 H                    -2.07057   1.28513   1.24861 
 H                    -3.54007   1.54376   2.20663 
 H                    -1.94591   1.83877   2.90987 
 H                    -4.71173  -0.25242   0.9849 
 
                          Input orientation:                          
 ---------------------------------------------------------------------
 Center     Atomic      Atomic             Coordinates (Angstroms)
 Number     Number       Type             X           Y           Z
 ---------------------------------------------------------------------
      1          6           0       -0.992706   -1.652372    0.363999
      2          6           0       -2.482533   -1.336399    0.356501
      3          6           0       -3.119285   -1.294203    1.765375
      4          6           0       -2.442750   -0.277814    2.732997
      5          6           0       -3.033183   -0.405391    4.149725
      6          8           0       -2.256579    0.335125    5.088415
      7          7           0       -4.558475   -0.992689    1.671213
      8          6           0       -5.368076   -2.153806    1.296607
      9          6           0       -9.570399   -1.155165    1.378103
     10          6           0       -8.778785   -0.777352    0.294960
     11          6           0       -7.424294   -1.108102    0.278405
     12          6           0       -6.831281   -1.817196    1.324882
     13          6           0       -7.640374   -2.182959    2.401395
     14          6           0       -8.997168   -1.860716    2.435065
     15          1           0      -10.626755   -0.900065    1.399924
     16          1           0       -9.205183   -0.224889   -0.536959
     17          1           0       -9.596084   -2.163079    3.289075
     18          9           0       -6.682687   -0.728495   -0.772913
     19          9           0       -7.120992   -2.868362    3.430145
     20          1           0       -0.637815   -1.804965   -0.660546
     21          1           0       -0.408861   -0.832941    0.792661
     22          1           0       -0.786517   -2.564530    0.932553
     23          1           0       -2.645884   -0.391944   -0.175707
     24          1           0       -2.975482   -2.111491   -0.242435
     25          1           0       -1.378118   -0.530966    2.816185
     26          1           0       -3.016509   -1.450521    4.475790
     27          1           0       -4.068440   -0.051887    4.203504
     28          1           0       -2.507413    1.269441    4.993092
     29          1           0       -5.111110   -2.512372    0.293103
     30          1           0       -5.175101   -2.987038    1.983340
     31          1           0       -2.990435   -2.286777    2.219133
     32          6           0       -2.509505    1.176460    2.244476
     33          1           0       -2.070565    1.285133    1.248609
     34          1           0       -3.540074    1.543764    2.206632
     35          1           0       -1.945911    1.838770    2.909866
     36          1           0       -4.711731   -0.252424    0.984899
 ---------------------------------------------------------------------
                    Distance matrix (angstroms):
                    1          2          3          4          5
     1  C    0.000000
     2  C    1.522984   0.000000
     3  C    2.571863   1.546661   0.000000
     4  C    3.099063   2.601907   1.557896   0.000000
     5  C    4.477748   3.944431   2.546080   1.540132   0.000000
     6  O    5.278980   5.023550   3.800206   2.440973   1.425699
     7  N    3.854698   2.481157   1.473447   2.472797   2.968915
     8  C    4.501673   3.142978   2.452697   3.760332   4.080314
     9  C    8.651730   7.163404   6.464223   7.308137   7.139975
    10  C    7.835397   6.321322   5.870196   6.807268   6.928890
    11  C    6.455144   4.947648   4.558379   5.615174   5.895997
    12  C    5.919411   4.481131   3.774450   4.859186   4.939482
    13  C    6.973091   5.612627   4.651307   5.545704   5.238570
    14  C    8.270679   6.858266   5.942973   6.749425   6.373943
    15  H    9.718745   8.222376   7.526686   8.315180   8.091257
    16  H    8.384164   6.872245   6.594113   7.511718   7.751850
    17  H    9.101374   7.738604   6.710107   7.418466   6.848493
    18  F    5.875543   4.391630   4.411436   5.520107   6.136419
    19  F    6.959581   5.771438   4.611192   5.392857   4.826407
    20  H    1.094954   2.157991   3.507658   4.135954   5.552954
    21  H    1.093660   2.178031   2.916390   2.865270   4.282493
    22  H    1.094440   2.171776   2.783726   3.348698   4.478793
    23  H    2.147780   1.096323   2.192254   2.918021   4.342758
    24  H    2.123665   1.096581   2.172542   3.535445   4.712237
    25  H    2.723841   2.813983   2.172187   1.097473   2.129164
    26  H    4.587303   4.155321   2.716864   2.177560   1.094940
    27  H    5.173344   4.354825   2.896328   2.203702   1.095269
    28  H    5.679774   5.318740   4.167111   2.739746   1.947502
    29  H    4.207835   2.880338   2.760233   4.250468   4.861140
    30  H    4.679319   3.552624   2.671999   3.920156   3.993237
    31  H    2.799091   2.151878   1.098955   2.144749   2.696039
    32  C    3.720103   3.143189   2.589507   1.535585   2.531100
    33  H    3.251654   2.799644   2.831931   2.187403   3.492990
    34  H    4.483265   3.582836   2.902728   2.190737   2.798527
    35  H    4.424716   4.109664   3.535843   2.181298   2.784900
    36  H    4.022004   2.557188   2.056777   2.864396   3.585672
                    6          7          8          9         10
     6  O    0.000000
     7  N    4.328866   0.000000
     8  C    5.500364   1.464232   0.000000
     9  C    8.335427   5.023116   4.320121   0.000000
    10  C    8.170311   4.444261   3.811936   1.393770   0.000000
    11  C    7.205857   3.188441   2.521560   2.411912   1.394387
    12  C    6.302743   2.442418   1.501691   2.818490   2.436142
    13  C    6.522735   3.383491   2.526805   2.414225   2.776469
    14  C    7.569513   4.586822   3.814747   1.394118   2.408613
    15  H    9.229870   6.075047   5.407055   1.086941   2.156617
    16  H    8.957765   5.201676   4.669698   2.160152   1.085873
    17  H    7.959082   5.418929   4.673978   2.160640   3.398962
    18  F    7.421380   3.248973   2.835952   3.625989   2.352948
    19  F    6.055964   3.630218   2.852243   3.625674   4.117036
    20  H    6.344362   4.633408   5.131034   9.185281   8.261015
    21  H    4.819953   4.244605   5.156788   9.185878   8.384893
    22  H    5.276388   4.152586   4.614316   8.907379   8.214431
    23  H    5.328336   2.725805   3.561207   7.137628   6.162998
    24  H    5.909375   2.723900   2.845162   6.858107   5.978883
    25  H    2.585505   3.411571   4.567548   8.340934   7.822222
    26  H    2.035027   3.233098   4.016426   7.255093   7.150966
    27  H    2.053214   2.745495   3.815386   6.282648   6.163633
    28  H    0.972086   4.512091   5.793618   8.296543   8.098883
    29  H    6.265110   2.124624   1.096185   4.785864   4.057356
    30  H    5.403335   2.110706   1.096867   4.800074   4.551909
    31  H    3.955464   2.105619   2.553803   6.729324   6.283773
    32  C    2.976542   3.038440   4.490051   7.486207   6.849954
    33  H    3.959953   3.399524   4.764681   7.887923   7.082620
    34  H    3.378290   2.785212   4.223951   6.658491   6.040378
    35  H    2.665246   4.046840   5.500407   8.333232   7.769813
    36  H    4.817866   1.021032   2.035486   4.957439   4.158424
                   11         12         13         14         15
    11  C    0.000000
    12  C    1.396278   0.000000
    13  C    2.389371   1.395455   0.000000
    14  C    2.773363   2.434228   1.394942   0.000000
    15  H    3.399535   3.905430   3.401063   2.156368   0.000000
    16  H    2.148592   3.411349   3.862200   3.398842   2.495645
    17  H    3.859246   3.409080   2.147830   1.086028   2.495271
    18  F    1.341399   2.368141   3.620616   4.114592   4.506254
    19  F    3.622702   2.370868   1.340844   2.350653   4.504039
    20  H    6.886475   6.503929   7.652071   8.914297  10.239302
    21  H    7.039636   6.519164   7.530296   8.804137  10.236143
    22  H    6.827091   6.103409   7.019861   8.376615   9.990954
    23  H    4.853071   4.669118   5.898654   7.022267   8.150773
    24  H    4.590206   4.172563   5.362477   6.594892   7.918767
    25  H    6.582527   5.797875   6.489760   7.743604   9.363723
    26  H    6.096217   4.961366   5.120518   6.332543   8.226773
    27  H    5.271029   4.363035   4.532966   5.540000   7.182685
    28  H    7.215033   6.455922   6.706955   7.645803   9.140094
    29  H    2.706106   2.122929   3.309167   4.484875   5.852087
    30  H    3.390586   2.131907   2.626573   4.010094   5.866546
    31  H    4.981446   3.971434   4.654668   6.025695   7.804323
    32  C    5.765398   5.337169   6.134830   7.165929   8.421103
    33  H    5.944012   5.682841   6.661783   7.699472   8.832122
    34  H    5.083072   4.785977   5.544263   6.436035   7.539504
    35  H    6.754356   6.304372   6.989975   7.976958   9.227036
    36  H    2.930754   2.656425   3.782906   4.801516   5.964830
                   16         17         18         19         20
    16  H    0.000000
    17  H    4.306730   0.000000
    18  F    2.583076   5.200544   0.000000
    19  F    5.202857   2.577480   4.736754   0.000000
    20  H    8.712733   9.796853   6.141001   7.739260   0.000000
    21  H    8.917000   9.612826   6.467057   7.493461   1.763253
    22  H    8.860436   9.128134   6.406595   6.815853   1.771162
    23  H    6.571363   7.965357   4.094594   6.257908   2.502806
    24  H    6.515764   7.503772   3.992174   5.589808   2.394465
    25  H    8.520575   8.391805   6.407737   6.230648   3.776080
    26  H    8.057885   6.723603   6.442908   4.466590   5.671487
    27  H    6.991999   5.987333   5.661874   4.224771   6.204954
    28  H    8.813320   8.058233   7.394016   6.391348   6.701566
    29  H    4.762669   5.404891   2.605468   3.742644   4.628200
    30  H    5.497539   4.682835   3.869207   2.427719   5.382787
    31  H    7.104261   6.692882   5.001331   4.343535   3.749602
    32  C    7.384596   7.903373   5.490805   6.247576   4.564129
    33  H    7.508075   8.525673   5.423368   6.893289   3.904658
    34  H    6.538263   7.182453   4.890487   5.812643   5.278049
    35  H    8.296766   8.641976   6.526159   7.014930   5.266475
    36  H    4.744251   5.728589   2.683508   4.315889   4.659900
                   21         22         23         24         25
    21  H    0.000000
    22  H    1.777806   0.000000
    23  H    2.477193   3.066858   0.000000
    24  H    3.048550   2.525353   1.752121   0.000000
    25  H    2.263912   2.834333   3.252380   3.795364   0.000000
    26  H    4.554852   4.332252   4.784806   4.764474   2.506830
    27  H    5.063241   5.271007   4.617011   5.020249   3.064638
    28  H    5.144662   5.843697   5.431009   6.249843   3.042318
    29  H    5.018087   4.371924   3.285321   2.237948   4.922107
    30  H    5.364224   4.532365   4.218167   3.249459   4.598152
    31  H    3.288310   2.567039   3.073169   2.467846   2.457419
    32  C    3.249333   4.322596   2.887174   4.148793   2.126544
    33  H    2.730455   4.070452   2.274259   3.818264   2.496997
    34  H    4.177623   5.107194   3.197199   4.435942   3.057795
    35  H    3.739401   4.964173   3.871280   5.157672   2.438609
    36  H    4.346107   4.555862   2.373646   2.824365   3.813682
                   26         27         28         29         30
    26  H    0.000000
    27  H    1.771123   0.000000
    28  H    2.815133   2.192296   0.000000
    29  H    4.796848   4.736284   6.570483   0.000000
    30  H    3.637679   3.843038   5.856004   1.756788   0.000000
    31  H    2.406762   3.177193   4.535950   2.873630   2.306237
    32  C    3.483797   2.788710   2.750189   4.917691   4.950587
    33  H    4.335125   3.809269   3.769912   4.957716   5.331924
    34  H    3.793276   2.610128   2.984292   4.752051   4.821964
    35  H    3.797069   3.123013   2.231423   5.983174   5.880012
    36  H    4.061469   3.288382   4.820861   2.396967   2.947831
                   31         32         33         34         35
    31  H    0.000000
    32  C    3.496562   0.000000
    33  H    3.814003   1.093723   0.000000
    34  H    3.869794   1.094722   1.773176   0.000000
    35  H    4.311413   1.095005   1.755513   1.767179   0.000000
    36  H    2.936799   2.911708   3.067472   2.468138   3.965898
                   36
    36  H    0.000000
 Stoichiometry    C13H19F2NO
 Framework group  C1[X(C13H19F2NO)]
 Deg. of freedom   102
 Full point group                 C1      NOp   1
 Largest Abelian subgroup         C1      NOp   1
 Largest concise Abelian subgroup C1      NOp   1
                         Standard orientation:                         
 ---------------------------------------------------------------------
 Center     Atomic      Atomic             Coordinates (Angstroms)
 Number     Number       Type             X           Y           Z
 ---------------------------------------------------------------------
      1          6           0       -3.615274   -2.234119   -1.101245
      2          6           0       -2.228396   -1.939203   -0.545301
      3          6           0       -1.869164   -0.434937   -0.528074
      4          6           0       -2.876771    0.444939    0.270414
      5          6           0       -2.533455    1.937998    0.112567
      6          8           0       -3.583546    2.754086    0.626304
      7          7           0       -0.513366   -0.235441    0.013273
      8          6           0        0.543837   -0.517485   -0.959738
      9          6           0        4.418426    0.421345    0.704475
     10          6           0        3.776643   -0.768232    1.044496
     11          6           0        2.527650   -1.061845    0.498489
     12          6           0        1.894929   -0.191354   -0.391175
     13          6           0        2.552653    0.995769   -0.715881
     14          6           0        3.802362    1.306086   -0.179416
     15          1           0        5.391435    0.658893    1.126688
     16          1           0        4.238062   -1.469485    1.733305
     17          1           0        4.284753    2.238946   -0.456051
     18          9           0        1.928310   -2.210614    0.845581
     19          9           0        1.990107    1.864308   -1.568550
     20          1           0       -3.750063   -3.314698   -1.215722
     21          1           0       -4.402554   -1.876454   -0.431650
     22          1           0       -3.752706   -1.770422   -2.083028
     23          1           0       -2.144627   -2.373515    0.457834
     24          1           0       -1.506847   -2.478386   -1.170714
     25          1           0       -3.876737    0.308834   -0.160853
     26          1           0       -2.420778    2.192231   -0.946472
     27          1           0       -1.604093    2.208696    0.625034
     28          1           0       -3.490673    2.763934    1.593893
     29          1           0        0.536867   -1.571054   -1.262335
     30          1           0        0.384174    0.069224   -1.872644
     31          1           0       -1.897056   -0.073796   -1.565620
     32          6           0       -2.985240    0.065357    1.754386
     33          1           0       -3.253095   -0.987585    1.880069
     34          1           0       -2.046651    0.246199    2.288019
     35          1           0       -3.766800    0.649514    2.251338
     36          1           0       -0.375624   -0.834822    0.828304
 ---------------------------------------------------------------------
 Rotational constants (GHZ):      0.6656265      0.2442190      0.2089313
 Standard basis: 6-311G(d) (5D, 7F)
 There are   380 symmetry adapted cartesian basis functions of A   symmetry.
 There are   363 symmetry adapted basis functions of A   symmetry.
   363 basis functions,   639 primitive gaussians,   380 cartesian basis functions
    65 alpha electrons       65 beta electrons
       nuclear repulsion energy      1253.9032604056 Hartrees.
 NAtoms=   36 NActive=   36 NUniq=   36 SFac= 1.00D+00 NAtFMM=   60 NAOKFM=F Big=F
 Integral buffers will be    131072 words long.
 Raffenetti 2 integral format.
 Two-electron integral symmetry is turned on.
 ------------------------------------------------------------------------------
 Polarizable Continuum Model (PCM)
 =================================
 Model                : PCM (using non-symmetric T matrix).
 Atomic radii         : UFF (Universal Force Field).
 Polarization charges : Total charges.
 Charge compensation  : None.
 Solution method      : On-the-fly selection.
 Cavity type          : Scaled VdW (van der Waals Surface) (Alpha=1.100).
 Cavity algorithm     : GePol (No added spheres)
                        Default sphere list used, NSphG=   36.
                        Lebedev-Laikov grids with approx.  5.0 points / Ang**2.
                        Smoothing algorithm: Karplus/York (Gamma=1.0000).
                        Polarization charges: spherical gaussians, with
                                              point-specific exponents (IZeta= 3).
                        Self-potential: point-specific (ISelfS= 7).
                        Self-field    : sphere-specific E.n sum rule (ISelfD= 2).
 Solvent              : Chloroform, Eps=   4.711300 Eps(inf)=   2.090627
 ------------------------------------------------------------------------------
 One-electron integrals computed using PRISM.
 NBasis=   363 RedAO= T EigKep=  2.47D-04  NBF=   363
 NBsUse=   363 1.00D-06 EigRej= -1.00D+00 NBFU=   363
 ExpMin= 1.03D-01 ExpMax= 1.14D+04 ExpMxC= 1.72D+03 IAcc=1 IRadAn=         1 AccDes= 0.00D+00
 Harris functional with IExCor=  908 and IRadAn=       1 diagonalized for initial guess.
 HarFok:  IExCor=  908 AccDes= 0.00D+00 IRadAn=         1 IDoV= 1 UseB2=F ITyADJ=14
 ICtDFT=  3500011 ScaDFX=  1.000000  1.000000  1.000000  1.000000
 FoFCou: FMM=F IPFlag=           0 FMFlag=      100000 FMFlg1=           0
         NFxFlg=           0 DoJE=T BraDBF=F KetDBF=T FulRan=T
         wScrn=  0.000000 ICntrl=     500 IOpCl=  0 I1Cent=   200000004 NGrid=           0
         NMat0=    1 NMatS0=      1 NMatT0=    0 NMatD0=    1 NMtDS0=    0 NMtDT0=    0
 Petite list used in FoFCou.
 Requested convergence on RMS density matrix=1.00D-08 within 128 cycles.
 Requested convergence on MAX density matrix=1.00D-06.
 Requested convergence on             energy=1.00D-06.
 No special actions if energy rises.
 Inv3:  Mode=1 IEnd=    19111728.
 Iteration    1 A*A^-1 deviation from unit magnitude is 5.22D-15 for   2489.
 Iteration    1 A*A^-1 deviation from orthogonality  is 2.27D-15 for   2468     52.
 Iteration    1 A^-1*A deviation from unit magnitude is 5.22D-15 for   2489.
 Iteration    1 A^-1*A deviation from orthogonality  is 2.61D-13 for   2474   2439.
 Error on total polarization charges =  0.00936
 SCF Done:  E(RmPW1PW91) =  -836.457714812     A.U. after   12 cycles
            NFock= 12  Conv=0.74D-08     -V/T= 2.0037
 DoSCS=F DFT=T ScalE2(SS,OS)=  1.000000  1.000000
 Range of M.O.s used for correlation:     1   363
 NBasis=   363 NAE=    65 NBE=    65 NFC=     0 NFV=     0
 NROrb=    363 NOA=    65 NOB=    65 NVA=   298 NVB=   298

 **** Warning!!: The largest alpha MO coefficient is  0.12039014D+02

 NEqPCM:  Using equilibrium solvation (IEInf=0, Eps=   4.7113, EpsInf=   2.0906)
          Differentiating once with respect to magnetic field using GIAOs.
          Electric field/nuclear overlap derivatives assumed to be zero.
 FoFJK:  IHMeth= 1 ICntrl=    6127 DoSepK=F KAlg= 0 I1Cent=   0 FoldK=F
 IRaf=         1 NMat=   1 IRICut=       1 DoRegI=T DoRafI=F ISym2E= 0.
          There are     3 degrees of freedom in the 1st order CPHF.  IDoFFX=0 NUNeed=     3.
      3 vectors produced by pass  0 Test12= 6.46D-13 3.33D-08 XBig12= 4.04D+01 1.75D+00.
 AX will form     3 AO Fock derivatives at one time.
      3 vectors produced by pass  1 Test12= 6.46D-13 3.33D-08 XBig12= 1.17D-01 1.45D-01.
      3 vectors produced by pass  2 Test12= 6.46D-13 3.33D-08 XBig12= 5.84D-04 6.58D-03.
      3 vectors produced by pass  3 Test12= 6.46D-13 3.33D-08 XBig12= 1.44D-06 2.37D-04.
      3 vectors produced by pass  4 Test12= 6.46D-13 3.33D-08 XBig12= 3.45D-09 1.32D-05.
      3 vectors produced by pass  5 Test12= 6.46D-13 3.33D-08 XBig12= 1.39D-11 6.21D-07.
      1 vectors produced by pass  6 Test12= 6.46D-13 3.33D-08 XBig12= 3.39D-14 4.18D-08.
 InvSVY:  IOpt=1 It=  1 EMax= 1.78D-15
 Solved reduced A of dimension    19 with     3 vectors.
 Calculating GIAO nuclear magnetic shielding tensors.
 SCF GIAO Magnetic shielding tensor (ppm):
      1  C    Isotropic =   175.5590   Anisotropy =    19.1676
   XX=   181.5371   YX=     5.7929   ZX=     8.9900
   XY=     4.7387   YY=   172.4280   ZY=    -0.2161
   XZ=     8.3412   YZ=     1.5229   ZZ=   172.7118
   Eigenvalues:   166.4117   171.9278   188.3374
      2  C    Isotropic =   161.5631   Anisotropy =    24.5681
   XX=   159.2727   YX=     7.4410   ZX=    13.7582
   XY=    11.7482   YY=   171.4853   ZY=    -3.8040
   XZ=    18.5106   YZ=    -4.9419   ZZ=   153.9314
   Eigenvalues:   137.5223   169.2253   177.9419
      3  C    Isotropic =   122.7084   Anisotropy =    31.6373
   XX=   140.5613   YX=    -0.7091   ZX=     3.6436
   XY=    12.9586   YY=   112.6181   ZY=     6.6214
   XZ=     9.8077   YZ=     2.1026   ZZ=   114.9457
   Eigenvalues:   109.2413   115.0839   143.7999
      4  C    Isotropic =   146.3619   Anisotropy =    24.9767
   XX=   149.0892   YX=    -3.8632   ZX=    -3.1878
   XY=   -11.1227   YY=   158.4534   ZY=     6.0293
   XZ=    -6.3449   YZ=    -3.2247   ZZ=   131.5432
   Eigenvalues:   130.3227   145.7500   163.0131
      5  C    Isotropic =   116.4957   Anisotropy =    51.7007
   XX=   121.9253   YX=   -18.9030   ZX=   -17.6298
   XY=   -19.3081   YY=   129.8172   ZY=     1.6474
   XZ=   -23.3654   YZ=     7.8361   ZZ=    97.7446
   Eigenvalues:    85.2642   113.2601   150.9629
      6  O    Isotropic =   306.7177   Anisotropy =    46.5779
   XX=   303.9894   YX=   -11.7769   ZX=     7.2070
   XY=     9.0389   YY=   280.1281   ZY=    -8.6628
   XZ=     4.3093   YZ=    -4.0354   ZZ=   336.0357
   Eigenvalues:   279.3946   302.9889   337.7696
      7  N    Isotropic =   200.2483   Anisotropy =    56.4561
   XX=   215.1784   YX=     8.8156   ZX=    36.2244
   XY=    22.5218   YY=   167.8594   ZY=   -17.1642
   XZ=     6.5621   YZ=   -10.0015   ZZ=   217.7070
   Eigenvalues:   156.6583   206.2009   237.8857
      8  C    Isotropic =   146.4424   Anisotropy =    52.7937
   XX=   162.1673   YX=    -3.7111   ZX=   -19.1279
   XY=   -11.6407   YY=   121.0087   ZY=     6.9895
   XZ=   -22.0225   YZ=     6.1627   ZZ=   156.1510
   Eigenvalues:   119.3236   138.3654   181.6381
      9  C    Isotropic =    54.8516   Anisotropy =   185.5631
   XX=    -6.8279   YX=   -46.5134   ZX=   -79.8843
   XY=   -46.0054   YY=    63.4942   ZY=    41.8229
   XZ=   -79.1257   YZ=    41.5675   ZZ=   107.8885
   Eigenvalues:   -52.4733    38.4677   178.5603
     10  C    Isotropic =    71.1592   Anisotropy =   147.9625
   XX=    68.8463   YX=    -9.0454   ZX=   -53.4231
   XY=    -2.4336   YY=    49.0248   ZY=    70.7148
   XZ=   -58.3846   YZ=    67.2609   ZZ=    95.6064
   Eigenvalues:   -12.3134    55.9901   169.8008
     11  C    Isotropic =    19.3485   Anisotropy =    98.1087
   XX=    28.8169   YX=   -50.7282   ZX=    -3.3073
   XY=   -44.0372   YY=   -26.7423   ZY=    41.1324
   XZ=    -4.6415   YZ=    42.3308   ZZ=    55.9708
   Eigenvalues:   -64.0654    37.3566    84.7543
     12  C    Isotropic =    65.5643   Anisotropy =   141.7747
   XX=    48.9205   YX=   -29.2359   ZX=   -51.2352
   XY=   -29.0043   YY=    47.8373   ZY=    48.9315
   XZ=   -48.4633   YZ=    50.7048   ZZ=    99.9352
   Eigenvalues:    17.2746    19.3376   160.0808
     13  C    Isotropic =    19.6413   Anisotropy =   100.2827
   XX=    29.4495   YX=    19.8462   ZX=   -46.4191
   XY=    14.6352   YY=     1.5984   ZY=    59.6930
   XZ=   -39.2297   YZ=    58.0514   ZZ=    27.8759
   Eigenvalues:   -63.6830    36.1104    86.4964
     14  C    Isotropic =    70.6016   Anisotropy =   148.8952
   XX=    66.7135   YX=   -43.9563   ZX=   -34.1324
   XY=   -51.1616   YY=    27.8383   ZY=    54.9003
   XZ=   -29.4826   YZ=    59.1671   ZZ=   117.2530
   Eigenvalues:   -12.8913    54.8311   169.8650
     15  H    Isotropic =    24.5517   Anisotropy =     3.2106
   XX=    25.1146   YX=     1.0297   ZX=     1.5521
   XY=     0.9737   YY=    25.4270   ZY=    -2.1087
   XZ=     1.5848   YZ=    -2.1371   ZZ=    23.1135
   Eigenvalues:    21.0096    25.9534    26.6921
     16  H    Isotropic =    25.2417   Anisotropy =     5.0296
   XX=    27.4301   YX=     1.3425   ZX=     2.3334
   XY=     1.5570   YY=    25.0682   ZY=    -1.2571
   XZ=     2.0799   YZ=    -1.3764   ZZ=    23.2270
   Eigenvalues:    21.3946    25.7359    28.5948
     17  H    Isotropic =    25.2089   Anisotropy =     4.8433
   XX=    27.2782   YX=     1.4856   ZX=     2.2224
   XY=     1.0285   YY=    24.7985   ZY=    -1.6075
   XZ=     2.3367   YZ=    -1.4112   ZZ=    23.5498
   Eigenvalues:    21.3951    25.7937    28.4377
     18  F    Isotropic =   306.7825   Anisotropy =   126.7481
   XX=   269.8047   YX=   -19.2292   ZX=   -56.3279
   XY=    -2.2892   YY=   324.4744   ZY=    38.1142
   XZ=   -55.2819   YZ=    54.1041   ZZ=   326.0684
   Eigenvalues:   232.4844   296.5819   391.2813
     19  F    Isotropic =   301.0278   Anisotropy =   126.8415
   XX=   266.2197   YX=   -48.0397   ZX=   -39.2651
   XY=   -50.8893   YY=   285.9409   ZY=    30.1223
   XZ=   -33.6485   YZ=    25.9783   ZZ=   350.9227
   Eigenvalues:   224.6286   292.8659   385.5888
     20  H    Isotropic =    30.9802   Anisotropy =    11.2975
   XX=    29.9904   YX=     4.2006   ZX=     1.7744
   XY=     3.2245   YY=    36.1030   ZY=     2.1528
   XZ=     1.6042   YZ=     2.3642   ZZ=    26.8472
   Eigenvalues:    26.0546    28.3742    38.5119
     21  H    Isotropic =    31.0717   Anisotropy =     7.2039
   XX=    35.3349   YX=     0.8403   ZX=    -2.1462
   XY=     1.2757   YY=    28.9732   ZY=     2.5481
   XZ=    -1.6439   YZ=     2.4404   ZZ=    28.9069
   Eigenvalues:    25.9749    31.3658    35.8743
     22  H    Isotropic =    31.3980   Anisotropy =     9.2273
   XX=    30.2881   YX=     0.6213   ZX=     4.6277
   XY=     1.1011   YY=    28.6898   ZY=    -0.8230
   XZ=     3.5702   YZ=    -0.9816   ZZ=    35.2159
   Eigenvalues:    27.0783    29.5661    37.5495
     23  H    Isotropic =    30.8737   Anisotropy =     4.9963
   XX=    29.5461   YX=     0.5910   ZX=     1.9020
   XY=     0.2512   YY=    31.4087   ZY=    -2.7701
   XZ=     0.9143   YZ=    -2.3120   ZZ=    31.6662
   Eigenvalues:    27.9298    30.4868    34.2046
     24  H    Isotropic =    29.7951   Anisotropy =     6.0286
   XX=    33.0640   YX=    -0.2182   ZX=    -1.5089
   XY=    -0.4206   YY=    30.7073   ZY=     3.7566
   XZ=    -1.2215   YZ=     3.3226   ZZ=    25.6140
   Eigenvalues:    23.6771    31.8940    33.8142
     25  H    Isotropic =    30.2053   Anisotropy =     5.4879
   XX=    32.2926   YX=    -0.7421   ZX=     3.3117
   XY=    -0.2371   YY=    29.6162   ZY=     1.6287
   XZ=     2.3098   YZ=     1.5770   ZZ=    28.7071
   Eigenvalues:    26.3403    30.4117    33.8639
     26  H    Isotropic =    28.4937   Anisotropy =     4.8049
   XX=    26.5476   YX=    -2.3155   ZX=    -3.1890
   XY=    -2.2558   YY=    30.2704   ZY=    -1.7075
   XZ=    -2.6151   YZ=    -2.3868   ZZ=    28.6630
   Eigenvalues:    23.2005    30.5837    31.6969
     27  H    Isotropic =    28.2585   Anisotropy =     8.0152
   XX=    32.6369   YX=    -0.4388   ZX=    -0.2238
   XY=    -2.4134   YY=    29.7271   ZY=     1.8361
   XZ=    -2.4851   YZ=     2.2646   ZZ=    22.4114
   Eigenvalues:    21.7900    29.3836    33.6020
     28  H    Isotropic =    31.3830   Anisotropy =    15.2359
   XX=    24.7616   YX=    -2.6988   ZX=    -1.4077
   XY=    -4.6064   YY=    28.8537   ZY=     2.7486
   XZ=    -0.9844   YZ=     3.3508   ZZ=    40.5337
   Eigenvalues:    22.6055    30.0033    41.5403
     29  H    Isotropic =    28.0673   Anisotropy =     5.3840
   XX=    29.6463   YX=    -1.9194   ZX=    -2.0878
   XY=     0.3963   YY=    29.3120   ZY=     2.1756
   XZ=     0.5861   YZ=     4.3574   ZZ=    25.2436
   Eigenvalues:    23.4162    29.1291    31.6566
     30  H    Isotropic =    28.8298   Anisotropy =     7.2379
   XX=    29.6384   YX=     2.3799   ZX=    -2.0785
   XY=     2.8253   YY=    26.2897   ZY=    -2.5877
   XZ=     0.0644   YZ=    -4.1410   ZZ=    30.5612
   Eigenvalues:    23.8294    29.0049    33.6550
     31  H    Isotropic =    29.5854   Anisotropy =     2.2377
   XX=    29.8445   YX=     0.0262   ZX=     0.4260
   XY=    -0.2248   YY=    28.1138   ZY=    -0.5847
   XZ=    -0.5621   YZ=    -1.2311   ZZ=    30.7979
   Eigenvalues:    27.8291    29.8500    31.0772
     32  C    Isotropic =   179.2853   Anisotropy =    18.5863
   XX=   175.9585   YX=     4.5109   ZX=     4.5338
   XY=     4.6454   YY=   172.6317   ZY=    -3.9927
   XZ=     4.7907   YZ=    -7.2550   ZZ=   189.2658
   Eigenvalues:   167.0362   179.1436   191.6762
     33  H    Isotropic =    31.2528   Anisotropy =     7.9262
   XX=    28.0036   YX=     2.7737   ZX=    -2.4560
   XY=     2.2116   YY=    34.1998   ZY=    -1.3986
   XZ=    -2.8825   YZ=    -2.2083   ZZ=    31.5551
   Eigenvalues:    26.3052    30.9163    36.5369
     34  H    Isotropic =    31.8392   Anisotropy =     7.3412
   XX=    33.5864   YX=    -0.0778   ZX=     2.6596
   XY=    -0.4281   YY=    27.4132   ZY=     0.8838
   XZ=     2.5464   YZ=     1.0558   ZZ=    34.5180
   Eigenvalues:    27.2185    31.5658    36.7333
     35  H    Isotropic =    31.2215   Anisotropy =     9.5864
   XX=    31.4086   YX=    -2.6662   ZX=    -4.7329
   XY=    -3.0208   YY=    29.9505   ZY=     0.7249
   XZ=    -4.9644   YZ=     1.0431   ZZ=    32.3053
   Eigenvalues:    26.2495    29.8025    37.6124
     36  H    Isotropic =    32.1374   Anisotropy =     9.0541
   XX=    36.7163   YX=    -2.3876   ZX=     1.4830
   XY=    -3.1314   YY=    26.0206   ZY=    -4.1767
   XZ=    -1.1626   YZ=    -6.3588   ZZ=    33.6754
   Eigenvalues:    22.9196    35.3192    38.1735
 End of Minotr F.D. properties file   721 does not exist.
 End of Minotr F.D. properties file   722 does not exist.
 End of Minotr F.D. properties file   788 does not exist.

 **********************************************************************

            Population analysis using the SCF density.

 **********************************************************************

 Orbital symmetries:
       Occupied  (A) (A) (A) (A) (A) (A) (A) (A) (A) (A) (A) (A)
                 (A) (A) (A) (A) (A) (A) (A) (A) (A) (A) (A) (A)
                 (A) (A) (A) (A) (A) (A) (A) (A) (A) (A) (A) (A)
                 (A) (A) (A) (A) (A) (A) (A) (A) (A) (A) (A) (A)
                 (A) (A) (A) (A) (A) (A) (A) (A) (A) (A) (A) (A)
                 (A) (A) (A) (A) (A)
       Virtual   (A) (A) (A) (A) (A) (A) (A) (A) (A) (A) (A) (A)
                 (A) (A) (A) (A) (A) (A) (A) (A) (A) (A) (A) (A)
                 (A) (A) (A) (A) (A) (A) (A) (A) (A) (A) (A) (A)
                 (A) (A) (A) (A) (A) (A) (A) (A) (A) (A) (A) (A)
                 (A) (A) (A) (A) (A) (A) (A) (A) (A) (A) (A) (A)
                 (A) (A) (A) (A) (A) (A) (A) (A) (A) (A) (A) (A)
                 (A) (A) (A) (A) (A) (A) (A) (A) (A) (A) (A) (A)
                 (A) (A) (A) (A) (A) (A) (A) (A) (A) (A) (A) (A)
                 (A) (A) (A) (A) (A) (A) (A) (A) (A) (A) (A) (A)
                 (A) (A) (A) (A) (A) (A) (A) (A) (A) (A) (A) (A)
                 (A) (A) (A) (A) (A) (A) (A) (A) (A) (A) (A) (A)
                 (A) (A) (A) (A) (A) (A) (A) (A) (A) (A) (A) (A)
                 (A) (A) (A) (A) (A) (A) (A) (A) (A) (A) (A) (A)
                 (A) (A) (A) (A) (A) (A) (A) (A) (A) (A) (A) (A)
                 (A) (A) (A) (A) (A) (A) (A) (A) (A) (A) (A) (A)
                 (A) (A) (A) (A) (A) (A) (A) (A) (A) (A) (A) (A)
                 (A) (A) (A) (A) (A) (A) (A) (A) (A) (A) (A) (A)
                 (A) (A) (A) (A) (A) (A) (A) (A) (A) (A) (A) (A)
                 (A) (A) (A) (A) (A) (A) (A) (A) (A) (A) (A) (A)
                 (A) (A) (A) (A) (A) (A) (A) (A) (A) (A) (A) (A)
                 (A) (A) (A) (A) (A) (A) (A) (A) (A) (A) (A) (A)
                 (A) (A) (A) (A) (A) (A) (A) (A) (A) (A) (A) (A)
                 (A) (A) (A) (A) (A) (A) (A) (A) (A) (A) (A) (A)
                 (A) (A) (A) (A) (A) (A) (A) (A) (A) (A) (A) (A)
                 (A) (A) (A) (A) (A) (A) (A) (A) (A) (A)
 The electronic state is 1-A.
 Alpha  occ. eigenvalues --  -24.80562 -24.80175 -19.20220 -14.37723 -10.33729
 Alpha  occ. eigenvalues --  -10.33686 -10.26651 -10.26531 -10.26313 -10.26230
 Alpha  occ. eigenvalues --  -10.25938 -10.25175 -10.25124 -10.23165 -10.22613
 Alpha  occ. eigenvalues --  -10.21894 -10.21748  -1.27809  -1.27447  -1.04331
 Alpha  occ. eigenvalues --   -0.94241  -0.90392  -0.83052  -0.79810  -0.78574
 Alpha  occ. eigenvalues --   -0.78103  -0.71590  -0.70001  -0.67103  -0.65966
 Alpha  occ. eigenvalues --   -0.63683  -0.62318  -0.59064  -0.57617  -0.55631
 Alpha  occ. eigenvalues --   -0.52518  -0.52123  -0.51919  -0.51205  -0.49626
 Alpha  occ. eigenvalues --   -0.49419  -0.47983  -0.47312  -0.46901  -0.45557
 Alpha  occ. eigenvalues --   -0.45117  -0.43138  -0.42266  -0.42115  -0.41376
 Alpha  occ. eigenvalues --   -0.40505  -0.39510  -0.38432  -0.38291  -0.37566
 Alpha  occ. eigenvalues --   -0.37539  -0.36341  -0.35643  -0.35059  -0.32970
 Alpha  occ. eigenvalues --   -0.32555  -0.28109  -0.27432  -0.26724  -0.23464
 Alpha virt. eigenvalues --   -0.01960  -0.00873   0.04827   0.05645   0.06278
 Alpha virt. eigenvalues --    0.07190   0.07501   0.08846   0.10439   0.10911
 Alpha virt. eigenvalues --    0.11370   0.11648   0.12247   0.13200   0.13383
 Alpha virt. eigenvalues --    0.13567   0.14399   0.15080   0.15409   0.16572
 Alpha virt. eigenvalues --    0.17286   0.18114   0.18763   0.19116   0.20820
 Alpha virt. eigenvalues --    0.21442   0.22757   0.23036   0.25091   0.25429
 Alpha virt. eigenvalues --    0.25538   0.26331   0.26784   0.28479   0.30261
 Alpha virt. eigenvalues --    0.32466   0.32754   0.33388   0.34833   0.35036
 Alpha virt. eigenvalues --    0.35608   0.37059   0.37878   0.38239   0.38715
 Alpha virt. eigenvalues --    0.39577   0.40714   0.40768   0.41470   0.41690
 Alpha virt. eigenvalues --    0.43303   0.44445   0.44711   0.45531   0.45959
 Alpha virt. eigenvalues --    0.47754   0.48136   0.48953   0.50431   0.52104
 Alpha virt. eigenvalues --    0.52441   0.52906   0.54120   0.54922   0.56018
 Alpha virt. eigenvalues --    0.56621   0.57319   0.58607   0.58829   0.59145
 Alpha virt. eigenvalues --    0.60278   0.60685   0.61047   0.61394   0.61855
 Alpha virt. eigenvalues --    0.62764   0.63187   0.63690   0.64083   0.64676
 Alpha virt. eigenvalues --    0.65833   0.65907   0.66421   0.67126   0.67307
 Alpha virt. eigenvalues --    0.67875   0.68192   0.69287   0.69686   0.70518
 Alpha virt. eigenvalues --    0.71746   0.72502   0.74288   0.74767   0.76863
 Alpha virt. eigenvalues --    0.77648   0.78819   0.82039   0.82791   0.84978
 Alpha virt. eigenvalues --    0.87041   0.88359   0.90536   0.91565   0.92968
 Alpha virt. eigenvalues --    0.95337   0.97508   0.97622   0.98755   0.99398
 Alpha virt. eigenvalues --    1.00042   1.01526   1.04807   1.06143   1.07254
 Alpha virt. eigenvalues --    1.08207   1.09098   1.10993   1.12563   1.13560
 Alpha virt. eigenvalues --    1.15648   1.19343   1.20066   1.20829   1.24025
 Alpha virt. eigenvalues --    1.25762   1.26454   1.28499   1.28886   1.31035
 Alpha virt. eigenvalues --    1.33347   1.35258   1.35481   1.39703   1.42730
 Alpha virt. eigenvalues --    1.45110   1.46544   1.47590   1.48401   1.50464
 Alpha virt. eigenvalues --    1.51355   1.53042   1.53687   1.54019   1.54436
 Alpha virt. eigenvalues --    1.56051   1.57129   1.58239   1.58872   1.60520
 Alpha virt. eigenvalues --    1.61962   1.62511   1.64348   1.66171   1.66729
 Alpha virt. eigenvalues --    1.67560   1.68729   1.69650   1.71825   1.73480
 Alpha virt. eigenvalues --    1.74796   1.76727   1.77911   1.81681   1.82230
 Alpha virt. eigenvalues --    1.84565   1.84899   1.85849   1.89025   1.89301
 Alpha virt. eigenvalues --    1.89492   1.90292   1.91658   1.93924   1.95253
 Alpha virt. eigenvalues --    1.96687   1.97342   1.99886   2.01806   2.03320
 Alpha virt. eigenvalues --    2.09386   2.11011   2.14496   2.16570   2.18390
 Alpha virt. eigenvalues --    2.19621   2.20445   2.25694   2.27319   2.27703
 Alpha virt. eigenvalues --    2.29450   2.31080   2.34655   2.40290   2.40635
 Alpha virt. eigenvalues --    2.42005   2.42265   2.43472   2.45290   2.47405
 Alpha virt. eigenvalues --    2.48944   2.49552   2.51073   2.52443   2.54471
 Alpha virt. eigenvalues --    2.55225   2.56788   2.59151   2.60390   2.65861
 Alpha virt. eigenvalues --    2.66396   2.68298   2.70679   2.72990   2.74542
 Alpha virt. eigenvalues --    2.77590   2.82452   2.83486   2.84613   2.90086
 Alpha virt. eigenvalues --    2.91447   2.94066   2.98295   3.00983   3.03403
 Alpha virt. eigenvalues --    3.05811   3.06657   3.08644   3.09749   3.10278
 Alpha virt. eigenvalues --    3.12725   3.16401   3.16884   3.20149   3.22225
 Alpha virt. eigenvalues --    3.23633   3.26588   3.26788   3.28638   3.29161
 Alpha virt. eigenvalues --    3.30353   3.30740   3.32227   3.35161   3.41593
 Alpha virt. eigenvalues --    3.47333   3.48656   3.52103   3.57879   3.64572
 Alpha virt. eigenvalues --    3.76173   3.79256   3.79799   3.79986   3.80724
 Alpha virt. eigenvalues --    3.85980   3.87850   3.95951   3.96394   3.99757
 Alpha virt. eigenvalues --    4.00467   4.03592   4.06208   4.11180   4.12773
 Alpha virt. eigenvalues --    4.19288   4.22898   4.48397   4.75277   4.76767
 Alpha virt. eigenvalues --    4.80052   4.80967   4.93859   5.05399   5.40012
 Alpha virt. eigenvalues --    6.12701   6.14750   6.30794   6.32440   6.56450
 Alpha virt. eigenvalues --    6.59426  23.30384  23.47464  23.58470  23.69453
 Alpha virt. eigenvalues --   23.74379  23.78394  23.81482  23.84711  23.86940
 Alpha virt. eigenvalues --   23.89991  24.08804  24.11278  24.19470  35.58515
 Alpha virt. eigenvalues --   49.96906  66.89128  66.89644
          Condensed to atoms (all electrons):
               1          2          3          4          5          6
     1  C    5.363266   0.290970  -0.076723   0.002263  -0.000392  -0.000012
     2  C    0.290970   5.337190   0.342694  -0.074901   0.007250  -0.000094
     3  C   -0.076723   0.342694   5.329193   0.260731  -0.063053   0.005335
     4  C    0.002263  -0.074901   0.260731   5.523311   0.305372  -0.074875
     5  C   -0.000392   0.007250  -0.063053   0.305372   5.111962   0.239568
     6  O   -0.000012  -0.000094   0.005335  -0.074875   0.239568   8.197658
     7  N    0.007191  -0.065510   0.270381  -0.076386  -0.002429   0.000042
     8  C    0.000058  -0.004723  -0.088270   0.009121  -0.000054   0.000002
     9  C    0.000000   0.000000  -0.000001   0.000000   0.000000   0.000000
    10  C    0.000000  -0.000001   0.000023   0.000000   0.000000   0.000000
    11  C    0.000004   0.000030  -0.000264   0.000082  -0.000005   0.000000
    12  C    0.000009  -0.000111   0.009771  -0.000345  -0.000089   0.000000
    13  C   -0.000001   0.000015  -0.000409  -0.000094   0.000013   0.000000
    14  C    0.000000   0.000000   0.000008   0.000000   0.000000   0.000000
    15  H    0.000000   0.000000   0.000000   0.000000   0.000000   0.000000
    16  H    0.000000   0.000000  -0.000001   0.000000   0.000000   0.000000
    17  H    0.000000   0.000000   0.000000   0.000000   0.000000   0.000000
    18  F   -0.000001  -0.000106  -0.000041   0.000003   0.000000   0.000000
    19  F    0.000000   0.000000  -0.000046   0.000001  -0.000002   0.000000
    20  H    0.387785  -0.034433   0.008172  -0.000150   0.000023   0.000000
    21  H    0.389057  -0.037042  -0.009536   0.003556   0.000360  -0.000059
    22  H    0.388522  -0.045206  -0.002998  -0.001731  -0.000222   0.000002
    23  H   -0.039645   0.390309  -0.039439  -0.007955  -0.000382   0.000002
    24  H   -0.043698   0.405563  -0.043795   0.006738  -0.000133   0.000004
    25  H    0.000789  -0.006967  -0.035129   0.396556  -0.043031   0.010128
    26  H   -0.000005  -0.000053   0.000295  -0.051565   0.391325  -0.025870
    27  H   -0.000097   0.000251  -0.003944  -0.046846   0.385401  -0.032699
    28  H    0.000002   0.000040  -0.000762  -0.003280  -0.048914   0.262869
    29  H   -0.000833   0.003039   0.003210  -0.001470   0.000134   0.000001
    30  H    0.000091  -0.000227  -0.008123   0.000982  -0.000140  -0.000004
    31  H   -0.000069  -0.049150   0.404426  -0.048919  -0.007523  -0.000006
    32  C   -0.001392  -0.005646  -0.064993   0.259355  -0.073782   0.004172
    33  H   -0.000274   0.002758  -0.007180  -0.033700   0.006521   0.000055
    34  H   -0.000042   0.000581  -0.007377  -0.040298  -0.003410  -0.000163
    35  H   -0.000049  -0.000575   0.010975  -0.045153  -0.006732   0.012824
    36  H    0.000249  -0.002930  -0.050681  -0.004399   0.000051  -0.000025
               7          8          9         10         11         12
     1  C    0.007191   0.000058   0.000000   0.000000   0.000004   0.000009
     2  C   -0.065510  -0.004723   0.000000  -0.000001   0.000030  -0.000111
     3  C    0.270381  -0.088270  -0.000001   0.000023  -0.000264   0.009771
     4  C   -0.076386   0.009121   0.000000   0.000000   0.000082  -0.000345
     5  C   -0.002429  -0.000054   0.000000   0.000000  -0.000005  -0.000089
     6  O    0.000042   0.000002   0.000000   0.000000   0.000000   0.000000
     7  N    6.955028   0.285912   0.000078  -0.000382  -0.007736  -0.072027
     8  C    0.285912   5.290313  -0.001493   0.009993  -0.084103   0.291370
     9  C    0.000078  -0.001493   5.063075   0.436698  -0.007547  -0.059141
    10  C   -0.000382   0.009993   0.436698   5.194242   0.482555  -0.037572
    11  C   -0.007736  -0.084103  -0.007547   0.482555   4.801153   0.243299
    12  C   -0.072027   0.291370  -0.059141  -0.037572   0.243299   5.767815
    13  C    0.015264  -0.073750  -0.002400  -0.067517   0.032338   0.268863
    14  C   -0.000158   0.010238   0.431280  -0.036090  -0.063093  -0.030345
    15  H    0.000000   0.000031   0.404848  -0.041223   0.006364  -0.001990
    16  H    0.000014  -0.000330  -0.040805   0.392152  -0.049828   0.012192
    17  H    0.000010  -0.000299  -0.041223   0.007119  -0.001333   0.012022
    18  F   -0.001734   0.003010   0.005583  -0.055937   0.314638  -0.082837
    19  F   -0.000431  -0.003307   0.005683  -0.000556   0.005243  -0.075339
    20  H   -0.000334  -0.000026   0.000000   0.000000  -0.000001   0.000000
    21  H   -0.000061  -0.000031   0.000000   0.000000   0.000000   0.000000
    22  H   -0.000027  -0.000023   0.000000   0.000000   0.000000  -0.000002
    23  H   -0.000655   0.000315   0.000000   0.000003   0.000022  -0.000053
    24  H   -0.002304   0.002591   0.000000   0.000002   0.000251  -0.000031
    25  H    0.004997  -0.000175   0.000000   0.000000  -0.000002   0.000020
    26  H    0.000145  -0.000032   0.000000   0.000000  -0.000003  -0.000062
    27  H    0.019714  -0.000473  -0.000001  -0.000004  -0.000111  -0.000348
    28  H   -0.000057  -0.000003   0.000000   0.000000   0.000000   0.000000
    29  H   -0.054761   0.379373  -0.000119  -0.000372  -0.028646  -0.041610
    30  H   -0.035669   0.387811  -0.000295   0.000127   0.009865  -0.028948
    31  H   -0.033344  -0.009082   0.000001   0.000001  -0.000021   0.000464
    32  C   -0.005037  -0.000464   0.000000   0.000000  -0.000006   0.000051
    33  H    0.000060  -0.000112   0.000000   0.000000  -0.000003   0.000002
    34  H    0.008335  -0.000315   0.000000  -0.000004  -0.000063   0.000278
    35  H   -0.000332   0.000036   0.000000   0.000000   0.000001  -0.000003
    36  H    0.329420  -0.043665  -0.000087   0.000338   0.005194  -0.014913
              13         14         15         16         17         18
     1  C   -0.000001   0.000000   0.000000   0.000000   0.000000  -0.000001
     2  C    0.000015   0.000000   0.000000   0.000000   0.000000  -0.000106
     3  C   -0.000409   0.000008   0.000000  -0.000001   0.000000  -0.000041
     4  C   -0.000094   0.000000   0.000000   0.000000   0.000000   0.000003
     5  C    0.000013   0.000000   0.000000   0.000000   0.000000   0.000000
     6  O    0.000000   0.000000   0.000000   0.000000   0.000000   0.000000
     7  N    0.015264  -0.000158   0.000000   0.000014   0.000010  -0.001734
     8  C   -0.073750   0.010238   0.000031  -0.000330  -0.000299   0.003010
     9  C   -0.002400   0.431280   0.404848  -0.040805  -0.041223   0.005583
    10  C   -0.067517  -0.036090  -0.041223   0.392152   0.007119  -0.055937
    11  C    0.032338  -0.063093   0.006364  -0.049828  -0.001333   0.314638
    12  C    0.268863  -0.030345  -0.001990   0.012192   0.012022  -0.082837
    13  C    4.753305   0.470005   0.006098  -0.001310  -0.048566   0.004932
    14  C    0.470005   5.202334  -0.040730   0.007090   0.391940  -0.000597
    15  H    0.006098  -0.040730   0.447021  -0.006679  -0.006605  -0.000071
    16  H   -0.001310   0.007090  -0.006679   0.452068  -0.000179   0.001560
    17  H   -0.048566   0.391940  -0.006605  -0.000179   0.451438   0.000004
    18  F    0.004932  -0.000597  -0.000071   0.001560   0.000004   9.034019
    19  F    0.319010  -0.055379  -0.000072   0.000004   0.001427  -0.000001
    20  H    0.000000   0.000000   0.000000   0.000000   0.000000   0.000000
    21  H    0.000000   0.000000   0.000000   0.000000   0.000000   0.000000
    22  H    0.000000   0.000000   0.000000   0.000000   0.000000   0.000000
    23  H   -0.000001   0.000000   0.000000   0.000000   0.000000   0.000061
    24  H   -0.000063   0.000001   0.000000   0.000000   0.000000  -0.000111
    25  H    0.000002   0.000000   0.000000   0.000000   0.000000   0.000000
    26  H    0.000018   0.000001   0.000000   0.000000   0.000000   0.000000
    27  H    0.000524   0.000000   0.000000   0.000000   0.000001   0.000001
    28  H    0.000000   0.000000   0.000000   0.000000   0.000000   0.000000
    29  H    0.012996  -0.000138   0.000003  -0.000024   0.000015   0.007154
    30  H   -0.021154   0.001313   0.000004   0.000009  -0.000052   0.000169
    31  H    0.000011  -0.000005   0.000000   0.000000   0.000000  -0.000004
    32  C   -0.000001   0.000000   0.000000   0.000000   0.000000  -0.000003
    33  H    0.000001   0.000000   0.000000   0.000000   0.000000  -0.000001
    34  H    0.000036  -0.000002   0.000000   0.000000   0.000000  -0.000043
    35  H    0.000000   0.000000   0.000000   0.000000   0.000000   0.000000
    36  H   -0.000667   0.000051   0.000002   0.000006  -0.000001   0.008253
              19         20         21         22         23         24
     1  C    0.000000   0.387785   0.389057   0.388522  -0.039645  -0.043698
     2  C    0.000000  -0.034433  -0.037042  -0.045206   0.390309   0.405563
     3  C   -0.000046   0.008172  -0.009536  -0.002998  -0.039439  -0.043795
     4  C    0.000001  -0.000150   0.003556  -0.001731  -0.007955   0.006738
     5  C   -0.000002   0.000023   0.000360  -0.000222  -0.000382  -0.000133
     6  O    0.000000   0.000000  -0.000059   0.000002   0.000002   0.000004
     7  N   -0.000431  -0.000334  -0.000061  -0.000027  -0.000655  -0.002304
     8  C   -0.003307  -0.000026  -0.000031  -0.000023   0.000315   0.002591
     9  C    0.005683   0.000000   0.000000   0.000000   0.000000   0.000000
    10  C   -0.000556   0.000000   0.000000   0.000000   0.000003   0.000002
    11  C    0.005243  -0.000001   0.000000   0.000000   0.000022   0.000251
    12  C   -0.075339   0.000000   0.000000  -0.000002  -0.000053  -0.000031
    13  C    0.319010   0.000000   0.000000   0.000000  -0.000001  -0.000063
    14  C   -0.055379   0.000000   0.000000   0.000000   0.000000   0.000001
    15  H   -0.000072   0.000000   0.000000   0.000000   0.000000   0.000000
    16  H    0.000004   0.000000   0.000000   0.000000   0.000000   0.000000
    17  H    0.001427   0.000000   0.000000   0.000000   0.000000   0.000000
    18  F   -0.000001   0.000000   0.000000   0.000000   0.000061  -0.000111
    19  F    9.025433   0.000000   0.000000   0.000000   0.000000   0.000001
    20  H    0.000000   0.480350  -0.028867  -0.027069  -0.004225  -0.006967
    21  H    0.000000  -0.028867   0.479420  -0.027910  -0.006939   0.007160
    22  H    0.000000  -0.027069  -0.027910   0.482395   0.007573  -0.004010
    23  H    0.000000  -0.004225  -0.006939   0.007573   0.498290  -0.032835
    24  H    0.000001  -0.006967   0.007160  -0.004010  -0.032835   0.483964
    25  H    0.000000   0.000447  -0.002100   0.000232  -0.000176  -0.000056
    26  H    0.000064  -0.000002   0.000034  -0.000005  -0.000016  -0.000004
    27  H    0.000146   0.000005  -0.000045   0.000002  -0.000036  -0.000011
    28  H    0.000000   0.000000   0.000006   0.000000  -0.000004  -0.000002
    29  H    0.000015   0.000161  -0.000017   0.000044  -0.000663  -0.000070
    30  H    0.013043  -0.000013   0.000007  -0.000024   0.000026   0.000883
    31  H   -0.000196  -0.000377  -0.000336   0.005016   0.007138  -0.006149
    32  C    0.000000  -0.000137   0.000788   0.000274   0.003543  -0.000103
    33  H    0.000000   0.000039   0.001954  -0.000105   0.000013   0.000214
    34  H   -0.000001   0.000027  -0.000088  -0.000002  -0.000304  -0.000110
    35  H    0.000000  -0.000010  -0.000109   0.000014   0.000091   0.000040
    36  H   -0.000012  -0.000031   0.000009   0.000014   0.005449  -0.000287
              25         26         27         28         29         30
     1  C    0.000789  -0.000005  -0.000097   0.000002  -0.000833   0.000091
     2  C   -0.006967  -0.000053   0.000251   0.000040   0.003039  -0.000227
     3  C   -0.035129   0.000295  -0.003944  -0.000762   0.003210  -0.008123
     4  C    0.396556  -0.051565  -0.046846  -0.003280  -0.001470   0.000982
     5  C   -0.043031   0.391325   0.385401  -0.048914   0.000134  -0.000140
     6  O    0.010128  -0.025870  -0.032699   0.262869   0.000001  -0.000004
     7  N    0.004997   0.000145   0.019714  -0.000057  -0.054761  -0.035669
     8  C   -0.000175  -0.000032  -0.000473  -0.000003   0.379373   0.387811
     9  C    0.000000   0.000000  -0.000001   0.000000  -0.000119  -0.000295
    10  C    0.000000   0.000000  -0.000004   0.000000  -0.000372   0.000127
    11  C   -0.000002  -0.000003  -0.000111   0.000000  -0.028646   0.009865
    12  C    0.000020  -0.000062  -0.000348   0.000000  -0.041610  -0.028948
    13  C    0.000002   0.000018   0.000524   0.000000   0.012996  -0.021154
    14  C    0.000000   0.000001   0.000000   0.000000  -0.000138   0.001313
    15  H    0.000000   0.000000   0.000000   0.000000   0.000003   0.000004
    16  H    0.000000   0.000000   0.000000   0.000000  -0.000024   0.000009
    17  H    0.000000   0.000000   0.000001   0.000000   0.000015  -0.000052
    18  F    0.000000   0.000000   0.000001   0.000000   0.007154   0.000169
    19  F    0.000000   0.000064   0.000146   0.000000   0.000015   0.013043
    20  H    0.000447  -0.000002   0.000005   0.000000   0.000161  -0.000013
    21  H   -0.002100   0.000034  -0.000045   0.000006  -0.000017   0.000007
    22  H    0.000232  -0.000005   0.000002   0.000000   0.000044  -0.000024
    23  H   -0.000176  -0.000016  -0.000036  -0.000004  -0.000663   0.000026
    24  H   -0.000056  -0.000004  -0.000011  -0.000002  -0.000070   0.000883
    25  H    0.504964  -0.006871   0.010411  -0.001780   0.000067  -0.000053
    26  H   -0.006871   0.487062  -0.033904   0.006706   0.000034  -0.000083
    27  H    0.010411  -0.033904   0.503281  -0.009151   0.000288  -0.000387
    28  H   -0.001780   0.006706  -0.009151   0.380899   0.000000  -0.000001
    29  H    0.000067   0.000034   0.000288   0.000000   0.549555  -0.045290
    30  H   -0.000053  -0.000083  -0.000387  -0.000001  -0.045290   0.466597
    31  H   -0.004853   0.005794  -0.001209   0.000010  -0.001552   0.004314
    32  C   -0.059186   0.008777  -0.013035   0.008826  -0.000043   0.000005
    33  H   -0.004153  -0.000229  -0.000071   0.000042   0.000032  -0.000008
    34  H    0.007814  -0.000063   0.005260  -0.000061   0.000182  -0.000072
    35  H   -0.004223   0.000284   0.000639   0.000388  -0.000004   0.000006
    36  H   -0.000170  -0.000060  -0.000346  -0.000010  -0.007654   0.006846
              31         32         33         34         35         36
     1  C   -0.000069  -0.001392  -0.000274  -0.000042  -0.000049   0.000249
     2  C   -0.049150  -0.005646   0.002758   0.000581  -0.000575  -0.002930
     3  C    0.404426  -0.064993  -0.007180  -0.007377   0.010975  -0.050681
     4  C   -0.048919   0.259355  -0.033700  -0.040298  -0.045153  -0.004399
     5  C   -0.007523  -0.073782   0.006521  -0.003410  -0.006732   0.000051
     6  O   -0.000006   0.004172   0.000055  -0.000163   0.012824  -0.000025
     7  N   -0.033344  -0.005037   0.000060   0.008335  -0.000332   0.329420
     8  C   -0.009082  -0.000464  -0.000112  -0.000315   0.000036  -0.043665
     9  C    0.000001   0.000000   0.000000   0.000000   0.000000  -0.000087
    10  C    0.000001   0.000000   0.000000  -0.000004   0.000000   0.000338
    11  C   -0.000021  -0.000006  -0.000003  -0.000063   0.000001   0.005194
    12  C    0.000464   0.000051   0.000002   0.000278  -0.000003  -0.014913
    13  C    0.000011  -0.000001   0.000001   0.000036   0.000000  -0.000667
    14  C   -0.000005   0.000000   0.000000  -0.000002   0.000000   0.000051
    15  H    0.000000   0.000000   0.000000   0.000000   0.000000   0.000002
    16  H    0.000000   0.000000   0.000000   0.000000   0.000000   0.000006
    17  H    0.000000   0.000000   0.000000   0.000000   0.000000  -0.000001
    18  F   -0.000004  -0.000003  -0.000001  -0.000043   0.000000   0.008253
    19  F   -0.000196   0.000000   0.000000  -0.000001   0.000000  -0.000012
    20  H   -0.000377  -0.000137   0.000039   0.000027  -0.000010  -0.000031
    21  H   -0.000336   0.000788   0.001954  -0.000088  -0.000109   0.000009
    22  H    0.005016   0.000274  -0.000105  -0.000002   0.000014   0.000014
    23  H    0.007138   0.003543   0.000013  -0.000304   0.000091   0.005449
    24  H   -0.006149  -0.000103   0.000214  -0.000110   0.000040  -0.000287
    25  H   -0.004853  -0.059186  -0.004153   0.007814  -0.004223  -0.000170
    26  H    0.005794   0.008777  -0.000229  -0.000063   0.000284  -0.000060
    27  H   -0.001209  -0.013035  -0.000071   0.005260   0.000639  -0.000346
    28  H    0.000010   0.008826   0.000042  -0.000061   0.000388  -0.000010
    29  H   -0.001552  -0.000043   0.000032   0.000182  -0.000004  -0.007654
    30  H    0.004314   0.000005  -0.000008  -0.000072   0.000006   0.006846
    31  H    0.485939   0.008691  -0.000148  -0.000281  -0.000151   0.007441
    32  C    0.008691   5.484701   0.387330   0.377026   0.381394   0.003246
    33  H   -0.000148   0.387330   0.459213  -0.024797  -0.025590  -0.000494
    34  H   -0.000281   0.377026  -0.024797   0.480032  -0.029749  -0.001602
    35  H   -0.000151   0.381394  -0.025590  -0.029749   0.481594   0.000058
    36  H    0.007441   0.003246  -0.000494  -0.001602   0.000058   0.431552
 Mulliken charges:
               1
     1  C   -0.667022
     2  C   -0.453015
     3  C   -0.142448
     4  C   -0.256005
     5  C   -0.197687
     6  O   -0.598853
     7  N   -0.537217
     8  C   -0.359444
     9  C   -0.194133
    10  C   -0.283597
    11  C    0.341724
    12  C   -0.160391
    13  C    0.332500
    14  C   -0.287723
    15  H    0.232999
    16  H    0.234059
    17  H    0.234283
    18  F   -0.237899
    19  F   -0.234730
    20  H    0.225634
    21  H    0.230791
    22  H    0.225247
    23  H    0.220494
    24  H    0.233329
    25  H    0.232499
    26  H    0.218289
    27  H    0.216796
    28  H    0.404238
    29  H    0.226967
    30  H    0.248445
    31  H    0.234129
    32  C   -0.704352
    33  H    0.238630
    34  H    0.229274
    35  H    0.224337
    36  H    0.329854
 Sum of Mulliken charges =   0.00000
 Mulliken charges with hydrogens summed into heavy atoms:
               1
     1  C    0.014650
     2  C    0.000808
     3  C    0.091681
     4  C   -0.023506
     5  C    0.237397
     6  O   -0.194615
     7  N   -0.207363
     8  C    0.115968
     9  C    0.038865
    10  C   -0.049539
    11  C    0.341724
    12  C   -0.160391
    13  C    0.332500
    14  C   -0.053440
    18  F   -0.237899
    19  F   -0.234730
    32  C   -0.012110
 Electronic spatial extent (au):  <R**2>=           5387.5903
 Charge=              0.0000 electrons
 Dipole moment (field-independent basis, Debye):
    X=              2.3810    Y=             -1.9968    Z=              1.3648  Tot=              3.3940
 Quadrupole moment (field-independent basis, Debye-Ang):
   XX=            -97.5341   YY=           -108.2349   ZZ=            -97.1138
   XY=             10.0025   XZ=              1.1675   YZ=              3.3358
 Traceless Quadrupole moment (field-independent basis, Debye-Ang):
   XX=              3.4268   YY=             -7.2740   ZZ=              3.8472
   XY=             10.0025   XZ=              1.1675   YZ=              3.3358
 Octapole moment (field-independent basis, Debye-Ang**2):
  XXX=            120.8053  YYY=             -8.6814  ZZZ=              3.4310  XYY=             28.0508
  XXY=            -14.2185  XXZ=             37.4418  XZZ=            -12.3508  YZZ=              8.9445
  YYZ=              9.0831  XYZ=            -11.8663
 Hexadecapole moment (field-independent basis, Debye-Ang**3):
 XXXX=          -4823.6953 YYYY=          -1477.3484 ZZZZ=           -627.2841 XXXY=            172.3673
 XXXZ=             65.0838 YYYX=             69.5178 YYYZ=              2.2959 ZZZX=            -28.3409
 ZZZY=            -10.6216 XXYY=          -1138.2256 XXZZ=           -878.7611 YYZZ=           -311.9893
 XXYZ=             -0.1005 YYXZ=            -35.4662 ZZXY=            -71.8646
 N-N= 1.253903260406D+03 E-N=-4.465875518785D+03  KE= 8.333534703851D+02
 1\1\GINC-CPU-E-903\SP\RmPW1PW91\6-311G(d)\C13H19F2N1O1\AH809\04-Mar-20
 19\0\\# mPW1PW91/6-311g(d) nmr=giao scrf=(solvent=chloroform)\\AT3_2gi
 np011\\0,1\C,0,-0.992706,-1.652372,0.363999\C,0,-2.482533,-1.336399,0.
 356501\C,0,-3.119285,-1.294203,1.765375\C,0,-2.44275,-0.277814,2.73299
 7\C,0,-3.033183,-0.405391,4.149725\O,0,-2.256579,0.335125,5.088415\N,0
 ,-4.558475,-0.992689,1.671213\C,0,-5.368076,-2.153806,1.296607\C,0,-9.
 570399,-1.155165,1.378103\C,0,-8.778785,-0.777352,0.29496\C,0,-7.42429
 4,-1.108102,0.278405\C,0,-6.831281,-1.817196,1.324882\C,0,-7.640374,-2
 .182959,2.401395\C,0,-8.997168,-1.860716,2.435065\H,0,-10.626755,-0.90
 0065,1.399924\H,0,-9.205183,-0.224889,-0.536959\H,0,-9.596084,-2.16307
 9,3.289075\F,0,-6.682687,-0.728495,-0.772913\F,0,-7.120992,-2.868362,3
 .430145\H,0,-0.637815,-1.804965,-0.660546\H,0,-0.408861,-0.832941,0.79
 2661\H,0,-0.786517,-2.56453,0.932553\H,0,-2.645884,-0.391944,-0.175707
 \H,0,-2.975482,-2.111491,-0.242435\H,0,-1.378118,-0.530966,2.816185\H,
 0,-3.016509,-1.450521,4.47579\H,0,-4.06844,-0.051887,4.203504\H,0,-2.5
 07413,1.269441,4.993092\H,0,-5.11111,-2.512372,0.293103\H,0,-5.175101,
 -2.987038,1.98334\H,0,-2.990435,-2.286777,2.219133\C,0,-2.509505,1.176
 46,2.244476\H,0,-2.070565,1.285133,1.248609\H,0,-3.540074,1.543764,2.2
 06632\H,0,-1.945911,1.83877,2.909866\H,0,-4.711731,-0.252424,0.984899\
 \Version=ES64L-G09RevD.01\State=1-A\HF=-836.4577148\RMSD=7.409e-09\Dip
 ole=-0.8454591,0.3134522,-0.9848791\Quadrupole=5.4386949,2.6484768,-8.
 0871716,-1.4230241,-5.5686799,0.3660099\PG=C01 [X(C13H19F2N1O1)]\\@


 BOOKS ARE LIGHTHOUSES ERECTED IN THE GREAT SEA OF TIME.
     -- E.P.WHIPPLE
 Job cpu time:       0 days  0 hours 16 minutes 33.9 seconds.
 File lengths (MBytes):  RWF=    184 Int=      0 D2E=      0 Chk=     10 Scr=      1
 Normal termination of Gaussian 09 at Mon Mar  4 11:28:34 2019.
