 Entering Gaussian System, Link 0=/usr/local/Cluster-Apps/gaussian/g09/g09
 Initial command:
 /usr/local/Cluster-Apps/gaussian/g09/l1.exe "/home/ah809/rds/hpc-work/04Mar1111AT3/Gau-125404.inp" -scrdir="/home/ah809/rds/hpc-work/04Mar1111AT3/"
 Entering Link 1 = /usr/local/Cluster-Apps/gaussian/g09/l1.exe PID=    125421.
  
 Copyright (c) 1988,1990,1992,1993,1995,1998,2003,2009,2013,
            Gaussian, Inc.  All Rights Reserved.
  
 This is part of the Gaussian(R) 09 program.  It is based on
 the Gaussian(R) 03 system (copyright 2003, Gaussian, Inc.),
 the Gaussian(R) 98 system (copyright 1998, Gaussian, Inc.),
 the Gaussian(R) 94 system (copyright 1995, Gaussian, Inc.),
 the Gaussian 92(TM) system (copyright 1992, Gaussian, Inc.),
 the Gaussian 90(TM) system (copyright 1990, Gaussian, Inc.),
 the Gaussian 88(TM) system (copyright 1988, Gaussian, Inc.),
 the Gaussian 86(TM) system (copyright 1986, Carnegie Mellon
 University), and the Gaussian 82(TM) system (copyright 1983,
 Carnegie Mellon University). Gaussian is a federally registered
 trademark of Gaussian, Inc.
  
 This software contains proprietary and confidential information,
 including trade secrets, belonging to Gaussian, Inc.
  
 This software is provided under written license and may be
 used, copied, transmitted, or stored only in accord with that
 written license.
  
 The following legend is applicable only to US Government
 contracts under FAR:
  
                    RESTRICTED RIGHTS LEGEND
  
 Use, reproduction and disclosure by the US Government is
 subject to restrictions as set forth in subparagraphs (a)
 and (c) of the Commercial Computer Software - Restricted
 Rights clause in FAR 52.227-19.
  
 Gaussian, Inc.
 340 Quinnipiac St., Bldg. 40, Wallingford CT 06492
  
  
 ---------------------------------------------------------------
 Warning -- This program may not be used in any manner that
 competes with the business of Gaussian, Inc. or will provide
 assistance to any competitor of Gaussian, Inc.  The licensee
 of this program is prohibited from giving any competitor of
 Gaussian, Inc. access to this program.  By using this program,
 the user acknowledges that Gaussian, Inc. is engaged in the
 business of creating and licensing software in the field of
 computational chemistry and represents and warrants to the
 licensee that it is not a competitor of Gaussian, Inc. and that
 it will not use this program in any manner prohibited above.
 ---------------------------------------------------------------
  

 Cite this work as:
 Gaussian 09, Revision D.01,
 M. J. Frisch, G. W. Trucks, H. B. Schlegel, G. E. Scuseria, 
 M. A. Robb, J. R. Cheeseman, G. Scalmani, V. Barone, B. Mennucci, 
 G. A. Petersson, H. Nakatsuji, M. Caricato, X. Li, H. P. Hratchian, 
 A. F. Izmaylov, J. Bloino, G. Zheng, J. L. Sonnenberg, M. Hada, 
 M. Ehara, K. Toyota, R. Fukuda, J. Hasegawa, M. Ishida, T. Nakajima, 
 Y. Honda, O. Kitao, H. Nakai, T. Vreven, J. A. Montgomery, Jr., 
 J. E. Peralta, F. Ogliaro, M. Bearpark, J. J. Heyd, E. Brothers, 
 K. N. Kudin, V. N. Staroverov, T. Keith, R. Kobayashi, J. Normand, 
 K. Raghavachari, A. Rendell, J. C. Burant, S. S. Iyengar, J. Tomasi, 
 M. Cossi, N. Rega, J. M. Millam, M. Klene, J. E. Knox, J. B. Cross, 
 V. Bakken, C. Adamo, J. Jaramillo, R. Gomperts, R. E. Stratmann, 
 O. Yazyev, A. J. Austin, R. Cammi, C. Pomelli, J. W. Ochterski, 
 R. L. Martin, K. Morokuma, V. G. Zakrzewski, G. A. Voth, 
 P. Salvador, J. J. Dannenberg, S. Dapprich, A. D. Daniels, 
 O. Farkas, J. B. Foresman, J. V. Ortiz, J. Cioslowski, 
 and D. J. Fox, Gaussian, Inc., Wallingford CT, 2013.
 
 ******************************************
 Gaussian 09:  ES64L-G09RevD.01 24-Apr-2013
                 4-Mar-2019 
 ******************************************
 %nprocshared=8
 Will use up to    8 processors via shared memory.
 %mem=6000MB
 %chk=AT3_2ginp009.chk
 -------------------------------------------------------
 # mPW1PW91/6-311g(d) nmr=giao scrf=(solvent=chloroform)
 -------------------------------------------------------
 1/38=1/1;
 2/12=2,17=6,18=5,40=1/2;
 3/5=4,6=6,7=1,11=2,16=1,25=1,30=1,70=2201,72=7,74=-7/1,2,8,3;
 4//1;
 5/5=2,38=5,53=7/2;
 8/6=1,10=90,11=11/1;
 10/13=100,45=16/2;
 6/7=2,8=2,9=2,10=2,28=1/1;
 99/9=1/99;
 ------------
 AT3_2ginp009
 ------------
 Symbolic Z-matrix:
 Charge =  0 Multiplicity = 1
 C                    -0.82281  -1.65504   0.57871 
 C                    -2.30255  -1.31154   0.46505 
 C                    -2.98544  -1.05004   1.82766 
 C                    -2.32375   0.09228   2.65796 
 C                    -3.02168   0.32671   4.01165 
 O                    -3.17018  -0.88573   4.73937 
 N                    -4.41662  -0.75067   1.64771 
 C                    -5.22557  -1.93443   1.35557 
 C                    -9.42188  -0.94087   1.57329 
 C                    -8.75741  -1.43104   2.69667 
 C                    -7.40314  -1.75385   2.61614 
 C                    -6.68762  -1.60344   1.42717 
 C                    -7.36905  -1.10398   0.31648 
 C                    -8.72295  -0.7761    0.37837 
 H                    -10.47695  -0.68563   1.63014 
 H                    -9.28267  -1.5626    3.63806 
 H                    -9.22144  -0.39117  -0.50626 
 F                    -6.7893   -2.22347   3.71226 
 F                    -6.71727  -0.92896  -0.84251 
 H                    -0.23449  -0.80159   0.92708 
 H                    -0.66564  -2.49123   1.26721 
 H                    -0.43016  -1.94574  -0.40117 
 H                    -2.4236   -0.45174  -0.20435 
 H                    -2.79297  -2.15641  -0.03303 
 H                    -1.30276  -0.23574   2.89378 
 H                    -4.0088    0.78776   3.89334 
 H                    -2.4202    1.00474   4.62691 
 H                    -3.95201  -1.32848   4.35831 
 H                    -4.9948   -2.3369    0.3625 
 H                    -5.01026  -2.73674   2.07238 
 H                    -2.88785  -1.96818   2.42255 
 C                    -2.22725   1.42865   1.91257 
 H                    -1.62604   1.34045   1.00329 
 H                    -3.21527   1.80917   1.63422 
 H                    -1.74569   2.18523   2.54212 
 H                    -4.53835  -0.0756    0.89168 
 
                          Input orientation:                          
 ---------------------------------------------------------------------
 Center     Atomic      Atomic             Coordinates (Angstroms)
 Number     Number       Type             X           Y           Z
 ---------------------------------------------------------------------
      1          6           0       -0.822810   -1.655038    0.578712
      2          6           0       -2.302547   -1.311538    0.465052
      3          6           0       -2.985444   -1.050040    1.827662
      4          6           0       -2.323749    0.092276    2.657961
      5          6           0       -3.021680    0.326709    4.011649
      6          8           0       -3.170184   -0.885728    4.739372
      7          7           0       -4.416624   -0.750667    1.647713
      8          6           0       -5.225566   -1.934426    1.355572
      9          6           0       -9.421884   -0.940874    1.573294
     10          6           0       -8.757408   -1.431038    2.696668
     11          6           0       -7.403142   -1.753851    2.616142
     12          6           0       -6.687619   -1.603441    1.427166
     13          6           0       -7.369052   -1.103984    0.316480
     14          6           0       -8.722947   -0.776104    0.378367
     15          1           0      -10.476951   -0.685627    1.630142
     16          1           0       -9.282670   -1.562597    3.638057
     17          1           0       -9.221436   -0.391169   -0.506264
     18          9           0       -6.789296   -2.223467    3.712263
     19          9           0       -6.717268   -0.928957   -0.842510
     20          1           0       -0.234486   -0.801591    0.927084
     21          1           0       -0.665636   -2.491232    1.267209
     22          1           0       -0.430162   -1.945741   -0.401167
     23          1           0       -2.423597   -0.451743   -0.204354
     24          1           0       -2.792967   -2.156408   -0.033033
     25          1           0       -1.302756   -0.235739    2.893783
     26          1           0       -4.008800    0.787761    3.893337
     27          1           0       -2.420196    1.004743    4.626913
     28          1           0       -3.952012   -1.328477    4.358307
     29          1           0       -4.994800   -2.336901    0.362496
     30          1           0       -5.010259   -2.736737    2.072375
     31          1           0       -2.887853   -1.968182    2.422554
     32          6           0       -2.227253    1.428653    1.912574
     33          1           0       -1.626043    1.340447    1.003294
     34          1           0       -3.215265    1.809173    1.634224
     35          1           0       -1.745689    2.185232    2.542119
     36          1           0       -4.538347   -0.075603    0.891681
 ---------------------------------------------------------------------
                    Distance matrix (angstroms):
                    1          2          3          4          5
     1  C    0.000000
     2  C    1.523329   0.000000
     3  C    2.569608   1.546427   0.000000
     4  C    3.103095   2.603842   1.559526   0.000000
     5  C    4.532925   3.972324   2.581966   1.540954   0.000000
     6  O    4.838708   4.382228   2.922188   2.450554   1.421843
     7  N    3.856961   2.486480   1.473188   2.472100   2.948695
     8  C    4.479490   3.118502   2.454212   3.771509   4.126087
     9  C    8.685810   7.214607   6.442389   7.254476   6.965268
    10  C    8.215459   6.830785   5.849436   6.611653   6.141451
    11  C    6.889242   5.553278   4.542368   5.404643   5.047116
    12  C    5.926088   4.498858   3.764671   4.840834   4.883046
    13  C    6.574626   5.072931   4.637090   5.689346   5.882244
    14  C    7.951404   6.443271   5.924056   6.848384   6.849918
    15  H    9.759493   8.280705   7.502965   8.254468   7.891607
    16  H    8.996520   7.671578   6.572313   7.219818   6.550500
    17  H    8.562211   7.047096   6.690958   7.604218   7.704795
    18  F    6.763225   5.613102   4.404309   5.139584   4.559382
    19  F    6.106693   4.620157   4.590315   5.709573   6.228718
    20  H    1.093554   2.179540   2.905260   2.856563   4.307674
    21  H    1.094510   2.171316   2.787947   3.370170   4.585159
    22  H    1.094917   2.158327   3.507054   4.134906   5.599370
    23  H    2.150263   1.096360   2.191511   2.915266   4.328784
    24  H    2.122998   1.096543   2.173312   3.538106   4.751593
    25  H    2.757592   2.838249   2.152008   1.098013   2.126187
    26  H    5.206202   4.367092   2.948183   2.202101   1.095889
    27  H    5.100393   4.764461   3.518159   2.172250   1.095474
    28  H    4.917711   4.228292   2.723223   2.749719   1.930111
    29  H    4.232870   2.882727   2.800042   4.278384   4.929943
    30  H    4.575569   3.456354   2.646641   3.945068   4.135206
    31  H    2.786075   2.146061   1.098365   2.149213   2.794576
    32  C    3.641538   3.099941   2.593450   1.533237   2.500302
    33  H    3.130237   2.789334   2.870885   2.186926   3.467804
    34  H    4.340358   3.455265   2.874950   2.188738   2.808438
    35  H    4.410708   4.105082   3.537573   2.174405   2.691055
    36  H    4.049417   2.590048   2.058421   2.837670   3.492325
                    6          7          8          9         10
     6  O    0.000000
     7  N    3.336197   0.000000
     8  C    4.095664   1.463222   0.000000
     9  C    7.007913   5.009426   4.317827   0.000000
    10  C    5.973866   4.517258   3.811279   1.394187   0.000000
    11  C    4.814528   3.295986   2.522594   2.413252   1.394535
    12  C    4.884483   2.435833   1.500758   2.817189   2.434211
    13  C    6.102467   3.257890   2.522673   2.412531   2.774850
    14  C    7.061413   4.489577   3.811602   1.394099   2.409283
    15  H    7.943311   6.060701   5.404806   1.086991   2.156373
    16  H    6.247682   5.319690   4.669913   2.160825   1.086012
    17  H    8.023649   5.277791   4.670659   2.160305   3.399327
    18  F    3.992802   3.472906   2.843025   3.626397   2.352199
    19  F    6.613704   3.394991   2.840371   3.626458   4.115828
    20  H    4.812374   4.244076   5.135932   9.211149   8.727418
    21  H    4.572343   4.152621   4.594649   8.897706   8.285176
    22  H    5.920852   4.638749   5.107070   9.260633   8.899693
    23  H    5.018582   2.737090   3.533093   7.237078   7.035063
    24  H    4.953057   2.727137   2.809811   6.928228   6.599393
    25  H    2.704805   3.393231   4.543134   8.255976   7.552445
    26  H    2.054171   2.752437   3.915491   6.137773   5.376278
    27  H    2.036912   3.992846   5.216367   7.882490   7.058267
    28  H    0.975957   2.810169   3.317459   6.150287   5.085607
    29  H    4.959049   2.121841   1.096102   4.797290   4.519532
    30  H    3.731619   2.115943   1.097209   4.789221   4.016929
    31  H    2.572754   2.102347   2.569921   6.668595   5.900452
    32  C    3.773098   3.100473   4.539871   7.582380   7.171859
    33  H    4.615030   3.546178   4.879084   8.142755   7.836135
    34  H    4.111748   2.827760   4.258344   6.788858   6.507158
    35  H    4.035827   4.068582   5.521686   8.344767   7.890849
    36  H    4.163280   1.020839   2.035359   5.006219   4.784941
                   11         12         13         14         15
    11  C    0.000000
    12  C    1.395801   0.000000
    13  C    2.389965   1.395504   0.000000
    14  C    2.775880   2.434548   1.394406   0.000000
    15  H    3.400235   3.904180   3.399966   2.156770   0.000000
    16  H    2.147909   3.409398   3.860717   3.399624   2.495417
    17  H    3.861673   3.409983   2.148567   1.085927   2.495447
    18  F    1.341204   2.369903   3.622251   4.116883   4.505439
    19  F    3.621208   2.367960   1.341162   2.353009   4.506488
    20  H    7.426260   6.521961   7.167029   8.506216  10.267221
    21  H    6.910668   6.089174   6.911160   8.285648   9.982677
    22  H    7.600225   6.528073   7.026505   8.411065  10.327249
    23  H    5.869118   4.708519   5.015397   6.334555   8.262965
    24  H    5.332344   4.195982   4.708536   6.102389   7.998310
    25  H    6.292572   5.746157   6.648029   7.853569   9.271733
    26  H    4.428609   4.356136   5.259648   6.084724   7.009273
    27  H    6.040099   5.937331   6.893311   7.806807   8.760667
    28  H    3.889265   4.018798   5.297445   6.237536   7.101477
    29  H    3.349474   2.130052   2.675682   4.041710   5.864095
    30  H    2.643414   2.124663   3.363474   4.527449   5.855540
    31  H    4.524516   3.944877   5.026284   6.296672   7.737394
    32  C    6.116630   5.415171   5.949778   7.029138   8.521001
    33  H    6.749136   5.870749   6.279260   7.432117   9.101455
    34  H    5.585483   4.872992   5.241839   6.212519   7.678289
    35  H    6.894101   6.326123   6.884375   7.882478   9.236258
    36  H    3.741301   2.690800   3.066156   4.273765   6.015353
                   16         17         18         19         20
    16  H    0.000000
    17  H    4.307132   0.000000
    18  F    2.580537   5.202748   0.000000
    19  F    5.201756   2.583241   4.735705   0.000000
    20  H    9.476188   9.109786   7.262540   6.721172   0.000000
    21  H    8.985352   8.986500   6.599182   6.596504   1.776643
    22  H    9.738020   8.928283   7.578656   6.384069   1.763978
    23  H    7.940088   6.804810   6.126844   4.366988   2.488926
    24  H    7.479690   6.683205   5.477443   4.190707   3.050111
    25  H    8.123640   8.619163   5.892630   6.614936   2.308526
    26  H    5.779538   6.922278   4.102614   5.719368   5.056693
    27  H    7.393417   8.634520   5.508807   7.219322   4.661427
    28  H    5.384189   7.232526   3.044431   5.903792   5.086344
    29  H    5.451117   4.733399   3.801845   2.530068   5.033540
    30  H    4.699304   5.466725   2.473389   3.831253   5.278683
    31  H    6.521935   7.153965   4.117011   5.138585   3.261552
    32  C    7.855175   7.621097   6.114662   5.771399   3.149016
    33  H    8.601952   7.935191   6.833680   5.871776   2.555497
    34  H    7.224789   6.745167   5.775303   5.088771   4.025069
    35  H    8.488427   8.474507   6.800282   6.772775   3.716609
    36  H    5.679994   4.897464   4.199497   2.912615   4.364806
                   21         22         23         24         25
    21  H    0.000000
    22  H    1.771013   0.000000
    23  H    3.068459   2.498909   0.000000
    24  H    2.515606   2.400573   1.752617   0.000000
    25  H    2.852878   3.813427   3.301726   3.804727   0.000000
    26  H    5.368900   6.222656   4.565119   5.055963   3.060937
    27  H    5.156349   6.160128   5.046038   5.643308   2.406493
    28  H    4.659094   5.952901   4.891073   4.616570   3.218301
    29  H    4.425380   4.644578   3.238244   2.244346   4.945046
    30  H    4.425417   5.265109   4.134672   3.112219   4.547008
    31  H    2.558643   3.743548   3.068512   2.464618   2.394984
    32  C    4.268564   4.468721   2.838278   4.118019   2.141884
    33  H    3.959015   3.768511   2.303574   3.829318   2.482504
    34  H    5.012863   5.098921   3.019743   4.322489   3.070154
    35  H    4.966007   5.240084   3.867339   5.155389   2.486153
    36  H    4.579757   4.695323   2.411419   2.869006   3.808294
                   26         27         28         29         30
    26  H    0.000000
    27  H    1.763201   0.000000
    28  H    2.167461   2.804019   0.000000
    29  H    4.816902   5.998368   4.250980   0.000000
    30  H    4.091566   5.218502   2.885926   1.756073   0.000000
    31  H    3.318877   3.730440   2.299738   2.969683   2.284274
    32  C    2.740087   2.754009   4.069173   4.923561   5.012099
    33  H    3.786204   3.724781   4.877438   5.028124   5.405486
    34  H    2.603185   3.199286   4.219985   4.687640   4.907064
    35  H    2.983352   2.488952   4.529078   5.979730   5.924851
    36  H    3.167926   4.427829   3.732423   2.366824   2.949300
                   31         32         33         34         35
    31  H    0.000000
    32  C    3.497851   0.000000
    33  H    3.814904   1.093629   0.000000
    34  H    3.872606   1.094734   1.772965   0.000000
    35  H    4.309255   1.095738   1.759534   1.767865   0.000000
    36  H    2.941013   2.940436   3.240242   2.419565   3.954018
                   36
    36  H    0.000000
 Stoichiometry    C13H19F2NO
 Framework group  C1[X(C13H19F2NO)]
 Deg. of freedom   102
 Full point group                 C1      NOp   1
 Largest Abelian subgroup         C1      NOp   1
 Largest concise Abelian subgroup C1      NOp   1
                         Standard orientation:                         
 ---------------------------------------------------------------------
 Center     Atomic      Atomic             Coordinates (Angstroms)
 Number     Number       Type             X           Y           Z
 ---------------------------------------------------------------------
      1          6           0       -3.903874   -1.745482   -1.195214
      2          6           0       -2.481945   -1.681201   -0.652518
      3          6           0       -1.988847   -0.242443   -0.372758
      4          6           0       -2.885357    0.550272    0.627240
      5          6           0       -2.372784    1.980853    0.882669
      6          8           0       -2.135996    2.675793   -0.334963
      7          7           0       -0.601681   -0.251009    0.123203
      8          6           0        0.388919   -0.494402   -0.925840
      9          6           0        4.361785    0.224929    0.604692
     10          6           0        3.656713    1.248750   -0.026515
     11          6           0        2.375940    1.006333   -0.522078
     12          6           0        1.775659   -0.248566   -0.407390
     13          6           0        2.494815   -1.257560    0.234621
     14          6           0        3.776486   -1.033509    0.736106
     15          1           0        5.359698    0.408080    0.994787
     16          1           0        4.093074    2.237289   -0.135154
     17          1           0        4.307464   -1.842539    1.228825
     18          9           0        1.720767    2.009471   -1.124813
     19          9           0        1.950759   -2.474689    0.380616
     20          1           0       -4.637586   -1.433772   -0.446641
     21          1           0       -4.015865   -1.109756   -2.079105
     22          1           0       -4.147375   -2.772921   -1.484904
     23          1           0       -2.410792   -2.301124    0.248947
     24          1           0       -1.830079   -2.152173   -1.397945
     25          1           0       -3.870484    0.658910    0.154636
     26          1           0       -1.451721    1.990009    1.476414
     27          1           0       -3.123367    2.549747    1.442176
     28          1           0       -1.264882    2.368145   -0.649613
     29          1           0        0.321642   -1.521023   -1.303944
     30          1           0        0.212025    0.164206   -1.785381
     31          1           0       -2.021012    0.303956   -1.325029
     32          6           0       -3.086149   -0.151897    1.975371
     33          1           0       -3.570394   -1.125025    1.854738
     34          1           0       -2.136265   -0.304522    2.497738
     35          1           0       -3.730959    0.447389    2.627842
     36          1           0       -0.495285   -0.963636    0.846359
 ---------------------------------------------------------------------
 Rotational constants (GHZ):      0.6930107      0.2651688      0.2221953
 Standard basis: 6-311G(d) (5D, 7F)
 There are   380 symmetry adapted cartesian basis functions of A   symmetry.
 There are   363 symmetry adapted basis functions of A   symmetry.
   363 basis functions,   639 primitive gaussians,   380 cartesian basis functions
    65 alpha electrons       65 beta electrons
       nuclear repulsion energy      1270.8888798820 Hartrees.
 NAtoms=   36 NActive=   36 NUniq=   36 SFac= 1.00D+00 NAtFMM=   60 NAOKFM=F Big=F
 Integral buffers will be    131072 words long.
 Raffenetti 2 integral format.
 Two-electron integral symmetry is turned on.
 ------------------------------------------------------------------------------
 Polarizable Continuum Model (PCM)
 =================================
 Model                : PCM (using non-symmetric T matrix).
 Atomic radii         : UFF (Universal Force Field).
 Polarization charges : Total charges.
 Charge compensation  : None.
 Solution method      : On-the-fly selection.
 Cavity type          : Scaled VdW (van der Waals Surface) (Alpha=1.100).
 Cavity algorithm     : GePol (No added spheres)
                        Default sphere list used, NSphG=   36.
                        Lebedev-Laikov grids with approx.  5.0 points / Ang**2.
                        Smoothing algorithm: Karplus/York (Gamma=1.0000).
                        Polarization charges: spherical gaussians, with
                                              point-specific exponents (IZeta= 3).
                        Self-potential: point-specific (ISelfS= 7).
                        Self-field    : sphere-specific E.n sum rule (ISelfD= 2).
 Solvent              : Chloroform, Eps=   4.711300 Eps(inf)=   2.090627
 ------------------------------------------------------------------------------
 One-electron integrals computed using PRISM.
 NBasis=   363 RedAO= T EigKep=  2.46D-04  NBF=   363
 NBsUse=   363 1.00D-06 EigRej= -1.00D+00 NBFU=   363
 ExpMin= 1.03D-01 ExpMax= 1.14D+04 ExpMxC= 1.72D+03 IAcc=1 IRadAn=         1 AccDes= 0.00D+00
 Harris functional with IExCor=  908 and IRadAn=       1 diagonalized for initial guess.
 HarFok:  IExCor=  908 AccDes= 0.00D+00 IRadAn=         1 IDoV= 1 UseB2=F ITyADJ=14
 ICtDFT=  3500011 ScaDFX=  1.000000  1.000000  1.000000  1.000000
 FoFCou: FMM=F IPFlag=           0 FMFlag=      100000 FMFlg1=           0
         NFxFlg=           0 DoJE=T BraDBF=F KetDBF=T FulRan=T
         wScrn=  0.000000 ICntrl=     500 IOpCl=  0 I1Cent=   200000004 NGrid=           0
         NMat0=    1 NMatS0=      1 NMatT0=    0 NMatD0=    1 NMtDS0=    0 NMtDT0=    0
 Petite list used in FoFCou.
 Requested convergence on RMS density matrix=1.00D-08 within 128 cycles.
 Requested convergence on MAX density matrix=1.00D-06.
 Requested convergence on             energy=1.00D-06.
 No special actions if energy rises.
 Inv3:  Mode=1 IEnd=    18930432.
 Iteration    1 A*A^-1 deviation from unit magnitude is 4.44D-15 for   2490.
 Iteration    1 A*A^-1 deviation from orthogonality  is 2.50D-15 for   1879   1827.
 Iteration    1 A^-1*A deviation from unit magnitude is 4.88D-15 for   2490.
 Iteration    1 A^-1*A deviation from orthogonality  is 1.68D-12 for   1834   1821.
 Error on total polarization charges =  0.00959
 SCF Done:  E(RmPW1PW91) =  -836.460296954     A.U. after   12 cycles
            NFock= 12  Conv=0.74D-08     -V/T= 2.0037
 DoSCS=F DFT=T ScalE2(SS,OS)=  1.000000  1.000000
 Range of M.O.s used for correlation:     1   363
 NBasis=   363 NAE=    65 NBE=    65 NFC=     0 NFV=     0
 NROrb=    363 NOA=    65 NOB=    65 NVA=   298 NVB=   298

 **** Warning!!: The largest alpha MO coefficient is  0.10987046D+02

 NEqPCM:  Using equilibrium solvation (IEInf=0, Eps=   4.7113, EpsInf=   2.0906)
          Differentiating once with respect to magnetic field using GIAOs.
          Electric field/nuclear overlap derivatives assumed to be zero.
 FoFJK:  IHMeth= 1 ICntrl=    6127 DoSepK=F KAlg= 0 I1Cent=   0 FoldK=F
 IRaf=         1 NMat=   1 IRICut=       1 DoRegI=T DoRafI=F ISym2E= 0.
          There are     3 degrees of freedom in the 1st order CPHF.  IDoFFX=0 NUNeed=     3.
      3 vectors produced by pass  0 Test12= 6.46D-13 3.33D-08 XBig12= 4.74D+01 2.15D+00.
 AX will form     3 AO Fock derivatives at one time.
      3 vectors produced by pass  1 Test12= 6.46D-13 3.33D-08 XBig12= 1.50D-01 1.91D-01.
      3 vectors produced by pass  2 Test12= 6.46D-13 3.33D-08 XBig12= 7.36D-04 7.37D-03.
      3 vectors produced by pass  3 Test12= 6.46D-13 3.33D-08 XBig12= 1.60D-06 2.57D-04.
      3 vectors produced by pass  4 Test12= 6.46D-13 3.33D-08 XBig12= 3.29D-09 1.50D-05.
      3 vectors produced by pass  5 Test12= 6.46D-13 3.33D-08 XBig12= 1.49D-11 7.51D-07.
      1 vectors produced by pass  6 Test12= 6.46D-13 3.33D-08 XBig12= 2.91D-14 4.22D-08.
 InvSVY:  IOpt=1 It=  1 EMax= 1.78D-15
 Solved reduced A of dimension    19 with     3 vectors.
 Calculating GIAO nuclear magnetic shielding tensors.
 SCF GIAO Magnetic shielding tensor (ppm):
      1  C    Isotropic =   176.0188   Anisotropy =    18.7586
   XX=   183.4230   YX=     3.4706   ZX=     9.1710
   XY=     2.4702   YY=   172.2071   ZY=    -0.9826
   XZ=     8.1403   YZ=    -0.0186   ZZ=   172.4262
   Eigenvalues:   166.9681   172.5637   188.5245
      2  C    Isotropic =   161.3791   Anisotropy =    24.4219
   XX=   161.4108   YX=     6.3954   ZX=    13.5040
   XY=     9.4501   YY=   170.7919   ZY=    -1.8461
   XZ=    18.9505   YZ=    -3.2791   ZZ=   151.9345
   Eigenvalues:   138.3136   168.1633   177.6603
      3  C    Isotropic =   126.4250   Anisotropy =    46.4564
   XX=   154.4393   YX=     0.7154   ZX=     6.6951
   XY=     8.6528   YY=   110.2282   ZY=     3.8423
   XZ=    13.3817   YZ=     1.5518   ZZ=   114.6074
   Eigenvalues:   108.9435   112.9355   157.3959
      4  C    Isotropic =   148.5124   Anisotropy =    16.5677
   XX=   144.2156   YX=    -0.5351   ZX=    -3.7296
   XY=     5.0204   YY=   157.8366   ZY=    -7.4733
   XZ=   -11.4353   YZ=     1.4028   ZZ=   143.4849
   Eigenvalues:   136.2386   149.7410   159.5575
      5  C    Isotropic =   120.2116   Anisotropy =    65.7087
   XX=    90.2795   YX=    12.5767   ZX=   -13.1228
   XY=    14.1319   YY=   129.6815   ZY=   -28.7856
   XZ=    -9.4892   YZ=   -19.6449   ZZ=   140.6739
   Eigenvalues:    85.8393   110.7782   164.0174
      6  O    Isotropic =   306.3354   Anisotropy =    52.2081
   XX=   335.6216   YX=    -8.3712   ZX=   -18.2795
   XY=   -15.3501   YY=   294.0811   ZY=     8.9489
   XZ=    -1.9974   YZ=     1.0109   ZZ=   289.3036
   Eigenvalues:   285.9890   291.8765   341.1408
      7  N    Isotropic =   202.6593   Anisotropy =    50.1615
   XX=   220.1645   YX=     2.1766   ZX=    30.4727
   XY=    20.5724   YY=   171.9492   ZY=   -24.3187
   XZ=     4.2032   YZ=   -17.9717   ZZ=   215.8644
   Eigenvalues:   158.5466   213.3311   236.1004
      8  C    Isotropic =   146.7329   Anisotropy =    53.3668
   XX=   159.5206   YX=    -4.1069   ZX=   -19.8435
   XY=   -11.0248   YY=   120.3589   ZY=     3.4060
   XZ=   -22.9532   YZ=     3.6414   ZZ=   160.3192
   Eigenvalues:   118.9410   138.9468   182.3108
      9  C    Isotropic =    54.7010   Anisotropy =   185.6478
   XX=   -16.8541   YX=   -29.1347   ZX=   -78.7064
   XY=   -28.4972   YY=    45.9980   ZY=    28.2280
   XZ=   -77.4952   YZ=    28.0798   ZZ=   134.9591
   Eigenvalues:   -52.4916    38.1284   178.4662
     10  C    Isotropic =    70.5429   Anisotropy =   149.0116
   XX=    64.3758   YX=   -30.2834   ZX=   -38.3387
   XY=   -38.9502   YY=     4.9056   ZY=    33.2977
   XZ=   -35.8371   YZ=    36.7570   ZZ=   142.3474
   Eigenvalues:   -13.0444    54.7893   169.8840
     11  C    Isotropic =    19.1165   Anisotropy =    99.6578
   XX=    21.6215   YX=    35.0401   ZX=   -40.7954
   XY=    28.5802   YY=   -20.2480   ZY=    45.4867
   XZ=   -34.5921   YZ=    43.4744   ZZ=    55.9761
   Eigenvalues:   -64.6784    36.4729    85.5551
     12  C    Isotropic =    65.4167   Anisotropy =   142.3870
   XX=    42.7604   YX=   -16.1745   ZX=   -52.3653
   XY=   -16.2723   YY=    28.6459   ZY=    34.2061
   XZ=   -48.6601   YZ=    36.3805   ZZ=   124.8439
   Eigenvalues:    17.0430    18.8659   160.3414
     13  C    Isotropic =    19.7846   Anisotropy =    98.2629
   XX=    30.2501   YX=   -44.3966   ZX=   -11.5779
   XY=   -37.8837   YY=   -42.4402   ZY=    23.5899
   XZ=   -11.5837   YZ=    25.3453   ZZ=    71.5440
   Eigenvalues:   -63.3384    37.3990    85.2932
     14  C    Isotropic =    71.0762   Anisotropy =   148.3686
   XX=    59.6285   YX=     7.1360   ZX=   -51.9931
   XY=    15.1446   YY=    23.8980   ZY=    52.4866
   XZ=   -55.2606   YZ=    49.1707   ZZ=   129.7020
   Eigenvalues:   -12.1834    55.4233   169.9885
     15  H    Isotropic =    24.5406   Anisotropy =     3.1724
   XX=    25.3093   YX=     0.4879   ZX=     1.6229
   XY=     0.4575   YY=    26.2052   ZY=    -1.4299
   XZ=     1.6500   YZ=    -1.4253   ZZ=    22.1073
   Eigenvalues:    20.9879    25.9784    26.6555
     16  H    Isotropic =    25.1880   Anisotropy =     5.0780
   XX=    27.7013   YX=     0.9846   ZX=     2.2598
   XY=     0.5029   YY=    25.2788   ZY=    -1.1265
   XZ=     2.2062   YZ=    -0.9834   ZZ=    22.5840
   Eigenvalues:    21.3483    25.6425    28.5734
     17  H    Isotropic =    25.2245   Anisotropy =     4.9464
   XX=    27.6126   YX=     0.7895   ZX=     2.2678
   XY=     1.0539   YY=    25.6288   ZY=    -0.7800
   XZ=     2.0641   YZ=    -0.9077   ZZ=    22.4321
   Eigenvalues:    21.3555    25.7959    28.5221
     18  F    Isotropic =   305.4638   Anisotropy =   129.9682
   XX=   262.4940   YX=   -30.3236   ZX=   -45.2147
   XY=   -40.1722   YY=   277.8599   ZY=    15.0278
   XZ=   -32.6481   YZ=     6.6116   ZZ=   376.0375
   Eigenvalues:   229.9065   294.3756   392.1093
     19  F    Isotropic =   307.1861   Anisotropy =   126.0450
   XX=   263.3169   YX=    -1.3219   ZX=   -56.7194
   XY=    10.0580   YY=   305.2637   ZY=    30.3896
   XZ=   -50.9161   YZ=    46.4414   ZZ=   352.9778
   Eigenvalues:   231.8855   298.4568   391.2162
     20  H    Isotropic =    31.0906   Anisotropy =     7.4384
   XX=    35.6236   YX=     0.7331   ZX=    -1.9605
   XY=     0.8879   YY=    27.8431   ZY=     2.5573
   XZ=    -1.2863   YZ=     2.3950   ZZ=    29.8051
   Eigenvalues:    25.8993    31.3230    36.0495
     21  H    Isotropic =    31.3552   Anisotropy =     9.1472
   XX=    30.6734   YX=    -0.2342   ZX=     4.6802
   XY=     0.3368   YY=    29.1844   ZY=    -2.3264
   XZ=     3.7264   YZ=    -2.3369   ZZ=    34.2077
   Eigenvalues:    26.9373    29.6749    37.4533
     22  H    Isotropic =    30.9911   Anisotropy =    11.4660
   XX=    30.8978   YX=     4.5041   ZX=     2.6826
   XY=     3.4597   YY=    34.4563   ZY=     3.2707
   XZ=     2.3789   YZ=     3.4405   ZZ=    27.6193
   Eigenvalues:    25.9903    28.3479    38.6351
     23  H    Isotropic =    30.8390   Anisotropy =     5.0365
   XX=    29.6574   YX=     0.4459   ZX=     1.5562
   XY=     0.1459   YY=    32.4592   ZY=    -2.6577
   XZ=     0.5852   YZ=    -2.4170   ZZ=    30.4005
   Eigenvalues:    28.0099    30.3105    34.1967
     24  H    Isotropic =    29.6944   Anisotropy =     6.1292
   XX=    32.9347   YX=     0.0792   ZX=    -1.4708
   XY=    -0.4042   YY=    29.3004   ZY=     4.6296
   XZ=    -1.1897   YZ=     4.1402   ZZ=    26.8481
   Eigenvalues:    23.4230    31.8797    33.7805
     25  H    Isotropic =    30.0736   Anisotropy =     6.3686
   XX=    33.6389   YX=    -1.7106   ZX=     2.0891
   XY=    -1.2312   YY=    29.2504   ZY=     1.5373
   XZ=     1.1539   YZ=     0.6147   ZZ=    27.3315
   Eigenvalues:    26.2522    29.6492    34.3193
     26  H    Isotropic =    28.2797   Anisotropy =     3.1108
   XX=    27.0623   YX=     1.6864   ZX=     0.8060
   XY=     0.7229   YY=    27.9046   ZY=    -0.6295
   XZ=     1.4316   YZ=     0.7116   ZZ=    29.8722
   Eigenvalues:    25.9944    28.4910    30.3536
     27  H    Isotropic =    28.7220   Anisotropy =     6.6935
   XX=    26.0232   YX=    -2.3623   ZX=    -3.0757
   XY=    -0.6377   YY=    31.0267   ZY=     0.2783
   XZ=    -4.7601   YZ=     1.8476   ZZ=    29.1162
   Eigenvalues:    23.3017    29.6801    33.1844
     28  H    Isotropic =    30.9445   Anisotropy =    15.9703
   XX=    37.4725   YX=    -3.0989   ZX=    -6.9167
   XY=    -3.8949   YY=    29.0649   ZY=    -2.4759
   XZ=    -7.8867   YZ=    -1.3608   ZZ=    26.2960
   Eigenvalues:    21.1990    30.0431    41.5913
     29  H    Isotropic =    27.8826   Anisotropy =     6.2204
   XX=    29.7157   YX=    -1.9952   ZX=    -2.0890
   XY=    -0.4209   YY=    28.7818   ZY=     2.7905
   XZ=     0.8194   YZ=     4.9246   ZZ=    25.1502
   Eigenvalues:    22.7007    28.9175    32.0295
     30  H    Isotropic =    28.8937   Anisotropy =     5.8988
   XX=    29.6950   YX=     1.9048   ZX=    -1.8054
   XY=     2.1351   YY=    26.8706   ZY=    -2.4352
   XZ=     0.6372   YZ=    -3.7697   ZZ=    30.1156
   Eigenvalues:    24.5691    29.2858    32.8263
     31  H    Isotropic =    29.1513   Anisotropy =     1.6442
   XX=    28.8536   YX=     0.2813   ZX=     0.9474
   XY=    -0.1424   YY=    29.4303   ZY=    -0.9699
   XZ=    -0.4061   YZ=    -0.8834   ZZ=    29.1700
   Eigenvalues:    28.2582    28.9483    30.2474
     32  C    Isotropic =   179.2446   Anisotropy =    18.1559
   XX=   173.9613   YX=     0.7793   ZX=    -2.2555
   XY=     0.9053   YY=   177.8508   ZY=    -5.3971
   XZ=    -4.2861   YZ=   -10.3794   ZZ=   185.9217
   Eigenvalues:   172.2066   174.1787   191.3486
     33  H    Isotropic =    31.2899   Anisotropy =     8.4273
   XX=    29.2729   YX=     4.2026   ZX=    -2.0464
   XY=     4.1123   YY=    33.6471   ZY=    -0.3119
   XZ=    -2.9196   YZ=    -1.5170   ZZ=    30.9497
   Eigenvalues:    26.1393    30.8223    36.9081
     34  H    Isotropic =    31.9535   Anisotropy =     7.0440
   XX=    33.1919   YX=    -1.1971   ZX=     1.8609
   XY=    -1.8383   YY=    27.8765   ZY=    -1.7201
   XZ=     1.7812   YZ=    -2.0787   ZZ=    34.7920
   Eigenvalues:    27.1984    32.0125    36.6495
     35  H    Isotropic =    31.6883   Anisotropy =    11.1229
   XX=    31.2703   YX=    -2.0914   ZX=    -5.1881
   XY=    -1.8203   YY=    29.7055   ZY=     1.4543
   XZ=    -6.0062   YZ=     1.7654   ZZ=    34.0890
   Eigenvalues:    26.7805    29.1809    39.1035
     36  H    Isotropic =    32.1303   Anisotropy =     8.4072
   XX=    35.6431   YX=    -3.1023   ZX=     0.0876
   XY=    -3.5202   YY=    28.2106   ZY=    -4.9055
   XZ=    -2.4349   YZ=    -7.6291   ZZ=    32.5373
   Eigenvalues:    22.8475    35.8083    37.7351
 End of Minotr F.D. properties file   721 does not exist.
 End of Minotr F.D. properties file   722 does not exist.
 End of Minotr F.D. properties file   788 does not exist.

 **********************************************************************

            Population analysis using the SCF density.

 **********************************************************************

 Orbital symmetries:
       Occupied  (A) (A) (A) (A) (A) (A) (A) (A) (A) (A) (A) (A)
                 (A) (A) (A) (A) (A) (A) (A) (A) (A) (A) (A) (A)
                 (A) (A) (A) (A) (A) (A) (A) (A) (A) (A) (A) (A)
                 (A) (A) (A) (A) (A) (A) (A) (A) (A) (A) (A) (A)
                 (A) (A) (A) (A) (A) (A) (A) (A) (A) (A) (A) (A)
                 (A) (A) (A) (A) (A)
       Virtual   (A) (A) (A) (A) (A) (A) (A) (A) (A) (A) (A) (A)
                 (A) (A) (A) (A) (A) (A) (A) (A) (A) (A) (A) (A)
                 (A) (A) (A) (A) (A) (A) (A) (A) (A) (A) (A) (A)
                 (A) (A) (A) (A) (A) (A) (A) (A) (A) (A) (A) (A)
                 (A) (A) (A) (A) (A) (A) (A) (A) (A) (A) (A) (A)
                 (A) (A) (A) (A) (A) (A) (A) (A) (A) (A) (A) (A)
                 (A) (A) (A) (A) (A) (A) (A) (A) (A) (A) (A) (A)
                 (A) (A) (A) (A) (A) (A) (A) (A) (A) (A) (A) (A)
                 (A) (A) (A) (A) (A) (A) (A) (A) (A) (A) (A) (A)
                 (A) (A) (A) (A) (A) (A) (A) (A) (A) (A) (A) (A)
                 (A) (A) (A) (A) (A) (A) (A) (A) (A) (A) (A) (A)
                 (A) (A) (A) (A) (A) (A) (A) (A) (A) (A) (A) (A)
                 (A) (A) (A) (A) (A) (A) (A) (A) (A) (A) (A) (A)
                 (A) (A) (A) (A) (A) (A) (A) (A) (A) (A) (A) (A)
                 (A) (A) (A) (A) (A) (A) (A) (A) (A) (A) (A) (A)
                 (A) (A) (A) (A) (A) (A) (A) (A) (A) (A) (A) (A)
                 (A) (A) (A) (A) (A) (A) (A) (A) (A) (A) (A) (A)
                 (A) (A) (A) (A) (A) (A) (A) (A) (A) (A) (A) (A)
                 (A) (A) (A) (A) (A) (A) (A) (A) (A) (A) (A) (A)
                 (A) (A) (A) (A) (A) (A) (A) (A) (A) (A) (A) (A)
                 (A) (A) (A) (A) (A) (A) (A) (A) (A) (A) (A) (A)
                 (A) (A) (A) (A) (A) (A) (A) (A) (A) (A) (A) (A)
                 (A) (A) (A) (A) (A) (A) (A) (A) (A) (A) (A) (A)
                 (A) (A) (A) (A) (A) (A) (A) (A) (A) (A) (A) (A)
                 (A) (A) (A) (A) (A) (A) (A) (A) (A) (A)
 The electronic state is 1-A.
 Alpha  occ. eigenvalues --  -24.80524 -24.80490 -19.20224 -14.38053 -10.33787
 Alpha  occ. eigenvalues --  -10.33782 -10.26868 -10.26525 -10.26360 -10.26192
 Alpha  occ. eigenvalues --  -10.26005 -10.25225 -10.25204 -10.23192 -10.22675
 Alpha  occ. eigenvalues --  -10.21900 -10.21763  -1.27791  -1.27697  -1.04300
 Alpha  occ. eigenvalues --   -0.94438  -0.90468  -0.83116  -0.79985  -0.78657
 Alpha  occ. eigenvalues --   -0.78254  -0.71797  -0.68959  -0.67584  -0.66082
 Alpha  occ. eigenvalues --   -0.63788  -0.62839  -0.59163  -0.57398  -0.55763
 Alpha  occ. eigenvalues --   -0.52487  -0.52169  -0.52011  -0.51346  -0.49705
 Alpha  occ. eigenvalues --   -0.49583  -0.47984  -0.47256  -0.46944  -0.46453
 Alpha  occ. eigenvalues --   -0.44275  -0.43033  -0.42246  -0.42013  -0.41461
 Alpha  occ. eigenvalues --   -0.40885  -0.39705  -0.38997  -0.38218  -0.37672
 Alpha  occ. eigenvalues --   -0.37594  -0.36280  -0.35793  -0.35115  -0.33259
 Alpha  occ. eigenvalues --   -0.32025  -0.27820  -0.27526  -0.26806  -0.23983
 Alpha virt. eigenvalues --   -0.02059  -0.00932   0.04752   0.05535   0.06201
 Alpha virt. eigenvalues --    0.06600   0.07525   0.10074   0.10425   0.11000
 Alpha virt. eigenvalues --    0.11288   0.11642   0.11870   0.13287   0.13484
 Alpha virt. eigenvalues --    0.13653   0.14442   0.14673   0.15934   0.16884
 Alpha virt. eigenvalues --    0.17092   0.17741   0.18803   0.19197   0.19971
 Alpha virt. eigenvalues --    0.22142   0.22240   0.23535   0.24465   0.25546
 Alpha virt. eigenvalues --    0.25859   0.26250   0.26594   0.27850   0.29460
 Alpha virt. eigenvalues --    0.32425   0.32809   0.33722   0.34961   0.35448
 Alpha virt. eigenvalues --    0.36774   0.37124   0.37902   0.38476   0.39032
 Alpha virt. eigenvalues --    0.39602   0.40496   0.41084   0.41603   0.42323
 Alpha virt. eigenvalues --    0.42996   0.43262   0.43973   0.45334   0.45876
 Alpha virt. eigenvalues --    0.47416   0.47831   0.49384   0.50843   0.51940
 Alpha virt. eigenvalues --    0.52029   0.53253   0.54363   0.54641   0.55929
 Alpha virt. eigenvalues --    0.56637   0.57540   0.58020   0.58869   0.59315
 Alpha virt. eigenvalues --    0.59861   0.60754   0.60917   0.61342   0.61622
 Alpha virt. eigenvalues --    0.62410   0.62828   0.63396   0.64243   0.64786
 Alpha virt. eigenvalues --    0.64906   0.65120   0.65904   0.66764   0.67030
 Alpha virt. eigenvalues --    0.67645   0.68689   0.68795   0.69348   0.71071
 Alpha virt. eigenvalues --    0.71723   0.73638   0.74037   0.74389   0.76447
 Alpha virt. eigenvalues --    0.78208   0.78729   0.81588   0.82909   0.84835
 Alpha virt. eigenvalues --    0.86096   0.89391   0.89843   0.92343   0.93814
 Alpha virt. eigenvalues --    0.94825   0.97424   0.98389   0.99037   0.99654
 Alpha virt. eigenvalues --    1.01112   1.02406   1.03269   1.06042   1.07244
 Alpha virt. eigenvalues --    1.08375   1.10120   1.12163   1.12993   1.14288
 Alpha virt. eigenvalues --    1.15171   1.18448   1.20125   1.21648   1.23480
 Alpha virt. eigenvalues --    1.25367   1.26336   1.27874   1.28540   1.31263
 Alpha virt. eigenvalues --    1.33118   1.35505   1.36313   1.39771   1.42039
 Alpha virt. eigenvalues --    1.44200   1.46446   1.47953   1.48139   1.50205
 Alpha virt. eigenvalues --    1.52058   1.52987   1.53564   1.54696   1.54987
 Alpha virt. eigenvalues --    1.56335   1.56752   1.58803   1.60213   1.61986
 Alpha virt. eigenvalues --    1.62427   1.62970   1.65413   1.66344   1.67664
 Alpha virt. eigenvalues --    1.68390   1.68536   1.69843   1.71676   1.73389
 Alpha virt. eigenvalues --    1.75057   1.76802   1.77698   1.78729   1.82313
 Alpha virt. eigenvalues --    1.83943   1.84637   1.85340   1.88700   1.89130
 Alpha virt. eigenvalues --    1.89485   1.89803   1.92548   1.94949   1.94981
 Alpha virt. eigenvalues --    1.96134   1.97291   1.99962   2.02239   2.04630
 Alpha virt. eigenvalues --    2.09465   2.11566   2.14259   2.17294   2.18623
 Alpha virt. eigenvalues --    2.19660   2.23179   2.25594   2.27443   2.27549
 Alpha virt. eigenvalues --    2.30086   2.31711   2.34847   2.37754   2.41308
 Alpha virt. eigenvalues --    2.42034   2.42564   2.44183   2.45545   2.47856
 Alpha virt. eigenvalues --    2.48820   2.50048   2.51307   2.52235   2.53576
 Alpha virt. eigenvalues --    2.55569   2.55608   2.58282   2.61754   2.65032
 Alpha virt. eigenvalues --    2.66502   2.68469   2.71131   2.72430   2.74151
 Alpha virt. eigenvalues --    2.77148   2.82684   2.84136   2.85073   2.90304
 Alpha virt. eigenvalues --    2.91408   2.95454   2.99120   3.00304   3.03105
 Alpha virt. eigenvalues --    3.05426   3.06698   3.08680   3.10071   3.11448
 Alpha virt. eigenvalues --    3.12238   3.17037   3.18023   3.19666   3.23394
 Alpha virt. eigenvalues --    3.24898   3.25846   3.27629   3.28592   3.28920
 Alpha virt. eigenvalues --    3.29726   3.31087   3.32214   3.35376   3.40997
 Alpha virt. eigenvalues --    3.47096   3.48260   3.51931   3.58004   3.64636
 Alpha virt. eigenvalues --    3.76725   3.79233   3.79657   3.80053   3.80426
 Alpha virt. eigenvalues --    3.85335   3.87945   3.95717   3.96298   3.99675
 Alpha virt. eigenvalues --    4.00283   4.06144   4.07793   4.11379   4.12724
 Alpha virt. eigenvalues --    4.19166   4.22738   4.48213   4.75352   4.77159
 Alpha virt. eigenvalues --    4.80012   4.80798   4.95726   5.05774   5.41453
 Alpha virt. eigenvalues --    6.12836   6.14653   6.31494   6.32264   6.56556
 Alpha virt. eigenvalues --    6.59413  23.30357  23.47436  23.58880  23.69173
 Alpha virt. eigenvalues --   23.74257  23.78576  23.80986  23.84768  23.86893
 Alpha virt. eigenvalues --   23.90030  24.08780  24.11379  24.19425  35.58473
 Alpha virt. eigenvalues --   49.97134  66.89089  66.89643
          Condensed to atoms (all electrons):
               1          2          3          4          5          6
     1  C    5.359874   0.289672  -0.073247   0.001334  -0.000374  -0.000068
     2  C    0.289672   5.353701   0.328194  -0.081226   0.007982   0.000821
     3  C   -0.073247   0.328194   5.394891   0.262880  -0.058739   0.011296
     4  C    0.001334  -0.081226   0.262880   5.548410   0.285777  -0.082207
     5  C   -0.000374   0.007982  -0.058739   0.285777   5.116056   0.248143
     6  O   -0.000068   0.000821   0.011296  -0.082207   0.248143   8.182563
     7  N    0.007120  -0.069543   0.268735  -0.078262   0.000767  -0.003354
     8  C    0.000060  -0.004284  -0.087539   0.009122  -0.000046   0.000208
     9  C    0.000000   0.000000  -0.000002   0.000000   0.000000   0.000000
    10  C    0.000000   0.000000   0.000009  -0.000001   0.000001   0.000001
    11  C   -0.000001   0.000040  -0.000247  -0.000249   0.000162   0.000026
    12  C    0.000020  -0.000166   0.008906   0.000243  -0.000250  -0.000077
    13  C    0.000002  -0.000028  -0.000292   0.000102  -0.000018  -0.000001
    14  C    0.000000  -0.000001   0.000024   0.000000   0.000000   0.000000
    15  H    0.000000   0.000000   0.000000   0.000000   0.000000   0.000000
    16  H    0.000000   0.000000   0.000000   0.000000   0.000000   0.000000
    17  H    0.000000   0.000000  -0.000001   0.000000   0.000000   0.000000
    18  F    0.000000   0.000001  -0.000185   0.000019  -0.000093  -0.000067
    19  F    0.000000  -0.000094   0.000036   0.000001   0.000000   0.000000
    20  H    0.388576  -0.037461  -0.008524   0.003721   0.000294  -0.000042
    21  H    0.388787  -0.045205  -0.001954  -0.001920  -0.000166  -0.000139
    22  H    0.388517  -0.034928   0.008247  -0.000212   0.000027   0.000001
    23  H   -0.038430   0.389286  -0.038715  -0.008004  -0.000492  -0.000010
    24  H   -0.043934   0.407210  -0.044894   0.007042  -0.000183  -0.000009
    25  H    0.000605  -0.004060  -0.054581   0.395097  -0.039310   0.007058
    26  H   -0.000094   0.000490  -0.013314  -0.058739   0.391966  -0.033317
    27  H   -0.000009  -0.000056   0.009380  -0.046767   0.389209  -0.025373
    28  H   -0.000021   0.000196   0.006925  -0.002349  -0.051559   0.262170
    29  H   -0.000683   0.003441   0.003141  -0.001580   0.000160  -0.000019
    30  H    0.000101  -0.000724  -0.007576   0.001061  -0.000169   0.000323
    31  H   -0.000138  -0.042117   0.389185  -0.053240  -0.010082   0.020681
    32  C   -0.002748  -0.003219  -0.071942   0.265687  -0.074184   0.004623
    33  H   -0.000257   0.001861  -0.008029  -0.028968   0.006030  -0.000204
    34  H    0.000086   0.000255  -0.007451  -0.040370  -0.004139  -0.000177
    35  H    0.000002  -0.000129   0.008648  -0.036730  -0.004668   0.000082
    36  H    0.000169  -0.004376  -0.048226  -0.003564  -0.000291  -0.000028
               7          8          9         10         11         12
     1  C    0.007120   0.000060   0.000000   0.000000  -0.000001   0.000020
     2  C   -0.069543  -0.004284   0.000000   0.000000   0.000040  -0.000166
     3  C    0.268735  -0.087539  -0.000002   0.000009  -0.000247   0.008906
     4  C   -0.078262   0.009122   0.000000  -0.000001  -0.000249   0.000243
     5  C    0.000767  -0.000046   0.000000   0.000001   0.000162  -0.000250
     6  O   -0.003354   0.000208   0.000000   0.000001   0.000026  -0.000077
     7  N    6.973800   0.284147   0.000074  -0.000019   0.020024  -0.089042
     8  C    0.284147   5.302727  -0.001356   0.009225  -0.076885   0.293335
     9  C    0.000074  -0.001356   5.058773   0.436469  -0.005709  -0.058635
    10  C   -0.000019   0.009225   0.436469   5.189943   0.478555  -0.033350
    11  C    0.020024  -0.076885  -0.005709   0.478555   4.768885   0.245558
    12  C   -0.089042   0.293335  -0.058635  -0.033350   0.245558   5.788476
    13  C   -0.008609  -0.081827  -0.006628  -0.063731   0.030377   0.255423
    14  C   -0.000344   0.010070   0.437212  -0.036896  -0.066425  -0.036167
    15  H   -0.000001   0.000029   0.404927  -0.040995   0.006275  -0.002058
    16  H    0.000014  -0.000304  -0.040672   0.391927  -0.048849   0.011864
    17  H    0.000014  -0.000328  -0.041028   0.007118  -0.001330   0.012402
    18  F   -0.000528  -0.002573   0.005509  -0.054218   0.312721  -0.074156
    19  F   -0.001032   0.000999   0.005579  -0.000597   0.005075  -0.081203
    20  H   -0.000047  -0.000012   0.000000   0.000000   0.000000   0.000001
    21  H   -0.000027  -0.000035   0.000000   0.000000   0.000000  -0.000004
    22  H   -0.000334  -0.000022   0.000000   0.000000   0.000000  -0.000001
    23  H   -0.000047   0.000176   0.000000   0.000000  -0.000004  -0.000064
    24  H   -0.002840   0.003034   0.000000   0.000000  -0.000061   0.000248
    25  H    0.005592  -0.000365   0.000000   0.000000   0.000002   0.000017
    26  H    0.018103  -0.000946   0.000000  -0.000004   0.000521  -0.000184
    27  H    0.000250   0.000035   0.000000   0.000000   0.000004  -0.000010
    28  H    0.005889   0.000721  -0.000007   0.000071   0.000251  -0.001405
    29  H   -0.050826   0.388666  -0.000240   0.000085   0.013367  -0.045410
    30  H   -0.038211   0.386537  -0.000195   0.000687  -0.021277  -0.028795
    31  H   -0.036479  -0.010458   0.000001  -0.000012  -0.000113   0.000283
    32  C   -0.002665  -0.000414   0.000000   0.000000   0.000002   0.000021
    33  H    0.000213  -0.000083   0.000000   0.000000   0.000000   0.000002
    34  H    0.006008  -0.000317   0.000000  -0.000001   0.000025   0.000199
    35  H   -0.000385   0.000028   0.000000   0.000000   0.000000  -0.000002
    36  H    0.327821  -0.043025  -0.000062   0.000010  -0.000731  -0.012573
              13         14         15         16         17         18
     1  C    0.000002   0.000000   0.000000   0.000000   0.000000   0.000000
     2  C   -0.000028  -0.000001   0.000000   0.000000   0.000000   0.000001
     3  C   -0.000292   0.000024   0.000000   0.000000  -0.000001  -0.000185
     4  C    0.000102   0.000000   0.000000   0.000000   0.000000   0.000019
     5  C   -0.000018   0.000000   0.000000   0.000000   0.000000  -0.000093
     6  O   -0.000001   0.000000   0.000000   0.000000   0.000000  -0.000067
     7  N   -0.008609  -0.000344  -0.000001   0.000014   0.000014  -0.000528
     8  C   -0.081827   0.010070   0.000029  -0.000304  -0.000328  -0.002573
     9  C   -0.006628   0.437212   0.404927  -0.040672  -0.041028   0.005509
    10  C   -0.063731  -0.036896  -0.040995   0.391927   0.007118  -0.054218
    11  C    0.030377  -0.066425   0.006275  -0.048849  -0.001330   0.312721
    12  C    0.255423  -0.036167  -0.002058   0.011864   0.012402  -0.074156
    13  C    4.794037   0.479466   0.006348  -0.001350  -0.049439   0.005074
    14  C    0.479466   5.194988  -0.041169   0.007090   0.391832  -0.000544
    15  H    0.006348  -0.041169   0.446607  -0.006617  -0.006659  -0.000073
    16  H   -0.001350   0.007090  -0.006617   0.450487  -0.000176   0.001466
    17  H   -0.049439   0.391832  -0.006659  -0.000176   0.451745   0.000004
    18  F    0.005074  -0.000544  -0.000073   0.001466   0.000004   9.028909
    19  F    0.315452  -0.055779  -0.000071   0.000004   0.001552  -0.000001
    20  H    0.000000   0.000000   0.000000   0.000000   0.000000   0.000000
    21  H    0.000000   0.000000   0.000000   0.000000   0.000000   0.000000
    22  H   -0.000001   0.000000   0.000000   0.000000   0.000000   0.000000
    23  H    0.000024   0.000001   0.000000   0.000000   0.000000   0.000000
    24  H    0.000152  -0.000002   0.000000   0.000000   0.000000   0.000000
    25  H   -0.000001   0.000000   0.000000   0.000000   0.000000   0.000000
    26  H   -0.000080  -0.000003   0.000000   0.000001   0.000000   0.000045
    27  H    0.000000   0.000000   0.000000   0.000000   0.000000  -0.000001
    28  H   -0.000059   0.000002   0.000000   0.000001   0.000000   0.005236
    29  H   -0.028560   0.000247   0.000003   0.000015  -0.000023   0.000049
    30  H    0.009557   0.000036   0.000003  -0.000056   0.000011   0.010322
    31  H    0.000076   0.000002   0.000000   0.000000   0.000000  -0.000370
    32  C   -0.000009   0.000000   0.000000   0.000000   0.000000   0.000000
    33  H   -0.000001   0.000000   0.000000   0.000000   0.000000   0.000000
    34  H   -0.000046  -0.000001   0.000000   0.000000   0.000000  -0.000001
    35  H    0.000000   0.000000   0.000000   0.000000   0.000000   0.000000
    36  H    0.005164   0.000160   0.000001  -0.000002   0.000000  -0.000015
              19         20         21         22         23         24
     1  C    0.000000   0.388576   0.388787   0.388517  -0.038430  -0.043934
     2  C   -0.000094  -0.037461  -0.045205  -0.034928   0.389286   0.407210
     3  C    0.000036  -0.008524  -0.001954   0.008247  -0.038715  -0.044894
     4  C    0.000001   0.003721  -0.001920  -0.000212  -0.008004   0.007042
     5  C    0.000000   0.000294  -0.000166   0.000027  -0.000492  -0.000183
     6  O    0.000000  -0.000042  -0.000139   0.000001  -0.000010  -0.000009
     7  N   -0.001032  -0.000047  -0.000027  -0.000334  -0.000047  -0.002840
     8  C    0.000999  -0.000012  -0.000035  -0.000022   0.000176   0.003034
     9  C    0.005579   0.000000   0.000000   0.000000   0.000000   0.000000
    10  C   -0.000597   0.000000   0.000000   0.000000   0.000000   0.000000
    11  C    0.005075   0.000000   0.000000   0.000000  -0.000004  -0.000061
    12  C   -0.081203   0.000001  -0.000004  -0.000001  -0.000064   0.000248
    13  C    0.315452   0.000000   0.000000  -0.000001   0.000024   0.000152
    14  C   -0.055779   0.000000   0.000000   0.000000   0.000001  -0.000002
    15  H   -0.000071   0.000000   0.000000   0.000000   0.000000   0.000000
    16  H    0.000004   0.000000   0.000000   0.000000   0.000000   0.000000
    17  H    0.001552   0.000000   0.000000   0.000000   0.000000   0.000000
    18  F   -0.000001   0.000000   0.000000   0.000000   0.000000   0.000000
    19  F    9.032966   0.000000   0.000000   0.000000   0.000004  -0.000142
    20  H    0.000000   0.478867  -0.027611  -0.029023  -0.006546   0.007234
    21  H    0.000000  -0.027611   0.481087  -0.026979   0.007531  -0.004198
    22  H    0.000000  -0.029023  -0.026979   0.480103  -0.004435  -0.006650
    23  H    0.000004  -0.006546   0.007531  -0.004435   0.497392  -0.032922
    24  H   -0.000142   0.007234  -0.004198  -0.006650  -0.032922   0.482601
    25  H    0.000000  -0.001774  -0.000298   0.000448  -0.000468  -0.000293
    26  H    0.000000  -0.000040  -0.000012   0.000005  -0.000093  -0.000028
    27  H    0.000000   0.000029   0.000004  -0.000001  -0.000011   0.000014
    28  H    0.000000   0.000010   0.000023   0.000002  -0.000012   0.000012
    29  H    0.009548  -0.000025   0.000039   0.000141  -0.000641  -0.000174
    30  H    0.000150   0.000013  -0.000010  -0.000016   0.000080   0.000834
    31  H   -0.000001  -0.000587   0.004087  -0.000350   0.006696  -0.005810
    32  C    0.000000  -0.000129   0.000266  -0.000119   0.003402  -0.000104
    33  H    0.000000   0.002759  -0.000083   0.000021  -0.000951   0.000316
    34  H   -0.000028  -0.000109  -0.000014   0.000030  -0.000502  -0.000132
    35  H    0.000000   0.000030   0.000013  -0.000008   0.000168   0.000017
    36  H    0.005249   0.000026   0.000020  -0.000023   0.005394  -0.000310
              25         26         27         28         29         30
     1  C    0.000605  -0.000094  -0.000009  -0.000021  -0.000683   0.000101
     2  C   -0.004060   0.000490  -0.000056   0.000196   0.003441  -0.000724
     3  C   -0.054581  -0.013314   0.009380   0.006925   0.003141  -0.007576
     4  C    0.395097  -0.058739  -0.046767  -0.002349  -0.001580   0.001061
     5  C   -0.039310   0.391966   0.389209  -0.051559   0.000160  -0.000169
     6  O    0.007058  -0.033317  -0.025373   0.262170  -0.000019   0.000323
     7  N    0.005592   0.018103   0.000250   0.005889  -0.050826  -0.038211
     8  C   -0.000365  -0.000946   0.000035   0.000721   0.388666   0.386537
     9  C    0.000000   0.000000   0.000000  -0.000007  -0.000240  -0.000195
    10  C    0.000000  -0.000004   0.000000   0.000071   0.000085   0.000687
    11  C    0.000002   0.000521   0.000004   0.000251   0.013367  -0.021277
    12  C    0.000017  -0.000184  -0.000010  -0.001405  -0.045410  -0.028795
    13  C   -0.000001  -0.000080   0.000000  -0.000059  -0.028560   0.009557
    14  C    0.000000  -0.000003   0.000000   0.000002   0.000247   0.000036
    15  H    0.000000   0.000000   0.000000   0.000000   0.000003   0.000003
    16  H    0.000000   0.000001   0.000000   0.000001   0.000015  -0.000056
    17  H    0.000000   0.000000   0.000000   0.000000  -0.000023   0.000011
    18  F    0.000000   0.000045  -0.000001   0.005236   0.000049   0.010322
    19  F    0.000000   0.000000   0.000000   0.000000   0.009548   0.000150
    20  H   -0.001774  -0.000040   0.000029   0.000010  -0.000025   0.000013
    21  H   -0.000298  -0.000012   0.000004   0.000023   0.000039  -0.000010
    22  H    0.000448   0.000005  -0.000001   0.000002   0.000141  -0.000016
    23  H   -0.000468  -0.000093  -0.000011  -0.000012  -0.000641   0.000080
    24  H   -0.000293  -0.000028   0.000014   0.000012  -0.000174   0.000834
    25  H    0.507322   0.010125  -0.009591  -0.001126   0.000083  -0.000176
    26  H    0.010125   0.514187  -0.037989  -0.009295   0.000211  -0.000499
    27  H   -0.009591  -0.037989   0.492940   0.006914   0.000005   0.000000
    28  H   -0.001126  -0.009295   0.006914   0.380517   0.000273  -0.000053
    29  H    0.000083   0.000211   0.000005   0.000273   0.528782  -0.042950
    30  H   -0.000176  -0.000499   0.000000  -0.000053  -0.042950   0.470531
    31  H   -0.001413   0.001617  -0.000022  -0.005158  -0.001628   0.005028
    32  C   -0.039675   0.002192  -0.003269  -0.001277  -0.000033   0.000007
    33  H   -0.004797  -0.000027  -0.000430   0.000056   0.000016  -0.000004
    34  H    0.007965   0.005784  -0.000587   0.000003   0.000153  -0.000064
    35  H   -0.006336  -0.001604   0.005159  -0.000006  -0.000004   0.000005
    36  H   -0.000337  -0.000926  -0.000073  -0.000162  -0.007860   0.007501
              31         32         33         34         35         36
     1  C   -0.000138  -0.002748  -0.000257   0.000086   0.000002   0.000169
     2  C   -0.042117  -0.003219   0.001861   0.000255  -0.000129  -0.004376
     3  C    0.389185  -0.071942  -0.008029  -0.007451   0.008648  -0.048226
     4  C   -0.053240   0.265687  -0.028968  -0.040370  -0.036730  -0.003564
     5  C   -0.010082  -0.074184   0.006030  -0.004139  -0.004668  -0.000291
     6  O    0.020681   0.004623  -0.000204  -0.000177   0.000082  -0.000028
     7  N   -0.036479  -0.002665   0.000213   0.006008  -0.000385   0.327821
     8  C   -0.010458  -0.000414  -0.000083  -0.000317   0.000028  -0.043025
     9  C    0.000001   0.000000   0.000000   0.000000   0.000000  -0.000062
    10  C   -0.000012   0.000000   0.000000  -0.000001   0.000000   0.000010
    11  C   -0.000113   0.000002   0.000000   0.000025   0.000000  -0.000731
    12  C    0.000283   0.000021   0.000002   0.000199  -0.000002  -0.012573
    13  C    0.000076  -0.000009  -0.000001  -0.000046   0.000000   0.005164
    14  C    0.000002   0.000000   0.000000  -0.000001   0.000000   0.000160
    15  H    0.000000   0.000000   0.000000   0.000000   0.000000   0.000001
    16  H    0.000000   0.000000   0.000000   0.000000   0.000000  -0.000002
    17  H    0.000000   0.000000   0.000000   0.000000   0.000000   0.000000
    18  F   -0.000370   0.000000   0.000000  -0.000001   0.000000  -0.000015
    19  F   -0.000001   0.000000   0.000000  -0.000028   0.000000   0.005249
    20  H   -0.000587  -0.000129   0.002759  -0.000109   0.000030   0.000026
    21  H    0.004087   0.000266  -0.000083  -0.000014   0.000013   0.000020
    22  H   -0.000350  -0.000119   0.000021   0.000030  -0.000008  -0.000023
    23  H    0.006696   0.003402  -0.000951  -0.000502   0.000168   0.005394
    24  H   -0.005810  -0.000104   0.000316  -0.000132   0.000017  -0.000310
    25  H   -0.001413  -0.039675  -0.004797   0.007965  -0.006336  -0.000337
    26  H    0.001617   0.002192  -0.000027   0.005784  -0.001604  -0.000926
    27  H   -0.000022  -0.003269  -0.000430  -0.000587   0.005159  -0.000073
    28  H   -0.005158  -0.001277   0.000056   0.000003  -0.000006  -0.000162
    29  H   -0.001628  -0.000033   0.000016   0.000153  -0.000004  -0.007860
    30  H    0.005028   0.000007  -0.000004  -0.000064   0.000005   0.007501
    31  H    0.486837   0.009895  -0.000545  -0.000123  -0.000160   0.007127
    32  C    0.009895   5.436165   0.382674   0.380547   0.390627   0.003829
    33  H   -0.000545   0.382674   0.468528  -0.026113  -0.027741  -0.000210
    34  H   -0.000123   0.380547  -0.026113   0.482255  -0.028322  -0.000760
    35  H   -0.000160   0.390627  -0.027741  -0.028322   0.470033  -0.000001
    36  H    0.007127   0.003829  -0.000210  -0.000760  -0.000001   0.428241
 Mulliken charges:
               1
     1  C   -0.664920
     2  C   -0.455535
     3  C   -0.175039
     4  C   -0.256108
     5  C   -0.201813
     6  O   -0.592903
     7  N   -0.535976
     8  C   -0.378305
     9  C   -0.194009
    10  C   -0.284278
    11  C    0.340010
    12  C   -0.153444
    13  C    0.339425
    14  C   -0.283800
    15  H    0.233448
    16  H    0.235154
    17  H    0.234306
    18  F   -0.236533
    19  F   -0.237664
    20  H    0.230369
    21  H    0.226796
    22  H    0.225561
    23  H    0.222192
    24  H    0.233968
    25  H    0.230288
    26  H    0.211946
    27  H    0.220246
    28  H    0.403217
    29  H    0.232234
    30  H    0.247988
    31  H    0.237290
    32  C   -0.680150
    33  H    0.235965
    34  H    0.225945
    35  H    0.231285
    36  H    0.332842
 Sum of Mulliken charges =   0.00000
 Mulliken charges with hydrogens summed into heavy atoms:
               1
     1  C    0.017807
     2  C    0.000625
     3  C    0.062251
     4  C   -0.025820
     5  C    0.230379
     6  O   -0.189686
     7  N   -0.203134
     8  C    0.101916
     9  C    0.039439
    10  C   -0.049124
    11  C    0.340010
    12  C   -0.153444
    13  C    0.339425
    14  C   -0.049494
    18  F   -0.236533
    19  F   -0.237664
    32  C    0.013046
 Electronic spatial extent (au):  <R**2>=           5082.4928
 Charge=              0.0000 electrons
 Dipole moment (field-independent basis, Debye):
    X=              2.2213    Y=             -2.4658    Z=              0.8449  Tot=              3.4246
 Quadrupole moment (field-independent basis, Debye-Ang):
   XX=            -91.1387   YY=           -110.3939   ZZ=           -100.6990
   XY=              8.6472   XZ=              1.1883   YZ=              1.8168
 Traceless Quadrupole moment (field-independent basis, Debye-Ang):
   XX=              9.6051   YY=             -9.6500   ZZ=              0.0449
   XY=              8.6472   XZ=              1.1883   YZ=              1.8168
 Octapole moment (field-independent basis, Debye-Ang**2):
  XXX=             87.5927  YYY=            -17.0820  ZZZ=             -9.9077  XYY=             27.3319
  XXY=             -2.4854  XXZ=             32.6935  XZZ=             -1.4092  YZZ=              0.7121
  YYZ=              6.4795  XYZ=            -10.9566
 Hexadecapole moment (field-independent basis, Debye-Ang**3):
 XXXX=          -4356.0952 YYYY=          -1452.4880 ZZZZ=           -623.4353 XXXY=             26.5725
 XXXZ=             79.0920 YYYX=             70.0603 YYYZ=             -4.9955 ZZZX=             -3.1186
 ZZZY=            -28.6013 XXYY=          -1014.2469 XXZZ=           -894.6722 YYZZ=           -322.2920
 XXYZ=             -1.7254 YYXZ=            -14.9208 ZZXY=            -28.2372
 N-N= 1.270888879882D+03 E-N=-4.499649066366D+03  KE= 8.333419502274D+02
 1\1\GINC-CPU-E-805\SP\RmPW1PW91\6-311G(d)\C13H19F2N1O1\AH809\04-Mar-20
 19\0\\# mPW1PW91/6-311g(d) nmr=giao scrf=(solvent=chloroform)\\AT3_2gi
 np009\\0,1\C,0,-0.82281,-1.655038,0.578712\C,0,-2.302547,-1.311538,0.4
 65052\C,0,-2.985444,-1.05004,1.827662\C,0,-2.323749,0.092276,2.657961\
 C,0,-3.02168,0.326709,4.011649\O,0,-3.170184,-0.885728,4.739372\N,0,-4
 .416624,-0.750667,1.647713\C,0,-5.225566,-1.934426,1.355572\C,0,-9.421
 884,-0.940874,1.573294\C,0,-8.757408,-1.431038,2.696668\C,0,-7.403142,
 -1.753851,2.616142\C,0,-6.687619,-1.603441,1.427166\C,0,-7.369052,-1.1
 03984,0.31648\C,0,-8.722947,-0.776104,0.378367\H,0,-10.476951,-0.68562
 7,1.630142\H,0,-9.28267,-1.562597,3.638057\H,0,-9.221436,-0.391169,-0.
 506264\F,0,-6.789296,-2.223467,3.712263\F,0,-6.717268,-0.928957,-0.842
 51\H,0,-0.234486,-0.801591,0.927084\H,0,-0.665636,-2.491232,1.267209\H
 ,0,-0.430162,-1.945741,-0.401167\H,0,-2.423597,-0.451743,-0.204354\H,0
 ,-2.792967,-2.156408,-0.033033\H,0,-1.302756,-0.235739,2.893783\H,0,-4
 .0088,0.787761,3.893337\H,0,-2.420196,1.004743,4.626913\H,0,-3.952012,
 -1.328477,4.358307\H,0,-4.9948,-2.336901,0.362496\H,0,-5.010259,-2.736
 737,2.072375\H,0,-2.887853,-1.968182,2.422554\C,0,-2.227253,1.428653,1
 .912574\H,0,-1.626043,1.340447,1.003294\H,0,-3.215265,1.809173,1.63422
 4\H,0,-1.745689,2.185232,2.542119\H,0,-4.538347,-0.075603,0.891681\\Ve
 rsion=ES64L-G09RevD.01\State=1-A\HF=-836.460297\RMSD=7.351e-09\Dipole=
 -0.7969805,0.1730934,-1.0724601\Quadrupole=8.5184009,-0.049338,-8.4690
 63,-0.1388383,-4.7934696,0.1762213\PG=C01 [X(C13H19F2N1O1)]\\@


 A true friend is someone who is there for
 you when he'd rather be anywhere else.
                               -- Len Wein
 Job cpu time:       0 days  0 hours 16 minutes 50.0 seconds.
 File lengths (MBytes):  RWF=    183 Int=      0 D2E=      0 Chk=     10 Scr=      1
 Normal termination of Gaussian 09 at Mon Mar  4 11:28:50 2019.
