 Entering Gaussian System, Link 0=/usr/local/Cluster-Apps/gaussian/g09/g09
 Initial command:
 /usr/local/Cluster-Apps/gaussian/g09/l1.exe "/home/ah809/rds/hpc-work/04Mar1111AT3/Gau-125448.inp" -scrdir="/home/ah809/rds/hpc-work/04Mar1111AT3/"
 Entering Link 1 = /usr/local/Cluster-Apps/gaussian/g09/l1.exe PID=    125454.
  
 Copyright (c) 1988,1990,1992,1993,1995,1998,2003,2009,2013,
            Gaussian, Inc.  All Rights Reserved.
  
 This is part of the Gaussian(R) 09 program.  It is based on
 the Gaussian(R) 03 system (copyright 2003, Gaussian, Inc.),
 the Gaussian(R) 98 system (copyright 1998, Gaussian, Inc.),
 the Gaussian(R) 94 system (copyright 1995, Gaussian, Inc.),
 the Gaussian 92(TM) system (copyright 1992, Gaussian, Inc.),
 the Gaussian 90(TM) system (copyright 1990, Gaussian, Inc.),
 the Gaussian 88(TM) system (copyright 1988, Gaussian, Inc.),
 the Gaussian 86(TM) system (copyright 1986, Carnegie Mellon
 University), and the Gaussian 82(TM) system (copyright 1983,
 Carnegie Mellon University). Gaussian is a federally registered
 trademark of Gaussian, Inc.
  
 This software contains proprietary and confidential information,
 including trade secrets, belonging to Gaussian, Inc.
  
 This software is provided under written license and may be
 used, copied, transmitted, or stored only in accord with that
 written license.
  
 The following legend is applicable only to US Government
 contracts under FAR:
  
                    RESTRICTED RIGHTS LEGEND
  
 Use, reproduction and disclosure by the US Government is
 subject to restrictions as set forth in subparagraphs (a)
 and (c) of the Commercial Computer Software - Restricted
 Rights clause in FAR 52.227-19.
  
 Gaussian, Inc.
 340 Quinnipiac St., Bldg. 40, Wallingford CT 06492
  
  
 ---------------------------------------------------------------
 Warning -- This program may not be used in any manner that
 competes with the business of Gaussian, Inc. or will provide
 assistance to any competitor of Gaussian, Inc.  The licensee
 of this program is prohibited from giving any competitor of
 Gaussian, Inc. access to this program.  By using this program,
 the user acknowledges that Gaussian, Inc. is engaged in the
 business of creating and licensing software in the field of
 computational chemistry and represents and warrants to the
 licensee that it is not a competitor of Gaussian, Inc. and that
 it will not use this program in any manner prohibited above.
 ---------------------------------------------------------------
  

 Cite this work as:
 Gaussian 09, Revision D.01,
 M. J. Frisch, G. W. Trucks, H. B. Schlegel, G. E. Scuseria, 
 M. A. Robb, J. R. Cheeseman, G. Scalmani, V. Barone, B. Mennucci, 
 G. A. Petersson, H. Nakatsuji, M. Caricato, X. Li, H. P. Hratchian, 
 A. F. Izmaylov, J. Bloino, G. Zheng, J. L. Sonnenberg, M. Hada, 
 M. Ehara, K. Toyota, R. Fukuda, J. Hasegawa, M. Ishida, T. Nakajima, 
 Y. Honda, O. Kitao, H. Nakai, T. Vreven, J. A. Montgomery, Jr., 
 J. E. Peralta, F. Ogliaro, M. Bearpark, J. J. Heyd, E. Brothers, 
 K. N. Kudin, V. N. Staroverov, T. Keith, R. Kobayashi, J. Normand, 
 K. Raghavachari, A. Rendell, J. C. Burant, S. S. Iyengar, J. Tomasi, 
 M. Cossi, N. Rega, J. M. Millam, M. Klene, J. E. Knox, J. B. Cross, 
 V. Bakken, C. Adamo, J. Jaramillo, R. Gomperts, R. E. Stratmann, 
 O. Yazyev, A. J. Austin, R. Cammi, C. Pomelli, J. W. Ochterski, 
 R. L. Martin, K. Morokuma, V. G. Zakrzewski, G. A. Voth, 
 P. Salvador, J. J. Dannenberg, S. Dapprich, A. D. Daniels, 
 O. Farkas, J. B. Foresman, J. V. Ortiz, J. Cioslowski, 
 and D. J. Fox, Gaussian, Inc., Wallingford CT, 2013.
 
 ******************************************
 Gaussian 09:  ES64L-G09RevD.01 24-Apr-2013
                 4-Mar-2019 
 ******************************************
 %nprocshared=8
 Will use up to    8 processors via shared memory.
 %mem=6000MB
 %chk=AT3_2ginp006.chk
 -------------------------------------------------------
 # mPW1PW91/6-311g(d) nmr=giao scrf=(solvent=chloroform)
 -------------------------------------------------------
 1/38=1/1;
 2/12=2,17=6,18=5,40=1/2;
 3/5=4,6=6,7=1,11=2,16=1,25=1,30=1,70=2201,72=7,74=-7/1,2,8,3;
 4//1;
 5/5=2,38=5,53=7/2;
 8/6=1,10=90,11=11/1;
 10/13=100,45=16/2;
 6/7=2,8=2,9=2,10=2,28=1/1;
 99/9=1/99;
 ------------
 AT3_2ginp006
 ------------
 Symbolic Z-matrix:
 Charge =  0 Multiplicity = 1
 C                    -0.97165  -1.69276   0.37008 
 C                    -2.46019  -1.37187   0.33392 
 C                    -3.10962  -1.26241   1.73326 
 C                    -2.43269  -0.20839   2.65858 
 C                    -3.06129  -0.23058   4.06274 
 O                    -2.26022   0.53256   4.96227 
 N                    -4.5474   -0.96233   1.61796 
 C                    -5.35602  -2.12047   1.23628 
 C                    -9.55757  -1.12594   1.37237 
 C                    -8.7889   -0.78048   0.26219 
 C                    -7.43449  -1.11019   0.2277 
 C                    -6.81941  -1.78713   1.28253 
 C                    -7.60527  -2.11975   2.38676 
 C                    -8.96164  -1.79814   2.43849 
 H                    -10.61357  -0.87098   1.408 
 H                    -9.23295  -0.25362  -0.57709 
 H                    -9.5425   -2.07429   3.31353 
 F                    -6.7156   -0.7623   -0.84992 
 F                    -7.06298  -2.77127   3.42587 
 H                    -0.60713  -1.89006  -0.64339 
 H                    -0.38829  -0.85859   0.76994 
 H                    -0.77532  -2.5809    0.97876 
 H                    -2.61542  -0.4518   -0.24178 
 H                    -2.94925  -2.17233  -0.23377 
 H                    -1.37709  -0.48218   2.78345 
 H                    -3.1105   -1.25392   4.44931 
 H                    -4.07051   0.19448   4.06047 
 H                    -2.71973   0.52256   5.81932 
 H                    -5.10634  -2.46625   0.22657 
 H                    -5.15755  -2.96262   1.91058 
 H                    -2.99054  -2.23351   2.23378 
 C                    -2.45183   1.21889   2.09202 
 H                    -1.94901   1.2709    1.12206 
 H                    -3.47353   1.59201   1.96826 
 H                    -1.92659   1.91026   2.75979 
 H                    -4.69054  -0.21941   0.93234 
 
                          Input orientation:                          
 ---------------------------------------------------------------------
 Center     Atomic      Atomic             Coordinates (Angstroms)
 Number     Number       Type             X           Y           Z
 ---------------------------------------------------------------------
      1          6           0       -0.971650   -1.692760    0.370083
      2          6           0       -2.460185   -1.371872    0.333923
      3          6           0       -3.109623   -1.262409    1.733261
      4          6           0       -2.432689   -0.208389    2.658576
      5          6           0       -3.061290   -0.230578    4.062742
      6          8           0       -2.260221    0.532560    4.962270
      7          7           0       -4.547399   -0.962329    1.617962
      8          6           0       -5.356018   -2.120467    1.236278
      9          6           0       -9.557567   -1.125945    1.372368
     10          6           0       -8.788897   -0.780476    0.262193
     11          6           0       -7.434489   -1.110194    0.227700
     12          6           0       -6.819410   -1.787133    1.282532
     13          6           0       -7.605274   -2.119748    2.386763
     14          6           0       -8.961641   -1.798144    2.438492
     15          1           0      -10.613574   -0.870978    1.407998
     16          1           0       -9.232945   -0.253616   -0.577093
     17          1           0       -9.542499   -2.074287    3.313526
     18          9           0       -6.715599   -0.762295   -0.849918
     19          9           0       -7.062980   -2.771267    3.425874
     20          1           0       -0.607127   -1.890058   -0.643385
     21          1           0       -0.388294   -0.858587    0.769936
     22          1           0       -0.775323   -2.580904    0.978764
     23          1           0       -2.615418   -0.451797   -0.241777
     24          1           0       -2.949252   -2.172333   -0.233765
     25          1           0       -1.377085   -0.482182    2.783447
     26          1           0       -3.110501   -1.253922    4.449307
     27          1           0       -4.070506    0.194475    4.060474
     28          1           0       -2.719725    0.522563    5.819318
     29          1           0       -5.106341   -2.466247    0.226569
     30          1           0       -5.157547   -2.962618    1.910576
     31          1           0       -2.990539   -2.233510    2.233777
     32          6           0       -2.451828    1.218890    2.092023
     33          1           0       -1.949010    1.270896    1.122056
     34          1           0       -3.473527    1.592010    1.968255
     35          1           0       -1.926588    1.910257    2.759793
     36          1           0       -4.690537   -0.219407    0.932343
 ---------------------------------------------------------------------
                    Distance matrix (angstroms):
                    1          2          3          4          5
     1  C    0.000000
     2  C    1.523159   0.000000
     3  C    2.571845   1.546576   0.000000
     4  C    3.094381   2.599704   1.557371   0.000000
     5  C    4.487795   3.945627   2.548233   1.538608   0.000000
     6  O    5.263140   5.008836   3.790765   2.426058   1.425918
     7  N    3.857034   2.484541   1.473276   2.474531   2.953122
     8  C    4.489533   3.124178   2.455513   3.771581   4.101994
     9  C    8.662784   7.177164   6.459477   7.297954   7.088117
    10  C    7.871039   6.356689   5.886464   6.816987   6.895799
    11  C    6.490604   4.982315   4.581959   5.633863   5.882698
    12  C    5.919271   4.480529   3.773726   4.860993   4.927058
    13  C    6.946530   5.589760   4.623091   5.521124   5.198621
    14  C    8.254052   6.846886   5.918655   6.723316   6.317404
    15  H    9.732384   8.239071   7.521190   8.302400   8.030864
    16  H    8.439033   6.924646   6.621969   7.530942   7.721264
    17  H    9.070219   7.715607   6.673700   7.379697   6.779872
    18  F    5.945344   4.458880   4.463854   5.564141   6.145806
    19  F    6.899662   5.718758   4.557480   5.347587   4.782701
    20  H    1.094952   2.158118   3.507831   4.130815   5.560973
    21  H    1.093632   2.178601   2.914910   2.858193   4.287409
    22  H    1.094457   2.171713   2.785077   3.346260   4.501177
    23  H    2.148566   1.096388   2.191371   2.916279   4.333200
    24  H    2.122624   1.096446   2.173217   3.534056   4.716242
    25  H    2.730239   2.822202   2.171021   1.097659   2.129894
    26  H    4.626806   4.168118   2.716059   2.181579   1.095028
    27  H    5.175283   4.351294   2.908905   2.193185   1.095076
    28  H    6.136578   5.809114   4.475936   3.256834   1.941506
    29  H    4.208865   2.865541   2.776010   4.261572   4.888422
    30  H    4.637606   3.506005   2.667610   3.945901   4.060807
    31  H    2.800300   2.152473   1.098970   2.143074   2.713274
    32  C    3.692385   3.130980   2.591959   1.535732   2.521138
    33  H    3.209977   2.804760   2.852758   2.187035   3.484139
    34  H    4.427556   3.533058   2.887102   2.191192   2.806892
    35  H    4.427680   4.116059   3.538241   2.180606   2.751072
    36  H    4.039434   2.580843   2.056359   2.842161   3.529018
                    6          7          8          9         10
     6  O    0.000000
     7  N    4.318596   0.000000
     8  C    5.523181   1.463158   0.000000
     9  C    8.299957   5.018851   4.319793   0.000000
    10  C    8.150975   4.456623   3.811702   1.393804   0.000000
    11  C    7.203322   3.207800   2.521492   2.412047   1.394390
    12  C    6.301401   2.440256   1.501588   2.818287   2.435843
    13  C    6.499043   3.358761   2.526414   2.414144   2.776402
    14  C    7.530648   4.566989   3.814411   1.394130   2.408686
    15  H    9.185928   6.070495   5.406719   1.086935   2.156503
    16  H    8.939882   5.222536   4.669476   2.160263   1.085892
    17  H    7.908576   5.390956   4.673726   2.160480   3.398896
    18  F    7.436973   3.291130   2.836425   3.625959   2.352804
    19  F    6.028456   3.587332   2.851594   3.625870   4.117149
    20  H    6.326545   4.636822   5.112552   9.206384   8.306179
    21  H    4.797402   4.245947   5.146659   9.192931   8.416296
    22  H    5.269431   4.154144   4.610974   8.910648   8.244537
    23  H    5.308223   2.729803   3.532704   7.159146   6.202730
    24  H    5.898304   2.728933   2.820681   6.880728   6.023678
    25  H    2.560644   3.411713   4.572704   8.326215   7.834581
    26  H    2.043924   3.188451   4.014574   7.144830   7.071086
    27  H    2.050529   2.744356   3.871380   6.251181   6.135200
    28  H    0.972510   4.816294   5.910999   8.321600   8.331530
    29  H    6.286502   2.123714   1.096091   4.787763   4.050224
    30  H    5.470247   2.111649   1.096944   4.798251   4.545945
    31  H    3.953376   2.102128   2.569684   6.715250   6.294395
    32  C    2.957377   3.061677   4.507541   7.517159   6.892328
    33  H    3.922912   3.461913   4.808544   7.981080   7.192465
    34  H    3.399805   2.792947   4.226352   6.690135   6.065682
    35  H    2.619211   4.052675   5.507161   8.329184   7.782630
    36  H    4.765732   1.021026   2.036976   4.970253   4.190520
                   11         12         13         14         15
    11  C    0.000000
    12  C    1.396152   0.000000
    13  C    2.389544   1.395543   0.000000
    14  C    2.773638   2.434239   1.394932   0.000000
    15  H    3.399545   3.905222   3.401070   2.156487   0.000000
    16  H    2.148456   3.411016   3.862150   3.398959   2.495568
    17  H    3.859469   3.409195   2.147975   1.085972   2.495234
    18  F    1.341304   2.368209   3.620815   4.114770   4.506019
    19  F    3.622913   2.371025   1.341011   2.350916   4.504402
    20  H    6.926749   6.504784   7.629457   8.905297  10.265266
    21  H    7.071505   6.517991   7.502630   8.784596  10.245176
    22  H    6.860873   6.103551   6.988802   8.352205   9.994962
    23  H    4.886445   4.666925   5.881322   7.019333   8.177284
    24  H    4.632326   4.174405   5.343077   6.590129   7.945486
    25  H    6.604422   5.794355   6.452079   7.705598   9.346430
    26  H    6.044791   4.905995   5.020630   6.210909   8.105079
    27  H    5.263905   4.381804   4.544395   5.524903   7.140207
    28  H    7.494070   6.536401   6.529382   7.468412   9.149566
    29  H    2.694282   2.123878   3.321320   4.494697   5.854082
    30  H    3.383491   2.130257   2.632214   4.013206   5.864791
    31  H    5.003486   3.970437   4.618671   5.990452   7.787751
    32  C    5.807516   5.363508   6.147469   7.183328   8.452783
    33  H    6.046482   5.753094   6.714855   7.767175   8.929953
    34  H    5.101045   4.804556   5.569886   6.467895   7.573669
    35  H    6.772857   6.308146   6.973347   7.959111   9.220973
    36  H    2.969730   2.666927   3.771250   4.796168   5.977722
                   16         17         18         19         20
    16  H    0.000000
    17  H    4.306690   0.000000
    18  F    2.582677   5.200668   0.000000
    19  F    5.202986   2.578065   4.736986   0.000000
    20  H    8.779924   9.774045   6.215138   7.682020   0.000000
    21  H    8.967069   9.578478   6.532074   7.433962   1.763320
    22  H    8.908891   9.086867   6.475978   6.749757   1.771137
    23  H    6.628980   7.953433   4.156649   6.213889   2.502622
    24  H    6.579069   7.487576   4.068565   5.538451   2.394372
    25  H    8.547515   8.336052   6.463709   6.162956   3.783930
    26  H    7.984337   6.582826   6.428080   4.355668   5.710259
    27  H    6.954034   5.970588   5.658964   4.260662   6.202142
    28  H    9.161799   7.718346   7.880138   5.953298   7.214592
    29  H    4.750839   5.418711   2.579145   3.762582   4.618630
    30  H    5.489632   4.688838   3.858662   2.442011   5.327234
    31  H    7.126612   6.642243   5.054673   4.277272   3.751889
    32  C    7.434783   7.912945   5.546157   6.242054   4.533314
    33  H    7.633279   8.582183   5.544630   6.913707   3.861225
    34  H    6.561709   7.216918   4.898559   5.834982   5.211690
    35  H    8.318654   8.613090   6.565605   6.981608   5.269250
    36  H    4.786756   5.714206   2.751737   4.284644   4.684894
                   21         22         23         24         25
    21  H    0.000000
    22  H    1.777576   0.000000
    23  H    2.479742   3.067371   0.000000
    24  H    3.048254   2.522523   1.752642   0.000000
    25  H    2.274558   2.832602   3.269002   3.798932   0.000000
    26  H    4.593960   4.388463   4.784849   4.775002   2.524956
    27  H    5.049284   5.296970   4.587408   5.029859   3.056661
    28  H    5.730568   6.069857   6.139799   6.629854   3.468243
    29  H    5.013959   4.397347   3.237600   2.225157   4.937762
    30  H    5.336083   4.496428   4.171243   3.177942   4.605036
    31  H    3.287084   2.569615   3.073042   2.468646   2.443874
    32  C    3.212787   4.299820   2.874818   4.142115   2.127624
    33  H    2.663554   4.029198   2.296043   3.833348   2.482056
    34  H    4.118259   5.066814   3.130134   4.392498   3.059719
    35  H    3.740639   4.966689   3.881135   5.164763   2.454848
    36  H    4.352496   4.572496   2.395555   2.864577   3.804550
                   26         27         28         29         30
    26  H    0.000000
    27  H    1.780633   0.000000
    28  H    2.277177   2.241826   0.000000
    29  H    4.825415   4.780295   6.775527   0.000000
    30  H    3.681738   3.971266   5.776480   1.756384   0.000000
    31  H    2.425398   3.224634   4.530495   2.925691   2.309108
    32  C    3.479287   2.746697   3.801232   4.909846   4.983859
    33  H    4.335247   3.780705   4.818534   4.973618   5.370206
    34  H    3.792985   2.585898   4.067262   4.708397   4.856324
    35  H    3.777319   3.038431   3.451877   5.973428   5.908060
    36  H    3.991963   3.215733   5.321386   2.391506   2.949618
                   31         32         33         34         35
    31  H    0.000000
    32  C    3.497052   0.000000
    33  H    3.821200   1.093785   0.000000
    34  H    3.865020   1.094717   1.772941   0.000000
    35  H    4.310393   1.095346   1.758257   1.766588   0.000000
    36  H    2.939445   2.902649   3.126174   2.415669   3.938839
                   36
    36  H    0.000000
 Stoichiometry    C13H19F2NO
 Framework group  C1[X(C13H19F2NO)]
 Deg. of freedom   102
 Full point group                 C1      NOp   1
 Largest Abelian subgroup         C1      NOp   1
 Largest concise Abelian subgroup C1      NOp   1
                         Standard orientation:                         
 ---------------------------------------------------------------------
 Center     Atomic      Atomic             Coordinates (Angstroms)
 Number     Number       Type             X           Y           Z
 ---------------------------------------------------------------------
      1          6           0       -3.624664   -2.223006   -1.109431
      2          6           0       -2.234880   -1.940053   -0.554046
      3          6           0       -1.869015   -0.437711   -0.522228
      4          6           0       -2.874857    0.436211    0.283964
      5          6           0       -2.506326    1.926613    0.182966
      6          8           0       -3.575554    2.723476    0.687943
      7          7           0       -0.510878   -0.243835    0.014817
      8          6           0        0.546695   -0.571472   -0.941752
      9          6           0        4.412141    0.468262    0.682405
     10          6           0        3.798742   -0.731105    1.040110
     11          6           0        2.552691   -1.057992    0.506419
     12          6           0        1.895570   -0.211706   -0.388697
     13          6           0        2.524337    0.986410   -0.730327
     14          6           0        3.770748    1.329727   -0.206467
     15          1           0        5.382524    0.731458    1.095336
     16          1           0        4.279797   -1.414344    1.733603
     17          1           0        4.230709    2.269863   -0.496148
     18          9           0        1.981394   -2.215720    0.870261
     19          9           0        1.935848    1.833839   -1.586980
     20          1           0       -3.765946   -3.301956   -1.231193
     21          1           0       -4.409021   -1.865200   -0.436534
     22          1           0       -3.760804   -1.751762   -2.087813
     23          1           0       -2.150005   -2.383964    0.444856
     24          1           0       -1.518704   -2.476720   -1.187507
     25          1           0       -3.869364    0.328011   -0.167816
     26          1           0       -2.341806    2.215416   -0.860400
     27          1           0       -1.605252    2.160083    0.759810
     28          1           0       -3.277835    3.648145    0.641823
     29          1           0        0.542661   -1.638816   -1.191102
     30          1           0        0.388800   -0.032158   -1.883823
     31          1           0       -1.896644   -0.065129   -1.555743
     32          6           0       -3.014570    0.023604    1.756619
     33          1           0       -3.342154   -1.015661    1.851390
     34          1           0       -2.070948    0.135862    2.300110
     35          1           0       -3.763543    0.640548    2.264754
     36          1           0       -0.386742   -0.814409    0.852391
 ---------------------------------------------------------------------
 Rotational constants (GHZ):      0.6633410      0.2443236      0.2090286
 Standard basis: 6-311G(d) (5D, 7F)
 There are   380 symmetry adapted cartesian basis functions of A   symmetry.
 There are   363 symmetry adapted basis functions of A   symmetry.
   363 basis functions,   639 primitive gaussians,   380 cartesian basis functions
    65 alpha electrons       65 beta electrons
       nuclear repulsion energy      1253.2426023144 Hartrees.
 NAtoms=   36 NActive=   36 NUniq=   36 SFac= 1.00D+00 NAtFMM=   60 NAOKFM=F Big=F
 Integral buffers will be    131072 words long.
 Raffenetti 2 integral format.
 Two-electron integral symmetry is turned on.
 ------------------------------------------------------------------------------
 Polarizable Continuum Model (PCM)
 =================================
 Model                : PCM (using non-symmetric T matrix).
 Atomic radii         : UFF (Universal Force Field).
 Polarization charges : Total charges.
 Charge compensation  : None.
 Solution method      : On-the-fly selection.
 Cavity type          : Scaled VdW (van der Waals Surface) (Alpha=1.100).
 Cavity algorithm     : GePol (No added spheres)
                        Default sphere list used, NSphG=   36.
                        Lebedev-Laikov grids with approx.  5.0 points / Ang**2.
                        Smoothing algorithm: Karplus/York (Gamma=1.0000).
                        Polarization charges: spherical gaussians, with
                                              point-specific exponents (IZeta= 3).
                        Self-potential: point-specific (ISelfS= 7).
                        Self-field    : sphere-specific E.n sum rule (ISelfD= 2).
 Solvent              : Chloroform, Eps=   4.711300 Eps(inf)=   2.090627
 ------------------------------------------------------------------------------
 One-electron integrals computed using PRISM.
 NBasis=   363 RedAO= T EigKep=  2.47D-04  NBF=   363
 NBsUse=   363 1.00D-06 EigRej= -1.00D+00 NBFU=   363
 ExpMin= 1.03D-01 ExpMax= 1.14D+04 ExpMxC= 1.72D+03 IAcc=1 IRadAn=         1 AccDes= 0.00D+00
 Harris functional with IExCor=  908 and IRadAn=       1 diagonalized for initial guess.
 HarFok:  IExCor=  908 AccDes= 0.00D+00 IRadAn=         1 IDoV= 1 UseB2=F ITyADJ=14
 ICtDFT=  3500011 ScaDFX=  1.000000  1.000000  1.000000  1.000000
 FoFCou: FMM=F IPFlag=           0 FMFlag=      100000 FMFlg1=           0
         NFxFlg=           0 DoJE=T BraDBF=F KetDBF=T FulRan=T
         wScrn=  0.000000 ICntrl=     500 IOpCl=  0 I1Cent=   200000004 NGrid=           0
         NMat0=    1 NMatS0=      1 NMatT0=    0 NMatD0=    1 NMtDS0=    0 NMtDT0=    0
 Petite list used in FoFCou.
 Requested convergence on RMS density matrix=1.00D-08 within 128 cycles.
 Requested convergence on MAX density matrix=1.00D-06.
 Requested convergence on             energy=1.00D-06.
 No special actions if energy rises.
 Inv3:  Mode=1 IEnd=    19476912.
 Iteration    1 A*A^-1 deviation from unit magnitude is 7.55D-15 for    957.
 Iteration    1 A*A^-1 deviation from orthogonality  is 4.33D-15 for   2228   2083.
 Iteration    1 A^-1*A deviation from unit magnitude is 5.55D-15 for    634.
 Iteration    1 A^-1*A deviation from orthogonality  is 6.34D-12 for   2536   2509.
 Error on total polarization charges =  0.00935
 SCF Done:  E(RmPW1PW91) =  -836.457396938     A.U. after   12 cycles
            NFock= 12  Conv=0.71D-08     -V/T= 2.0037
 DoSCS=F DFT=T ScalE2(SS,OS)=  1.000000  1.000000
 Range of M.O.s used for correlation:     1   363
 NBasis=   363 NAE=    65 NBE=    65 NFC=     0 NFV=     0
 NROrb=    363 NOA=    65 NOB=    65 NVA=   298 NVB=   298

 **** Warning!!: The largest alpha MO coefficient is  0.11315929D+02

 NEqPCM:  Using equilibrium solvation (IEInf=0, Eps=   4.7113, EpsInf=   2.0906)
          Differentiating once with respect to magnetic field using GIAOs.
          Electric field/nuclear overlap derivatives assumed to be zero.
 FoFJK:  IHMeth= 1 ICntrl=    6127 DoSepK=F KAlg= 0 I1Cent=   0 FoldK=F
 IRaf=         1 NMat=   1 IRICut=       1 DoRegI=T DoRafI=F ISym2E= 0.
          There are     3 degrees of freedom in the 1st order CPHF.  IDoFFX=0 NUNeed=     3.
      3 vectors produced by pass  0 Test12= 6.46D-13 3.33D-08 XBig12= 4.28D+01 1.72D+00.
 AX will form     3 AO Fock derivatives at one time.
      3 vectors produced by pass  1 Test12= 6.46D-13 3.33D-08 XBig12= 1.20D-01 1.39D-01.
      3 vectors produced by pass  2 Test12= 6.46D-13 3.33D-08 XBig12= 6.15D-04 6.98D-03.
      3 vectors produced by pass  3 Test12= 6.46D-13 3.33D-08 XBig12= 1.56D-06 2.11D-04.
      3 vectors produced by pass  4 Test12= 6.46D-13 3.33D-08 XBig12= 3.68D-09 1.38D-05.
      3 vectors produced by pass  5 Test12= 6.46D-13 3.33D-08 XBig12= 1.39D-11 6.89D-07.
 InvSVY:  IOpt=1 It=  1 EMax= 8.88D-16
 Solved reduced A of dimension    18 with     3 vectors.
 Calculating GIAO nuclear magnetic shielding tensors.
 SCF GIAO Magnetic shielding tensor (ppm):
      1  C    Isotropic =   175.6547   Anisotropy =    19.0830
   XX=   181.8102   YX=     5.7003   ZX=     8.8960
   XY=     4.5845   YY=   172.4582   ZY=    -0.1865
   XZ=     8.2373   YZ=     1.4073   ZZ=   172.6958
   Eigenvalues:   166.6013   171.9861   188.3767
      2  C    Isotropic =   161.7364   Anisotropy =    23.9828
   XX=   159.0329   YX=     7.5182   ZX=    12.9077
   XY=    11.8121   YY=   171.3503   ZY=    -3.9448
   XZ=    18.5294   YZ=    -5.0081   ZZ=   154.8260
   Eigenvalues:   138.1683   169.3160   177.7250
      3  C    Isotropic =   122.2176   Anisotropy =    31.3752
   XX=   139.7992   YX=    -0.7899   ZX=     3.5011
   XY=    13.6560   YY=   112.7231   ZY=     6.6422
   XZ=     9.6419   YZ=     2.0103   ZZ=   114.1305
   Eigenvalues:   109.0242   114.4942   143.1344
      4  C    Isotropic =   148.6521   Anisotropy =    20.3888
   XX=   150.4419   YX=    -3.2750   ZX=    -4.2765
   XY=    -8.4923   YY=   158.3233   ZY=     4.2112
   XZ=    -9.3811   YZ=    -1.8859   ZZ=   137.1911
   Eigenvalues:   134.2349   149.4768   162.2446
      5  C    Isotropic =   116.1328   Anisotropy =    50.4011
   XX=   122.5961   YX=   -20.5372   ZX=   -14.7164
   XY=   -18.8653   YY=   124.8816   ZY=     3.5781
   XZ=   -20.6055   YZ=    10.4619   ZZ=   100.9205
   Eigenvalues:    90.5326   108.1321   149.7335
      6  O    Isotropic =   306.1168   Anisotropy =   115.8513
   XX=   277.9899   YX=    30.8940   ZX=    -0.0084
   XY=    10.9198   YY=   378.7274   ZY=    -0.1888
   XZ=     5.8726   YZ=   -16.1789   ZZ=   261.6333
   Eigenvalues:   259.7583   275.2412   383.3511
      7  N    Isotropic =   199.9446   Anisotropy =    54.7141
   XX=   214.7936   YX=     9.7407   ZX=    35.0726
   XY=    22.5875   YY=   167.1099   ZY=   -14.3959
   XZ=     4.6236   YZ=    -7.3424   ZZ=   217.9303
   Eigenvalues:   157.4880   205.9251   236.4206
      8  C    Isotropic =   146.7532   Anisotropy =    52.8534
   XX=   162.1436   YX=    -4.7919   ZX=   -19.2920
   XY=   -12.1856   YY=   122.1947   ZY=     8.0759
   XZ=   -21.7074   YZ=     7.5371   ZZ=   155.9215
   Eigenvalues:   119.9651   138.3058   181.9889
      9  C    Isotropic =    54.8511   Anisotropy =   185.5304
   XX=    -5.8843   YX=   -48.6021   ZX=   -79.4886
   XY=   -48.0288   YY=    62.4273   ZY=    40.9170
   XZ=   -78.7225   YZ=    40.6956   ZZ=   108.0102
   Eigenvalues:   -52.4833    38.4985   178.5380
     10  C    Isotropic =    71.1322   Anisotropy =   147.9611
   XX=    68.1926   YX=    -8.8311   ZX=   -54.7469
   XY=    -2.2199   YY=    50.3440   ZY=    70.0802
   XZ=   -59.6109   YZ=    66.3883   ZZ=    94.8599
   Eigenvalues:   -12.2509    55.8745   169.7729
     11  C    Isotropic =    19.4507   Anisotropy =    98.2659
   XX=    30.6751   YX=   -49.3260   ZX=    -3.5153
   XY=   -42.5661   YY=   -27.4824   ZY=    42.2711
   XZ=    -4.8977   YZ=    43.7352   ZZ=    55.1594
   Eigenvalues:   -63.9127    37.3035    84.9614
     12  C    Isotropic =    65.4577   Anisotropy =   142.1681
   XX=    49.4555   YX=   -29.8637   ZX=   -51.6357
   XY=   -29.3761   YY=    47.7412   ZY=    48.9274
   XZ=   -48.6891   YZ=    50.8987   ZZ=    99.1763
   Eigenvalues:    17.0161    19.1205   160.2365
     13  C    Isotropic =    19.4829   Anisotropy =   100.3454
   XX=    27.9025   YX=    20.5305   ZX=   -48.0008
   XY=    15.4217   YY=     3.2792   ZY=    58.9384
   XZ=   -40.6011   YZ=    57.3408   ZZ=    27.2670
   Eigenvalues:   -64.0310    36.0999    86.3798
     14  C    Isotropic =    70.6597   Anisotropy =   148.7499
   XX=    68.5554   YX=   -42.9110   ZX=   -34.4084
   XY=   -50.1889   YY=    26.9069   ZY=    55.5127
   XZ=   -29.8692   YZ=    59.7012   ZZ=   116.5169
   Eigenvalues:   -12.8891    55.0420   169.8263
     15  H    Isotropic =    24.5525   Anisotropy =     3.2127
   XX=    25.0842   YX=     1.0074   ZX=     1.5966
   XY=     0.9668   YY=    25.4317   ZY=    -2.1049
   XZ=     1.6047   YZ=    -2.1288   ZZ=    23.1416
   Eigenvalues:    21.0117    25.9515    26.6943
     16  H    Isotropic =    25.2417   Anisotropy =     4.9898
   XX=    27.3676   YX=     1.3966   ZX=     2.3353
   XY=     1.6084   YY=    25.1159   ZY=    -1.2523
   XZ=     2.0556   YZ=    -1.3700   ZZ=    23.2416
   Eigenvalues:    21.3956    25.7613    28.5682
     17  H    Isotropic =    25.2159   Anisotropy =     4.8778
   XX=    27.2789   YX=     1.5404   ZX=     2.2460
   XY=     1.0879   YY=    24.8187   ZY=    -1.5737
   XZ=     2.3336   YZ=    -1.3767   ZZ=    23.5502
   Eigenvalues:    21.3970    25.7830    28.4678
     18  F    Isotropic =   306.9531   Anisotropy =   126.8065
   XX=   269.9789   YX=   -19.8711   ZX=   -57.4351
   XY=    -3.8527   YY=   325.0506   ZY=    36.9682
   XZ=   -56.1940   YZ=    52.9803   ZZ=   325.8297
   Eigenvalues:   232.1760   297.1925   391.4908
     19  F    Isotropic =   301.4239   Anisotropy =   127.7624
   XX=   267.2558   YX=   -47.2040   ZX=   -40.0687
   XY=   -51.3386   YY=   284.2470   ZY=    31.0049
   XZ=   -32.4526   YZ=    25.5612   ZZ=   352.7690
   Eigenvalues:   224.9135   292.7594   386.5988
     20  H    Isotropic =    30.9805   Anisotropy =    11.3174
   XX=    30.0429   YX=     4.2251   ZX=     1.8044
   XY=     3.2588   YY=    36.0401   ZY=     2.1862
   XZ=     1.6621   YZ=     2.4299   ZZ=    26.8585
   Eigenvalues:    26.0358    28.3803    38.5254
     21  H    Isotropic =    31.0481   Anisotropy =     7.2059
   XX=    35.3289   YX=     0.8247   ZX=    -2.1428
   XY=     1.2350   YY=    28.9008   ZY=     2.5389
   XZ=    -1.5899   YZ=     2.4668   ZZ=    28.9145
   Eigenvalues:    25.9546    31.3376    35.8520
     22  H    Isotropic =    31.3968   Anisotropy =     9.2207
   XX=    30.3187   YX=     0.5607   ZX=     4.6029
   XY=     1.0710   YY=    28.6896   ZY=    -0.9277
   XZ=     3.6055   YZ=    -1.0337   ZZ=    35.1821
   Eigenvalues:    27.0819    29.5645    37.5439
     23  H    Isotropic =    30.8331   Anisotropy =     4.9900
   XX=    29.5407   YX=     0.5788   ZX=     1.8216
   XY=     0.2003   YY=    31.4133   ZY=    -2.7970
   XZ=     0.9295   YZ=    -2.3270   ZZ=    31.5454
   Eigenvalues:    27.9188    30.4207    34.1598
     24  H    Isotropic =    29.7818   Anisotropy =     6.0751
   XX=    33.1767   YX=    -0.1598   ZX=    -1.4883
   XY=    -0.3759   YY=    30.5770   ZY=     3.7838
   XZ=    -1.1878   YZ=     3.4464   ZZ=    25.5918
   Eigenvalues:    23.5752    31.9384    33.8319
     25  H    Isotropic =    30.1201   Anisotropy =     5.5524
   XX=    32.3231   YX=    -0.7455   ZX=     3.3195
   XY=    -0.4701   YY=    29.6466   ZY=     1.5273
   XZ=     2.3743   YZ=     1.3805   ZZ=    28.3904
   Eigenvalues:    26.1845    30.3540    33.8217
     26  H    Isotropic =    28.2870   Anisotropy =     4.9138
   XX=    26.9178   YX=    -2.8684   ZX=    -3.8420
   XY=    -2.8346   YY=    29.6337   ZY=    -1.1810
   XZ=    -2.9338   YZ=    -2.2304   ZZ=    28.3096
   Eigenvalues:    22.6100    30.6882    31.5629
     27  H    Isotropic =    28.2305   Anisotropy =     7.6096
   XX=    32.2181   YX=    -0.9189   ZX=     0.6829
   XY=    -2.4826   YY=    29.6427   ZY=     1.4727
   XZ=    -1.9596   YZ=     2.8699   ZZ=    22.8307
   Eigenvalues:    22.1955    29.1924    33.3036
     28  H    Isotropic =    31.4797   Anisotropy =    19.5124
   XX=    27.6008   YX=     0.5231   ZX=    -2.0169
   XY=     2.3190   YY=    44.3525   ZY=     0.3455
   XZ=    -2.4265   YZ=     1.2045   ZZ=    22.4859
   Eigenvalues:    21.5894    28.3618    44.4880
     29  H    Isotropic =    28.0346   Anisotropy =     5.5402
   XX=    29.7507   YX=    -2.1060   ZX=    -1.8481
   XY=     0.2516   YY=    29.6223   ZY=     2.0153
   XZ=     0.7056   YZ=     4.2066   ZZ=    24.7309
   Eigenvalues:    23.2175    29.1583    31.7281
     30  H    Isotropic =    28.8745   Anisotropy =     6.9252
   XX=    29.5694   YX=     2.3165   ZX=    -2.0819
   XY=     2.8513   YY=    26.1458   ZY=    -2.2429
   XZ=     0.1178   YZ=    -3.7263   ZZ=    30.9083
   Eigenvalues:    23.9980    29.1342    33.4913
     31  H    Isotropic =    29.5255   Anisotropy =     2.3328
   XX=    29.7582   YX=     0.0627   ZX=     0.4805
   XY=    -0.1409   YY=    28.0510   ZY=    -0.7778
   XZ=    -0.6071   YZ=    -1.1649   ZZ=    30.7673
   Eigenvalues:    27.7378    29.7580    31.0806
     32  C    Isotropic =   178.3180   Anisotropy =    18.9405
   XX=   174.0062   YX=     5.7978   ZX=     3.6053
   XY=     4.0397   YY=   172.6106   ZY=    -4.7339
   XZ=     3.9980   YZ=    -8.3669   ZZ=   188.3371
   Eigenvalues:   165.8605   178.1484   190.9450
     33  H    Isotropic =    31.3546   Anisotropy =     8.0936
   XX=    28.4516   YX=     3.2165   ZX=    -2.4704
   XY=     2.6262   YY=    34.0490   ZY=    -1.2852
   XZ=    -2.9239   YZ=    -2.1867   ZZ=    31.5631
   Eigenvalues:    26.4539    30.8594    36.7503
     34  H    Isotropic =    31.7672   Anisotropy =     7.2061
   XX=    33.3042   YX=    -0.2500   ZX=     2.4792
   XY=    -0.7430   YY=    27.3393   ZY=     0.3188
   XZ=     2.5203   YZ=     0.5920   ZZ=    34.6580
   Eigenvalues:    27.2307    31.4995    36.5712
     35  H    Isotropic =    30.7485   Anisotropy =     9.8232
   XX=    30.5105   YX=    -2.8183   ZX=    -4.9272
   XY=    -3.2333   YY=    29.7034   ZY=     0.7166
   XZ=    -5.0572   YZ=     1.1412   ZZ=    32.0315
   Eigenvalues:    25.4312    29.5169    37.2972
     36  H    Isotropic =    32.0926   Anisotropy =     8.6840
   XX=    36.5357   YX=    -2.4067   ZX=     1.3759
   XY=    -3.1188   YY=    25.6447   ZY=    -3.8603
   XZ=    -1.3254   YZ=    -6.0066   ZZ=    34.0973
   Eigenvalues:    22.9128    35.4830    37.8819
 End of Minotr F.D. properties file   721 does not exist.
 End of Minotr F.D. properties file   722 does not exist.
 End of Minotr F.D. properties file   788 does not exist.

 **********************************************************************

            Population analysis using the SCF density.

 **********************************************************************

 Orbital symmetries:
       Occupied  (A) (A) (A) (A) (A) (A) (A) (A) (A) (A) (A) (A)
                 (A) (A) (A) (A) (A) (A) (A) (A) (A) (A) (A) (A)
                 (A) (A) (A) (A) (A) (A) (A) (A) (A) (A) (A) (A)
                 (A) (A) (A) (A) (A) (A) (A) (A) (A) (A) (A) (A)
                 (A) (A) (A) (A) (A) (A) (A) (A) (A) (A) (A) (A)
                 (A) (A) (A) (A) (A)
       Virtual   (A) (A) (A) (A) (A) (A) (A) (A) (A) (A) (A) (A)
                 (A) (A) (A) (A) (A) (A) (A) (A) (A) (A) (A) (A)
                 (A) (A) (A) (A) (A) (A) (A) (A) (A) (A) (A) (A)
                 (A) (A) (A) (A) (A) (A) (A) (A) (A) (A) (A) (A)
                 (A) (A) (A) (A) (A) (A) (A) (A) (A) (A) (A) (A)
                 (A) (A) (A) (A) (A) (A) (A) (A) (A) (A) (A) (A)
                 (A) (A) (A) (A) (A) (A) (A) (A) (A) (A) (A) (A)
                 (A) (A) (A) (A) (A) (A) (A) (A) (A) (A) (A) (A)
                 (A) (A) (A) (A) (A) (A) (A) (A) (A) (A) (A) (A)
                 (A) (A) (A) (A) (A) (A) (A) (A) (A) (A) (A) (A)
                 (A) (A) (A) (A) (A) (A) (A) (A) (A) (A) (A) (A)
                 (A) (A) (A) (A) (A) (A) (A) (A) (A) (A) (A) (A)
                 (A) (A) (A) (A) (A) (A) (A) (A) (A) (A) (A) (A)
                 (A) (A) (A) (A) (A) (A) (A) (A) (A) (A) (A) (A)
                 (A) (A) (A) (A) (A) (A) (A) (A) (A) (A) (A) (A)
                 (A) (A) (A) (A) (A) (A) (A) (A) (A) (A) (A) (A)
                 (A) (A) (A) (A) (A) (A) (A) (A) (A) (A) (A) (A)
                 (A) (A) (A) (A) (A) (A) (A) (A) (A) (A) (A) (A)
                 (A) (A) (A) (A) (A) (A) (A) (A) (A) (A) (A) (A)
                 (A) (A) (A) (A) (A) (A) (A) (A) (A) (A) (A) (A)
                 (A) (A) (A) (A) (A) (A) (A) (A) (A) (A) (A) (A)
                 (A) (A) (A) (A) (A) (A) (A) (A) (A) (A) (A) (A)
                 (A) (A) (A) (A) (A) (A) (A) (A) (A) (A) (A) (A)
                 (A) (A) (A) (A) (A) (A) (A) (A) (A) (A) (A) (A)
                 (A) (A) (A) (A) (A) (A) (A) (A) (A) (A)
 The electronic state is 1-A.
 Alpha  occ. eigenvalues --  -24.80500 -24.80184 -19.19937 -14.37675 -10.33700
 Alpha  occ. eigenvalues --  -10.33673 -10.26627 -10.26387 -10.26279 -10.26239
 Alpha  occ. eigenvalues --  -10.25925 -10.25150 -10.25115 -10.23314 -10.22552
 Alpha  occ. eigenvalues --  -10.21703 -10.21256  -1.27751  -1.27448  -1.04090
 Alpha  occ. eigenvalues --   -0.94200  -0.90368  -0.83030  -0.79786  -0.78556
 Alpha  occ. eigenvalues --   -0.78062  -0.71516  -0.69328  -0.67069  -0.65952
 Alpha  occ. eigenvalues --   -0.63659  -0.62066  -0.59033  -0.57350  -0.55598
 Alpha  occ. eigenvalues --   -0.52883  -0.51903  -0.51328  -0.51168  -0.49515
 Alpha  occ. eigenvalues --   -0.48946  -0.48720  -0.47069  -0.46891  -0.46181
 Alpha  occ. eigenvalues --   -0.45206  -0.42504  -0.42180  -0.41578  -0.41309
 Alpha  occ. eigenvalues --   -0.40592  -0.39508  -0.38286  -0.38168  -0.37557
 Alpha  occ. eigenvalues --   -0.37404  -0.36268  -0.35810  -0.33881  -0.33063
 Alpha  occ. eigenvalues --   -0.32336  -0.27761  -0.27420  -0.26707  -0.23491
 Alpha virt. eigenvalues --   -0.01942  -0.00853   0.05142   0.05726   0.06422
 Alpha virt. eigenvalues --    0.06826   0.07538   0.08702   0.10438   0.11386
 Alpha virt. eigenvalues --    0.11671   0.11852   0.12202   0.13272   0.13604
 Alpha virt. eigenvalues --    0.13768   0.14359   0.14675   0.15267   0.16729
 Alpha virt. eigenvalues --    0.17231   0.17935   0.19108   0.19433   0.20498
 Alpha virt. eigenvalues --    0.21427   0.22454   0.22998   0.25064   0.25384
 Alpha virt. eigenvalues --    0.25537   0.26272   0.26722   0.28111   0.30426
 Alpha virt. eigenvalues --    0.32601   0.32767   0.33828   0.34896   0.35131
 Alpha virt. eigenvalues --    0.35529   0.36748   0.37984   0.38133   0.38817
 Alpha virt. eigenvalues --    0.39506   0.40709   0.41154   0.41505   0.41781
 Alpha virt. eigenvalues --    0.43381   0.44375   0.44590   0.45853   0.46665
 Alpha virt. eigenvalues --    0.47672   0.48809   0.49282   0.50340   0.52286
 Alpha virt. eigenvalues --    0.52637   0.53754   0.54340   0.54811   0.56175
 Alpha virt. eigenvalues --    0.56347   0.57443   0.58663   0.59017   0.59167
 Alpha virt. eigenvalues --    0.60470   0.60795   0.61183   0.61461   0.61691
 Alpha virt. eigenvalues --    0.62865   0.63230   0.63669   0.64454   0.64872
 Alpha virt. eigenvalues --    0.65823   0.66087   0.66562   0.67219   0.67303
 Alpha virt. eigenvalues --    0.67945   0.68362   0.69528   0.69927   0.70830
 Alpha virt. eigenvalues --    0.71899   0.72726   0.74303   0.74879   0.76895
 Alpha virt. eigenvalues --    0.78126   0.78873   0.82140   0.82867   0.85283
 Alpha virt. eigenvalues --    0.86797   0.88170   0.89795   0.91137   0.93132
 Alpha virt. eigenvalues --    0.93645   0.96039   0.98082   0.98777   0.99622
 Alpha virt. eigenvalues --    1.01828   1.02099   1.04803   1.06019   1.08045
 Alpha virt. eigenvalues --    1.08722   1.10175   1.11311   1.12369   1.14375
 Alpha virt. eigenvalues --    1.16287   1.18431   1.20147   1.21965   1.24041
 Alpha virt. eigenvalues --    1.25400   1.26815   1.28391   1.29565   1.31247
 Alpha virt. eigenvalues --    1.33109   1.35381   1.35662   1.39912   1.42790
 Alpha virt. eigenvalues --    1.45885   1.47047   1.47492   1.48492   1.50530
 Alpha virt. eigenvalues --    1.50933   1.53209   1.53833   1.54423   1.54678
 Alpha virt. eigenvalues --    1.55875   1.57197   1.58470   1.58905   1.62022
 Alpha virt. eigenvalues --    1.62390   1.63136   1.64211   1.66176   1.66853
 Alpha virt. eigenvalues --    1.67799   1.68716   1.69936   1.72002   1.73480
 Alpha virt. eigenvalues --    1.74946   1.76711   1.78243   1.81606   1.82230
 Alpha virt. eigenvalues --    1.84718   1.85062   1.85932   1.89103   1.89447
 Alpha virt. eigenvalues --    1.89524   1.90566   1.91674   1.94061   1.95361
 Alpha virt. eigenvalues --    1.96800   1.97200   1.99922   2.01342   2.03121
 Alpha virt. eigenvalues --    2.08565   2.10677   2.13652   2.17323   2.18783
 Alpha virt. eigenvalues --    2.20583   2.20772   2.25696   2.27472   2.27799
 Alpha virt. eigenvalues --    2.29629   2.31102   2.34932   2.40251   2.40790
 Alpha virt. eigenvalues --    2.41894   2.42363   2.43557   2.45218   2.47889
 Alpha virt. eigenvalues --    2.49154   2.49547   2.51275   2.52659   2.54288
 Alpha virt. eigenvalues --    2.55573   2.57118   2.59641   2.60564   2.65757
 Alpha virt. eigenvalues --    2.66401   2.68265   2.70931   2.72824   2.74305
 Alpha virt. eigenvalues --    2.77401   2.82855   2.83685   2.84616   2.89612
 Alpha virt. eigenvalues --    2.91794   2.93633   2.98317   3.01234   3.05973
 Alpha virt. eigenvalues --    3.06461   3.07432   3.08260   3.08910   3.10285
 Alpha virt. eigenvalues --    3.12566   3.16239   3.16773   3.20409   3.22818
 Alpha virt. eigenvalues --    3.23567   3.25916   3.26855   3.28518   3.28841
 Alpha virt. eigenvalues --    3.29553   3.30813   3.32338   3.36966   3.41785
 Alpha virt. eigenvalues --    3.47305   3.48633   3.52387   3.57760   3.64633
 Alpha virt. eigenvalues --    3.76385   3.79303   3.79835   3.80034   3.80681
 Alpha virt. eigenvalues --    3.85626   3.87372   3.95824   3.96398   3.99795
 Alpha virt. eigenvalues --    4.00466   4.04288   4.07015   4.11281   4.12787
 Alpha virt. eigenvalues --    4.19315   4.23125   4.48486   4.75273   4.76768
 Alpha virt. eigenvalues --    4.80296   4.80990   4.91309   5.10385   5.40097
 Alpha virt. eigenvalues --    6.12686   6.14701   6.31005   6.32423   6.56455
 Alpha virt. eigenvalues --    6.59432  23.30396  23.48015  23.58680  23.69410
 Alpha virt. eigenvalues --   23.74503  23.78469  23.81362  23.84758  23.86961
 Alpha virt. eigenvalues --   23.90027  24.08824  24.11356  24.19488  35.58563
 Alpha virt. eigenvalues --   49.97609  66.89143  66.89707
          Condensed to atoms (all electrons):
               1          2          3          4          5          6
     1  C    5.362730   0.290224  -0.075164   0.001867  -0.000474  -0.000006
     2  C    0.290224   5.340334   0.347337  -0.078685   0.008097  -0.000053
     3  C   -0.075164   0.347337   5.297825   0.277954  -0.053724   0.002756
     4  C    0.001867  -0.078685   0.277954   5.485208   0.283626  -0.052375
     5  C   -0.000474   0.008097  -0.053724   0.283626   5.107840   0.224281
     6  O   -0.000006  -0.000053   0.002756  -0.052375   0.224281   8.233572
     7  N    0.007091  -0.068297   0.274951  -0.074214  -0.002711   0.000097
     8  C    0.000100  -0.004901  -0.088082   0.009446   0.000000  -0.000001
     9  C    0.000000   0.000000  -0.000001   0.000000   0.000000   0.000000
    10  C    0.000000  -0.000002   0.000025   0.000000   0.000000   0.000000
    11  C    0.000004  -0.000007  -0.000195   0.000076  -0.000006   0.000000
    12  C    0.000012  -0.000050   0.009355  -0.000215  -0.000126   0.000000
    13  C   -0.000001   0.000024  -0.000426  -0.000104   0.000029   0.000000
    14  C    0.000000   0.000000   0.000008   0.000000   0.000000   0.000000
    15  H    0.000000   0.000000   0.000000   0.000000   0.000000   0.000000
    16  H    0.000000   0.000000  -0.000001   0.000000   0.000000   0.000000
    17  H    0.000000   0.000000   0.000000   0.000000   0.000000   0.000000
    18  F    0.000000  -0.000113  -0.000006   0.000002   0.000000   0.000000
    19  F    0.000000   0.000001  -0.000062   0.000000   0.000000   0.000000
    20  H    0.387916  -0.034461   0.008144  -0.000129   0.000022   0.000000
    21  H    0.388785  -0.036762  -0.009602   0.003794   0.000247  -0.000047
    22  H    0.388507  -0.045389  -0.002917  -0.001943  -0.000186   0.000003
    23  H   -0.038963   0.389727  -0.039312  -0.007938  -0.000363   0.000000
    24  H   -0.043957   0.406282  -0.044480   0.007254  -0.000210   0.000002
    25  H    0.001077  -0.008181  -0.034569   0.391491  -0.041476   0.009363
    26  H   -0.000023   0.000266   0.006395  -0.059579   0.398550  -0.036457
    27  H   -0.000095   0.000152  -0.006317  -0.037059   0.381319  -0.037923
    28  H    0.000000   0.000021  -0.000750   0.011684  -0.050938   0.260295
    29  H   -0.000780   0.003368   0.002907  -0.001506   0.000152   0.000001
    30  H    0.000086  -0.000458  -0.008087   0.001128  -0.000260  -0.000002
    31  H    0.000329  -0.049231   0.401125  -0.044091  -0.007831  -0.000309
    32  C   -0.001705  -0.004546  -0.068021   0.285210  -0.083061  -0.001160
    33  H   -0.000489   0.002610  -0.007286  -0.036090   0.007504  -0.000157
    34  H    0.000034   0.000315  -0.007104  -0.037655  -0.004888  -0.000555
    35  H   -0.000010  -0.000255   0.008730  -0.038712  -0.007677   0.015776
    36  H    0.000195  -0.003566  -0.050845  -0.004092  -0.000108  -0.000038
               7          8          9         10         11         12
     1  C    0.007091   0.000100   0.000000   0.000000   0.000004   0.000012
     2  C   -0.068297  -0.004901   0.000000  -0.000002  -0.000007  -0.000050
     3  C    0.274951  -0.088082  -0.000001   0.000025  -0.000195   0.009355
     4  C   -0.074214   0.009446   0.000000   0.000000   0.000076  -0.000215
     5  C   -0.002711   0.000000   0.000000   0.000000  -0.000006  -0.000126
     6  O    0.000097  -0.000001   0.000000   0.000000   0.000000   0.000000
     7  N    6.953099   0.288292   0.000076  -0.000375  -0.008244  -0.077251
     8  C    0.288292   5.287486  -0.001511   0.010031  -0.084706   0.294706
     9  C    0.000076  -0.001511   5.063498   0.436668  -0.006859  -0.059625
    10  C   -0.000375   0.010031   0.436668   5.194098   0.481890  -0.037065
    11  C   -0.008244  -0.084706  -0.006859   0.481890   4.803272   0.245626
    12  C   -0.077251   0.294706  -0.059625  -0.037065   0.245626   5.775526
    13  C    0.016862  -0.074980  -0.002573  -0.067299   0.030527   0.260762
    14  C   -0.000114   0.010132   0.430942  -0.036062  -0.064086  -0.030732
    15  H   -0.000001   0.000031   0.404812  -0.041114   0.006346  -0.001992
    16  H    0.000014  -0.000329  -0.040881   0.392025  -0.049667   0.012228
    17  H    0.000011  -0.000298  -0.041178   0.007141  -0.001355   0.012002
    18  F   -0.001480   0.002322   0.005581  -0.055873   0.314529  -0.082178
    19  F   -0.000485  -0.002649   0.005688  -0.000565   0.005223  -0.075846
    20  H   -0.000337  -0.000027   0.000000   0.000000  -0.000001  -0.000001
    21  H   -0.000066  -0.000030   0.000000   0.000000   0.000000   0.000000
    22  H   -0.000010  -0.000028   0.000000   0.000000   0.000000  -0.000003
    23  H   -0.000002   0.000305   0.000000   0.000003   0.000037  -0.000084
    24  H   -0.002412   0.002552   0.000000   0.000000   0.000213   0.000126
    25  H    0.005149  -0.000147   0.000000   0.000000  -0.000002   0.000021
    26  H   -0.000247  -0.000009   0.000000   0.000000  -0.000004  -0.000093
    27  H    0.019299  -0.000344  -0.000001  -0.000004  -0.000114  -0.000309
    28  H    0.000007  -0.000004   0.000000   0.000000   0.000000   0.000000
    29  H   -0.053994   0.381749  -0.000168  -0.000194  -0.029732  -0.042953
    30  H   -0.035843   0.386238  -0.000271   0.000097   0.010062  -0.027627
    31  H   -0.033888  -0.009703   0.000001   0.000002  -0.000001   0.000339
    32  C   -0.004526  -0.000503   0.000000   0.000000  -0.000006   0.000042
    33  H    0.000045  -0.000100   0.000000   0.000000  -0.000002   0.000000
    34  H    0.007000  -0.000280   0.000000  -0.000003  -0.000062   0.000274
    35  H   -0.000365   0.000024   0.000000   0.000000   0.000001  -0.000003
    36  H    0.328535  -0.043428  -0.000077   0.000280   0.005458  -0.014584
              13         14         15         16         17         18
     1  C   -0.000001   0.000000   0.000000   0.000000   0.000000   0.000000
     2  C    0.000024   0.000000   0.000000   0.000000   0.000000  -0.000113
     3  C   -0.000426   0.000008   0.000000  -0.000001   0.000000  -0.000006
     4  C   -0.000104   0.000000   0.000000   0.000000   0.000000   0.000002
     5  C    0.000029   0.000000   0.000000   0.000000   0.000000   0.000000
     6  O    0.000000   0.000000   0.000000   0.000000   0.000000   0.000000
     7  N    0.016862  -0.000114  -0.000001   0.000014   0.000011  -0.001480
     8  C   -0.074980   0.010132   0.000031  -0.000329  -0.000298   0.002322
     9  C   -0.002573   0.430942   0.404812  -0.040881  -0.041178   0.005581
    10  C   -0.067299  -0.036062  -0.041114   0.392025   0.007141  -0.055873
    11  C    0.030527  -0.064086   0.006346  -0.049667  -0.001355   0.314529
    12  C    0.260762  -0.030732  -0.001992   0.012228   0.012002  -0.082178
    13  C    4.758926   0.470786   0.006103  -0.001314  -0.048886   0.004987
    14  C    0.470786   5.203884  -0.040785   0.007105   0.392140  -0.000597
    15  H    0.006103  -0.040785   0.447137  -0.006672  -0.006620  -0.000072
    16  H   -0.001314   0.007105  -0.006672   0.452096  -0.000179   0.001573
    17  H   -0.048886   0.392140  -0.006620  -0.000179   0.451976   0.000004
    18  F    0.004987  -0.000597  -0.000072   0.001573   0.000004   9.033722
    19  F    0.319733  -0.055620  -0.000072   0.000004   0.001444  -0.000001
    20  H    0.000000   0.000000   0.000000   0.000000   0.000000   0.000000
    21  H    0.000000   0.000000   0.000000   0.000000   0.000000   0.000000
    22  H    0.000000   0.000000   0.000000   0.000000   0.000000   0.000000
    23  H   -0.000003   0.000000   0.000000   0.000000   0.000000   0.000052
    24  H   -0.000064   0.000001   0.000000   0.000000   0.000000  -0.000139
    25  H    0.000002   0.000000   0.000000   0.000000   0.000000   0.000000
    26  H    0.000026   0.000001   0.000000   0.000000   0.000000   0.000000
    27  H    0.000520   0.000002   0.000000   0.000000   0.000001   0.000001
    28  H    0.000000   0.000000   0.000000   0.000000   0.000000   0.000000
    29  H    0.013535  -0.000046   0.000003  -0.000024   0.000016   0.008034
    30  H   -0.021838   0.001139   0.000004   0.000009  -0.000054   0.000163
    31  H   -0.000018  -0.000006   0.000000   0.000000   0.000000  -0.000003
    32  C   -0.000001   0.000000   0.000000   0.000000   0.000000  -0.000002
    33  H    0.000000   0.000000   0.000000   0.000000   0.000000   0.000000
    34  H    0.000032  -0.000002   0.000000   0.000000   0.000000  -0.000046
    35  H    0.000000   0.000000   0.000000   0.000000   0.000000   0.000000
    36  H   -0.000746   0.000037   0.000002   0.000003  -0.000001   0.007334
              19         20         21         22         23         24
     1  C    0.000000   0.387916   0.388785   0.388507  -0.038963  -0.043957
     2  C    0.000001  -0.034461  -0.036762  -0.045389   0.389727   0.406282
     3  C   -0.000062   0.008144  -0.009602  -0.002917  -0.039312  -0.044480
     4  C    0.000000  -0.000129   0.003794  -0.001943  -0.007938   0.007254
     5  C    0.000000   0.000022   0.000247  -0.000186  -0.000363  -0.000210
     6  O    0.000000   0.000000  -0.000047   0.000003   0.000000   0.000002
     7  N   -0.000485  -0.000337  -0.000066  -0.000010  -0.000002  -0.002412
     8  C   -0.002649  -0.000027  -0.000030  -0.000028   0.000305   0.002552
     9  C    0.005688   0.000000   0.000000   0.000000   0.000000   0.000000
    10  C   -0.000565   0.000000   0.000000   0.000000   0.000003   0.000000
    11  C    0.005223  -0.000001   0.000000   0.000000   0.000037   0.000213
    12  C   -0.075846  -0.000001   0.000000  -0.000003  -0.000084   0.000126
    13  C    0.319733   0.000000   0.000000   0.000000  -0.000003  -0.000064
    14  C   -0.055620   0.000000   0.000000   0.000000   0.000000   0.000001
    15  H   -0.000072   0.000000   0.000000   0.000000   0.000000   0.000000
    16  H    0.000004   0.000000   0.000000   0.000000   0.000000   0.000000
    17  H    0.001444   0.000000   0.000000   0.000000   0.000000   0.000000
    18  F   -0.000001   0.000000   0.000000   0.000000   0.000052  -0.000139
    19  F    9.026088   0.000000   0.000000   0.000000   0.000000   0.000001
    20  H    0.000000   0.480589  -0.028811  -0.027228  -0.004345  -0.006834
    21  H    0.000000  -0.028811   0.478175  -0.027960  -0.006861   0.007191
    22  H    0.000000  -0.027228  -0.027960   0.483647   0.007562  -0.004054
    23  H    0.000000  -0.004345  -0.006861   0.007562   0.496358  -0.032818
    24  H    0.000001  -0.006834   0.007191  -0.004054  -0.032818   0.484144
    25  H    0.000000   0.000417  -0.002308   0.000308  -0.000187  -0.000072
    26  H    0.000118  -0.000001   0.000023  -0.000001  -0.000008  -0.000021
    27  H    0.000104   0.000005  -0.000050   0.000003  -0.000043  -0.000010
    28  H    0.000000   0.000000   0.000001  -0.000001   0.000000  -0.000001
    29  H    0.000021   0.000164  -0.000020   0.000033  -0.000768  -0.000318
    30  H    0.012544  -0.000015   0.000007  -0.000018   0.000057   0.000890
    31  H   -0.000207  -0.000381  -0.000262   0.004948   0.007149  -0.006331
    32  C    0.000000  -0.000147   0.000777   0.000304   0.003815  -0.000165
    33  H    0.000000   0.000042   0.002293  -0.000106  -0.000504   0.000266
    34  H   -0.000001   0.000028  -0.000094  -0.000005  -0.000405  -0.000110
    35  H    0.000000  -0.000008  -0.000051   0.000012   0.000126   0.000015
    36  H   -0.000013  -0.000028   0.000007   0.000017   0.005454  -0.000275
              25         26         27         28         29         30
     1  C    0.001077  -0.000023  -0.000095   0.000000  -0.000780   0.000086
     2  C   -0.008181   0.000266   0.000152   0.000021   0.003368  -0.000458
     3  C   -0.034569   0.006395  -0.006317  -0.000750   0.002907  -0.008087
     4  C    0.391491  -0.059579  -0.037059   0.011684  -0.001506   0.001128
     5  C   -0.041476   0.398550   0.381319  -0.050938   0.000152  -0.000260
     6  O    0.009363  -0.036457  -0.037923   0.260295   0.000001  -0.000002
     7  N    0.005149  -0.000247   0.019299   0.000007  -0.053994  -0.035843
     8  C   -0.000147  -0.000009  -0.000344  -0.000004   0.381749   0.386238
     9  C    0.000000   0.000000  -0.000001   0.000000  -0.000168  -0.000271
    10  C    0.000000   0.000000  -0.000004   0.000000  -0.000194   0.000097
    11  C   -0.000002  -0.000004  -0.000114   0.000000  -0.029732   0.010062
    12  C    0.000021  -0.000093  -0.000309   0.000000  -0.042953  -0.027627
    13  C    0.000002   0.000026   0.000520   0.000000   0.013535  -0.021838
    14  C    0.000000   0.000001   0.000002   0.000000  -0.000046   0.001139
    15  H    0.000000   0.000000   0.000000   0.000000   0.000003   0.000004
    16  H    0.000000   0.000000   0.000000   0.000000  -0.000024   0.000009
    17  H    0.000000   0.000000   0.000001   0.000000   0.000016  -0.000054
    18  F    0.000000   0.000000   0.000001   0.000000   0.008034   0.000163
    19  F    0.000000   0.000118   0.000104   0.000000   0.000021   0.012544
    20  H    0.000417  -0.000001   0.000005   0.000000   0.000164  -0.000015
    21  H   -0.002308   0.000023  -0.000050   0.000001  -0.000020   0.000007
    22  H    0.000308  -0.000001   0.000003  -0.000001   0.000033  -0.000018
    23  H   -0.000187  -0.000008  -0.000043   0.000000  -0.000768   0.000057
    24  H   -0.000072  -0.000021  -0.000010  -0.000001  -0.000318   0.000890
    25  H    0.507974  -0.008027   0.010746  -0.000570   0.000061  -0.000052
    26  H   -0.008027   0.526793  -0.040023  -0.002901   0.000046  -0.000147
    27  H    0.010746  -0.040023   0.517185  -0.004445   0.000249  -0.000296
    28  H   -0.000570  -0.002901  -0.004445   0.381662   0.000000  -0.000001
    29  H    0.000061   0.000046   0.000249   0.000000   0.547609  -0.045239
    30  H   -0.000052  -0.000147  -0.000296  -0.000001  -0.045239   0.469097
    31  H   -0.005699   0.005880  -0.001461  -0.000019  -0.001496   0.004723
    32  C   -0.056892   0.008755  -0.014559  -0.000114  -0.000044  -0.000006
    33  H   -0.004917  -0.000305  -0.000005   0.000041   0.000028  -0.000005
    34  H    0.007757  -0.000230   0.005150   0.000008   0.000172  -0.000062
    35  H   -0.005174   0.000978  -0.000445  -0.000799  -0.000004   0.000004
    36  H   -0.000102  -0.000111  -0.000292   0.000001  -0.007986   0.007104
              31         32         33         34         35         36
     1  C    0.000329  -0.001705  -0.000489   0.000034  -0.000010   0.000195
     2  C   -0.049231  -0.004546   0.002610   0.000315  -0.000255  -0.003566
     3  C    0.401125  -0.068021  -0.007286  -0.007104   0.008730  -0.050845
     4  C   -0.044091   0.285210  -0.036090  -0.037655  -0.038712  -0.004092
     5  C   -0.007831  -0.083061   0.007504  -0.004888  -0.007677  -0.000108
     6  O   -0.000309  -0.001160  -0.000157  -0.000555   0.015776  -0.000038
     7  N   -0.033888  -0.004526   0.000045   0.007000  -0.000365   0.328535
     8  C   -0.009703  -0.000503  -0.000100  -0.000280   0.000024  -0.043428
     9  C    0.000001   0.000000   0.000000   0.000000   0.000000  -0.000077
    10  C    0.000002   0.000000   0.000000  -0.000003   0.000000   0.000280
    11  C   -0.000001  -0.000006  -0.000002  -0.000062   0.000001   0.005458
    12  C    0.000339   0.000042   0.000000   0.000274  -0.000003  -0.014584
    13  C   -0.000018  -0.000001   0.000000   0.000032   0.000000  -0.000746
    14  C   -0.000006   0.000000   0.000000  -0.000002   0.000000   0.000037
    15  H    0.000000   0.000000   0.000000   0.000000   0.000000   0.000002
    16  H    0.000000   0.000000   0.000000   0.000000   0.000000   0.000003
    17  H    0.000000   0.000000   0.000000   0.000000   0.000000  -0.000001
    18  F   -0.000003  -0.000002   0.000000  -0.000046   0.000000   0.007334
    19  F   -0.000207   0.000000   0.000000  -0.000001   0.000000  -0.000013
    20  H   -0.000381  -0.000147   0.000042   0.000028  -0.000008  -0.000028
    21  H   -0.000262   0.000777   0.002293  -0.000094  -0.000051   0.000007
    22  H    0.004948   0.000304  -0.000106  -0.000005   0.000012   0.000017
    23  H    0.007149   0.003815  -0.000504  -0.000405   0.000126   0.005454
    24  H   -0.006331  -0.000165   0.000266  -0.000110   0.000015  -0.000275
    25  H   -0.005699  -0.056892  -0.004917   0.007757  -0.005174  -0.000102
    26  H    0.005880   0.008755  -0.000305  -0.000230   0.000978  -0.000111
    27  H   -0.001461  -0.014559  -0.000005   0.005150  -0.000445  -0.000292
    28  H   -0.000019  -0.000114   0.000041   0.000008  -0.000799   0.000001
    29  H   -0.001496  -0.000044   0.000028   0.000172  -0.000004  -0.007986
    30  H    0.004723  -0.000006  -0.000005  -0.000062   0.000004   0.007104
    31  H    0.487664   0.008737  -0.000201  -0.000287  -0.000125   0.007497
    32  C    0.008737   5.448391   0.386392   0.378154   0.387431   0.003508
    33  H   -0.000201   0.386392   0.476671  -0.026951  -0.028192  -0.000438
    34  H   -0.000287   0.378154  -0.026951   0.485724  -0.027340  -0.001064
    35  H   -0.000125   0.387431  -0.028192  -0.027340   0.457248  -0.000015
    36  H    0.007497   0.003508  -0.000438  -0.001064  -0.000015   0.432543
 Mulliken charges:
               1
     1  C   -0.667290
     2  C   -0.453803
     3  C   -0.140558
     4  C   -0.284355
     5  C   -0.157626
     6  O   -0.617062
     7  N   -0.535666
     8  C   -0.361355
     9  C   -0.194121
    10  C   -0.283703
    11  C    0.341785
    12  C   -0.160281
    13  C    0.335400
    14  C   -0.288126
    15  H    0.232890
    16  H    0.234008
    17  H    0.233834
    18  F   -0.237794
    19  F   -0.235447
    20  H    0.225428
    21  H    0.231624
    22  H    0.224504
    23  H    0.221960
    24  H    0.233331
    25  H    0.234010
    26  H    0.200356
    27  H    0.209060
    28  H    0.406822
    29  H    0.227122
    30  H    0.246929
    31  H    0.233158
    32  C   -0.676056
    33  H    0.229857
    34  H    0.222496
    35  H    0.238833
    36  H    0.329834
 Sum of Mulliken charges =   0.00000
 Mulliken charges with hydrogens summed into heavy atoms:
               1
     1  C    0.014266
     2  C    0.001488
     3  C    0.092599
     4  C   -0.050344
     5  C    0.251790
     6  O   -0.210239
     7  N   -0.205831
     8  C    0.112697
     9  C    0.038769
    10  C   -0.049695
    11  C    0.341785
    12  C   -0.160281
    13  C    0.335400
    14  C   -0.054291
    18  F   -0.237794
    19  F   -0.235447
    32  C    0.015129
 Electronic spatial extent (au):  <R**2>=           5388.8340
 Charge=              0.0000 electrons
 Dipole moment (field-independent basis, Debye):
    X=              2.6525    Y=             -0.1869    Z=             -0.3292  Tot=              2.6794
 Quadrupole moment (field-independent basis, Debye-Ang):
   XX=            -99.9538   YY=            -96.2585   ZZ=           -101.9872
   XY=              5.3636   XZ=              7.6094   YZ=             -0.4474
 Traceless Quadrupole moment (field-independent basis, Debye-Ang):
   XX=             -0.5540   YY=              3.1414   ZZ=             -2.5874
   XY=              5.3636   XZ=              7.6094   YZ=             -0.4474
 Octapole moment (field-independent basis, Debye-Ang**2):
  XXX=            131.8102  YYY=             53.1687  ZZZ=             -5.0652  XYY=             -8.2062
  XXY=             -0.9815  XXZ=             12.5403  XZZ=              4.8401  YZZ=             -3.4540
  YYZ=              1.1617  XYZ=              3.4603
 Hexadecapole moment (field-independent basis, Debye-Ang**3):
 XXXX=          -4877.8509 YYYY=          -1212.7251 ZZZZ=           -641.7646 XXXY=            144.4451
 XXXZ=            157.1658 YYYX=           -123.7938 YYYZ=             -3.1779 ZZZX=              4.2420
 ZZZY=            -34.5428 XXYY=          -1029.6461 XXZZ=           -938.8021 YYZZ=           -347.3237
 XXYZ=            -57.8284 YYXZ=             -5.3090 ZZXY=            -27.5556
 N-N= 1.253242602314D+03 E-N=-4.464834431888D+03  KE= 8.333468304658D+02
 1\1\GINC-CPU-E-805\SP\RmPW1PW91\6-311G(d)\C13H19F2N1O1\AH809\04-Mar-20
 19\0\\# mPW1PW91/6-311g(d) nmr=giao scrf=(solvent=chloroform)\\AT3_2gi
 np006\\0,1\C,0,-0.97165,-1.69276,0.370083\C,0,-2.460185,-1.371872,0.33
 3923\C,0,-3.109623,-1.262409,1.733261\C,0,-2.432689,-0.208389,2.658576
 \C,0,-3.06129,-0.230578,4.062742\O,0,-2.260221,0.53256,4.96227\N,0,-4.
 547399,-0.962329,1.617962\C,0,-5.356018,-2.120467,1.236278\C,0,-9.5575
 67,-1.125945,1.372368\C,0,-8.788897,-0.780476,0.262193\C,0,-7.434489,-
 1.110194,0.2277\C,0,-6.81941,-1.787133,1.282532\C,0,-7.605274,-2.11974
 8,2.386763\C,0,-8.961641,-1.798144,2.438492\H,0,-10.613574,-0.870978,1
 .407998\H,0,-9.232945,-0.253616,-0.577093\H,0,-9.542499,-2.074287,3.31
 3526\F,0,-6.715599,-0.762295,-0.849918\F,0,-7.06298,-2.771267,3.425874
 \H,0,-0.607127,-1.890058,-0.643385\H,0,-0.388294,-0.858587,0.769936\H,
 0,-0.775323,-2.580904,0.978764\H,0,-2.615418,-0.451797,-0.241777\H,0,-
 2.949252,-2.172333,-0.233765\H,0,-1.377085,-0.482182,2.783447\H,0,-3.1
 10501,-1.253922,4.449307\H,0,-4.070506,0.194475,4.060474\H,0,-2.719725
 ,0.522563,5.819318\H,0,-5.106341,-2.466247,0.226569\H,0,-5.157547,-2.9
 62618,1.910576\H,0,-2.990539,-2.23351,2.233777\C,0,-2.451828,1.21889,2
 .092023\H,0,-1.94901,1.270896,1.122056\H,0,-3.473527,1.59201,1.968255\
 H,0,-1.926588,1.910257,2.759793\H,0,-4.690537,-0.219407,0.932343\\Vers
 ion=ES64L-G09RevD.01\State=1-A\HF=-836.4573969\RMSD=7.141e-09\Dipole=-
 0.9756144,-0.3215655,-0.2366705\Quadrupole=2.8647122,-4.0280732,1.1633
 61,-5.1803163,-3.2862174,-1.4674495\PG=C01 [X(C13H19F2N1O1)]\\@


 DESK:  A WASTEBASKET WITH DRAWERS.
 Job cpu time:       0 days  0 hours 16 minutes 20.6 seconds.
 File lengths (MBytes):  RWF=    186 Int=      0 D2E=      0 Chk=     10 Scr=      1
 Normal termination of Gaussian 09 at Mon Mar  4 11:28:21 2019.
