 Entering Gaussian System, Link 0=/usr/local/Cluster-Apps/gaussian/g09/g09
 Initial command:
 /usr/local/Cluster-Apps/gaussian/g09/l1.exe "/home/ah809/rds/hpc-work/04Mar1111AT3/Gau-161519.inp" -scrdir="/home/ah809/rds/hpc-work/04Mar1111AT3/"
 Entering Link 1 = /usr/local/Cluster-Apps/gaussian/g09/l1.exe PID=    161527.
  
 Copyright (c) 1988,1990,1992,1993,1995,1998,2003,2009,2013,
            Gaussian, Inc.  All Rights Reserved.
  
 This is part of the Gaussian(R) 09 program.  It is based on
 the Gaussian(R) 03 system (copyright 2003, Gaussian, Inc.),
 the Gaussian(R) 98 system (copyright 1998, Gaussian, Inc.),
 the Gaussian(R) 94 system (copyright 1995, Gaussian, Inc.),
 the Gaussian 92(TM) system (copyright 1992, Gaussian, Inc.),
 the Gaussian 90(TM) system (copyright 1990, Gaussian, Inc.),
 the Gaussian 88(TM) system (copyright 1988, Gaussian, Inc.),
 the Gaussian 86(TM) system (copyright 1986, Carnegie Mellon
 University), and the Gaussian 82(TM) system (copyright 1983,
 Carnegie Mellon University). Gaussian is a federally registered
 trademark of Gaussian, Inc.
  
 This software contains proprietary and confidential information,
 including trade secrets, belonging to Gaussian, Inc.
  
 This software is provided under written license and may be
 used, copied, transmitted, or stored only in accord with that
 written license.
  
 The following legend is applicable only to US Government
 contracts under FAR:
  
                    RESTRICTED RIGHTS LEGEND
  
 Use, reproduction and disclosure by the US Government is
 subject to restrictions as set forth in subparagraphs (a)
 and (c) of the Commercial Computer Software - Restricted
 Rights clause in FAR 52.227-19.
  
 Gaussian, Inc.
 340 Quinnipiac St., Bldg. 40, Wallingford CT 06492
  
  
 ---------------------------------------------------------------
 Warning -- This program may not be used in any manner that
 competes with the business of Gaussian, Inc. or will provide
 assistance to any competitor of Gaussian, Inc.  The licensee
 of this program is prohibited from giving any competitor of
 Gaussian, Inc. access to this program.  By using this program,
 the user acknowledges that Gaussian, Inc. is engaged in the
 business of creating and licensing software in the field of
 computational chemistry and represents and warrants to the
 licensee that it is not a competitor of Gaussian, Inc. and that
 it will not use this program in any manner prohibited above.
 ---------------------------------------------------------------
  

 Cite this work as:
 Gaussian 09, Revision D.01,
 M. J. Frisch, G. W. Trucks, H. B. Schlegel, G. E. Scuseria, 
 M. A. Robb, J. R. Cheeseman, G. Scalmani, V. Barone, B. Mennucci, 
 G. A. Petersson, H. Nakatsuji, M. Caricato, X. Li, H. P. Hratchian, 
 A. F. Izmaylov, J. Bloino, G. Zheng, J. L. Sonnenberg, M. Hada, 
 M. Ehara, K. Toyota, R. Fukuda, J. Hasegawa, M. Ishida, T. Nakajima, 
 Y. Honda, O. Kitao, H. Nakai, T. Vreven, J. A. Montgomery, Jr., 
 J. E. Peralta, F. Ogliaro, M. Bearpark, J. J. Heyd, E. Brothers, 
 K. N. Kudin, V. N. Staroverov, T. Keith, R. Kobayashi, J. Normand, 
 K. Raghavachari, A. Rendell, J. C. Burant, S. S. Iyengar, J. Tomasi, 
 M. Cossi, N. Rega, J. M. Millam, M. Klene, J. E. Knox, J. B. Cross, 
 V. Bakken, C. Adamo, J. Jaramillo, R. Gomperts, R. E. Stratmann, 
 O. Yazyev, A. J. Austin, R. Cammi, C. Pomelli, J. W. Ochterski, 
 R. L. Martin, K. Morokuma, V. G. Zakrzewski, G. A. Voth, 
 P. Salvador, J. J. Dannenberg, S. Dapprich, A. D. Daniels, 
 O. Farkas, J. B. Foresman, J. V. Ortiz, J. Cioslowski, 
 and D. J. Fox, Gaussian, Inc., Wallingford CT, 2013.
 
 ******************************************
 Gaussian 09:  ES64L-G09RevD.01 24-Apr-2013
                 4-Mar-2019 
 ******************************************
 %nprocshared=8
 Will use up to    8 processors via shared memory.
 %mem=6000MB
 %chk=AT3_1ginp015.chk
 -------------------------------------------------------
 # mPW1PW91/6-311g(d) nmr=giao scrf=(solvent=chloroform)
 -------------------------------------------------------
 1/38=1/1;
 2/12=2,17=6,18=5,40=1/2;
 3/5=4,6=6,7=1,11=2,16=1,25=1,30=1,70=2201,72=7,74=-7/1,2,8,3;
 4//1;
 5/5=2,38=5,53=7/2;
 8/6=1,10=90,11=11/1;
 10/13=100,45=16/2;
 6/7=2,8=2,9=2,10=2,28=1/1;
 99/9=1/99;
 ------------
 AT3_1ginp015
 ------------
 Symbolic Z-matrix:
 Charge =  0 Multiplicity = 1
 C                    -1.07036  -0.67393   1.06225 
 C                    -0.58612   0.76182   0.91372 
 C                     0.21088   1.28621   2.13296 
 C                    -0.59697   1.24547   3.46769 
 C                    -1.84784   2.14197   3.46692 
 O                    -1.52269   3.5217    3.35604 
 N                     0.66452   2.66102   1.82622 
 C                     2.11135   2.8553    2.01645 
 C                     4.57245   0.95325  -0.98592 
 C                     3.71446   1.99335  -1.33826 
 C                     2.92366   2.59954  -0.36298 
 C                     2.96303   2.18984   0.97131 
 C                     3.8314    1.14843   1.30239 
 C                     4.63009   0.52996   0.34082 
 H                     5.19275   0.47583  -1.74027 
 H                     3.65453   2.33822  -2.36638 
 H                     5.29263  -0.27855   0.63587 
 F                     2.10135   3.59323  -0.7299 
 F                     3.90692   0.71706   2.56955 
 H                    -1.85392  -0.75839   1.82048 
 H                    -1.49308  -1.02549   0.11535 
 H                    -0.24673  -1.34174   1.33322 
 H                     0.05959   0.80168   0.02615 
 H                    -1.44419   1.40902   0.69695 
 H                    -0.93854   0.21473   3.62265 
 H                    -2.40888   2.00999   4.39825 
 H                    -2.52327   1.88259   2.64674 
 H                    -0.72814   3.5673    2.78072 
 H                     2.31324   3.93318   1.97789 
 H                     2.41045   2.54661   3.0242 
 H                     1.06955   0.61276   2.25214 
 C                     0.28979   1.58108   4.67586 
 H                     0.63008   2.62103   4.6662 
 H                    -0.26231   1.42418   5.60907 
 H                     1.17153   0.9321    4.70152 
 H                     0.45289   2.90226   0.85419 
 
                          Input orientation:                          
 ---------------------------------------------------------------------
 Center     Atomic      Atomic             Coordinates (Angstroms)
 Number     Number       Type             X           Y           Z
 ---------------------------------------------------------------------
      1          6           0       -1.070364   -0.673933    1.062245
      2          6           0       -0.586122    0.761821    0.913719
      3          6           0        0.210881    1.286207    2.132965
      4          6           0       -0.596970    1.245468    3.467690
      5          6           0       -1.847835    2.141967    3.466924
      6          8           0       -1.522694    3.521702    3.356037
      7          7           0        0.664516    2.661018    1.826220
      8          6           0        2.111353    2.855300    2.016449
      9          6           0        4.572446    0.953252   -0.985917
     10          6           0        3.714455    1.993351   -1.338255
     11          6           0        2.923658    2.599539   -0.362983
     12          6           0        2.963027    2.189844    0.971311
     13          6           0        3.831397    1.148425    1.302387
     14          6           0        4.630087    0.529959    0.340819
     15          1           0        5.192750    0.475829   -1.740274
     16          1           0        3.654534    2.338221   -2.366381
     17          1           0        5.292633   -0.278546    0.635867
     18          9           0        2.101349    3.593227   -0.729900
     19          9           0        3.906920    0.717058    2.569554
     20          1           0       -1.853923   -0.758388    1.820481
     21          1           0       -1.493079   -1.025490    0.115353
     22          1           0       -0.246728   -1.341743    1.333216
     23          1           0        0.059586    0.801680    0.026150
     24          1           0       -1.444190    1.409015    0.696947
     25          1           0       -0.938543    0.214732    3.622651
     26          1           0       -2.408884    2.009987    4.398252
     27          1           0       -2.523273    1.882594    2.646742
     28          1           0       -0.728141    3.567297    2.780723
     29          1           0        2.313243    3.933182    1.977886
     30          1           0        2.410451    2.546607    3.024202
     31          1           0        1.069554    0.612759    2.252136
     32          6           0        0.289786    1.581075    4.675855
     33          1           0        0.630080    2.621026    4.666203
     34          1           0       -0.262311    1.424179    5.609065
     35          1           0        1.171530    0.932095    4.701519
     36          1           0        0.452888    2.902259    0.854194
 ---------------------------------------------------------------------
                    Distance matrix (angstroms):
                    1          2          3          4          5
     1  C    0.000000
     2  C    1.522478   0.000000
     3  C    2.574913   1.548146   0.000000
     4  C    3.113578   2.599385   1.560697   0.000000
     5  C    3.783680   3.164740   2.598092   1.538952   0.000000
     6  O    4.803065   3.802503   3.081984   2.459811   1.421858
     7  N    3.836061   2.450245   1.479859   2.507898   3.045198
     8  C    4.846578   3.588180   2.467270   3.468814   4.276434
     9  C    6.219647   5.500553   5.372293   6.829558   7.903217
    10  C    5.980911   5.008295   4.982414   6.499602   7.351932
    11  C    5.357155   4.162419   3.913279   5.376094   6.135528
    12  C    4.947497   3.826098   3.120947   4.449419   5.419850
    13  C    5.235066   4.451404   3.717120   4.930354   6.158411
    14  C    5.870686   5.252696   4.828362   6.132813   7.371199
    15  H    6.957202   6.365598   6.362210   7.825349   8.914077
    16  H    6.569110   5.588135   5.762777   7.301081   8.021348
    17  H    6.389512   5.976565   5.523944   6.710385   8.053574
    18  F    5.610722   4.235663   4.134272   5.514767   5.942688
    19  F    5.383325   4.788655   3.765003   4.622866   5.996069
    20  H    1.093627   2.177285   2.922573   2.882476   3.335097
    21  H    1.094936   2.157415   3.509727   4.147098   4.625112
    22  H    1.094428   2.171669   2.784803   3.372285   4.387766
    23  H    2.127842   1.098320   2.167101   3.531602   4.156146
    24  H    2.147524   1.096417   2.194650   2.901990   2.893600
    25  H    2.713445   2.786004   2.165271   1.096860   2.136656
    26  H    4.485979   4.125815   3.538156   2.175653   1.095247
    27  H    3.340270   2.830557   2.845214   2.188728   1.093704
    28  H    4.588934   3.372917   2.550436   2.424875   1.938079
    29  H    5.789016   4.426771   3.383852   4.232335   4.768674
    30  H    5.131981   4.076647   2.687196   3.306694   4.300318
    31  H    2.765984   2.134208   1.097749   2.157590   3.510747
    32  C    4.471381   3.948678   2.561145   1.535783   2.519035
    33  H    5.170762   4.360840   2.893919   2.198692   2.794250
    34  H    5.072336   4.752878   3.510871   2.174723   2.760050
    35  H    4.566150   4.179206   2.765088   2.179020   3.479164
    36  H    3.892651   2.380034   2.074957   3.267647   3.563387
                    6          7          8          9         10
     6  O    0.000000
     7  N    2.804462   0.000000
     8  C    3.929998   1.472165   0.000000
     9  C    7.912031   5.108473   4.323074   0.000000
    10  C    7.197219   4.445426   3.816665   1.393591   0.000000
    11  C    5.869543   3.146444   2.527242   2.411806   1.394267
    12  C    5.251900   2.497204   1.503494   2.819598   2.436668
    13  C    6.206143   3.548447   2.526234   2.413210   2.774989
    14  C    7.476549   4.740631   3.815622   1.393818   2.408150
    15  H    8.963644   6.164401   5.410162   1.087090   2.156351
    16  H    7.807073   5.159681   4.675252   2.160181   1.086080
    17  H    8.263770   5.610476   4.674135   2.160134   3.398429
    18  F    5.462022   3.076890   2.843777   3.625098   2.351980
    19  F    6.161598   3.852883   2.846413   3.624926   4.115451
    20  H    4.559256   4.246752   5.368478   7.218296   6.968250
    21  H    5.583893   4.601372   5.627311   6.474474   6.192317
    22  H    5.419686   4.134672   4.862358   5.819778   5.826713
    23  H    4.581515   2.657693   3.519715   4.627435   4.079185
    24  H    3.397112   2.699891   4.058905   6.264157   5.576299
    25  H    3.368734   3.432387   4.342160   7.221863   7.030254
    26  H    2.038830   4.060170   5.178811   8.879467   8.390654
    27  H    2.047177   3.382484   4.777362   8.025529   7.402818
    28  H    0.982028   1.916223   3.025522   7.008354   6.259389
    29  H    4.096709   2.087991   1.097304   4.771594   4.089392
    30  H    4.065778   2.120505   1.095590   4.826392   4.586671
    31  H    4.049728   2.130921   2.483925   4.782382   4.668238
    32  C    2.965305   3.070361   3.466150   7.126781   6.933098
    33  H    2.676226   2.840473   3.044709   7.090147   6.779444
    34  H    3.326305   4.086404   4.537541   8.190875   8.025203
    35  H    3.971804   3.393167   3.433888   6.626734   6.638645
    36  H    3.247438   1.023630   2.025722   4.914814   4.033704
                   11         12         13         14         15
    11  C    0.000000
    12  C    1.396331   0.000000
    13  C    2.388133   1.395791   0.000000
    14  C    2.773157   2.435534   1.394639   0.000000
    15  H    3.399390   3.906687   3.400508   2.156494   0.000000
    16  H    2.148504   3.411801   3.860927   3.398595   2.495320
    17  H    3.859160   3.410650   2.148419   1.086140   2.495016
    18  F    1.340983   2.367719   3.619436   4.113948   4.505084
    19  F    3.620817   2.369475   1.340706   2.350582   4.504017
    20  H    6.234458   5.711057   6.018905   6.774336   7.991112
    21  H    5.733865   5.561287   5.872393   6.321663   7.099128
    22  H    5.334992   4.785980   4.778388   5.317090   6.506753
    23  H    3.403914   3.354146   3.996945   4.589371   5.438364
    24  H    4.649612   4.484254   5.316604   6.147878   7.131610
    25  H    6.040627   5.113993   5.385883   6.471432   8.149963
    26  H    7.173070   6.374457   7.019101   8.258351   9.890398
    27  H    6.264305   5.744646   6.536675   7.636587   8.986763
    28  H    4.914782   4.335443   5.368967   6.624890   8.065577
    29  H    2.762404   2.115334   3.242832   4.430540   5.836914
    30  H    3.426252   2.155686   2.634131   4.024201   5.893177
    31  H    3.771451   2.777220   2.969299   4.041953   5.740978
    32  C    5.776196   4.608738   4.910242   6.223793   8.150297
    33  H    5.527538   4.390989   4.871575   6.251525   8.152470
    34  H    6.870024   5.700685   5.948274   7.244971   9.201622
    35  H    5.612442   4.325026   4.321549   5.580236   7.607568
    36  H    2.770896   2.611905   3.832901   4.831185   5.923269
                   16         17         18         19         20
    16  H    0.000000
    17  H    4.306313   0.000000
    18  F    2.581762   5.200023   0.000000
    19  F    5.201473   2.578871   4.734853   0.000000
    20  H    7.580363   7.259946   6.409772   5.993777   0.000000
    21  H    6.631099   6.846514   5.913283   6.182197   1.763239
    22  H    6.515290   5.683415   5.841562   4.797915   1.777866
    23  H    4.583537   5.378050   3.540218   4.612813   3.052041
    24  H    6.020331   6.945241   4.401991   5.711378   2.475449
    25  H    7.840540   6.927608   6.292843   4.983960   2.243368
    26  H    9.090271   8.871656   7.010477   6.701133   3.823190
    27  H    7.968958   8.354791   5.976212   6.535428   2.847020
    28  H    6.871037   7.459265   4.509009   5.445388   4.571761
    29  H    4.818259   5.330707   2.737257   3.637765   6.277012
    30  H    5.536204   4.689628   3.909506   2.406943   5.527823
    31  H    5.566870   4.608812   4.340545   2.856970   3.257773
    32  C    7.841421   6.693891   6.045883   4.273955   4.268693
    33  H    7.660583   6.811059   5.676948   4.331133   5.068416
    34  H    8.932239   7.647835   7.104515   5.207796   4.652977
    35  H    7.622185   5.914277   6.119354   3.474748   4.506826
    36  H    4.576110   5.795543   2.388350   4.432595   4.433444
                   21         22         23         24         25
    21  H    0.000000
    22  H    1.771044   0.000000
    23  H    2.399432   2.529133   0.000000
    24  H    2.503489   3.066826   1.755040   0.000000
    25  H    3.761223   2.853548   3.778305   3.200271   0.000000
    26  H    5.328794   5.030254   5.164167   3.871881   2.446712
    27  H    3.990762   4.159851   3.834976   2.278244   2.499106
    28  H    5.364981   5.140594   3.982063   3.084320   3.463063
    29  H    6.522695   5.898634   4.323719   4.704309   5.206365
    30  H    6.038114   5.003928   4.190424   4.644189   4.124505
    31  H    3.717094   2.529247   2.451681   3.061298   2.463573
    32  C    5.547158   4.472577   4.720191   4.343730   2.117764
    33  H    6.206055   5.251774   5.016530   4.639672   3.056113
    34  H    6.139751   5.092490   5.626728   5.052323   2.421960
    35  H    5.653777   4.304330   4.807546   4.806874   2.476080
    36  H    4.445209   4.327872   2.291893   2.419382   4.101614
                   26         27         28         29         30
    26  H    0.000000
    27  H    1.759858   0.000000
    28  H    2.804730   2.465497   0.000000
    29  H    5.644053   5.295674   3.166771   0.000000
    30  H    5.040036   4.992497   3.309358   1.739775   0.000000
    31  H    4.319443   3.831005   3.498629   3.556288   2.476663
    32  C    2.746607   3.481597   2.927931   4.111669   2.856121
    33  H    3.111345   3.816692   2.509029   3.432468   2.423103
    34  H    2.533183   3.754657   3.579032   5.110189   3.883944
    35  H    3.751425   4.333258   3.773923   4.210488   2.637227
    36  H    4.641792   3.620840   2.355551   2.405495   2.944058
                   31         32         33         34         35
    31  H    0.000000
    32  C    2.723984   0.000000
    33  H    3.170803   1.094254   0.000000
    34  H    3.701518   1.095586   1.765727   0.000000
    35  H    2.472216   1.095128   1.773951   1.766829   0.000000
    36  H    2.752513   4.046878   3.826474   5.030410   4.381769
                   36
    36  H    0.000000
 Stoichiometry    C13H19F2NO
 Framework group  C1[X(C13H19F2NO)]
 Deg. of freedom   102
 Full point group                 C1      NOp   1
 Largest Abelian subgroup         C1      NOp   1
 Largest concise Abelian subgroup C1      NOp   1
                         Standard orientation:                         
 ---------------------------------------------------------------------
 Center     Atomic      Atomic             Coordinates (Angstroms)
 Number     Number       Type             X           Y           Z
 ---------------------------------------------------------------------
      1          6           0       -1.716790   -0.547788    2.966282
      2          6           0       -1.278032   -1.044282    1.595543
      3          6           0       -1.318689    0.039870    0.491135
      4          6           0       -2.734208    0.663935    0.284686
      5          6           0       -3.797002   -0.343897   -0.187665
      6          8           0       -3.509230   -0.866279   -1.478396
      7          7           0       -0.814627   -0.564437   -0.762148
      8          6           0        0.269755    0.208990   -1.389202
      9          6           0        4.049395   -0.010629    0.697676
     10          6           0        3.504278   -1.151632    0.111966
     11          6           0        2.284046   -1.070953   -0.557738
     12          6           0        1.581398    0.131501   -0.658391
     13          6           0        2.147066    1.262188   -0.066955
     14          6           0        3.366531    1.201064    0.606978
     15          1           0        5.000639   -0.065055    1.221066
     16          1           0        4.020297   -2.105460    0.171162
     17          1           0        3.774763    2.101772    1.056168
     18          9           0        1.778088   -2.185151   -1.106195
     19          9           0        1.512652    2.441352   -0.134677
     20          1           0       -2.787604   -0.326954    2.990966
     21          1           0       -1.524582   -1.317034    3.721398
     22          1           0       -1.166197    0.353217    3.254047
     23          1           0       -0.247361   -1.411237    1.692332
     24          1           0       -1.886855   -1.912511    1.316898
     25          1           0       -3.071274    1.059773    1.250502
     26          1           0       -4.779259    0.137851   -0.239212
     27          1           0       -3.887851   -1.182566    0.508446
     28          1           0       -2.530657   -0.927019   -1.533954
     29          1           0        0.424497   -0.188643   -2.400152
     30          1           0       -0.038078    1.249878   -1.537888
     31          1           0       -0.653815    0.846289    0.826819
     32          6           0       -2.688445    1.866083   -0.669974
     33          1           0       -2.434199    1.575060   -1.693720
     34          1           0       -3.663565    2.364495   -0.702133
     35          1           0       -1.952824    2.602836   -0.330321
     36          1           0       -0.452327   -1.505911   -0.588414
 ---------------------------------------------------------------------
 Rotational constants (GHZ):      0.7173200      0.2773356      0.2651949
 Standard basis: 6-311G(d) (5D, 7F)
 There are   380 symmetry adapted cartesian basis functions of A   symmetry.
 There are   363 symmetry adapted basis functions of A   symmetry.
   363 basis functions,   639 primitive gaussians,   380 cartesian basis functions
    65 alpha electrons       65 beta electrons
       nuclear repulsion energy      1300.8643962536 Hartrees.
 NAtoms=   36 NActive=   36 NUniq=   36 SFac= 1.00D+00 NAtFMM=   60 NAOKFM=F Big=F
 Integral buffers will be    131072 words long.
 Raffenetti 2 integral format.
 Two-electron integral symmetry is turned on.
 ------------------------------------------------------------------------------
 Polarizable Continuum Model (PCM)
 =================================
 Model                : PCM (using non-symmetric T matrix).
 Atomic radii         : UFF (Universal Force Field).
 Polarization charges : Total charges.
 Charge compensation  : None.
 Solution method      : On-the-fly selection.
 Cavity type          : Scaled VdW (van der Waals Surface) (Alpha=1.100).
 Cavity algorithm     : GePol (No added spheres)
                        Default sphere list used, NSphG=   36.
                        Lebedev-Laikov grids with approx.  5.0 points / Ang**2.
                        Smoothing algorithm: Karplus/York (Gamma=1.0000).
                        Polarization charges: spherical gaussians, with
                                              point-specific exponents (IZeta= 3).
                        Self-potential: point-specific (ISelfS= 7).
                        Self-field    : sphere-specific E.n sum rule (ISelfD= 2).
 Solvent              : Chloroform, Eps=   4.711300 Eps(inf)=   2.090627
 ------------------------------------------------------------------------------
 One-electron integrals computed using PRISM.
 NBasis=   363 RedAO= T EigKep=  2.43D-04  NBF=   363
 NBsUse=   363 1.00D-06 EigRej= -1.00D+00 NBFU=   363
 ExpMin= 1.03D-01 ExpMax= 1.14D+04 ExpMxC= 1.72D+03 IAcc=1 IRadAn=         1 AccDes= 0.00D+00
 Harris functional with IExCor=  908 and IRadAn=       1 diagonalized for initial guess.
 HarFok:  IExCor=  908 AccDes= 0.00D+00 IRadAn=         1 IDoV= 1 UseB2=F ITyADJ=14
 ICtDFT=  3500011 ScaDFX=  1.000000  1.000000  1.000000  1.000000
 FoFCou: FMM=F IPFlag=           0 FMFlag=      100000 FMFlg1=           0
         NFxFlg=           0 DoJE=T BraDBF=F KetDBF=T FulRan=T
         wScrn=  0.000000 ICntrl=     500 IOpCl=  0 I1Cent=   200000004 NGrid=           0
         NMat0=    1 NMatS0=      1 NMatT0=    0 NMatD0=    1 NMtDS0=    0 NMtDT0=    0
 Petite list used in FoFCou.
 Requested convergence on RMS density matrix=1.00D-08 within 128 cycles.
 Requested convergence on MAX density matrix=1.00D-06.
 Requested convergence on             energy=1.00D-06.
 No special actions if energy rises.
 Inv3:  Mode=1 IEnd=    17963427.
 Iteration    1 A*A^-1 deviation from unit magnitude is 5.44D-15 for   2439.
 Iteration    1 A*A^-1 deviation from orthogonality  is 4.78D-15 for   2419   2321.
 Iteration    1 A^-1*A deviation from unit magnitude is 5.66D-15 for   2439.
 Iteration    1 A^-1*A deviation from orthogonality  is 1.06D-13 for   2243   2200.
 Error on total polarization charges =  0.00914
 SCF Done:  E(RmPW1PW91) =  -836.464675151     A.U. after   12 cycles
            NFock= 12  Conv=0.69D-08     -V/T= 2.0037
 DoSCS=F DFT=T ScalE2(SS,OS)=  1.000000  1.000000
 Range of M.O.s used for correlation:     1   363
 NBasis=   363 NAE=    65 NBE=    65 NFC=     0 NFV=     0
 NROrb=    363 NOA=    65 NOB=    65 NVA=   298 NVB=   298

 **** Warning!!: The largest alpha MO coefficient is  0.11227257D+02

 NEqPCM:  Using equilibrium solvation (IEInf=0, Eps=   4.7113, EpsInf=   2.0906)
          Differentiating once with respect to magnetic field using GIAOs.
          Electric field/nuclear overlap derivatives assumed to be zero.
 FoFJK:  IHMeth= 1 ICntrl=    6127 DoSepK=F KAlg= 0 I1Cent=   0 FoldK=F
 IRaf=         1 NMat=   1 IRICut=       1 DoRegI=T DoRafI=F ISym2E= 0.
          There are     3 degrees of freedom in the 1st order CPHF.  IDoFFX=0 NUNeed=     3.
      3 vectors produced by pass  0 Test12= 6.46D-13 3.33D-08 XBig12= 4.06D+01 2.06D+00.
 AX will form     3 AO Fock derivatives at one time.
      3 vectors produced by pass  1 Test12= 6.46D-13 3.33D-08 XBig12= 1.40D-01 1.96D-01.
      3 vectors produced by pass  2 Test12= 6.46D-13 3.33D-08 XBig12= 6.37D-04 6.91D-03.
      3 vectors produced by pass  3 Test12= 6.46D-13 3.33D-08 XBig12= 1.39D-06 2.56D-04.
      3 vectors produced by pass  4 Test12= 6.46D-13 3.33D-08 XBig12= 3.75D-09 1.45D-05.
      3 vectors produced by pass  5 Test12= 6.46D-13 3.33D-08 XBig12= 1.72D-11 8.05D-07.
      1 vectors produced by pass  6 Test12= 6.46D-13 3.33D-08 XBig12= 4.03D-14 4.13D-08.
 InvSVY:  IOpt=1 It=  1 EMax= 1.78D-15
 Solved reduced A of dimension    19 with     3 vectors.
 Calculating GIAO nuclear magnetic shielding tensors.
 SCF GIAO Magnetic shielding tensor (ppm):
      1  C    Isotropic =   175.2023   Anisotropy =    19.9520
   XX=   165.8097   YX=    -0.0951   ZX=    -4.2595
   XY=     0.2521   YY=   173.0180   ZY=     5.0917
   XZ=    -4.2765   YZ=     2.4939   ZZ=   186.7792
   Eigenvalues:   164.8880   172.2152   188.5036
      2  C    Isotropic =   156.6685   Anisotropy =    34.7120
   XX=   143.1772   YX=   -10.0848   ZX=   -10.7532
   XY=    -9.9534   YY=   152.4591   ZY=   -13.6746
   XZ=   -10.6382   YZ=    -7.2813   ZZ=   174.3691
   Eigenvalues:   131.7019   158.4937   179.8098
      3  C    Isotropic =   122.7528   Anisotropy =    25.8225
   XX=   121.5167   YX=     1.3417   ZX=    -4.9638
   XY=    -1.5651   YY=   112.5286   ZY=     2.6130
   XZ=   -10.3465   YZ=    14.1176   ZZ=   134.2131
   Eigenvalues:   109.1429   119.1477   139.9678
      4  C    Isotropic =   151.9882   Anisotropy =     9.0228
   XX=   156.8863   YX=     2.6863   ZX=     2.1880
   XY=     4.0653   YY=   146.4244   ZY=    -7.7302
   XZ=     0.2703   YZ=     4.9944   ZZ=   152.6540
   Eigenvalues:   145.0644   152.8969   158.0034
      5  C    Isotropic =   122.6262   Anisotropy =    56.9979
   XX=   110.0561   YX=    -0.8496   ZX=   -11.8041
   XY=     0.3092   YY=   113.0911   ZY=    22.2624
   XZ=   -10.2130   YZ=    28.2772   ZZ=   144.7314
   Eigenvalues:    96.8677   110.3860   160.6248
      6  O    Isotropic =   317.1566   Anisotropy =    99.2155
   XX=   381.9031   YX=    -0.4968   ZX=     3.0825
   XY=     8.3843   YY=   295.9385   ZY=    13.2986
   XZ=    19.4035   YZ=    -0.2616   ZZ=   273.6280
   Eigenvalues:   270.9799   297.1895   383.3002
      7  N    Isotropic =   195.3615   Anisotropy =    29.1265
   XX=   173.3509   YX=    -4.4748   ZX=    -7.5736
   XY=    -7.6191   YY=   212.2577   ZY=    -8.6182
   XZ=   -24.1346   YZ=    -3.3578   ZZ=   200.4759
   Eigenvalues:   164.6993   206.6060   214.7792
      8  C    Isotropic =   144.8548   Anisotropy =    53.2586
   XX=   156.5069   YX=    18.3436   ZX=   -20.9931
   XY=    16.1378   YY=   131.9395   ZY=   -12.2666
   XZ=   -16.1221   YZ=   -14.2813   ZZ=   146.1181
   Eigenvalues:   122.1603   132.0436   180.3606
      9  C    Isotropic =    54.3059   Anisotropy =   186.5204
   XX=     1.1202   YX=    18.1205   ZX=   -96.5756
   XY=    16.9461   YY=    43.1025   ZY=   -23.5188
   XZ=   -95.5832   YZ=   -22.7796   ZZ=   118.6949
   Eigenvalues:   -52.9012    37.1660   178.6528
     10  C    Isotropic =    70.2604   Anisotropy =   149.3753
   XX=    69.4336   YX=    33.9378   ZX=   -48.9012
   XY=    42.1406   YY=     3.7483   ZY=   -16.7066
   XZ=   -47.9287   YZ=   -20.0970   ZZ=   137.5992
   Eigenvalues:   -13.7583    54.6955   169.8439
     11  C    Isotropic =    19.1682   Anisotropy =    97.9083
   XX=    36.1090   YX=   -29.3479   ZX=   -35.6639
   XY=   -22.2214   YY=   -33.8938   ZY=   -40.6681
   XZ=   -32.0434   YZ=   -43.1493   ZZ=    55.2895
   Eigenvalues:   -64.2179    37.2822    84.4404
     12  C    Isotropic =    66.7332   Anisotropy =   141.6735
   XX=    54.4865   YX=    19.5876   ZX=   -58.4202
   XY=    17.4970   YY=    27.9544   ZY=   -29.1277
   XZ=   -56.6428   YZ=   -31.1829   ZZ=   117.7588
   Eigenvalues:    18.3833    20.6342   161.1823
     13  C    Isotropic =    20.1948   Anisotropy =   101.5189
   XX=    28.9619   YX=    48.2444   ZX=   -21.7071
   XY=    46.4029   YY=   -39.5503   ZY=    -5.3015
   XZ=   -26.4439   YZ=    -5.5596   ZZ=    71.1728
   Eigenvalues:   -64.0019    36.7122    87.8741
     14  C    Isotropic =    70.9417   Anisotropy =   149.0438
   XX=    73.7228   YX=    -4.2679   ZX=   -56.2904
   XY=   -11.9211   YY=    12.3731   ZY=   -45.5979
   XZ=   -58.6435   YZ=   -40.8539   ZZ=   126.7291
   Eigenvalues:   -12.0095    54.5303   170.3042
     15  H    Isotropic =    24.5121   Anisotropy =     3.1299
   XX=    25.1025   YX=    -0.4793   ZX=     1.8198
   XY=    -0.5976   YY=    26.3375   ZY=     1.0536
   XZ=     1.7858   YZ=     1.0370   ZZ=    22.0964
   Eigenvalues:    20.9939    25.9438    26.5987
     16  H    Isotropic =    25.1452   Anisotropy =     4.9158
   XX=    27.2073   YX=    -0.6797   ZX=     2.5951
   XY=    -0.3025   YY=    25.3189   ZY=     1.0604
   XZ=     2.5805   YZ=     0.8960   ZZ=    22.9093
   Eigenvalues:    21.3898    25.6234    28.4223
     17  H    Isotropic =    25.1781   Anisotropy =     4.8818
   XX=    27.2356   YX=    -0.3292   ZX=     2.7360
   XY=    -0.7051   YY=    25.6477   ZY=     0.5948
   XZ=     2.4762   YZ=     0.6047   ZZ=    22.6510
   Eigenvalues:    21.3384    25.7632    28.4326
     18  F    Isotropic =   305.8058   Anisotropy =   142.0593
   XX=   265.9971   YX=    15.4946   ZX=   -65.8469
   XY=    33.0012   YY=   279.3654   ZY=    -1.8363
   XZ=   -54.2745   YZ=    -4.1877   ZZ=   372.0550
   Eigenvalues:   229.9261   286.9794   400.5120
     19  F    Isotropic =   302.3981   Anisotropy =   121.4956
   XX=   280.7261   YX=   -12.3659   ZX=   -66.1102
   XY=   -12.6080   YY=   288.4941   ZY=   -30.8036
   XZ=   -60.9412   YZ=   -32.4416   ZZ=   337.9741
   Eigenvalues:   226.7520   297.0472   383.3952
     20  H    Isotropic =    31.3775   Anisotropy =     8.2907
   XX=    34.6916   YX=    -1.6790   ZX=    -2.4493
   XY=    -1.7411   YY=    26.6594   ZY=    -0.2262
   XZ=    -3.2429   YZ=    -0.1079   ZZ=    32.7816
   Eigenvalues:    26.2164    31.0116    36.9046
     21  H    Isotropic =    31.2879   Anisotropy =    11.4221
   XX=    27.1643   YX=    -0.7493   ZX=    -0.6417
   XY=    -0.7764   YY=    30.1376   ZY=    -4.0302
   XZ=    -0.3028   YZ=    -5.0279   ZZ=    36.5619
   Eigenvalues:    26.5317    28.4295    38.9027
     22  H    Isotropic =    31.7115   Anisotropy =     7.9034
   XX=    29.4049   YX=     2.0819   ZX=     0.4871
   XY=     3.3816   YY=    31.7380   ZY=     2.8809
   XZ=     0.8238   YZ=     3.7127   ZZ=    33.9916
   Eigenvalues:    27.2883    30.8658    36.9805
     23  H    Isotropic =    31.0640   Anisotropy =     7.2983
   XX=    34.2479   YX=    -2.9637   ZX=    -1.0880
   XY=    -3.7308   YY=    27.8318   ZY=    -1.9658
   XZ=    -3.0730   YZ=    -2.7282   ZZ=    31.1123
   Eigenvalues:    24.9462    32.3162    35.9295
     24  H    Isotropic =    30.4391   Anisotropy =     5.3064
   XX=    28.5735   YX=     1.9243   ZX=    -0.0520
   XY=     2.8526   YY=    32.8610   ZY=    -0.1570
   XZ=    -0.3537   YZ=    -0.6529   ZZ=    29.8829
   Eigenvalues:    27.5076    29.8330    33.9767
     25  H    Isotropic =    30.6461   Anisotropy =     6.7851
   XX=    28.3374   YX=    -3.4280   ZX=    -1.8643
   XY=    -2.7239   YY=    29.2085   ZY=    -0.2332
   XZ=    -1.6718   YZ=     1.0601   ZZ=    34.3924
   Eigenvalues:    25.5335    31.2353    35.1695
     26  H    Isotropic =    28.6359   Anisotropy =     8.5397
   XX=    33.7796   YX=    -0.6530   ZX=    -0.4302
   XY=    -1.1935   YY=    25.3275   ZY=     1.4568
   XZ=    -2.7471   YZ=     2.5590   ZZ=    26.8008
   Eigenvalues:    23.9228    27.6559    34.3291
     27  H    Isotropic =    27.9590   Anisotropy =     5.2000
   XX=    27.6954   YX=     3.0604   ZX=    -0.9396
   XY=     2.3635   YY=    26.4603   ZY=    -0.1505
   XZ=    -1.1993   YZ=    -2.3858   ZZ=    29.7214
   Eigenvalues:    24.2754    28.1760    31.4257
     28  H    Isotropic =    27.9585   Anisotropy =    24.3912
   XX=    44.1686   YX=    -0.3214   ZX=     1.7827
   XY=    -0.2104   YY=    17.6386   ZY=     5.2686
   XZ=     0.3350   YZ=     4.7543   ZZ=    22.0681
   Eigenvalues:    14.3528    25.3033    44.2192
     29  H    Isotropic =    28.3002   Anisotropy =     7.7567
   XX=    28.0619   YX=    -0.2913   ZX=    -2.7938
   XY=    -0.1802   YY=    23.8195   ZY=     0.2360
   XZ=     0.1316   YZ=     1.8406   ZZ=    33.0191
   Eigenvalues:    23.7020    27.7273    33.4713
     30  H    Isotropic =    28.2643   Anisotropy =     4.7694
   XX=    29.9926   YX=     1.3170   ZX=     0.1387
   XY=    -0.3443   YY=    30.2059   ZY=    -1.9553
   XZ=     1.4045   YZ=    -3.8239   ZZ=    24.5943
   Eigenvalues:    23.2522    30.0968    31.4439
     31  H    Isotropic =    29.6740   Anisotropy =     6.0548
   XX=    33.0210   YX=     1.5479   ZX=    -0.5988
   XY=     2.3037   YY=    27.8192   ZY=     0.4531
   XZ=    -1.2791   YZ=     1.8377   ZZ=    28.1819
   Eigenvalues:    26.2010    29.1106    33.7106
     32  C    Isotropic =   170.0091   Anisotropy =    26.0050
   XX=   173.9824   YX=     0.6967   ZX=     7.9280
   XY=     0.6019   YY=   178.5820   ZY=   -13.0347
   XZ=     6.6092   YZ=   -17.7662   ZZ=   157.4629
   Eigenvalues:   147.6166   175.0649   187.3458
     33  H    Isotropic =    30.0717   Anisotropy =     4.3429
   XX=    28.2645   YX=    -0.8572   ZX=    -0.3119
   XY=    -0.9879   YY=    29.4211   ZY=    -1.5474
   XZ=    -0.5128   YZ=    -0.9384   ZZ=    32.5295
   Eigenvalues:    27.5544    29.6937    32.9670
     34  H    Isotropic =    30.9450   Anisotropy =    11.4006
   XX=    33.7133   YX=    -4.9776   ZX=     0.9359
   XY=    -5.1201   YY=    32.3735   ZY=    -2.0613
   XZ=     1.6857   YZ=    -1.6055   ZZ=    26.7483
   Eigenvalues:    26.1940    28.0956    38.5454
     35  H    Isotropic =    31.0871   Anisotropy =     7.9952
   XX=    31.5902   YX=     2.1488   ZX=     1.8635
   XY=     2.6126   YY=    35.2122   ZY=    -0.0151
   XZ=     0.6369   YZ=    -0.1266   ZZ=    26.4590
   Eigenvalues:    26.1259    30.7182    36.4173
     36  H    Isotropic =    30.9146   Anisotropy =    10.4765
   XX=    31.4921   YX=    -2.9585   ZX=    -3.6331
   XY=    -3.8983   YY=    35.8292   ZY=    -0.5181
   XZ=    -5.3914   YZ=    -1.3541   ZZ=    25.4224
   Eigenvalues:    22.5510    32.2938    37.8989
 End of Minotr F.D. properties file   721 does not exist.
 End of Minotr F.D. properties file   722 does not exist.
 End of Minotr F.D. properties file   788 does not exist.

 **********************************************************************

            Population analysis using the SCF density.

 **********************************************************************

 Orbital symmetries:
       Occupied  (A) (A) (A) (A) (A) (A) (A) (A) (A) (A) (A) (A)
                 (A) (A) (A) (A) (A) (A) (A) (A) (A) (A) (A) (A)
                 (A) (A) (A) (A) (A) (A) (A) (A) (A) (A) (A) (A)
                 (A) (A) (A) (A) (A) (A) (A) (A) (A) (A) (A) (A)
                 (A) (A) (A) (A) (A) (A) (A) (A) (A) (A) (A) (A)
                 (A) (A) (A) (A) (A)
       Virtual   (A) (A) (A) (A) (A) (A) (A) (A) (A) (A) (A) (A)
                 (A) (A) (A) (A) (A) (A) (A) (A) (A) (A) (A) (A)
                 (A) (A) (A) (A) (A) (A) (A) (A) (A) (A) (A) (A)
                 (A) (A) (A) (A) (A) (A) (A) (A) (A) (A) (A) (A)
                 (A) (A) (A) (A) (A) (A) (A) (A) (A) (A) (A) (A)
                 (A) (A) (A) (A) (A) (A) (A) (A) (A) (A) (A) (A)
                 (A) (A) (A) (A) (A) (A) (A) (A) (A) (A) (A) (A)
                 (A) (A) (A) (A) (A) (A) (A) (A) (A) (A) (A) (A)
                 (A) (A) (A) (A) (A) (A) (A) (A) (A) (A) (A) (A)
                 (A) (A) (A) (A) (A) (A) (A) (A) (A) (A) (A) (A)
                 (A) (A) (A) (A) (A) (A) (A) (A) (A) (A) (A) (A)
                 (A) (A) (A) (A) (A) (A) (A) (A) (A) (A) (A) (A)
                 (A) (A) (A) (A) (A) (A) (A) (A) (A) (A) (A) (A)
                 (A) (A) (A) (A) (A) (A) (A) (A) (A) (A) (A) (A)
                 (A) (A) (A) (A) (A) (A) (A) (A) (A) (A) (A) (A)
                 (A) (A) (A) (A) (A) (A) (A) (A) (A) (A) (A) (A)
                 (A) (A) (A) (A) (A) (A) (A) (A) (A) (A) (A) (A)
                 (A) (A) (A) (A) (A) (A) (A) (A) (A) (A) (A) (A)
                 (A) (A) (A) (A) (A) (A) (A) (A) (A) (A) (A) (A)
                 (A) (A) (A) (A) (A) (A) (A) (A) (A) (A) (A) (A)
                 (A) (A) (A) (A) (A) (A) (A) (A) (A) (A) (A) (A)
                 (A) (A) (A) (A) (A) (A) (A) (A) (A) (A) (A) (A)
                 (A) (A) (A) (A) (A) (A) (A) (A) (A) (A) (A) (A)
                 (A) (A) (A) (A) (A) (A) (A) (A) (A) (A) (A) (A)
                 (A) (A) (A) (A) (A) (A) (A) (A) (A) (A)
 The electronic state is 1-A.
 Alpha  occ. eigenvalues --  -24.81138 -24.80697 -19.17803 -14.39635 -10.34188
 Alpha  occ. eigenvalues --  -10.34087 -10.27461 -10.26846 -10.26699 -10.26273
 Alpha  occ. eigenvalues --  -10.26225 -10.25550 -10.25487 -10.23517 -10.23312
 Alpha  occ. eigenvalues --  -10.22083 -10.21506  -1.28386  -1.27968  -1.02511
 Alpha  occ. eigenvalues --   -0.95208  -0.90781  -0.83235  -0.80380  -0.78971
 Alpha  occ. eigenvalues --   -0.78493  -0.72327  -0.69077  -0.67768  -0.66352
 Alpha  occ. eigenvalues --   -0.64129  -0.62803  -0.59481  -0.58391  -0.55956
 Alpha  occ. eigenvalues --   -0.52746  -0.52329  -0.52051  -0.51018  -0.50093
 Alpha  occ. eigenvalues --   -0.49416  -0.47769  -0.47401  -0.47240  -0.46368
 Alpha  occ. eigenvalues --   -0.45072  -0.44591  -0.42418  -0.41864  -0.41503
 Alpha  occ. eigenvalues --   -0.40671  -0.39860  -0.38665  -0.38292  -0.38136
 Alpha  occ. eigenvalues --   -0.38059  -0.37202  -0.36213  -0.33798  -0.33204
 Alpha  occ. eigenvalues --   -0.32285  -0.28035  -0.27135  -0.26449  -0.25217
 Alpha virt. eigenvalues --   -0.02465  -0.01283   0.05072   0.05548   0.06932
 Alpha virt. eigenvalues --    0.07169   0.08032   0.10123   0.10155   0.10577
 Alpha virt. eigenvalues --    0.11016   0.11248   0.11881   0.13102   0.13370
 Alpha virt. eigenvalues --    0.14029   0.14350   0.15009   0.15627   0.16208
 Alpha virt. eigenvalues --    0.16866   0.17378   0.18454   0.18963   0.20360
 Alpha virt. eigenvalues --    0.20840   0.22032   0.23567   0.24297   0.24745
 Alpha virt. eigenvalues --    0.25391   0.26650   0.27210   0.28640   0.29083
 Alpha virt. eigenvalues --    0.31810   0.32497   0.32761   0.33921   0.34558
 Alpha virt. eigenvalues --    0.36535   0.36721   0.37619   0.38320   0.39401
 Alpha virt. eigenvalues --    0.40525   0.41087   0.41325   0.41822   0.42712
 Alpha virt. eigenvalues --    0.43000   0.44563   0.45233   0.45624   0.46335
 Alpha virt. eigenvalues --    0.47256   0.48954   0.50163   0.50523   0.52126
 Alpha virt. eigenvalues --    0.52462   0.53177   0.53881   0.54521   0.55282
 Alpha virt. eigenvalues --    0.55647   0.57026   0.57270   0.58722   0.59048
 Alpha virt. eigenvalues --    0.59612   0.59850   0.60189   0.61269   0.61861
 Alpha virt. eigenvalues --    0.62592   0.62970   0.63288   0.63780   0.64521
 Alpha virt. eigenvalues --    0.65033   0.65611   0.65992   0.66792   0.67118
 Alpha virt. eigenvalues --    0.68095   0.69103   0.70014   0.70812   0.70978
 Alpha virt. eigenvalues --    0.73358   0.74331   0.74534   0.76177   0.76591
 Alpha virt. eigenvalues --    0.78710   0.80181   0.82164   0.82974   0.84004
 Alpha virt. eigenvalues --    0.88716   0.89059   0.90980   0.92406   0.93115
 Alpha virt. eigenvalues --    0.94598   0.96528   0.98353   0.99609   1.01854
 Alpha virt. eigenvalues --    1.03314   1.03408   1.03851   1.05449   1.06938
 Alpha virt. eigenvalues --    1.08190   1.08873   1.10701   1.12502   1.13886
 Alpha virt. eigenvalues --    1.16572   1.18819   1.19789   1.21956   1.23756
 Alpha virt. eigenvalues --    1.26196   1.27945   1.28364   1.31219   1.33011
 Alpha virt. eigenvalues --    1.34513   1.36002   1.38273   1.40130   1.40871
 Alpha virt. eigenvalues --    1.43855   1.46293   1.47377   1.48807   1.49785
 Alpha virt. eigenvalues --    1.52068   1.52419   1.54383   1.54990   1.55476
 Alpha virt. eigenvalues --    1.56551   1.58875   1.59518   1.60117   1.60969
 Alpha virt. eigenvalues --    1.61897   1.63430   1.65168   1.66824   1.67656
 Alpha virt. eigenvalues --    1.68073   1.68884   1.70586   1.72596   1.73175
 Alpha virt. eigenvalues --    1.74239   1.77044   1.77885   1.80454   1.81470
 Alpha virt. eigenvalues --    1.83963   1.84629   1.85705   1.86769   1.88293
 Alpha virt. eigenvalues --    1.89328   1.90592   1.91151   1.92901   1.95287
 Alpha virt. eigenvalues --    1.96737   1.98433   1.99359   2.01717   2.04169
 Alpha virt. eigenvalues --    2.09095   2.11780   2.16936   2.17671   2.18698
 Alpha virt. eigenvalues --    2.21766   2.24075   2.25734   2.26844   2.27812
 Alpha virt. eigenvalues --    2.31164   2.31839   2.34666   2.38723   2.40043
 Alpha virt. eigenvalues --    2.42214   2.43050   2.44788   2.45549   2.45835
 Alpha virt. eigenvalues --    2.48904   2.49983   2.50714   2.51393   2.55732
 Alpha virt. eigenvalues --    2.56597   2.57686   2.59907   2.63232   2.64244
 Alpha virt. eigenvalues --    2.67118   2.68407   2.70605   2.73361   2.75710
 Alpha virt. eigenvalues --    2.76576   2.84202   2.85143   2.85908   2.86665
 Alpha virt. eigenvalues --    2.90330   2.92645   2.98092   3.01919   3.06004
 Alpha virt. eigenvalues --    3.07156   3.08054   3.10164   3.11321   3.12227
 Alpha virt. eigenvalues --    3.12927   3.16548   3.16941   3.21144   3.22858
 Alpha virt. eigenvalues --    3.25226   3.26701   3.27649   3.28488   3.29585
 Alpha virt. eigenvalues --    3.30034   3.30620   3.34284   3.38188   3.40222
 Alpha virt. eigenvalues --    3.45906   3.47866   3.50326   3.59643   3.64773
 Alpha virt. eigenvalues --    3.75344   3.79048   3.79236   3.79716   3.80503
 Alpha virt. eigenvalues --    3.86136   3.87639   3.95918   3.96312   3.99324
 Alpha virt. eigenvalues --    3.99870   4.03927   4.07539   4.10024   4.12337
 Alpha virt. eigenvalues --    4.17545   4.24382   4.46902   4.75155   4.76765
 Alpha virt. eigenvalues --    4.78054   4.80450   4.95241   5.08173   5.45668
 Alpha virt. eigenvalues --    6.13146   6.15386   6.30948   6.32346   6.56468
 Alpha virt. eigenvalues --    6.59254  23.29494  23.46807  23.58157  23.69911
 Alpha virt. eigenvalues --   23.74040  23.78256  23.83320  23.85966  23.86686
 Alpha virt. eigenvalues --   23.89874  24.08532  24.10695  24.19142  35.57381
 Alpha virt. eigenvalues --   50.00540  66.89042  66.89858
          Condensed to atoms (all electrons):
               1          2          3          4          5          6
     1  C    5.351579   0.298410  -0.072664   0.002117  -0.001460   0.000088
     2  C    0.298410   5.343327   0.323752  -0.072868  -0.001819  -0.002260
     3  C   -0.072664   0.323752   5.401739   0.291537  -0.071271   0.000738
     4  C    0.002117  -0.072868   0.291537   5.471937   0.316307  -0.047872
     5  C   -0.001460  -0.001819  -0.071271   0.316307   5.096336   0.243982
     6  O    0.000088  -0.002260   0.000738  -0.047872   0.243982   8.244236
     7  N    0.006098  -0.045446   0.197673  -0.066574   0.002492  -0.031702
     8  C   -0.000703   0.005999  -0.074344  -0.002377   0.000382   0.000179
     9  C   -0.000001  -0.000009   0.000019  -0.000001   0.000000   0.000000
    10  C    0.000001  -0.000013  -0.000083   0.000003   0.000000   0.000000
    11  C    0.000017   0.000888   0.000641   0.000003  -0.000003  -0.000002
    12  C    0.000042   0.001089  -0.015238  -0.000522  -0.000036  -0.000002
    13  C    0.000006   0.000207  -0.000166   0.000045  -0.000002   0.000000
    14  C   -0.000008   0.000070  -0.000144   0.000007   0.000000   0.000000
    15  H    0.000000   0.000000   0.000000   0.000000   0.000000   0.000000
    16  H    0.000000   0.000005  -0.000003   0.000000   0.000000   0.000000
    17  H    0.000000   0.000000   0.000004   0.000000   0.000000   0.000000
    18  F   -0.000002  -0.000318   0.000072  -0.000004   0.000000   0.000000
    19  F    0.000003  -0.000014  -0.001485   0.000029  -0.000001   0.000000
    20  H    0.387402  -0.036802  -0.009766   0.003182   0.000213  -0.000081
    21  H    0.389747  -0.035442   0.008099  -0.000117  -0.000087   0.000003
    22  H    0.387395  -0.044280  -0.002813  -0.001692   0.000247  -0.000005
    23  H   -0.036743   0.402237  -0.047822   0.009008  -0.000290  -0.000054
    24  H   -0.041214   0.392541  -0.036428  -0.012851   0.004075   0.000847
    25  H    0.001158  -0.008967  -0.048353   0.388864  -0.037564   0.004928
    26  H    0.000147  -0.000647   0.009777  -0.030310   0.388703  -0.033591
    27  H   -0.000574   0.005309  -0.017013  -0.043871   0.393540  -0.039941
    28  H   -0.000279   0.000839   0.000049  -0.009088  -0.062171   0.262113
    29  H    0.000021  -0.000421   0.007433  -0.000236   0.000050   0.000270
    30  H    0.000026   0.000017  -0.005693   0.000688   0.000131  -0.000068
    31  H   -0.003840  -0.040107   0.412798  -0.064139   0.006647  -0.000377
    32  C   -0.000391   0.008347  -0.091623   0.293140  -0.092098   0.000479
    33  H   -0.000026  -0.000001  -0.015584  -0.035586  -0.010960   0.019770
    34  H    0.000016  -0.000291   0.008240  -0.033358  -0.003687  -0.000810
    35  H   -0.000011   0.000246  -0.003779  -0.043602   0.007772   0.000082
    36  H    0.000766  -0.005283  -0.056717   0.004379   0.000808   0.001759
               7          8          9         10         11         12
     1  C    0.006098  -0.000703  -0.000001   0.000001   0.000017   0.000042
     2  C   -0.045446   0.005999  -0.000009  -0.000013   0.000888   0.001089
     3  C    0.197673  -0.074344   0.000019  -0.000083   0.000641  -0.015238
     4  C   -0.066574  -0.002377  -0.000001   0.000003   0.000003  -0.000522
     5  C    0.002492   0.000382   0.000000   0.000000  -0.000003  -0.000036
     6  O   -0.031702   0.000179   0.000000   0.000000  -0.000002  -0.000002
     7  N    7.047934   0.276214  -0.000020   0.000488  -0.001368  -0.068659
     8  C    0.276214   5.326911  -0.001228   0.007670  -0.081462   0.256678
     9  C   -0.000020  -0.001228   5.056846   0.435517  -0.006542  -0.059064
    10  C    0.000488   0.007670   0.435517   5.182102   0.482452  -0.032280
    11  C   -0.001368  -0.081462  -0.006542   0.482452   4.770660   0.236529
    12  C   -0.068659   0.256678  -0.059064  -0.032280   0.236529   5.847772
    13  C    0.003414  -0.069953  -0.003041  -0.064489   0.048032   0.296132
    14  C   -0.000179   0.009239   0.434055  -0.035297  -0.060232  -0.028377
    15  H   -0.000001   0.000027   0.405571  -0.041906   0.006575  -0.002128
    16  H    0.000043  -0.000307  -0.040572   0.393206  -0.051372   0.012535
    17  H    0.000013  -0.000251  -0.041615   0.007347  -0.001533   0.012356
    18  F   -0.004311   0.007581   0.005468  -0.053890   0.312082  -0.086634
    19  F    0.000053  -0.007848   0.005629  -0.000513   0.005296  -0.073176
    20  H   -0.000096  -0.000021   0.000000   0.000000   0.000001  -0.000003
    21  H   -0.000202   0.000030   0.000000   0.000000   0.000001  -0.000011
    22  H   -0.000033   0.000003   0.000000  -0.000006  -0.000009   0.000194
    23  H   -0.001163  -0.001516   0.000035   0.000234   0.000695  -0.000211
    24  H   -0.001116   0.000349   0.000001  -0.000007  -0.000017   0.000299
    25  H    0.005413  -0.000229   0.000000   0.000000  -0.000002   0.000101
    26  H   -0.000740   0.000022   0.000000   0.000000   0.000000   0.000002
    27  H    0.000001  -0.000089   0.000000   0.000000   0.000004  -0.000016
    28  H    0.054525  -0.001146   0.000000  -0.000002  -0.000035   0.001231
    29  H   -0.034260   0.407302  -0.000054   0.000333  -0.009317  -0.057221
    30  H   -0.027876   0.400309  -0.000294   0.000086   0.005913  -0.056472
    31  H   -0.041661  -0.003710  -0.000031  -0.000038   0.000385  -0.003541
    32  C   -0.000229  -0.000996   0.000000   0.000000   0.000005   0.000193
    33  H    0.006812  -0.001823   0.000000   0.000000   0.000003   0.000304
    34  H   -0.000401   0.000232   0.000000   0.000000   0.000000  -0.000008
    35  H    0.000057  -0.000630  -0.000002   0.000001   0.000003  -0.000069
    36  H    0.337600  -0.048398  -0.000158   0.000729   0.000466  -0.011966
              13         14         15         16         17         18
     1  C    0.000006  -0.000008   0.000000   0.000000   0.000000  -0.000002
     2  C    0.000207   0.000070   0.000000   0.000005   0.000000  -0.000318
     3  C   -0.000166  -0.000144   0.000000  -0.000003   0.000004   0.000072
     4  C    0.000045   0.000007   0.000000   0.000000   0.000000  -0.000004
     5  C   -0.000002   0.000000   0.000000   0.000000   0.000000   0.000000
     6  O    0.000000   0.000000   0.000000   0.000000   0.000000   0.000000
     7  N    0.003414  -0.000179  -0.000001   0.000043   0.000013  -0.004311
     8  C   -0.069953   0.009239   0.000027  -0.000307  -0.000251   0.007581
     9  C   -0.003041   0.434055   0.405571  -0.040572  -0.041615   0.005468
    10  C   -0.064489  -0.035297  -0.041906   0.393206   0.007347  -0.053890
    11  C    0.048032  -0.060232   0.006575  -0.051372  -0.001533   0.312082
    12  C    0.296132  -0.028377  -0.002128   0.012535   0.012356  -0.086634
    13  C    4.723412   0.469823   0.006262  -0.001270  -0.048697   0.004525
    14  C    0.469823   5.191497  -0.040911   0.007071   0.392133  -0.000578
    15  H    0.006262  -0.040911   0.444857  -0.006724  -0.006610  -0.000070
    16  H   -0.001270   0.007071  -0.006724   0.448968  -0.000167   0.001516
    17  H   -0.048697   0.392133  -0.006610  -0.000167   0.449888   0.000004
    18  F    0.004525  -0.000578  -0.000070   0.001516   0.000004   9.031147
    19  F    0.304173  -0.055235  -0.000071   0.000004   0.001248  -0.000001
    20  H   -0.000002   0.000000   0.000000   0.000000   0.000000   0.000000
    21  H   -0.000001  -0.000001   0.000000   0.000000   0.000000   0.000000
    22  H    0.000094   0.000034   0.000000   0.000000   0.000001   0.000000
    23  H   -0.000267   0.000066  -0.000002   0.000033   0.000005   0.000342
    24  H   -0.000004  -0.000003   0.000000  -0.000001   0.000000  -0.000091
    25  H    0.000017  -0.000001   0.000000   0.000000   0.000000   0.000000
    26  H    0.000000   0.000000   0.000000   0.000000   0.000000   0.000000
    27  H    0.000000   0.000000   0.000000   0.000000   0.000000   0.000000
    28  H   -0.000035   0.000001   0.000000   0.000000   0.000000  -0.000078
    29  H    0.003865  -0.000148   0.000001  -0.000009   0.000016   0.003302
    30  H   -0.009766   0.001635   0.000004   0.000009  -0.000044   0.000143
    31  H   -0.001244  -0.000530   0.000004  -0.000007  -0.000055   0.000015
    32  C    0.000020  -0.000002   0.000000   0.000000   0.000000   0.000000
    33  H    0.000018  -0.000001   0.000000   0.000000   0.000000   0.000001
    34  H   -0.000002   0.000000   0.000000   0.000000   0.000000   0.000000
    35  H   -0.000128   0.000017   0.000000   0.000000   0.000001   0.000000
    36  H   -0.000431   0.000109   0.000003   0.000029  -0.000001   0.014720
              19         20         21         22         23         24
     1  C    0.000003   0.387402   0.389747   0.387395  -0.036743  -0.041214
     2  C   -0.000014  -0.036802  -0.035442  -0.044280   0.402237   0.392541
     3  C   -0.001485  -0.009766   0.008099  -0.002813  -0.047822  -0.036428
     4  C    0.000029   0.003182  -0.000117  -0.001692   0.009008  -0.012851
     5  C   -0.000001   0.000213  -0.000087   0.000247  -0.000290   0.004075
     6  O    0.000000  -0.000081   0.000003  -0.000005  -0.000054   0.000847
     7  N    0.000053  -0.000096  -0.000202  -0.000033  -0.001163  -0.001116
     8  C   -0.007848  -0.000021   0.000030   0.000003  -0.001516   0.000349
     9  C    0.005629   0.000000   0.000000   0.000000   0.000035   0.000001
    10  C   -0.000513   0.000000   0.000000  -0.000006   0.000234  -0.000007
    11  C    0.005296   0.000001   0.000001  -0.000009   0.000695  -0.000017
    12  C   -0.073176  -0.000003  -0.000011   0.000194  -0.000211   0.000299
    13  C    0.304173  -0.000002  -0.000001   0.000094  -0.000267  -0.000004
    14  C   -0.055235   0.000000  -0.000001   0.000034   0.000066  -0.000003
    15  H   -0.000071   0.000000   0.000000   0.000000  -0.000002   0.000000
    16  H    0.000004   0.000000   0.000000   0.000000   0.000033  -0.000001
    17  H    0.001248   0.000000   0.000000   0.000001   0.000005   0.000000
    18  F   -0.000001   0.000000   0.000000   0.000000   0.000342  -0.000091
    19  F    9.036516   0.000000   0.000000  -0.000054  -0.000007  -0.000001
    20  H    0.000000   0.476827  -0.027487  -0.027725   0.007054  -0.006991
    21  H    0.000000  -0.027487   0.472324  -0.026628  -0.007006  -0.003112
    22  H   -0.000054  -0.027725  -0.026628   0.481513  -0.004264   0.007373
    23  H   -0.000007   0.007054  -0.007006  -0.004264   0.484593  -0.035675
    24  H   -0.000001  -0.006991  -0.003112   0.007373  -0.035675   0.487365
    25  H   -0.000014   0.000391   0.000408   0.000128  -0.000004   0.000005
    26  H    0.000000  -0.000280  -0.000003   0.000009   0.000006   0.000204
    27  H    0.000000   0.002816  -0.000032  -0.000095   0.000429  -0.001963
    28  H    0.000001   0.000038   0.000010   0.000003  -0.000142   0.000990
    29  H    0.000116   0.000000  -0.000001   0.000002  -0.000030   0.000040
    30  H    0.013023  -0.000005   0.000000  -0.000003   0.000023  -0.000024
    31  H    0.007720  -0.000255  -0.000088   0.004685  -0.007642   0.007275
    32  C   -0.000335   0.000563   0.000010  -0.000191  -0.000232  -0.000329
    33  H   -0.000154   0.000016   0.000002   0.000001   0.000016  -0.000045
    34  H   -0.000004   0.000013  -0.000002   0.000007   0.000018   0.000002
    35  H    0.001405   0.000027  -0.000002  -0.000014  -0.000022  -0.000011
    36  H   -0.000042  -0.000047  -0.000105   0.000039   0.001891   0.001647
              25         26         27         28         29         30
     1  C    0.001158   0.000147  -0.000574  -0.000279   0.000021   0.000026
     2  C   -0.008967  -0.000647   0.005309   0.000839  -0.000421   0.000017
     3  C   -0.048353   0.009777  -0.017013   0.000049   0.007433  -0.005693
     4  C    0.388864  -0.030310  -0.043871  -0.009088  -0.000236   0.000688
     5  C   -0.037564   0.388703   0.393540  -0.062171   0.000050   0.000131
     6  O    0.004928  -0.033591  -0.039941   0.262113   0.000270  -0.000068
     7  N    0.005413  -0.000740   0.000001   0.054525  -0.034260  -0.027876
     8  C   -0.000229   0.000022  -0.000089  -0.001146   0.407302   0.400309
     9  C    0.000000   0.000000   0.000000   0.000000  -0.000054  -0.000294
    10  C    0.000000   0.000000   0.000000  -0.000002   0.000333   0.000086
    11  C   -0.000002   0.000000   0.000004  -0.000035  -0.009317   0.005913
    12  C    0.000101   0.000002  -0.000016   0.001231  -0.057221  -0.056472
    13  C    0.000017   0.000000   0.000000  -0.000035   0.003865  -0.009766
    14  C   -0.000001   0.000000   0.000000   0.000001  -0.000148   0.001635
    15  H    0.000000   0.000000   0.000000   0.000000   0.000001   0.000004
    16  H    0.000000   0.000000   0.000000   0.000000  -0.000009   0.000009
    17  H    0.000000   0.000000   0.000000   0.000000   0.000016  -0.000044
    18  F    0.000000   0.000000   0.000000  -0.000078   0.003302   0.000143
    19  F   -0.000014   0.000000   0.000000   0.000001   0.000116   0.013023
    20  H    0.000391  -0.000280   0.002816   0.000038   0.000000  -0.000005
    21  H    0.000408  -0.000003  -0.000032   0.000010  -0.000001   0.000000
    22  H    0.000128   0.000009  -0.000095   0.000003   0.000002  -0.000003
    23  H   -0.000004   0.000006   0.000429  -0.000142  -0.000030   0.000023
    24  H    0.000005   0.000204  -0.001963   0.000990   0.000040  -0.000024
    25  H    0.506397  -0.004000  -0.000256  -0.000413   0.000034  -0.000212
    26  H   -0.004000   0.507800  -0.046281   0.004919  -0.000003   0.000048
    27  H   -0.000256  -0.046281   0.529706   0.000217   0.000005  -0.000054
    28  H   -0.000413   0.004919   0.000217   0.336750  -0.000975  -0.000619
    29  H    0.000034  -0.000003   0.000005  -0.000975   0.448168  -0.023158
    30  H   -0.000212   0.000048  -0.000054  -0.000619  -0.023158   0.422907
    31  H   -0.002959  -0.000237  -0.000277   0.001273   0.000282  -0.002300
    32  C   -0.038674  -0.012548   0.010164   0.001589   0.000038   0.000693
    33  H    0.008843  -0.003010   0.001312  -0.000332   0.000524  -0.002002
    34  H   -0.006156   0.004771  -0.000231  -0.000108  -0.000021   0.000321
    35  H   -0.004276  -0.000179  -0.000228   0.000028   0.000026   0.000647
    36  H   -0.000323   0.000137  -0.000728  -0.002282  -0.005172   0.005994
              31         32         33         34         35         36
     1  C   -0.003840  -0.000391  -0.000026   0.000016  -0.000011   0.000766
     2  C   -0.040107   0.008347  -0.000001  -0.000291   0.000246  -0.005283
     3  C    0.412798  -0.091623  -0.015584   0.008240  -0.003779  -0.056717
     4  C   -0.064139   0.293140  -0.035586  -0.033358  -0.043602   0.004379
     5  C    0.006647  -0.092098  -0.010960  -0.003687   0.007772   0.000808
     6  O   -0.000377   0.000479   0.019770  -0.000810   0.000082   0.001759
     7  N   -0.041661  -0.000229   0.006812  -0.000401   0.000057   0.337600
     8  C   -0.003710  -0.000996  -0.001823   0.000232  -0.000630  -0.048398
     9  C   -0.000031   0.000000   0.000000   0.000000  -0.000002  -0.000158
    10  C   -0.000038   0.000000   0.000000   0.000000   0.000001   0.000729
    11  C    0.000385   0.000005   0.000003   0.000000   0.000003   0.000466
    12  C   -0.003541   0.000193   0.000304  -0.000008  -0.000069  -0.011966
    13  C   -0.001244   0.000020   0.000018  -0.000002  -0.000128  -0.000431
    14  C   -0.000530  -0.000002  -0.000001   0.000000   0.000017   0.000109
    15  H    0.000004   0.000000   0.000000   0.000000   0.000000   0.000003
    16  H   -0.000007   0.000000   0.000000   0.000000   0.000000   0.000029
    17  H   -0.000055   0.000000   0.000000   0.000000   0.000001  -0.000001
    18  F    0.000015   0.000000   0.000001   0.000000   0.000000   0.014720
    19  F    0.007720  -0.000335  -0.000154  -0.000004   0.001405  -0.000042
    20  H   -0.000255   0.000563   0.000016   0.000013   0.000027  -0.000047
    21  H   -0.000088   0.000010   0.000002  -0.000002  -0.000002  -0.000105
    22  H    0.004685  -0.000191   0.000001   0.000007  -0.000014   0.000039
    23  H   -0.007642  -0.000232   0.000016   0.000018  -0.000022   0.001891
    24  H    0.007275  -0.000329  -0.000045   0.000002  -0.000011   0.001647
    25  H   -0.002959  -0.038674   0.008843  -0.006156  -0.004276  -0.000323
    26  H   -0.000237  -0.012548  -0.003010   0.004771  -0.000179   0.000137
    27  H   -0.000277   0.010164   0.001312  -0.000231  -0.000228  -0.000728
    28  H    0.001273   0.001589  -0.000332  -0.000108   0.000028  -0.002282
    29  H    0.000282   0.000038   0.000524  -0.000021   0.000026  -0.005172
    30  H   -0.002300   0.000693  -0.002002   0.000321   0.000647   0.005994
    31  H    0.484537  -0.005940  -0.000534  -0.000107   0.004924   0.003493
    32  C   -0.005940   5.433307   0.380986   0.387317   0.388102  -0.000615
    33  H   -0.000534   0.380986   0.477119  -0.027711  -0.027906  -0.000368
    34  H   -0.000107   0.387317  -0.027711   0.469790  -0.026412   0.000053
    35  H    0.004924   0.388102  -0.027906  -0.026412   0.479734  -0.000102
    36  H    0.003493  -0.000615  -0.000368   0.000053  -0.000102   0.404099
 Mulliken charges:
               1
     1  C   -0.667125
     2  C   -0.488294
     3  C   -0.091584
     4  C   -0.316177
     5  C   -0.180236
     6  O   -0.622708
     7  N   -0.612795
     8  C   -0.402096
     9  C   -0.190511
    10  C   -0.281644
    11  C    0.341243
    12  C   -0.169823
    13  C    0.339452
    14  C   -0.284112
    15  H    0.235120
    16  H    0.237014
    17  H    0.235956
    18  F   -0.234943
    19  F   -0.236262
    20  H    0.231017
    21  H    0.229692
    22  H    0.226085
    23  H    0.236407
    24  H    0.236870
    25  H    0.235718
    26  H    0.215285
    27  H    0.208146
    28  H    0.413131
    29  H    0.259198
    30  H    0.275974
    31  H    0.245582
    32  C   -0.660751
    33  H    0.230320
    34  H    0.228530
    35  H    0.224304
    36  H    0.354017
 Sum of Mulliken charges =   0.00000
 Mulliken charges with hydrogens summed into heavy atoms:
               1
     1  C    0.019669
     2  C   -0.015017
     3  C    0.153999
     4  C   -0.080459
     5  C    0.243195
     6  O   -0.209577
     7  N   -0.258778
     8  C    0.133076
     9  C    0.044608
    10  C   -0.044630
    11  C    0.341243
    12  C   -0.169823
    13  C    0.339452
    14  C   -0.048156
    18  F   -0.234943
    19  F   -0.236262
    32  C    0.022403
 Electronic spatial extent (au):  <R**2>=           4595.2613
 Charge=              0.0000 electrons
 Dipole moment (field-independent basis, Debye):
    X=              4.7085    Y=              0.4876    Z=              3.2660  Tot=              5.7510
 Quadrupole moment (field-independent basis, Debye-Ang):
   XX=           -102.3982   YY=           -103.2137   ZZ=           -104.9718
   XY=             -5.6058   XZ=             -5.9899   YZ=             -2.6636
 Traceless Quadrupole moment (field-independent basis, Debye-Ang):
   XX=              1.1297   YY=              0.3142   ZZ=             -1.4439
   XY=             -5.6058   XZ=             -5.9899   YZ=             -2.6636
 Octapole moment (field-independent basis, Debye-Ang**2):
  XXX=            107.7000  YYY=             -8.6883  ZZZ=            -13.5520  XYY=             10.7640
  XXY=             17.5095  XXZ=             60.7075  XZZ=             19.0738  YZZ=              4.0298
  YYZ=              4.3892  XYZ=             12.0639
 Hexadecapole moment (field-independent basis, Debye-Ang**3):
 XXXX=          -3896.9372 YYYY=           -981.5794 ZZZZ=           -987.5033 XXXY=           -110.7575
 XXXZ=            -22.5394 YYYX=              4.1454 YYYZ=             19.4229 ZZZX=            -24.9624
 ZZZY=             11.3767 XXYY=           -812.7735 XXZZ=           -909.7995 YYZZ=           -324.2345
 XXYZ=            -19.4253 YYXZ=              6.1156 ZZXY=             -1.2055
 N-N= 1.300864396254D+03 E-N=-4.559197890859D+03  KE= 8.333413527994D+02
 1\1\GINC-CPU-E-279\SP\RmPW1PW91\6-311G(d)\C13H19F2N1O1\AH809\04-Mar-20
 19\0\\# mPW1PW91/6-311g(d) nmr=giao scrf=(solvent=chloroform)\\AT3_1gi
 np015\\0,1\C,0,-1.070364,-0.673933,1.062245\C,0,-0.586122,0.761821,0.9
 13719\C,0,0.210881,1.286207,2.132965\C,0,-0.59697,1.245468,3.46769\C,0
 ,-1.847835,2.141967,3.466924\O,0,-1.522694,3.521702,3.356037\N,0,0.664
 516,2.661018,1.82622\C,0,2.111353,2.8553,2.016449\C,0,4.572446,0.95325
 2,-0.985917\C,0,3.714455,1.993351,-1.338255\C,0,2.923658,2.599539,-0.3
 62983\C,0,2.963027,2.189844,0.971311\C,0,3.831397,1.148425,1.302387\C,
 0,4.630087,0.529959,0.340819\H,0,5.19275,0.475829,-1.740274\H,0,3.6545
 34,2.338221,-2.366381\H,0,5.292633,-0.278546,0.635867\F,0,2.101349,3.5
 93227,-0.7299\F,0,3.90692,0.717058,2.569554\H,0,-1.853923,-0.758388,1.
 820481\H,0,-1.493079,-1.02549,0.115353\H,0,-0.246728,-1.341743,1.33321
 6\H,0,0.059586,0.80168,0.02615\H,0,-1.44419,1.409015,0.696947\H,0,-0.9
 38543,0.214732,3.622651\H,0,-2.408884,2.009987,4.398252\H,0,-2.523273,
 1.882594,2.646742\H,0,-0.728141,3.567297,2.780723\H,0,2.313243,3.93318
 2,1.977886\H,0,2.410451,2.546607,3.024202\H,0,1.069554,0.612759,2.2521
 36\C,0,0.289786,1.581075,4.675855\H,0,0.63008,2.621026,4.666203\H,0,-0
 .262311,1.424179,5.609065\H,0,1.17153,0.932095,4.701519\H,0,0.452888,2
 .902259,0.854194\\Version=ES64L-G09RevD.01\State=1-A\HF=-836.4646752\R
 MSD=6.915e-09\Dipole=1.2840545,-1.2982685,-1.3360953\Quadrupole=-0.358
 1777,-2.7401547,3.0983324,5.1625244,-0.5098976,-2.5594134\PG=C01 [X(C1
 3H19F2N1O1)]\\@


 ACTORS ARE SO FORTUNATE.  THEY CAN CHOOSE WHETHER
 THEY WILL APPEAR IN A TRAGEDY OR IN COMEDY,
 WHETHER THEY WILL SUFFER OF MAKE MERRY,
 LAUGH OR SHED TEARS.  BUT IN REAL LIFE IT IS DIFFERENT.
 MOST MEN AND WOMEN ARE FORCED TO PERFORM
 PARTS FOR WHICH THEY HAVE NO QUALIFICATIONS.
 THE WORLD IS A STAGE, BUT THE PLAY IS BADLY CAST.

                                   -- OSCAR WILDE
 Job cpu time:       0 days  0 hours 17 minutes 46.3 seconds.
 File lengths (MBytes):  RWF=    177 Int=      0 D2E=      0 Chk=     10 Scr=      1
 Normal termination of Gaussian 09 at Mon Mar  4 11:29:41 2019.
