 Entering Gaussian System, Link 0=/usr/local/Cluster-Apps/gaussian/g09/g09
 Initial command:
 /usr/local/Cluster-Apps/gaussian/g09/l1.exe "/home/ah809/rds/hpc-work/04Mar1111AT3/Gau-146067.inp" -scrdir="/home/ah809/rds/hpc-work/04Mar1111AT3/"
 Entering Link 1 = /usr/local/Cluster-Apps/gaussian/g09/l1.exe PID=    146072.
  
 Copyright (c) 1988,1990,1992,1993,1995,1998,2003,2009,2013,
            Gaussian, Inc.  All Rights Reserved.
  
 This is part of the Gaussian(R) 09 program.  It is based on
 the Gaussian(R) 03 system (copyright 2003, Gaussian, Inc.),
 the Gaussian(R) 98 system (copyright 1998, Gaussian, Inc.),
 the Gaussian(R) 94 system (copyright 1995, Gaussian, Inc.),
 the Gaussian 92(TM) system (copyright 1992, Gaussian, Inc.),
 the Gaussian 90(TM) system (copyright 1990, Gaussian, Inc.),
 the Gaussian 88(TM) system (copyright 1988, Gaussian, Inc.),
 the Gaussian 86(TM) system (copyright 1986, Carnegie Mellon
 University), and the Gaussian 82(TM) system (copyright 1983,
 Carnegie Mellon University). Gaussian is a federally registered
 trademark of Gaussian, Inc.
  
 This software contains proprietary and confidential information,
 including trade secrets, belonging to Gaussian, Inc.
  
 This software is provided under written license and may be
 used, copied, transmitted, or stored only in accord with that
 written license.
  
 The following legend is applicable only to US Government
 contracts under FAR:
  
                    RESTRICTED RIGHTS LEGEND
  
 Use, reproduction and disclosure by the US Government is
 subject to restrictions as set forth in subparagraphs (a)
 and (c) of the Commercial Computer Software - Restricted
 Rights clause in FAR 52.227-19.
  
 Gaussian, Inc.
 340 Quinnipiac St., Bldg. 40, Wallingford CT 06492
  
  
 ---------------------------------------------------------------
 Warning -- This program may not be used in any manner that
 competes with the business of Gaussian, Inc. or will provide
 assistance to any competitor of Gaussian, Inc.  The licensee
 of this program is prohibited from giving any competitor of
 Gaussian, Inc. access to this program.  By using this program,
 the user acknowledges that Gaussian, Inc. is engaged in the
 business of creating and licensing software in the field of
 computational chemistry and represents and warrants to the
 licensee that it is not a competitor of Gaussian, Inc. and that
 it will not use this program in any manner prohibited above.
 ---------------------------------------------------------------
  

 Cite this work as:
 Gaussian 09, Revision D.01,
 M. J. Frisch, G. W. Trucks, H. B. Schlegel, G. E. Scuseria, 
 M. A. Robb, J. R. Cheeseman, G. Scalmani, V. Barone, B. Mennucci, 
 G. A. Petersson, H. Nakatsuji, M. Caricato, X. Li, H. P. Hratchian, 
 A. F. Izmaylov, J. Bloino, G. Zheng, J. L. Sonnenberg, M. Hada, 
 M. Ehara, K. Toyota, R. Fukuda, J. Hasegawa, M. Ishida, T. Nakajima, 
 Y. Honda, O. Kitao, H. Nakai, T. Vreven, J. A. Montgomery, Jr., 
 J. E. Peralta, F. Ogliaro, M. Bearpark, J. J. Heyd, E. Brothers, 
 K. N. Kudin, V. N. Staroverov, T. Keith, R. Kobayashi, J. Normand, 
 K. Raghavachari, A. Rendell, J. C. Burant, S. S. Iyengar, J. Tomasi, 
 M. Cossi, N. Rega, J. M. Millam, M. Klene, J. E. Knox, J. B. Cross, 
 V. Bakken, C. Adamo, J. Jaramillo, R. Gomperts, R. E. Stratmann, 
 O. Yazyev, A. J. Austin, R. Cammi, C. Pomelli, J. W. Ochterski, 
 R. L. Martin, K. Morokuma, V. G. Zakrzewski, G. A. Voth, 
 P. Salvador, J. J. Dannenberg, S. Dapprich, A. D. Daniels, 
 O. Farkas, J. B. Foresman, J. V. Ortiz, J. Cioslowski, 
 and D. J. Fox, Gaussian, Inc., Wallingford CT, 2013.
 
 ******************************************
 Gaussian 09:  ES64L-G09RevD.01 24-Apr-2013
                 4-Mar-2019 
 ******************************************
 %nprocshared=8
 Will use up to    8 processors via shared memory.
 %mem=6000MB
 %chk=AT3_1ginp004.chk
 -------------------------------------------------------
 # mPW1PW91/6-311g(d) nmr=giao scrf=(solvent=chloroform)
 -------------------------------------------------------
 1/38=1/1;
 2/12=2,17=6,18=5,40=1/2;
 3/5=4,6=6,7=1,11=2,16=1,25=1,30=1,70=2201,72=7,74=-7/1,2,8,3;
 4//1;
 5/5=2,38=5,53=7/2;
 8/6=1,10=90,11=11/1;
 10/13=100,45=16/2;
 6/7=2,8=2,9=2,10=2,28=1/1;
 99/9=1/99;
 ------------
 AT3_1ginp004
 ------------
 Symbolic Z-matrix:
 Charge =  0 Multiplicity = 1
 C                    -1.81561   0.32222   0.63407 
 C                    -0.99915   1.58841   0.86212 
 C                     0.11429   1.44347   1.92933 
 C                    -0.43196   0.93272   3.30489 
 C                    -1.46325   1.87216   3.95463 
 O                    -0.91324   3.14755   4.25554 
 N                     0.83902   2.72194   2.11063 
 C                     1.58637   3.19771   0.93607 
 C                     4.86473   0.65219  -0.26841 
 C                     3.78069   0.85217  -1.12149 
 C                     2.72664   1.67474  -0.72451 
 C                     2.72376   2.30941   0.51842 
 C                     3.82142   2.09793   1.35555 
 C                     4.88404   1.27902   0.97607 
 H                     5.68963   0.01261  -0.5721 
 H                     3.74743   0.37376  -2.09603 
 H                     5.7193    1.13687   1.65554 
 F                     1.69878   1.84709  -1.56765 
 F                     3.86203   2.68504   2.56059 
 H                    -2.45642   0.09382   1.49028 
 H                    -2.46932   0.45129  -0.23491 
 H                    -1.16471  -0.53653   0.4425 
 H                    -0.55212   1.84701  -0.10396 
 H                    -1.67598   2.41217   1.11798 
 H                    -0.93381  -0.02705   3.13016 
 H                    -1.83098   1.44105   4.89188 
 H                    -2.33273   2.01896   3.30723 
 H                    -0.41542   3.42355   3.45621 
 H                     0.9104    3.40664   0.10058 
 H                     2.00993   4.1781    1.19084 
 H                     0.81877   0.67955   1.57541 
 C                     0.70461   0.62524   4.29377 
 H                     1.45264  -0.02963   3.83466 
 H                     1.21059   1.52833   4.64797 
 H                     0.30915   0.10771   5.1749 
 H                     1.5237    2.6169    2.86481 
 
                          Input orientation:                          
 ---------------------------------------------------------------------
 Center     Atomic      Atomic             Coordinates (Angstroms)
 Number     Number       Type             X           Y           Z
 ---------------------------------------------------------------------
      1          6           0       -1.815607    0.322222    0.634073
      2          6           0       -0.999147    1.588405    0.862123
      3          6           0        0.114291    1.443470    1.929332
      4          6           0       -0.431962    0.932719    3.304891
      5          6           0       -1.463252    1.872162    3.954634
      6          8           0       -0.913242    3.147551    4.255545
      7          7           0        0.839020    2.721944    2.110629
      8          6           0        1.586372    3.197713    0.936074
      9          6           0        4.864733    0.652188   -0.268411
     10          6           0        3.780688    0.852167   -1.121489
     11          6           0        2.726643    1.674740   -0.724506
     12          6           0        2.723757    2.309415    0.518419
     13          6           0        3.821418    2.097934    1.355549
     14          6           0        4.884040    1.279021    0.976068
     15          1           0        5.689631    0.012611   -0.572102
     16          1           0        3.747430    0.373764   -2.096030
     17          1           0        5.719299    1.136869    1.655543
     18          9           0        1.698782    1.847093   -1.567649
     19          9           0        3.862025    2.685042    2.560589
     20          1           0       -2.456419    0.093817    1.490282
     21          1           0       -2.469318    0.451287   -0.234911
     22          1           0       -1.164709   -0.536526    0.442499
     23          1           0       -0.552120    1.847008   -0.103957
     24          1           0       -1.675976    2.412173    1.117982
     25          1           0       -0.933813   -0.027054    3.130160
     26          1           0       -1.830977    1.441049    4.891884
     27          1           0       -2.332729    2.018957    3.307227
     28          1           0       -0.415419    3.423547    3.456208
     29          1           0        0.910401    3.406638    0.100579
     30          1           0        2.009927    4.178100    1.190840
     31          1           0        0.818771    0.679546    1.575406
     32          6           0        0.704612    0.625243    4.293765
     33          1           0        1.452638   -0.029630    3.834656
     34          1           0        1.210585    1.528330    4.647972
     35          1           0        0.309154    0.107712    5.174905
     36          1           0        1.523700    2.616895    2.864805
 ---------------------------------------------------------------------
                    Distance matrix (angstroms):
                    1          2          3          4          5
     1  C    0.000000
     2  C    1.523756   0.000000
     3  C    2.580581   1.549092   0.000000
     4  C    3.069275   2.592053   1.565702   0.000000
     5  C    3.681385   3.139990   2.602742   1.538921   0.000000
     6  O    4.681005   3.735456   3.061206   2.457815   1.421153
     7  N    3.871166   2.494501   1.480742   2.498596   3.069681
     8  C    4.464652   3.046350   2.496188   3.849047   4.490991
     9  C    6.749096   6.044808   5.293666   6.395480   7.704923
    10  C    5.889088   5.227197   4.806206   6.111117   7.369282
    11  C    4.930221   4.050476   3.731049   5.173338   6.283991
    12  C    4.956626   3.807624   3.090283   4.429253   5.434134
    13  C    5.953968   4.872467   3.807931   4.821711   5.893552
    14  C    6.776260   5.892418   4.866853   5.814054   7.036461
    15  H    7.607846   7.019963   6.276061   7.304216   8.666776
    16  H    6.197056   5.723287   5.526980   6.851985   8.124465
    17  H    7.647343   6.780186   5.620060   6.371816   7.577303
    18  F    4.418568   3.639991   3.860363   5.396091   6.363544
    19  F    6.444369   5.264826   3.998187   4.697121   5.564415
    20  H    1.093573   2.179913   2.936474   2.845169   3.197174
    21  H    1.095048   2.158222   3.513319   4.112517   4.536887
    22  H    1.094448   2.172286   2.786915   3.299831   4.269192
    23  H    2.113305   1.095454   2.177432   3.531375   4.159682
    24  H    2.149781   1.096428   2.191285   2.918720   2.895420
    25  H    2.670207   2.785313   2.168629   1.097064   2.137074
    26  H    4.402382   4.117357   3.544120   2.175819   1.095225
    27  H    3.208127   2.818217   2.866651   2.189254   1.093926
    28  H    4.420768   3.230752   2.555905   2.495475   1.937312
    29  H    4.150826   2.744503   2.798599   4.264954   4.779392
    30  H    5.460082   3.983604   3.408373   4.578704   5.001888
    31  H    2.820237   2.153978   1.097787   2.149313   3.505808
    32  C    4.453838   3.950524   2.570704   1.537600   2.523777
    33  H    4.587914   4.179143   2.755260   2.181395   3.483335
    34  H    5.169518   4.383968   2.932587   2.203765   2.783584
    35  H    5.017946   4.743858   3.515105   2.174130   2.782763
    36  H    4.625220   3.381314   2.058754   2.618156   3.265614
                    6          7          8          9         10
     6  O    0.000000
     7  N    2.802183   0.000000
     8  C    4.155656   1.471214   0.000000
     9  C    7.751001   5.113716   4.321821   0.000000
    10  C    7.497617   4.753532   3.814469   1.393875   0.000000
    11  C    6.341833   3.563390   2.525310   2.413517   1.394716
    12  C    5.281699   2.501509   1.502383   2.819447   2.435154
    13  C    5.650547   3.139145   2.526045   2.411625   2.772961
    14  C    6.917720   4.442009   3.815441   1.393564   2.408181
    15  H    8.759678   6.169762   5.408900   1.087080   2.156558
    16  H    8.352141   5.627502   4.673170   2.160110   1.086143
    17  H    7.402260   5.151377   4.673949   2.160277   3.398702
    18  F    6.513329   3.877407   2.847005   3.624785   2.350164
    19  F    5.088218   3.056532   2.842618   3.625074   4.113848
    20  H    4.399246   4.260493   5.126936   7.550102   6.804259
    21  H    5.464010   4.647853   5.036138   7.336879   6.325291
    22  H    5.308011   4.173154   4.664397   6.186486   5.369495
    23  H    4.563669   2.757748   2.734816   5.549499   4.560516
    24  H    3.311623   2.721491   3.360518   6.913791   6.101150
    25  H    3.368239   3.426276   4.643756   6.755353   6.409061
    26  H    2.039440   4.062629   5.514760   8.490199   8.246103
    27  H    2.046454   3.462085   4.729819   8.152098   7.638638
    28  H    0.981296   1.968869   3.226336   7.030876   6.721207
    29  H    4.544947   2.124665   1.094823   4.833207   4.032037
    30  H    4.358826   2.082649   1.097936   4.765646   4.420892
    31  H    4.034112   2.111460   2.709081   4.446371   4.009488
    32  C    2.996823   3.029902   4.320786   6.174203   6.232071
    33  H    3.983593   3.304536   4.339978   5.379817   5.546238
    34  H    2.699355   2.828583   4.087327   6.187992   6.352110
    35  H    3.402954   4.062604   5.398804   7.118950   7.228440
    36  H    2.855598   1.024013   2.015262   4.983936   4.909053
                   11         12         13         14         15
    11  C    0.000000
    12  C    1.395594   0.000000
    13  C    2.388358   1.396557   0.000000
    14  C    2.775411   2.436796   1.394199   0.000000
    15  H    3.400764   3.906527   3.399210   2.156293   0.000000
    16  H    2.148400   3.410278   3.858968   3.398405   2.494982
    17  H    3.861338   3.411918   2.148393   1.086071   2.495444
    18  F    1.340557   2.369809   3.621269   4.115710   4.503700
    19  F    3.619620   2.367954   1.341069   2.352045   4.505084
    20  H    5.853950   5.717308   6.591349   7.453285   8.403461
    21  H    5.360462   5.566702   6.694353   7.498232   8.177688
    22  H    4.625388   4.819265   5.712749   6.337844   6.950751
    23  H    3.341413   3.366384   4.617462   5.571436   6.522548
    24  H    4.829247   4.441586   5.511490   6.658677   7.928836
    25  H    5.581531   5.065382   5.502458   6.339823   7.588038
    26  H    7.236736   6.373920   6.699756   7.775045   9.405058
    27  H    6.478472   5.781857   6.456687   7.619945   9.134160
    28  H    5.514458   4.441432   4.911294   6.231721   8.070527
    29  H    2.641774   2.160266   3.429530   4.591627   5.900251
    30  H    3.232498   2.110376   2.763281   4.087947   5.830908
    31  H    3.149600   2.720784   3.328070   4.152709   5.364874
    32  C    5.511179   4.600719   4.529505   5.376073   6.993025
    33  H    5.031294   4.252564   4.035297   4.653881   6.113380
    34  H    5.584209   4.466877   4.240395   5.199933   7.043325
    35  H    6.565278   5.688644   5.557379   6.319160   7.873161
    36  H    3.901010   2.653339   2.797621   4.080333   5.995799
                   16         17         18         19         20
    16  H    0.000000
    17  H    4.306379   0.000000
    18  F    2.578147   5.201725   0.000000
    19  F    5.199927   2.581746   4.735412   0.000000
    20  H    7.171314   8.243642   5.448909   6.912506   0.000000
    21  H    6.489817   8.431921   4.593204   7.272578   1.761886
    22  H    5.603737   7.187579   4.233428   6.335050   1.778678
    23  H    4.962352   6.552163   2.684950   5.223675   3.040005
    24  H    6.625581   7.523660   4.349818   5.729313   2.474363
    25  H    7.027642   6.913256   5.701964   5.538947   2.241013
    26  H    9.004924   8.220286   7.372221   6.276363   3.711753
    27  H    8.298806   8.266879   6.328273   6.275039   2.650048
    28  H    7.580095   6.790144   5.673993   4.432161   4.372373
    29  H    4.698101   5.540331   2.415928   3.909531   4.923569
    30  H    5.319342   4.819178   3.624868   2.745123   6.059644
    31  H    4.706377   4.922473   3.466465   3.775446   3.328242
    32  C    7.081770   5.689382   6.069388   4.149208   4.258409
    33  H    6.371957   4.930887   5.724297   3.846796   4.559831
    34  H    7.297271   5.425530   6.242907   3.567252   5.047351
    35  H    8.047299   6.535652   7.100602   5.108833   4.607063
    36  H    5.881028   4.610406   4.502210   2.359016   4.908827
                   21         22         23         24         25
    21  H    0.000000
    22  H    1.771063   0.000000
    23  H    2.375044   2.520935   0.000000
    24  H    2.510933   3.067979   1.753738   0.000000
    25  H    3.729650   2.745250   3.757301   3.247999   0.000000
    26  H    5.260336   4.914442   5.172882   3.899929   2.462499
    27  H    3.875950   4.012659   3.851793   2.319210   2.484850
    28  H    5.164997   5.032500   3.896016   2.842390   3.504524
    29  H    4.502128   4.468952   2.147847   2.951850   4.936570
    30  H    5.998795   5.732890   3.697915   4.087748   5.487248
    31  H    3.760436   2.587760   2.462229   3.071644   2.447058
    32  C    5.532901   4.435800   4.734136   4.352691   2.112795
    33  H    5.672248   4.314415   4.801406   4.809464   2.488266
    34  H    6.208402   5.252776   5.078338   4.644808   3.053099
    35  H    6.091310   4.998298   5.624351   5.070494   2.396687
    36  H    5.499299   4.799914   3.703418   3.651195   3.619427
                   26         27         28         29         30
    26  H    0.000000
    27  H    1.759793   0.000000
    28  H    2.827591   2.381417   0.000000
    29  H    5.859633   4.767194   3.608092   0.000000
    30  H    5.995141   5.291470   3.403461   1.729965   0.000000
    31  H    4.312781   3.837340   3.548265   3.101700   3.715727
    32  C    2.729926   3.484413   3.128334   5.036002   4.894362
    33  H    3.750034   4.336346   3.944273   5.103459   5.000533
    34  H    3.052574   3.820129   2.766955   4.929192   4.428543
    35  H    2.537331   3.757742   3.804430   6.082203   5.944196
    36  H    4.092129   3.927507   2.181886   2.939520   2.340072
                   31         32         33         34         35
    31  H    0.000000
    32  C    2.721297   0.000000
    33  H    2.451312   1.095072   0.000000
    34  H    3.211637   1.094092   1.774066   0.000000
    35  H    3.680095   1.095734   1.767112   1.763063   0.000000
    36  H    2.431624   2.584475   2.819531   2.112510   3.620453
                   36
    36  H    0.000000
 Stoichiometry    C13H19F2NO
 Framework group  C1[X(C13H19F2NO)]
 Deg. of freedom   102
 Full point group                 C1      NOp   1
 Largest Abelian subgroup         C1      NOp   1
 Largest concise Abelian subgroup C1      NOp   1
                         Standard orientation:                         
 ---------------------------------------------------------------------
 Center     Atomic      Atomic             Coordinates (Angstroms)
 Number     Number       Type             X           Y           Z
 ---------------------------------------------------------------------
      1          6           0        2.153927    2.744899    0.894962
      2          6           0        1.636401    1.845865   -0.221164
      3          6           0        1.300401    0.402300    0.229291
      4          6           0        2.504967   -0.303937    0.937578
      5          6           0        3.748311   -0.462529    0.044706
      6          8           0        3.492923   -1.276417   -1.091973
      7          7           0        0.833444   -0.411202   -0.916468
      8          6           0       -0.427458    0.029487   -1.533227
      9          6           0       -3.889548   -0.256147    1.037857
     10          6           0       -3.457486    0.986392    0.577089
     11          6           0       -2.338855    1.069485   -0.251761
     12          6           0       -1.628599   -0.068705   -0.636137
     13          6           0       -2.081148   -1.303375   -0.165860
     14          6           0       -3.197081   -1.406107    0.663554
     15          1           0       -4.760996   -0.327711    1.683769
     16          1           0       -3.984343    1.894231    0.856293
     17          1           0       -3.517340   -2.383950    1.011130
     18          9           0       -1.948701    2.279008   -0.678292
     19          9           0       -1.429369   -2.424716   -0.506806
     20          1           0        3.156058    2.451327    1.219696
     21          1           0        2.217664    3.779366    0.541484
     22          1           0        1.483457    2.724171    1.759748
     23          1           0        0.735045    2.328225   -0.614745
     24          1           0        2.363200    1.836151   -1.042031
     25          1           0        2.798974    0.314896    1.794407
     26          1           0        4.563098   -0.928662    0.608940
     27          1           0        4.114949    0.507137   -0.304577
     28          1           0        2.642494   -0.960525   -1.466038
     29          1           0       -0.324460    1.032216   -1.960502
     30          1           0       -0.611373   -0.615550   -2.402460
     31          1           0        0.497740    0.463614    0.975690
     32          6           0        2.101825   -1.662520    1.534188
     33          1           0        1.207468   -1.562931    2.158199
     34          1           0        1.902605   -2.416926    0.767232
     35          1           0        2.906143   -2.049820    2.169565
     36          1           0        0.680820   -1.374784   -0.605312
 ---------------------------------------------------------------------
 Rotational constants (GHZ):      0.6907361      0.3064630      0.2521210
 Standard basis: 6-311G(d) (5D, 7F)
 There are   380 symmetry adapted cartesian basis functions of A   symmetry.
 There are   363 symmetry adapted basis functions of A   symmetry.
   363 basis functions,   639 primitive gaussians,   380 cartesian basis functions
    65 alpha electrons       65 beta electrons
       nuclear repulsion energy      1303.6844112593 Hartrees.
 NAtoms=   36 NActive=   36 NUniq=   36 SFac= 1.00D+00 NAtFMM=   60 NAOKFM=F Big=F
 Integral buffers will be    131072 words long.
 Raffenetti 2 integral format.
 Two-electron integral symmetry is turned on.
 ------------------------------------------------------------------------------
 Polarizable Continuum Model (PCM)
 =================================
 Model                : PCM (using non-symmetric T matrix).
 Atomic radii         : UFF (Universal Force Field).
 Polarization charges : Total charges.
 Charge compensation  : None.
 Solution method      : On-the-fly selection.
 Cavity type          : Scaled VdW (van der Waals Surface) (Alpha=1.100).
 Cavity algorithm     : GePol (No added spheres)
                        Default sphere list used, NSphG=   36.
                        Lebedev-Laikov grids with approx.  5.0 points / Ang**2.
                        Smoothing algorithm: Karplus/York (Gamma=1.0000).
                        Polarization charges: spherical gaussians, with
                                              point-specific exponents (IZeta= 3).
                        Self-potential: point-specific (ISelfS= 7).
                        Self-field    : sphere-specific E.n sum rule (ISelfD= 2).
 Solvent              : Chloroform, Eps=   4.711300 Eps(inf)=   2.090627
 ------------------------------------------------------------------------------
 One-electron integrals computed using PRISM.
 NBasis=   363 RedAO= T EigKep=  2.43D-04  NBF=   363
 NBsUse=   363 1.00D-06 EigRej= -1.00D+00 NBFU=   363
 ExpMin= 1.03D-01 ExpMax= 1.14D+04 ExpMxC= 1.72D+03 IAcc=1 IRadAn=         1 AccDes= 0.00D+00
 Harris functional with IExCor=  908 and IRadAn=       1 diagonalized for initial guess.
 HarFok:  IExCor=  908 AccDes= 0.00D+00 IRadAn=         1 IDoV= 1 UseB2=F ITyADJ=14
 ICtDFT=  3500011 ScaDFX=  1.000000  1.000000  1.000000  1.000000
 FoFCou: FMM=F IPFlag=           0 FMFlag=      100000 FMFlg1=           0
         NFxFlg=           0 DoJE=T BraDBF=F KetDBF=T FulRan=T
         wScrn=  0.000000 ICntrl=     500 IOpCl=  0 I1Cent=   200000004 NGrid=           0
         NMat0=    1 NMatS0=      1 NMatT0=    0 NMatD0=    1 NMtDS0=    0 NMtDT0=    0
 Petite list used in FoFCou.
 Requested convergence on RMS density matrix=1.00D-08 within 128 cycles.
 Requested convergence on MAX density matrix=1.00D-06.
 Requested convergence on             energy=1.00D-06.
 No special actions if energy rises.
 Inv3:  Mode=1 IEnd=    17860800.
 Iteration    1 A*A^-1 deviation from unit magnitude is 3.66D-15 for    301.
 Iteration    1 A*A^-1 deviation from orthogonality  is 2.57D-15 for   2331    302.
 Iteration    1 A^-1*A deviation from unit magnitude is 7.66D-15 for    302.
 Iteration    1 A^-1*A deviation from orthogonality  is 6.21D-09 for   2054   2033.
 Iteration    2 A*A^-1 deviation from unit magnitude is 8.88D-15 for    302.
 Iteration    2 A*A^-1 deviation from orthogonality  is 4.20D-15 for   2331    302.
 Iteration    2 A^-1*A deviation from unit magnitude is 8.88D-16 for    155.
 Iteration    2 A^-1*A deviation from orthogonality  is 4.41D-16 for   2232    380.
 Error on total polarization charges =  0.00919
 SCF Done:  E(RmPW1PW91) =  -836.465035308     A.U. after   12 cycles
            NFock= 12  Conv=0.72D-08     -V/T= 2.0038
 DoSCS=F DFT=T ScalE2(SS,OS)=  1.000000  1.000000
 Range of M.O.s used for correlation:     1   363
 NBasis=   363 NAE=    65 NBE=    65 NFC=     0 NFV=     0
 NROrb=    363 NOA=    65 NOB=    65 NVA=   298 NVB=   298
 NEqPCM:  Using equilibrium solvation (IEInf=0, Eps=   4.7113, EpsInf=   2.0906)
          Differentiating once with respect to magnetic field using GIAOs.
          Electric field/nuclear overlap derivatives assumed to be zero.
 FoFJK:  IHMeth= 1 ICntrl=    6127 DoSepK=F KAlg= 0 I1Cent=   0 FoldK=F
 IRaf=         1 NMat=   1 IRICut=       1 DoRegI=T DoRafI=F ISym2E= 0.
          There are     3 degrees of freedom in the 1st order CPHF.  IDoFFX=0 NUNeed=     3.
      3 vectors produced by pass  0 Test12= 6.46D-13 3.33D-08 XBig12= 4.28D+01 1.66D+00.
 AX will form     3 AO Fock derivatives at one time.
      3 vectors produced by pass  1 Test12= 6.46D-13 3.33D-08 XBig12= 1.43D-01 1.52D-01.
      3 vectors produced by pass  2 Test12= 6.46D-13 3.33D-08 XBig12= 6.43D-04 5.93D-03.
      3 vectors produced by pass  3 Test12= 6.46D-13 3.33D-08 XBig12= 1.45D-06 2.14D-04.
      3 vectors produced by pass  4 Test12= 6.46D-13 3.33D-08 XBig12= 3.72D-09 1.53D-05.
      3 vectors produced by pass  5 Test12= 6.46D-13 3.33D-08 XBig12= 1.51D-11 7.88D-07.
      1 vectors produced by pass  6 Test12= 6.46D-13 3.33D-08 XBig12= 3.89D-14 4.11D-08.
 InvSVY:  IOpt=1 It=  1 EMax= 4.44D-15
 Solved reduced A of dimension    19 with     3 vectors.
 Calculating GIAO nuclear magnetic shielding tensors.
 SCF GIAO Magnetic shielding tensor (ppm):
      1  C    Isotropic =   176.6220   Anisotropy =    16.5229
   XX=   170.4148   YX=     3.4692   ZX=     2.0659
   XY=     4.1277   YY=   179.2299   ZY=     6.0792
   XZ=     1.6654   YZ=     7.8772   ZZ=   180.2211
   Eigenvalues:   168.9364   173.2923   187.6373
      2  C    Isotropic =   163.2157   Anisotropy =    20.0566
   XX=   151.0037   YX=     7.9310   ZX=    -7.6171
   XY=    10.2576   YY=   173.0402   ZY=     0.5712
   XZ=    -2.1769   YZ=    -0.6399   ZZ=   165.6032
   Eigenvalues:   146.6167   166.4437   176.5868
      3  C    Isotropic =   125.4232   Anisotropy =    15.9047
   XX=   117.9042   YX=    -2.9479   ZX=     4.4468
   XY=     5.6148   YY=   131.6756   ZY=    11.8754
   XZ=     9.2013   YZ=    -2.1509   ZZ=   126.6899
   Eigenvalues:   114.0980   126.1453   136.0263
      4  C    Isotropic =   150.9159   Anisotropy =    12.5747
   XX=   157.7907   YX=    -3.4294   ZX=    -1.7165
   XY=    -3.2190   YY=   148.3769   ZY=     4.8903
   XZ=    -2.6779   YZ=    -2.8728   ZZ=   146.5803
   Eigenvalues:   146.0603   147.3885   159.2991
      5  C    Isotropic =   122.8855   Anisotropy =    55.5522
   XX=   113.7725   YX=     6.5804   ZX=     5.4052
   XY=     5.2020   YY=   112.3132   ZY=    30.4039
   XZ=     2.6973   YZ=    24.9974   ZZ=   142.5707
   Eigenvalues:    95.3720   113.3642   159.9203
      6  O    Isotropic =   304.5148   Anisotropy =   117.6149
   XX=   364.6297   YX=   -35.5713   ZX=    21.3327
   XY=   -47.5105   YY=   256.8953   ZY=   -26.7091
   XZ=     9.7259   YZ=    -2.0530   ZZ=   292.0194
   Eigenvalues:   241.1995   289.4202   382.9248
      7  N    Isotropic =   196.2187   Anisotropy =    36.0984
   XX=   196.2294   YX=   -13.5375   ZX=    -4.6716
   XY=   -14.3147   YY=   212.1445   ZY=    -8.2115
   XZ=    -2.6080   YZ=     7.4969   ZZ=   180.2823
   Eigenvalues:   179.0142   189.3577   220.2843
      8  C    Isotropic =   149.8343   Anisotropy =    46.9474
   XX=   174.7562   YX=   -12.3722   ZX=     9.6870
   XY=    -8.6026   YY=   122.5490   ZY=    -5.7947
   XZ=    10.8149   YZ=    -5.8637   ZZ=   152.1976
   Eigenvalues:   120.0448   148.3255   181.1325
      9  C    Isotropic =    54.3358   Anisotropy =   186.2487
   XX=    28.5290   YX=     2.9874   ZX=   110.2025
   XY=     3.6068   YY=    38.2017   ZY=    13.4480
   XZ=   109.4186   YZ=    13.6855   ZZ=    96.2766
   Eigenvalues:   -52.8369    37.3426   178.5016
     10  C    Isotropic =    71.0460   Anisotropy =   148.6993
   XX=    80.8685   YX=    29.9437   ZX=    62.7816
   XY=    36.3999   YY=     7.9067   ZY=    -8.0687
   XZ=    62.1261   YZ=    -2.4737   ZZ=   124.3627
   Eigenvalues:   -12.0018    54.9608   170.1788
     11  C    Isotropic =    19.6297   Anisotropy =   101.0470
   XX=    48.0319   YX=   -25.5824   ZX=    32.4472
   XY=   -24.2319   YY=   -47.0443   ZY=    32.9394
   XZ=    33.6848   YZ=    31.4053   ZZ=    57.9016
   Eigenvalues:   -66.0498    37.9447    86.9944
     12  C    Isotropic =    67.6064   Anisotropy =   138.3710
   XX=    71.5579   YX=     3.5314   ZX=    67.6925
   XY=     3.5452   YY=    23.3154   ZY=     6.1527
   XZ=    67.1268   YZ=     4.0065   ZZ=   107.9458
   Eigenvalues:    19.9052    23.0602   159.8537
     13  C    Isotropic =    19.2031   Anisotropy =    97.3399
   XX=    32.0366   YX=    46.9572   ZX=    34.2358
   XY=    40.6576   YY=   -35.6935   ZY=   -15.6031
   XZ=    32.2585   YZ=   -17.3322   ZZ=    61.2662
   Eigenvalues:   -64.3425    37.8555    84.0964
     14  C    Isotropic =    70.2580   Anisotropy =   149.2321
   XX=    91.2431   YX=    -5.6845   ZX=    58.7027
   XY=   -13.1617   YY=    -2.6886   ZY=    29.3511
   XZ=    60.3909   YZ=    25.1455   ZZ=   122.2194
   Eigenvalues:   -13.9021    54.9301   169.7460
     15  H    Isotropic =    24.5338   Anisotropy =     3.0933
   XX=    24.6203   YX=    -0.3331   ZX=    -2.2159
   XY=    -0.2701   YY=    26.5463   ZY=    -0.4173
   XZ=    -2.1894   YZ=    -0.4140   ZZ=    22.4349
   Eigenvalues:    21.0213    25.9841    26.5960
     16  H    Isotropic =    25.2174   Anisotropy =     4.8651
   XX=    26.5095   YX=    -0.1520   ZX=    -3.1431
   XY=     0.1167   YY=    25.7852   ZY=    -0.7057
   XZ=    -3.0835   YZ=    -0.5578   ZZ=    23.3575
   Eigenvalues:    21.3758    25.8155    28.4608
     17  H    Isotropic =    25.1544   Anisotropy =     5.0376
   XX=    26.5857   YX=     0.1803   ZX=    -3.2157
   XY=    -0.1729   YY=    25.5212   ZY=    -0.0989
   XZ=    -3.0812   YZ=    -0.2752   ZZ=    23.3562
   Eigenvalues:    21.4265    25.5239    28.5128
     18  F    Isotropic =   301.2216   Anisotropy =   125.7914
   XX=   291.2739   YX=    26.8226   ZX=    71.1986
   XY=    26.0353   YY=   280.5954   ZY=    -8.2716
   XZ=    67.1559   YZ=    -0.9995   ZZ=   331.7953
   Eigenvalues:   228.2982   290.2840   385.0825
     19  F    Isotropic =   304.8695   Anisotropy =   145.8766
   XX=   288.4230   YX=     2.6136   ZX=    75.4821
   XY=   -16.3243   YY=   275.9163   ZY=    33.7565
   XZ=    69.1752   YZ=    29.1707   ZZ=   350.2692
   Eigenvalues:   228.6755   283.8125   402.1205
     20  H    Isotropic =    31.2892   Anisotropy =     8.1004
   XX=    34.3947   YX=     0.5447   ZX=     3.6785
   XY=     0.6808   YY=    31.2852   ZY=     1.6908
   XZ=     4.3249   YZ=     1.8231   ZZ=    28.1877
   Eigenvalues:    25.8992    31.2790    36.6895
     21  H    Isotropic =    31.0208   Anisotropy =    11.3561
   XX=    27.2256   YX=     2.3493   ZX=     0.7025
   XY=     1.9102   YY=    38.1924   ZY=    -0.7568
   XZ=     1.0809   YZ=     0.4368   ZZ=    27.6443
   Eigenvalues:    26.2415    28.2293    38.5915
     22  H    Isotropic =    31.6174   Anisotropy =     8.5067
   XX=    29.9998   YX=     0.2853   ZX=    -2.5650
   XY=    -0.1364   YY=    30.5180   ZY=     3.4574
   XZ=    -2.8886   YZ=     3.8351   ZZ=    34.3345
   Eigenvalues:    27.2924    30.2713    37.2886
     23  H    Isotropic =    29.9396   Anisotropy =     7.7932
   XX=    32.4314   YX=    -0.4946   ZX=     4.0904
   XY=    -0.7009   YY=    31.7197   ZY=    -0.7378
   XZ=     5.6866   YZ=     0.0262   ZZ=    25.6677
   Eigenvalues:    23.1051    31.5786    35.1351
     24  H    Isotropic =    30.6879   Anisotropy =     6.4013
   XX=    30.2105   YX=     1.3952   ZX=    -3.1143
   XY=     1.4888   YY=    29.9452   ZY=    -1.0942
   XZ=    -3.5169   YZ=    -0.5457   ZZ=    31.9082
   Eigenvalues:    27.4495    29.6588    34.9555
     25  H    Isotropic =    30.4581   Anisotropy =     6.5540
   XX=    26.8832   YX=     1.0784   ZX=     3.2714
   XY=     0.3955   YY=    32.8211   ZY=     1.7824
   XZ=     3.3533   YZ=     1.3139   ZZ=    31.6699
   Eigenvalues:    25.1897    31.3571    34.8274
     26  H    Isotropic =    28.8072   Anisotropy =     8.4990
   XX=    33.2940   YX=    -1.6816   ZX=     2.0030
   XY=    -0.6411   YY=    25.0250   ZY=     1.8682
   XZ=     3.3512   YZ=     0.2853   ZZ=    28.1026
   Eigenvalues:    24.2239    27.7245    34.4732
     27  H    Isotropic =    27.9540   Anisotropy =     5.4183
   XX=    29.2931   YX=     2.4611   ZX=    -2.0183
   XY=     2.1512   YY=    29.2217   ZY=     0.4896
   XZ=    -0.8128   YZ=     2.7098   ZZ=    25.3474
   Eigenvalues:    23.8693    28.4266    31.5663
     28  H    Isotropic =    29.2815   Anisotropy =    21.7761
   XX=    39.9192   YX=    -7.8426   ZX=     4.3872
   XY=    -7.8791   YY=    21.5949   ZY=     2.2151
   XZ=     5.6542   YZ=     1.5337   ZZ=    26.3305
   Eigenvalues:    17.2348    26.8108    43.7989
     29  H    Isotropic =    28.0612   Anisotropy =     5.8996
   XX=    28.1620   YX=    -1.9106   ZX=     0.8300
   XY=    -0.6525   YY=    28.9161   ZY=    -2.6716
   XZ=     0.1827   YZ=    -4.1384   ZZ=    27.1054
   Eigenvalues:    24.4459    27.7434    31.9943
     30  H    Isotropic =    28.1841   Anisotropy =     8.0139
   XX=    27.4925   YX=     0.8848   ZX=     2.2558
   XY=     0.3552   YY=    24.8818   ZY=     2.2636
   XZ=     0.0269   YZ=     3.7371   ZZ=    32.1782
   Eigenvalues:    23.7952    27.2305    33.5267
     31  H    Isotropic =    29.7234   Anisotropy =     5.0598
   XX=    33.0942   YX=     0.8936   ZX=    -0.7400
   XY=    -0.7605   YY=    27.3444   ZY=     0.7580
   XZ=     0.8781   YZ=     1.4847   ZZ=    28.7316
   Eigenvalues:    26.7193    29.3543    33.0966
     32  C    Isotropic =   171.4442   Anisotropy =    27.8005
   XX=   176.6884   YX=    -1.6091   ZX=    -8.0640
   XY=    -1.2248   YY=   177.3394   ZY=   -21.0768
   XZ=    -5.0747   YZ=   -16.6552   ZZ=   160.3047
   Eigenvalues:   146.7943   177.5604   189.9778
     33  H    Isotropic =    31.7239   Anisotropy =     7.8864
   XX=    33.7455   YX=    -0.2064   ZX=    -3.5898
   XY=     1.0939   YY=    29.0018   ZY=    -2.9973
   XZ=    -2.5189   YZ=    -3.4474   ZZ=    32.4243
   Eigenvalues:    26.8210    31.3691    36.9815
     34  H    Isotropic =    30.5250   Anisotropy =     5.3609
   XX=    28.3729   YX=     0.5169   ZX=     0.8367
   XY=     0.8931   YY=    33.9834   ZY=     0.7125
   XZ=     1.4194   YZ=    -0.2589   ZZ=    29.2187
   Eigenvalues:    27.5588    29.9172    34.0989
     35  H    Isotropic =    31.0757   Anisotropy =    11.5793
   XX=    31.1294   YX=    -2.2238   ZX=     3.8221
   XY=    -3.3337   YY=    30.7254   ZY=    -4.7438
   XZ=     3.8873   YZ=    -4.9092   ZZ=    31.3724
   Eigenvalues:    26.0807    28.3512    38.7953
     36  H    Isotropic =    30.0359   Anisotropy =     9.7464
   XX=    31.0577   YX=     0.9112   ZX=     4.4424
   XY=     2.2335   YY=    35.9358   ZY=    -2.6421
   XZ=     6.0324   YZ=    -2.5835   ZZ=    23.1142
   Eigenvalues:    19.9354    33.6389    36.5335
 End of Minotr F.D. properties file   721 does not exist.
 End of Minotr F.D. properties file   722 does not exist.
 End of Minotr F.D. properties file   788 does not exist.

 **********************************************************************

            Population analysis using the SCF density.

 **********************************************************************

 Orbital symmetries:
       Occupied  (A) (A) (A) (A) (A) (A) (A) (A) (A) (A) (A) (A)
                 (A) (A) (A) (A) (A) (A) (A) (A) (A) (A) (A) (A)
                 (A) (A) (A) (A) (A) (A) (A) (A) (A) (A) (A) (A)
                 (A) (A) (A) (A) (A) (A) (A) (A) (A) (A) (A) (A)
                 (A) (A) (A) (A) (A) (A) (A) (A) (A) (A) (A) (A)
                 (A) (A) (A) (A) (A)
       Virtual   (A) (A) (A) (A) (A) (A) (A) (A) (A) (A) (A) (A)
                 (A) (A) (A) (A) (A) (A) (A) (A) (A) (A) (A) (A)
                 (A) (A) (A) (A) (A) (A) (A) (A) (A) (A) (A) (A)
                 (A) (A) (A) (A) (A) (A) (A) (A) (A) (A) (A) (A)
                 (A) (A) (A) (A) (A) (A) (A) (A) (A) (A) (A) (A)
                 (A) (A) (A) (A) (A) (A) (A) (A) (A) (A) (A) (A)
                 (A) (A) (A) (A) (A) (A) (A) (A) (A) (A) (A) (A)
                 (A) (A) (A) (A) (A) (A) (A) (A) (A) (A) (A) (A)
                 (A) (A) (A) (A) (A) (A) (A) (A) (A) (A) (A) (A)
                 (A) (A) (A) (A) (A) (A) (A) (A) (A) (A) (A) (A)
                 (A) (A) (A) (A) (A) (A) (A) (A) (A) (A) (A) (A)
                 (A) (A) (A) (A) (A) (A) (A) (A) (A) (A) (A) (A)
                 (A) (A) (A) (A) (A) (A) (A) (A) (A) (A) (A) (A)
                 (A) (A) (A) (A) (A) (A) (A) (A) (A) (A) (A) (A)
                 (A) (A) (A) (A) (A) (A) (A) (A) (A) (A) (A) (A)
                 (A) (A) (A) (A) (A) (A) (A) (A) (A) (A) (A) (A)
                 (A) (A) (A) (A) (A) (A) (A) (A) (A) (A) (A) (A)
                 (A) (A) (A) (A) (A) (A) (A) (A) (A) (A) (A) (A)
                 (A) (A) (A) (A) (A) (A) (A) (A) (A) (A) (A) (A)
                 (A) (A) (A) (A) (A) (A) (A) (A) (A) (A) (A) (A)
                 (A) (A) (A) (A) (A) (A) (A) (A) (A) (A) (A) (A)
                 (A) (A) (A) (A) (A) (A) (A) (A) (A) (A) (A) (A)
                 (A) (A) (A) (A) (A) (A) (A) (A) (A) (A) (A) (A)
                 (A) (A) (A) (A) (A) (A) (A) (A) (A) (A) (A) (A)
                 (A) (A) (A) (A) (A) (A) (A) (A) (A) (A)
 The electronic state is 1-A.
 Alpha  occ. eigenvalues --  -24.81084 -24.80703 -19.18487 -14.39558 -10.34139
 Alpha  occ. eigenvalues --  -10.34040 -10.27389 -10.26838 -10.26643 -10.26523
 Alpha  occ. eigenvalues --  -10.26230 -10.25509 -10.25451 -10.23956 -10.22889
 Alpha  occ. eigenvalues --  -10.21991 -10.21935  -1.28330  -1.27972  -1.03092
 Alpha  occ. eigenvalues --   -0.95017  -0.90722  -0.83237  -0.80376  -0.78931
 Alpha  occ. eigenvalues --   -0.78509  -0.72285  -0.69524  -0.67910  -0.66309
 Alpha  occ. eigenvalues --   -0.64474  -0.62174  -0.59468  -0.57602  -0.56133
 Alpha  occ. eigenvalues --   -0.52526  -0.52297  -0.52008  -0.50893  -0.50262
 Alpha  occ. eigenvalues --   -0.49751  -0.49078  -0.47555  -0.46877  -0.46268
 Alpha  occ. eigenvalues --   -0.45408  -0.44220  -0.42450  -0.42016  -0.41804
 Alpha  occ. eigenvalues --   -0.40480  -0.39564  -0.38620  -0.38361  -0.38298
 Alpha  occ. eigenvalues --   -0.37697  -0.37371  -0.35748  -0.34328  -0.33176
 Alpha  occ. eigenvalues --   -0.32154  -0.27968  -0.27125  -0.27049  -0.25255
 Alpha virt. eigenvalues --   -0.02404  -0.01252   0.05068   0.05574   0.06512
 Alpha virt. eigenvalues --    0.07246   0.08328   0.10006   0.10523   0.10634
 Alpha virt. eigenvalues --    0.11433   0.11573   0.12335   0.12952   0.13183
 Alpha virt. eigenvalues --    0.13873   0.14509   0.14728   0.15580   0.15926
 Alpha virt. eigenvalues --    0.16887   0.17409   0.18824   0.19476   0.19963
 Alpha virt. eigenvalues --    0.21272   0.22988   0.23505   0.24056   0.24797
 Alpha virt. eigenvalues --    0.24924   0.26273   0.26697   0.26902   0.29268
 Alpha virt. eigenvalues --    0.31410   0.32540   0.32781   0.34635   0.35043
 Alpha virt. eigenvalues --    0.35749   0.36486   0.37168   0.38133   0.39186
 Alpha virt. eigenvalues --    0.40072   0.40298   0.40858   0.41536   0.42206
 Alpha virt. eigenvalues --    0.43231   0.44482   0.45481   0.45754   0.46647
 Alpha virt. eigenvalues --    0.47020   0.49811   0.50327   0.50572   0.50965
 Alpha virt. eigenvalues --    0.51323   0.53407   0.53779   0.54013   0.54636
 Alpha virt. eigenvalues --    0.55576   0.56818   0.58320   0.58519   0.59425
 Alpha virt. eigenvalues --    0.59643   0.59794   0.60658   0.61657   0.62189
 Alpha virt. eigenvalues --    0.62431   0.62671   0.63294   0.64184   0.64507
 Alpha virt. eigenvalues --    0.64925   0.65991   0.66165   0.66913   0.67339
 Alpha virt. eigenvalues --    0.68171   0.68888   0.70384   0.71042   0.71838
 Alpha virt. eigenvalues --    0.72466   0.73905   0.74880   0.76258   0.78586
 Alpha virt. eigenvalues --    0.79157   0.80366   0.81423   0.82750   0.84665
 Alpha virt. eigenvalues --    0.87392   0.89738   0.91672   0.92101   0.94955
 Alpha virt. eigenvalues --    0.95566   0.96515   0.97569   0.98835   1.00419
 Alpha virt. eigenvalues --    1.03298   1.04265   1.05605   1.06265   1.07083
 Alpha virt. eigenvalues --    1.08918   1.09399   1.11119   1.12495   1.14586
 Alpha virt. eigenvalues --    1.16226   1.18778   1.19491   1.20759   1.23585
 Alpha virt. eigenvalues --    1.25543   1.26342   1.28022   1.29565   1.32701
 Alpha virt. eigenvalues --    1.34715   1.35856   1.36993   1.39308   1.40191
 Alpha virt. eigenvalues --    1.43387   1.45757   1.47724   1.49209   1.49889
 Alpha virt. eigenvalues --    1.51763   1.52378   1.54193   1.54324   1.55411
 Alpha virt. eigenvalues --    1.55816   1.57484   1.57932   1.60294   1.61022
 Alpha virt. eigenvalues --    1.61465   1.63156   1.64777   1.65507   1.66692
 Alpha virt. eigenvalues --    1.66918   1.68623   1.70630   1.72574   1.73915
 Alpha virt. eigenvalues --    1.74973   1.77075   1.78205   1.80490   1.81949
 Alpha virt. eigenvalues --    1.83151   1.83701   1.84395   1.87362   1.88100
 Alpha virt. eigenvalues --    1.89308   1.90435   1.91244   1.94013   1.95501
 Alpha virt. eigenvalues --    1.96880   1.98872   1.99392   2.00027   2.03266
 Alpha virt. eigenvalues --    2.10071   2.12625   2.15530   2.17006   2.19160
 Alpha virt. eigenvalues --    2.20440   2.23227   2.26587   2.26936   2.27802
 Alpha virt. eigenvalues --    2.30781   2.32751   2.34758   2.36377   2.40555
 Alpha virt. eigenvalues --    2.41044   2.41685   2.44709   2.45284   2.47134
 Alpha virt. eigenvalues --    2.49391   2.50031   2.51325   2.52937   2.55589
 Alpha virt. eigenvalues --    2.56071   2.58605   2.60391   2.62896   2.65739
 Alpha virt. eigenvalues --    2.66324   2.68981   2.69133   2.72602   2.76235
 Alpha virt. eigenvalues --    2.76820   2.82725   2.84239   2.86273   2.87204
 Alpha virt. eigenvalues --    2.90701   2.94517   2.99785   3.01588   3.05899
 Alpha virt. eigenvalues --    3.06995   3.07457   3.09271   3.10267   3.12586
 Alpha virt. eigenvalues --    3.14547   3.17018   3.18243   3.20421   3.22407
 Alpha virt. eigenvalues --    3.23985   3.26777   3.27646   3.28421   3.29646
 Alpha virt. eigenvalues --    3.30558   3.32666   3.36113   3.38659   3.43467
 Alpha virt. eigenvalues --    3.44726   3.47775   3.51442   3.57959   3.64440
 Alpha virt. eigenvalues --    3.76263   3.79258   3.79449   3.79733   3.80496
 Alpha virt. eigenvalues --    3.86652   3.87225   3.94980   3.96458   3.99332
 Alpha virt. eigenvalues --    3.99922   4.04143   4.06892   4.10995   4.12404
 Alpha virt. eigenvalues --    4.15986   4.18959   4.46790   4.75473   4.77039
 Alpha virt. eigenvalues --    4.79179   4.80525   4.95712   5.07753   5.43797
 Alpha virt. eigenvalues --    6.13769   6.15375   6.31356   6.32822   6.56883
 Alpha virt. eigenvalues --    6.59604  23.29883  23.47227  23.58186  23.69484
 Alpha virt. eigenvalues --   23.74547  23.78802  23.80195  23.84634  23.86623
 Alpha virt. eigenvalues --   23.90104  24.08551  24.10773  24.19170  35.57075
 Alpha virt. eigenvalues --   49.99345  66.88900  66.89449
          Condensed to atoms (all electrons):
               1          2          3          4          5          6
     1  C    5.351720   0.299305  -0.061783  -0.006108  -0.002154   0.000101
     2  C    0.299305   5.362334   0.310132  -0.061428  -0.003692  -0.002011
     3  C   -0.061783   0.310132   5.377671   0.309082  -0.071811   0.002951
     4  C   -0.006108  -0.061428   0.309082   5.475391   0.287862  -0.060338
     5  C   -0.002154  -0.003692  -0.071811   0.287862   5.119889   0.244421
     6  O    0.000101  -0.002011   0.002951  -0.060338   0.244421   8.244595
     7  N    0.004648  -0.062796   0.221275  -0.053487   0.003122  -0.023853
     8  C    0.000115  -0.005802  -0.086234   0.009930  -0.000330   0.000030
     9  C    0.000000   0.000001   0.000018   0.000003   0.000000   0.000000
    10  C   -0.000001  -0.000062  -0.000090  -0.000005   0.000000   0.000000
    11  C    0.000027   0.000650  -0.000660   0.000146  -0.000003   0.000001
    12  C    0.000175  -0.002002  -0.013908  -0.000893   0.000026   0.000006
    13  C    0.000001   0.000136   0.000539  -0.000380  -0.000004  -0.000017
    14  C    0.000000   0.000018  -0.000025  -0.000018   0.000000   0.000000
    15  H    0.000000   0.000000  -0.000001   0.000000   0.000000   0.000000
    16  H    0.000001   0.000001   0.000002   0.000000   0.000000   0.000000
    17  H    0.000000   0.000000   0.000006  -0.000002   0.000000   0.000000
    18  F   -0.000114  -0.002591   0.000331   0.000001   0.000000   0.000000
    19  F    0.000000  -0.000004  -0.000207  -0.000001   0.000002   0.000000
    20  H    0.387523  -0.038508  -0.009486   0.002973   0.000518  -0.000123
    21  H    0.392872  -0.035642   0.007492   0.000174  -0.000102   0.000005
    22  H    0.385987  -0.044630  -0.002423  -0.002210   0.000395  -0.000009
    23  H   -0.044656   0.396296  -0.041550   0.007596  -0.000264  -0.000053
    24  H   -0.039097   0.384771  -0.035882  -0.012729   0.005025   0.001379
    25  H    0.001559  -0.008864  -0.045291   0.390379  -0.034488   0.004626
    26  H    0.000130  -0.000533   0.009886  -0.034899   0.388404  -0.030582
    27  H   -0.001583   0.006773  -0.018158  -0.042643   0.396856  -0.038478
    28  H    0.000233  -0.003387   0.002309  -0.006352  -0.052853   0.251345
    29  H    0.000013   0.002636  -0.009177  -0.000203   0.000019   0.000014
    30  H    0.000003   0.000187   0.007441  -0.000216   0.000005   0.000094
    31  H    0.001521  -0.056787   0.403675  -0.050574   0.008088  -0.000619
    32  C   -0.000329   0.008566  -0.092004   0.301560  -0.091666   0.000289
    33  H    0.000017   0.000125  -0.002298  -0.042692   0.007842  -0.000078
    34  H   -0.000035  -0.000189  -0.013455  -0.034390  -0.010885   0.016531
    35  H   -0.000001  -0.000197   0.008248  -0.032894  -0.004027  -0.000743
    36  H   -0.000401   0.008095  -0.054416  -0.010342   0.000259   0.006115
               7          8          9         10         11         12
     1  C    0.004648   0.000115   0.000000  -0.000001   0.000027   0.000175
     2  C   -0.062796  -0.005802   0.000001  -0.000062   0.000650  -0.002002
     3  C    0.221275  -0.086234   0.000018  -0.000090  -0.000660  -0.013908
     4  C   -0.053487   0.009930   0.000003  -0.000005   0.000146  -0.000893
     5  C    0.003122  -0.000330   0.000000   0.000000  -0.000003   0.000026
     6  O   -0.023853   0.000030   0.000000   0.000000   0.000001   0.000006
     7  N    7.004075   0.303338  -0.000041  -0.000060   0.003222  -0.077810
     8  C    0.303338   5.320788  -0.001169   0.008714  -0.063006   0.217178
     9  C   -0.000041  -0.001169   5.053008   0.438458  -0.004260  -0.056953
    10  C   -0.000060   0.008714   0.438458   5.188358   0.474728  -0.038338
    11  C    0.003222  -0.063006  -0.004260   0.474728   4.718619   0.285691
    12  C   -0.077810   0.217178  -0.056953  -0.038338   0.285691   5.924306
    13  C   -0.000606  -0.077448  -0.007616  -0.058013   0.047450   0.239207
    14  C    0.000542   0.007709   0.438608  -0.037437  -0.063698  -0.034163
    15  H   -0.000001   0.000027   0.405800  -0.041114   0.006265  -0.002157
    16  H    0.000012  -0.000254  -0.041330   0.391445  -0.048405   0.012373
    17  H    0.000042  -0.000280  -0.040649   0.007102  -0.001338   0.012608
    18  F   -0.000002  -0.004881   0.005440  -0.053761   0.309722  -0.075176
    19  F   -0.005038   0.007282   0.005401  -0.000564   0.004482  -0.086288
    20  H   -0.000029   0.000002   0.000000   0.000000   0.000001   0.000000
    21  H   -0.000159   0.000002   0.000000   0.000001   0.000006  -0.000008
    22  H    0.000013  -0.000067  -0.000001   0.000009   0.000046   0.000087
    23  H   -0.004272   0.004335  -0.000033   0.000129  -0.001436  -0.004591
    24  H    0.003547  -0.001162   0.000000  -0.000001  -0.000071   0.000848
    25  H    0.004668  -0.000218   0.000000   0.000000   0.000021   0.000063
    26  H   -0.000569   0.000029   0.000000   0.000000   0.000000   0.000000
    27  H    0.000225   0.000015   0.000000   0.000000   0.000002  -0.000012
    28  H    0.055830  -0.000651   0.000000   0.000000  -0.000053   0.001285
    29  H   -0.026180   0.407584  -0.000227   0.001210  -0.009750  -0.056620
    30  H   -0.033994   0.412358  -0.000054  -0.000131   0.003591  -0.059569
    31  H   -0.046493  -0.012324   0.000048  -0.000135  -0.001761   0.012999
    32  C   -0.000620  -0.000745  -0.000004   0.000002   0.000003   0.000202
    33  H   -0.000546  -0.000197   0.000001  -0.000003  -0.000040   0.000044
    34  H    0.002488   0.000035   0.000002   0.000000   0.000024   0.000359
    35  H    0.000023   0.000018   0.000000   0.000000   0.000000  -0.000005
    36  H    0.328325  -0.045389  -0.000141   0.000108   0.000109  -0.014259
              13         14         15         16         17         18
     1  C    0.000001   0.000000   0.000000   0.000001   0.000000  -0.000114
     2  C    0.000136   0.000018   0.000000   0.000001   0.000000  -0.002591
     3  C    0.000539  -0.000025  -0.000001   0.000002   0.000006   0.000331
     4  C   -0.000380  -0.000018   0.000000   0.000000  -0.000002   0.000001
     5  C   -0.000004   0.000000   0.000000   0.000000   0.000000   0.000000
     6  O   -0.000017   0.000000   0.000000   0.000000   0.000000   0.000000
     7  N   -0.000606   0.000542  -0.000001   0.000012   0.000042  -0.000002
     8  C   -0.077448   0.007709   0.000027  -0.000254  -0.000280  -0.004881
     9  C   -0.007616   0.438608   0.405800  -0.041330  -0.040649   0.005440
    10  C   -0.058013  -0.037437  -0.041114   0.391445   0.007102  -0.053761
    11  C    0.047450  -0.063698   0.006265  -0.048405  -0.001338   0.309722
    12  C    0.239207  -0.034163  -0.002157   0.012373   0.012608  -0.075176
    13  C    4.764772   0.483044   0.006663  -0.001511  -0.051651   0.004909
    14  C    0.483044   5.177305  -0.042027   0.007300   0.393294  -0.000465
    15  H    0.006663  -0.042027   0.445191  -0.006638  -0.006755  -0.000073
    16  H   -0.001511   0.007300  -0.006638   0.449819  -0.000168   0.001377
    17  H   -0.051651   0.393294  -0.006755  -0.000168   0.449021   0.000004
    18  F    0.004909  -0.000465  -0.000073   0.001377   0.000004   9.028277
    19  F    0.312048  -0.052909  -0.000071   0.000004   0.001553  -0.000001
    20  H    0.000000   0.000000   0.000000   0.000000   0.000000  -0.000003
    21  H    0.000000   0.000000   0.000000   0.000000   0.000000  -0.000032
    22  H    0.000002   0.000000   0.000000   0.000001   0.000000   0.000080
    23  H   -0.000059   0.000025   0.000001  -0.000001   0.000000   0.011226
    24  H    0.000004  -0.000001   0.000000   0.000000   0.000000   0.000007
    25  H   -0.000021  -0.000002   0.000000   0.000000   0.000000   0.000000
    26  H    0.000000   0.000000   0.000000   0.000000   0.000000   0.000000
    27  H   -0.000001   0.000000   0.000000   0.000000   0.000000   0.000000
    28  H    0.000024  -0.000002   0.000000   0.000000   0.000000  -0.000001
    29  H    0.006004   0.000136   0.000002  -0.000039   0.000010   0.008397
    30  H   -0.009195   0.000278   0.000000   0.000016  -0.000009   0.000183
    31  H    0.001289  -0.000558   0.000004  -0.000032  -0.000023   0.000266
    32  C    0.000326  -0.000008   0.000000   0.000000   0.000008   0.000000
    33  H    0.000431   0.000120   0.000000   0.000000   0.000010   0.000000
    34  H   -0.000389  -0.000068   0.000000   0.000000   0.000002   0.000000
    35  H    0.000008   0.000001   0.000000   0.000000   0.000000   0.000000
    36  H    0.000214   0.000846   0.000003  -0.000001   0.000003  -0.000028
              19         20         21         22         23         24
     1  C    0.000000   0.387523   0.392872   0.385987  -0.044656  -0.039097
     2  C   -0.000004  -0.038508  -0.035642  -0.044630   0.396296   0.384771
     3  C   -0.000207  -0.009486   0.007492  -0.002423  -0.041550  -0.035882
     4  C   -0.000001   0.002973   0.000174  -0.002210   0.007596  -0.012729
     5  C    0.000002   0.000518  -0.000102   0.000395  -0.000264   0.005025
     6  O    0.000000  -0.000123   0.000005  -0.000009  -0.000053   0.001379
     7  N   -0.005038  -0.000029  -0.000159   0.000013  -0.004272   0.003547
     8  C    0.007282   0.000002   0.000002  -0.000067   0.004335  -0.001162
     9  C    0.005401   0.000000   0.000000  -0.000001  -0.000033   0.000000
    10  C   -0.000564   0.000000   0.000001   0.000009   0.000129  -0.000001
    11  C    0.004482   0.000001   0.000006   0.000046  -0.001436  -0.000071
    12  C   -0.086288   0.000000  -0.000008   0.000087  -0.004591   0.000848
    13  C    0.312048   0.000000   0.000000   0.000002  -0.000059   0.000004
    14  C   -0.052909   0.000000   0.000000   0.000000   0.000025  -0.000001
    15  H   -0.000071   0.000000   0.000000   0.000000   0.000001   0.000000
    16  H    0.000004   0.000000   0.000000   0.000001  -0.000001   0.000000
    17  H    0.001553   0.000000   0.000000   0.000000   0.000000   0.000000
    18  F   -0.000001  -0.000003  -0.000032   0.000080   0.011226   0.000007
    19  F    9.030205   0.000000   0.000000   0.000000  -0.000002   0.000001
    20  H    0.000000   0.481551  -0.028925  -0.028164   0.007368  -0.007659
    21  H    0.000000  -0.028925   0.471458  -0.026532  -0.007249  -0.003501
    22  H    0.000000  -0.028164  -0.026532   0.482928  -0.003827   0.007465
    23  H   -0.000002   0.007368  -0.007249  -0.003827   0.484538  -0.032168
    24  H    0.000001  -0.007659  -0.003501   0.007465  -0.032168   0.491251
    25  H   -0.000002   0.000071   0.000405   0.000013  -0.000026  -0.000066
    26  H    0.000000  -0.000289   0.000000   0.000008   0.000005   0.000339
    27  H    0.000000   0.004146  -0.000040  -0.000098   0.000449  -0.004287
    28  H   -0.000090   0.000009  -0.000019   0.000018  -0.000139   0.003095
    29  H    0.000171  -0.000032   0.000028   0.000020  -0.001010   0.000427
    30  H    0.003026   0.000002  -0.000001  -0.000003   0.000265  -0.000200
    31  H    0.000136  -0.000239  -0.000410   0.005196  -0.006893   0.008082
    32  C   -0.000114   0.000585   0.000009  -0.000243  -0.000188  -0.000552
    33  H    0.000148   0.000000  -0.000003   0.000007  -0.000025   0.000000
    34  H    0.000289   0.000019   0.000002  -0.000001   0.000015  -0.000067
    35  H   -0.000005   0.000012  -0.000001   0.000008   0.000015   0.000001
    36  H    0.015171  -0.000013   0.000029  -0.000022  -0.000412  -0.000281
              25         26         27         28         29         30
     1  C    0.001559   0.000130  -0.001583   0.000233   0.000013   0.000003
     2  C   -0.008864  -0.000533   0.006773  -0.003387   0.002636   0.000187
     3  C   -0.045291   0.009886  -0.018158   0.002309  -0.009177   0.007441
     4  C    0.390379  -0.034899  -0.042643  -0.006352  -0.000203  -0.000216
     5  C   -0.034488   0.388404   0.396856  -0.052853   0.000019   0.000005
     6  O    0.004626  -0.030582  -0.038478   0.251345   0.000014   0.000094
     7  N    0.004668  -0.000569   0.000225   0.055830  -0.026180  -0.033994
     8  C   -0.000218   0.000029   0.000015  -0.000651   0.407584   0.412358
     9  C    0.000000   0.000000   0.000000   0.000000  -0.000227  -0.000054
    10  C    0.000000   0.000000   0.000000   0.000000   0.001210  -0.000131
    11  C    0.000021   0.000000   0.000002  -0.000053  -0.009750   0.003591
    12  C    0.000063   0.000000  -0.000012   0.001285  -0.056620  -0.059569
    13  C   -0.000021   0.000000  -0.000001   0.000024   0.006004  -0.009195
    14  C   -0.000002   0.000000   0.000000  -0.000002   0.000136   0.000278
    15  H    0.000000   0.000000   0.000000   0.000000   0.000002   0.000000
    16  H    0.000000   0.000000   0.000000   0.000000  -0.000039   0.000016
    17  H    0.000000   0.000000   0.000000   0.000000   0.000010  -0.000009
    18  F    0.000000   0.000000   0.000000  -0.000001   0.008397   0.000183
    19  F   -0.000002   0.000000   0.000000  -0.000090   0.000171   0.003026
    20  H    0.000071  -0.000289   0.004146   0.000009  -0.000032   0.000002
    21  H    0.000405   0.000000  -0.000040  -0.000019   0.000028  -0.000001
    22  H    0.000013   0.000008  -0.000098   0.000018   0.000020  -0.000003
    23  H   -0.000026   0.000005   0.000449  -0.000139  -0.001010   0.000265
    24  H   -0.000066   0.000339  -0.004287   0.003095   0.000427  -0.000200
    25  H    0.491425  -0.002753  -0.000305  -0.001115  -0.000026   0.000018
    26  H   -0.002753   0.497613  -0.043091   0.005870   0.000002   0.000000
    27  H   -0.000305  -0.043091   0.521168  -0.004933  -0.000046   0.000003
    28  H   -0.001115   0.005870  -0.004933   0.353203  -0.000404  -0.000566
    29  H   -0.000026   0.000002  -0.000046  -0.000404   0.423856  -0.024672
    30  H    0.000018   0.000000   0.000003  -0.000566  -0.024672   0.444646
    31  H   -0.004108  -0.000224  -0.000532   0.002600  -0.000417  -0.000342
    32  C   -0.038006  -0.010750   0.009380  -0.000259  -0.000028   0.000045
    33  H   -0.003960  -0.000048  -0.000280   0.000063   0.000000   0.000008
    34  H    0.007876  -0.002316   0.001084  -0.001779  -0.000052   0.000041
    35  H   -0.006520   0.004661  -0.000237  -0.000141   0.000003  -0.000002
    36  H    0.000676  -0.000137   0.000320  -0.006795   0.006076  -0.007625
              31         32         33         34         35         36
     1  C    0.001521  -0.000329   0.000017  -0.000035  -0.000001  -0.000401
     2  C   -0.056787   0.008566   0.000125  -0.000189  -0.000197   0.008095
     3  C    0.403675  -0.092004  -0.002298  -0.013455   0.008248  -0.054416
     4  C   -0.050574   0.301560  -0.042692  -0.034390  -0.032894  -0.010342
     5  C    0.008088  -0.091666   0.007842  -0.010885  -0.004027   0.000259
     6  O   -0.000619   0.000289  -0.000078   0.016531  -0.000743   0.006115
     7  N   -0.046493  -0.000620  -0.000546   0.002488   0.000023   0.328325
     8  C   -0.012324  -0.000745  -0.000197   0.000035   0.000018  -0.045389
     9  C    0.000048  -0.000004   0.000001   0.000002   0.000000  -0.000141
    10  C   -0.000135   0.000002  -0.000003   0.000000   0.000000   0.000108
    11  C   -0.001761   0.000003  -0.000040   0.000024   0.000000   0.000109
    12  C    0.012999   0.000202   0.000044   0.000359  -0.000005  -0.014259
    13  C    0.001289   0.000326   0.000431  -0.000389   0.000008   0.000214
    14  C   -0.000558  -0.000008   0.000120  -0.000068   0.000001   0.000846
    15  H    0.000004   0.000000   0.000000   0.000000   0.000000   0.000003
    16  H   -0.000032   0.000000   0.000000   0.000000   0.000000  -0.000001
    17  H   -0.000023   0.000008   0.000010   0.000002   0.000000   0.000003
    18  F    0.000266   0.000000   0.000000   0.000000   0.000000  -0.000028
    19  F    0.000136  -0.000114   0.000148   0.000289  -0.000005   0.015171
    20  H   -0.000239   0.000585   0.000000   0.000019   0.000012  -0.000013
    21  H   -0.000410   0.000009  -0.000003   0.000002  -0.000001   0.000029
    22  H    0.005196  -0.000243   0.000007  -0.000001   0.000008  -0.000022
    23  H   -0.006893  -0.000188  -0.000025   0.000015   0.000015  -0.000412
    24  H    0.008082  -0.000552   0.000000  -0.000067   0.000001  -0.000281
    25  H   -0.004108  -0.038006  -0.003960   0.007876  -0.006520   0.000676
    26  H   -0.000224  -0.010750  -0.000048  -0.002316   0.004661  -0.000137
    27  H   -0.000532   0.009380  -0.000280   0.001084  -0.000237   0.000320
    28  H    0.002600  -0.000259   0.000063  -0.001779  -0.000141  -0.006795
    29  H   -0.000417  -0.000028   0.000000  -0.000052   0.000003   0.006076
    30  H   -0.000342   0.000045   0.000008   0.000041  -0.000002  -0.007625
    31  H    0.517654  -0.009893   0.005120  -0.000647  -0.000324  -0.003963
    32  C   -0.009893   5.429825   0.387407   0.382245   0.387272   0.005224
    33  H    0.005120   0.387407   0.472368  -0.027316  -0.025169  -0.000967
    34  H   -0.000647   0.382245  -0.027316   0.474125  -0.026624   0.003283
    35  H   -0.000324   0.387272  -0.025169  -0.026624   0.463523   0.000098
    36  H   -0.003963   0.005224  -0.000967   0.003283   0.000098   0.419873
 Mulliken charges:
               1
     1  C   -0.669688
     2  C   -0.450904
     3  C   -0.102203
     4  C   -0.332291
     5  C   -0.190451
     6  O   -0.615596
     7  N   -0.598841
     8  C   -0.399334
     9  C   -0.194312
    10  C   -0.280549
    11  C    0.339673
    12  C   -0.184704
    13  C    0.339840
    14  C   -0.277845
    15  H    0.234880
    16  H    0.236031
    17  H    0.237213
    18  F   -0.233094
    19  F   -0.234623
    20  H    0.228688
    21  H    0.230143
    22  H    0.225948
    23  H    0.236592
    24  H    0.231480
    25  H    0.243969
    26  H    0.219244
    27  H    0.214303
    28  H    0.403651
    29  H    0.272275
    30  H    0.264367
    31  H    0.230617
    32  C   -0.667540
    33  H    0.229908
    34  H    0.229792
    35  H    0.232999
    36  H    0.350364
 Sum of Mulliken charges =   0.00000
 Mulliken charges with hydrogens summed into heavy atoms:
               1
     1  C    0.015090
     2  C    0.017168
     3  C    0.128414
     4  C   -0.088322
     5  C    0.243096
     6  O   -0.211945
     7  N   -0.248478
     8  C    0.137308
     9  C    0.040568
    10  C   -0.044518
    11  C    0.339673
    12  C   -0.184704
    13  C    0.339840
    14  C   -0.040632
    18  F   -0.233094
    19  F   -0.234623
    32  C    0.025159
 Electronic spatial extent (au):  <R**2>=           4547.9411
 Charge=              0.0000 electrons
 Dipole moment (field-independent basis, Debye):
    X=             -4.0907    Y=              1.5351    Z=              2.5579  Tot=              5.0629
 Quadrupole moment (field-independent basis, Debye-Ang):
   XX=           -102.2223   YY=           -105.1459   ZZ=           -101.3839
   XY=              8.5012   XZ=              2.4276   YZ=             -3.2923
 Traceless Quadrupole moment (field-independent basis, Debye-Ang):
   XX=              0.6951   YY=             -2.2285   ZZ=              1.5334
   XY=              8.5012   XZ=              2.4276   YZ=             -3.2923
 Octapole moment (field-independent basis, Debye-Ang**2):
  XXX=            -90.2345  YYY=             -0.9922  ZZZ=            -17.6255  XYY=            -16.9685
  XXY=             23.1145  XXZ=             57.3959  XZZ=            -13.1624  YZZ=             -1.1812
  YYZ=              3.4982  XYZ=            -11.4579
 Hexadecapole moment (field-independent basis, Debye-Ang**3):
 XXXX=          -3826.9467 YYYY=          -1407.4875 ZZZZ=           -622.4177 XXXY=             73.5897
 XXXZ=            -13.1051 YYYX=             11.3301 YYYZ=            -11.7647 ZZZX=             10.5756
 ZZZY=              0.2751 XXYY=           -888.4167 XXZZ=           -753.7012 YYZZ=           -340.6747
 XXYZ=            -58.6260 YYXZ=            -11.8341 ZZXY=              4.4231
 N-N= 1.303684411259D+03 E-N=-4.564859494721D+03  KE= 8.333115433051D+02
 1\1\GINC-CPU-E-278\SP\RmPW1PW91\6-311G(d)\C13H19F2N1O1\AH809\04-Mar-20
 19\0\\# mPW1PW91/6-311g(d) nmr=giao scrf=(solvent=chloroform)\\AT3_1gi
 np004\\0,1\C,0,-1.815607,0.322222,0.634073\C,0,-0.999147,1.588405,0.86
 2123\C,0,0.114291,1.44347,1.929332\C,0,-0.431962,0.932719,3.304891\C,0
 ,-1.463252,1.872162,3.954634\O,0,-0.913242,3.147551,4.255545\N,0,0.839
 02,2.721944,2.110629\C,0,1.586372,3.197713,0.936074\C,0,4.864733,0.652
 188,-0.268411\C,0,3.780688,0.852167,-1.121489\C,0,2.726643,1.67474,-0.
 724506\C,0,2.723757,2.309415,0.518419\C,0,3.821418,2.097934,1.355549\C
 ,0,4.88404,1.279021,0.976068\H,0,5.689631,0.012611,-0.572102\H,0,3.747
 43,0.373764,-2.09603\H,0,5.719299,1.136869,1.655543\F,0,1.698782,1.847
 093,-1.567649\F,0,3.862025,2.685042,2.560589\H,0,-2.456419,0.093817,1.
 490282\H,0,-2.469318,0.451287,-0.234911\H,0,-1.164709,-0.536526,0.4424
 99\H,0,-0.55212,1.847008,-0.103957\H,0,-1.675976,2.412173,1.117982\H,0
 ,-0.933813,-0.027054,3.13016\H,0,-1.830977,1.441049,4.891884\H,0,-2.33
 2729,2.018957,3.307227\H,0,-0.415419,3.423547,3.456208\H,0,0.910401,3.
 406638,0.100579\H,0,2.009927,4.1781,1.19084\H,0,0.818771,0.679546,1.57
 5406\C,0,0.704612,0.625243,4.293765\H,0,1.452638,-0.02963,3.834656\H,0
 ,1.210585,1.52833,4.647972\H,0,0.309154,0.107712,5.174905\H,0,1.5237,2
 .616895,2.864805\\Version=ES64L-G09RevD.01\State=1-A\HF=-836.4650353\R
 MSD=7.222e-09\Dipole=1.1021275,-1.1540937,-1.1920779\Quadrupole=5.5968
 608,-0.160031,-5.4368298,0.9125268,1.6265439,-4.1736629\PG=C01 [X(C13H
 19F2N1O1)]\\@


      SCIENCE SANS CONSCIENCE N'EST QUE RUINE DE L'AME.

                                                  -- RABELAIS
 Job cpu time:       0 days  0 hours 17 minutes 54.3 seconds.
 File lengths (MBytes):  RWF=    177 Int=      0 D2E=      0 Chk=     10 Scr=      1
 Normal termination of Gaussian 09 at Mon Mar  4 11:29:49 2019.
